<event>
 8    1  0.9478272E-006  0.7237129E+03  0.7546771E-02  0.9677518E-01
         21   -1    0    0  504  503  0.00000000000E+00  0.00000000000E+00  0.42038883271E+03  0.42038883271E+03  0.00000000000E+00 0.  1.
         21   -1    0    0  503  504 -0.00000000000E+00 -0.00000000000E+00 -0.31147373346E+03  0.31147373346E+03  0.00000000000E+00 0.  1.
         25    2    1    2    0    0  0.27873591855E+03  0.41970405387E+01 -0.14166105464E+03  0.33675441724E+03  0.12499742274E+03 0.  0.
         25    2    1    2    0    0 -0.27873591855E+03 -0.41970405387E+01  0.25057615389E+03  0.39510814893E+03  0.12494283899E+03 0.  0.
          5    1    3    3  501    0  0.41049927564E+02  0.45286058035E+02 -0.10651506147E+02  0.62221123331E+02  0.47000000000E+01 0.  1.
         -5    1    3    3    0  501  0.23768599099E+03 -0.41089017496E+02 -0.13100954849E+03  0.27453329391E+03  0.47000000000E+01 0.  1.
          5    1    4    4  502    0 -0.51338599914E+02  0.49000059875E+02  0.46899925180E+02  0.85195954662E+02  0.47000000000E+01 0.  1.
         -5    1    4    4    0  502 -0.22739731864E+03 -0.53197100413E+02  0.20367622871E+03  0.30991219427E+03  0.47000000000E+01 0.  1.
<mgrwt>
<rscale>  0 0.72371287E+03</rscale>
<asrwt>0</asrwt>
<pdfrwt beam="1">  1       21 0.64675205E-01 0.72371287E+03</pdfrwt>
<pdfrwt beam="2">  1       21 0.47919036E-01 0.72371287E+03</pdfrwt>
<totfact> 0.76438417E+03</totfact>
</mgrwt>
</event>
<event>
 8    1  0.9478272E-006  0.3175148E+03  0.7546771E-02  0.1076799E+00
         21   -1    0    0  504  503  0.00000000000E+00  0.00000000000E+00  0.19849863182E+02  0.19849863182E+02  0.00000000000E+00 0.  1.
         21   -1    0    0  503  504 -0.00000000000E+00 -0.00000000000E+00 -0.12697271792E+04  0.12697271792E+04  0.00000000000E+00 0.  1.
         25    2    1    2    0    0 -0.75418922941E+02  0.33922573282E+01 -0.87795358117E+03  0.89001323743E+03  0.12498620233E+03 0.  0.
         25    2    1    2    0    0  0.75418922941E+02 -0.33922573282E+01 -0.37192373489E+03  0.39956380498E+03  0.12499779332E+03 0.  0.
          5    1    3    3  501    0 -0.70236282605E+02  0.57841235605E+02 -0.54234944712E+03  0.54994886738E+03  0.47000000000E+01 0. -1.
         -5    1    3    3    0  501 -0.51826403363E+01 -0.54448978277E+02 -0.33560413404E+03  0.34006437006E+03  0.47000000000E+01 0. -1.
          5    1    4    4  502    0  0.95997099240E+02 -0.39571386593E+02 -0.27436669523E+03  0.29339480424E+03  0.47000000000E+01 0. -1.
         -5    1    4    4    0  502 -0.20578176299E+02  0.36179129265E+02 -0.97557039652E+02  0.10616900075E+03  0.47000000000E+01 0. -1.
<mgrwt>
<rscale>  0 0.31751479E+03</rscale>
<asrwt>0</asrwt>
<pdfrwt beam="1">  1       21 0.30538252E-02 0.31751479E+03</pdfrwt>
<pdfrwt beam="2">  1       21 0.19534264E+00 0.31751479E+03</pdfrwt>
<totfact> 0.83343030E+04</totfact>
</mgrwt>
</event>
<event>
 8    1  0.9478272E-006  0.3213428E+03  0.7546771E-02  0.1075033E+00
         21   -1    0    0  504  503  0.00000000000E+00  0.00000000000E+00  0.27358132345E+03  0.27358132345E+03  0.00000000000E+00 0. -1.
         21   -1    0    0  503  504 -0.00000000000E+00 -0.00000000000E+00 -0.94360620818E+02  0.94360620818E+02  0.00000000000E+00 0. -1.
         25    2    1    2    0    0  0.90523075507E+02 -0.14130692947E+02  0.41228154087E+02  0.16043559513E+03  0.12508283580E+03 0.  0.
         25    2    1    2    0    0 -0.90523075507E+02  0.14130692947E+02  0.13799254855E+03  0.20750634914E+03  0.12499135089E+03 0.  0.
          5    1    3    3  501    0  0.10670227351E+03 -0.33167866174E+02 -0.19058647131E+00  0.11183742148E+03  0.47000000000E+01 0.  1.
         -5    1    3    3    0  501 -0.16179198008E+02  0.19037173227E+02  0.41418740558E+02  0.48598173650E+02  0.47000000000E+01 0.  1.
          5    1    4    4  502    0 -0.34230439221E+02  0.67720509380E+02  0.55932087012E+02  0.94383678236E+02  0.47000000000E+01 0. -1.
         -5    1    4    4    0  502 -0.56292636287E+02 -0.53589816432E+02  0.82060461536E+02  0.11312267091E+03  0.47000000000E+01 0. -1.
<mgrwt>
<rscale>  0 0.32134283E+03</rscale>
<asrwt>0</asrwt>
<pdfrwt beam="1">  1       21 0.42089434E-01 0.32134283E+03</pdfrwt>
<pdfrwt beam="2">  1       21 0.14517019E-01 0.32134283E+03</pdfrwt>
<totfact> 0.21893547E+05</totfact>
</mgrwt>
</event>
<event>
 8    1  0.9478272E-006  0.2794953E+03  0.7546771E-02  0.1095965E+00
         21   -1    0    0  504  503  0.00000000000E+00  0.00000000000E+00  0.28169561826E+02  0.28169561826E+02  0.00000000000E+00 0.  1.
         21   -1    0    0  503  504 -0.00000000000E+00 -0.00000000000E+00 -0.69328036292E+03  0.69328036292E+03  0.00000000000E+00 0.  1.
         25    2    1    2    0    0  0.35180871174E+02  0.44344947603E+02 -0.40081013907E+03  0.42364267595E+03  0.12498072341E+03 0.  0.
         25    2    1    2    0    0 -0.35180871174E+02 -0.44344947603E+02 -0.26430066202E+03  0.29780724880E+03  0.12502059598E+03 0.  0.
          5    1    3    3  501    0  0.73822052719E+02  0.46426361038E+01 -0.29434447723E+03  0.30353255314E+03  0.47000000000E+01 0.  1.
         -5    1    3    3    0  501 -0.38641181546E+02  0.39702311499E+02 -0.10646566184E+03  0.12011012281E+03  0.47000000000E+01 0.  1.
          5    1    4    4  502    0  0.26444250550E+02  0.77542000776E+01 -0.80234750156E+01  0.29084225231E+02  0.47000000000E+01 0.  1.
         -5    1    4    4    0  502 -0.61625121723E+02 -0.52099147680E+02 -0.25627718701E+03  0.26872302357E+03  0.47000000000E+01 0.  1.
<mgrwt>
<rscale>  0 0.27949529E+03</rscale>
<asrwt>0</asrwt>
<pdfrwt beam="1">  1       21 0.43337792E-02 0.27949529E+03</pdfrwt>
<pdfrwt beam="2">  1       21 0.10665851E+00 0.27949529E+03</pdfrwt>
<totfact> 0.23475455E+05</totfact>
</mgrwt>
</event>
<event>
 8    1  0.9478272E-006  0.2684671E+03  0.7546771E-02  0.1102160E+00
         21   -1    0    0  504  503  0.00000000000E+00  0.00000000000E+00  0.11953189752E+02  0.11953189752E+02  0.00000000000E+00 0.  1.
         21   -1    0    0  503  504 -0.00000000000E+00 -0.00000000000E+00 -0.15074344200E+04  0.15074344200E+04  0.00000000000E+00 0.  1.
         25    2    1    2    0    0 -0.19490358410E+02 -0.37499448834E+02 -0.60828183423E+03  0.62242950040E+03  0.12500244152E+03 0.  0.
         25    2    1    2    0    0  0.19490358410E+02  0.37499448834E+02 -0.88719939599E+03  0.89695810932E+03  0.12499999558E+03 0.  0.
          5    1    3    3  501    0 -0.11991738828E+02 -0.41496129573E+02 -0.61084353163E+03  0.61238683910E+03  0.47000000000E+01 0. -1.
         -5    1    3    3    0  501 -0.74986195811E+01  0.39966807390E+01  0.25616973974E+01  0.10042661306E+02  0.47000000000E+01 0. -1.
          5    1    4    4  502    0  0.51600531390E+02  0.42657524833E+02 -0.24818836607E+03  0.25710276995E+03  0.47000000000E+01 0.  1.
         -5    1    4    4    0  502 -0.32110172980E+02 -0.51580759989E+01 -0.63901102992E+03  0.63985533937E+03  0.47000000000E+01 0.  1.
<mgrwt>
<rscale>  0 0.26846713E+03</rscale>
<asrwt>0</asrwt>
<pdfrwt beam="1">  1       21 0.18389519E-02 0.26846713E+03</pdfrwt>
<pdfrwt beam="2">  1       21 0.23191304E+00 0.26846713E+03</pdfrwt>
<totfact> 0.11518604E+05</totfact>
</mgrwt>
</event>
<event>
 8    1  0.9478272E-006  0.2775399E+03  0.7546771E-02  0.1097040E+00
         21   -1    0    0  504  503  0.00000000000E+00  0.00000000000E+00  0.28218906777E+02  0.28218906777E+02  0.00000000000E+00 0.  1.
         21   -1    0    0  503  504 -0.00000000000E+00 -0.00000000000E+00 -0.68241848120E+03  0.68241848120E+03  0.00000000000E+00 0.  1.
         25    2    1    2    0    0  0.25391415766E+02 -0.42141501682E+02 -0.23797273759E+03  0.27326402197E+03  0.12498628607E+03 0.  0.
         25    2    1    2    0    0 -0.25391415766E+02  0.42141501682E+02 -0.41622683683E+03  0.43737336601E+03  0.12502020412E+03 0.  0.
          5    1    3    3  501    0  0.16434515528E+02 -0.44842893145E+02 -0.25156805989E+03  0.25610458240E+03  0.47000000000E+01 0. -1.
         -5    1    3    3    0  501  0.89569002386E+01  0.27013914629E+01  0.13595322305E+02  0.17159439568E+02  0.47000000000E+01 0. -1.
          5    1    4    4  502    0 -0.54478145018E+02  0.62711445820E+02 -0.17841350159E+03  0.19686051222E+03  0.47000000000E+01 0.  1.
         -5    1    4    4    0  502  0.29086729252E+02 -0.20569944138E+02 -0.23781333524E+03  0.24051285379E+03  0.47000000000E+01 0.  1.
<mgrwt>
<rscale>  0 0.27753993E+03</rscale>
<asrwt>0</asrwt>
<pdfrwt beam="1">  1       21 0.43413698E-02 0.27753993E+03</pdfrwt>
<pdfrwt beam="2">  1       21 0.10498747E+00 0.27753993E+03</pdfrwt>
<totfact> 0.24334249E+05</totfact>
</mgrwt>
</event>
<event>
 8    1  0.9478272E-006  0.2978120E+03  0.7546771E-02  0.1086340E+00
         21   -1    0    0  504  503  0.00000000000E+00  0.00000000000E+00  0.27810166554E+03  0.27810166554E+03  0.00000000000E+00 0.  1.
         21   -1    0    0  503  504 -0.00000000000E+00 -0.00000000000E+00 -0.79729827793E+02  0.79729827793E+02  0.00000000000E+00 0.  1.
         25    2    1    2    0    0  0.28224728516E+02  0.42373723762E+02  0.23516766212E+02  0.13694228689E+03  0.12493191698E+03 0.  0.
         25    2    1    2    0    0 -0.28224728516E+02 -0.42373723762E+02  0.17485507154E+03  0.22088920644E+03  0.12500231084E+03 0.  0.
          5    1    3    3  501    0  0.66567885106E+02  0.30611714867E+02 -0.21465892581E+02  0.76493365457E+02  0.47000000000E+01 0. -1.
         -5    1    3    3    0  501 -0.38343156590E+02  0.11762008895E+02  0.44982658793E+02  0.60448921435E+02  0.47000000000E+01 0. -1.
          5    1    4    4  502    0 -0.75129863599E+02 -0.76369601423E+01  0.11000895443E+03  0.13351733828E+03  0.47000000000E+01 0.  1.
         -5    1    4    4    0  502  0.46905135082E+02 -0.34736763620E+02  0.64846117100E+02  0.87371868166E+02  0.47000000000E+01 0.  1.
<mgrwt>
<rscale>  0 0.29781201E+03</rscale>
<asrwt>0</asrwt>
<pdfrwt beam="1">  1       21 0.42784871E-01 0.29781201E+03</pdfrwt>
<pdfrwt beam="2">  1       21 0.12266127E-01 0.29781201E+03</pdfrwt>
<totfact> 0.28915661E+05</totfact>
</mgrwt>
</event>
<event>
 8    1  0.9478272E-006  0.2728826E+03  0.7546771E-02  0.1099641E+00
         21   -1    0    0  504  503  0.00000000000E+00  0.00000000000E+00  0.11300298986E+04  0.11300298986E+04  0.00000000000E+00 0. -1.
         21   -1    0    0  503  504 -0.00000000000E+00 -0.00000000000E+00 -0.16474099297E+02  0.16474099297E+02  0.00000000000E+00 0. -1.
         25    2    1    2    0    0  0.12017077518E+02  0.46938089129E+02  0.45003429737E+03  0.46957607250E+03  0.12499289858E+03 0.  0.
         25    2    1    2    0    0 -0.12017077518E+02 -0.46938089129E+02  0.66352150189E+03  0.67692792536E+03  0.12499215290E+03 0.  0.
          5    1    3    3  501    0  0.77123861143E+01  0.57469960145E+02  0.45315703688E+03  0.45687598678E+03  0.47000000000E+01 0. -1.
         -5    1    3    3    0  501  0.43046914040E+01 -0.10531871016E+02 -0.31227395178E+01  0.12700085719E+02  0.47000000000E+01 0. -1.
          5    1    4    4  502    0  0.45642262428E+02 -0.56844227914E+02  0.30448049859E+03  0.31312129661E+03  0.47000000000E+01 0. -1.
         -5    1    4    4    0  502 -0.57659339946E+02  0.99061387843E+01  0.35904100330E+03  0.36380662875E+03  0.47000000000E+01 0. -1.
<mgrwt>
<rscale>  0 0.27288257E+03</rscale>
<asrwt>0</asrwt>
<pdfrwt beam="1">  1       21 0.17385069E+00 0.27288257E+03</pdfrwt>
<pdfrwt beam="2">  1       21 0.25344777E-02 0.27288257E+03</pdfrwt>
<totfact> 0.16204704E+05</totfact>
</mgrwt>
</event>
<event>
 8    1  0.9478272E-006  0.3871111E+03  0.7546771E-02  0.1048336E+00
         21   -1    0    0  504  503  0.00000000000E+00  0.00000000000E+00  0.27742662749E+02  0.27742662749E+02  0.00000000000E+00 0.  1.
         21   -1    0    0  503  504 -0.00000000000E+00 -0.00000000000E+00 -0.13504023874E+04  0.13504023874E+04  0.00000000000E+00 0.  1.
         25    2    1    2    0    0  0.56005111241E+02  0.12410709500E+03 -0.45670556986E+03  0.49269056220E+03  0.12499947607E+03 0.  0.
         25    2    1    2    0    0 -0.56005111241E+02 -0.12410709500E+03 -0.86595415474E+03  0.88545448791E+03  0.12495562623E+03 0.  0.
          5    1    3    3  501    0  0.34721466583E+02  0.54537679320E+02 -0.38504782398E+03  0.39046620271E+03  0.47000000000E+01 0. -1.
         -5    1    3    3    0  501  0.21283644658E+02  0.69569415676E+02 -0.71657745889E+02  0.10222435949E+03  0.47000000000E+01 0. -1.
          5    1    4    4  502    0 -0.16750003590E+02 -0.11498708145E+03 -0.79706876721E+03  0.80550810125E+03  0.47000000000E+01 0. -1.
         -5    1    4    4    0  502 -0.39255107651E+02 -0.91200135499E+01 -0.68885387529E+02  0.79946386653E+02  0.47000000000E+01 0. -1.
<mgrwt>
<rscale>  0 0.38711114E+03</rscale>
<asrwt>0</asrwt>
<pdfrwt beam="1">  1       21 0.42681020E-02 0.38711114E+03</pdfrwt>
<pdfrwt beam="2">  1       21 0.20775421E+00 0.38711114E+03</pdfrwt>
<totfact> 0.38244335E+04</totfact>
</mgrwt>
</event>
<event>
 8    1  0.9478272E-006  0.3746242E+03  0.7546771E-02  0.1052939E+00
         21   -1    0    0  504  503  0.00000000000E+00  0.00000000000E+00  0.46708440237E+03  0.46708440237E+03  0.00000000000E+00 0. -1.
         21   -1    0    0  503  504 -0.00000000000E+00 -0.00000000000E+00 -0.75116685097E+02  0.75116685097E+02  0.00000000000E+00 0. -1.
         25    2    1    2    0    0  0.93816270311E+02 -0.10232342818E+03  0.17617756907E+03  0.25678424475E+03  0.12501214332E+03 0.  0.
         25    2    1    2    0    0 -0.93816270311E+02  0.10232342818E+03  0.21579014820E+03  0.28541684272E+03  0.12500323803E+03 0.  0.
          5    1    3    3  501    0  0.98995930772E+02 -0.18920317923E+02  0.11575961852E+03  0.15355960413E+03  0.47000000000E+01 0.  1.
         -5    1    3    3    0  501 -0.51796604603E+01 -0.83403110254E+02  0.60417950549E+02  0.10322464062E+03  0.47000000000E+01 0.  1.
          5    1    4    4  502    0 -0.83538216255E+02  0.13028833736E+03  0.19394767280E+03  0.24817629664E+03  0.47000000000E+01 0.  1.
         -5    1    4    4    0  502 -0.10278054057E+02 -0.27964909184E+02  0.21842475399E+02  0.37240546081E+02  0.47000000000E+01 0.  1.
<mgrwt>
<rscale>  0 0.37462425E+03</rscale>
<asrwt>0</asrwt>
<pdfrwt beam="1">  1       21 0.71859137E-01 0.37462425E+03</pdfrwt>
<pdfrwt beam="2">  1       21 0.11556413E-01 0.37462425E+03</pdfrwt>
<totfact> 0.10387162E+05</totfact>
</mgrwt>
</event>
<event>
 8    1  0.9478272E-006  0.2840485E+03  0.7546771E-02  0.1093498E+00
         21   -1    0    0  504  503  0.00000000000E+00  0.00000000000E+00  0.91128756299E+02  0.91128756299E+02  0.00000000000E+00 0.  1.
         21   -1    0    0  503  504 -0.00000000000E+00 -0.00000000000E+00 -0.22134491721E+03  0.22134491721E+03  0.00000000000E+00 0.  1.
         25    2    1    2    0    0 -0.49591265883E+02 -0.42357830297E+02 -0.46294790472E+02  0.14839543597E+03  0.12499807339E+03 0.  0.
         25    2    1    2    0    0  0.49591265883E+02  0.42357830297E+02 -0.83921370441E+02  0.16407823754E+03  0.12500156871E+03 0.  0.
          5    1    3    3  501    0 -0.36943550640E+02 -0.33892005511E+02  0.37699960231E+02  0.62903664225E+02  0.47000000000E+01 0.  1.
         -5    1    3    3    0  501 -0.12647715243E+02 -0.84658247855E+01 -0.83994750704E+02  0.85491771744E+02  0.47000000000E+01 0.  1.
          5    1    4    4  502    0  0.35621782689E+02 -0.20557499066E+02 -0.90110251794E+02  0.99163852528E+02  0.47000000000E+01 0. -1.
         -5    1    4    4    0  502  0.13969483194E+02  0.62915329363E+02  0.61888813530E+01  0.64914385016E+02  0.47000000000E+01 0. -1.
<mgrwt>
<rscale>  0 0.28404850E+03</rscale>
<asrwt>0</asrwt>
<pdfrwt beam="1">  1       21 0.14019809E-01 0.28404850E+03</pdfrwt>
<pdfrwt beam="2">  1       21 0.34053064E-01 0.28404850E+03</pdfrwt>
<totfact> 0.36121453E+05</totfact>
</mgrwt>
</event>
<event>
 8    1  0.9478272E-006  0.3098888E+03  0.7546771E-02  0.1080399E+00
         21   -1    0    0  504  503  0.00000000000E+00  0.00000000000E+00  0.16757528595E+04  0.16757528595E+04  0.00000000000E+00 0.  1.
         21   -1    0    0  503  504 -0.00000000000E+00 -0.00000000000E+00 -0.14326558162E+02  0.14326558162E+02  0.00000000000E+00 0.  1.
         25    2    1    2    0    0 -0.79417116158E+02  0.11307443545E+01  0.10796145072E+04  0.10897178242E+04  0.12493636547E+03 0.  0.
         25    2    1    2    0    0  0.79417116158E+02 -0.11307443545E+01  0.58181179424E+03  0.60036159351E+03  0.12498288732E+03 0.  0.
          5    1    3    3  501    0 -0.72604300812E+02 -0.22678540444E+02  0.29456003209E+03  0.30425877670E+03  0.47000000000E+01 0. -1.
         -5    1    3    3    0  501 -0.68128153452E+01  0.23809284798E+02  0.78505447506E+03  0.78545904750E+03  0.47000000000E+01 0. -1.
          5    1    4    4  502    0  0.11138629088E+03 -0.11189787063E+01  0.50250390908E+03  0.51472364094E+03  0.47000000000E+01 0.  1.
         -5    1    4    4    0  502 -0.31969174719E+02 -0.11765648202E-01  0.79307885157E+02  0.85637952560E+02  0.47000000000E+01 0.  1.
<mgrwt>
<rscale>  0 0.30988882E+03</rscale>
<asrwt>0</asrwt>
<pdfrwt beam="1">  1       21 0.25780798E+00 0.30988882E+03</pdfrwt>
<pdfrwt beam="2">  1       21 0.22040872E-02 0.30988882E+03</pdfrwt>
<totfact> 0.58479271E+04</totfact>
</mgrwt>
</event>
<event>
 8    1  0.9478272E-006  0.2807433E+03  0.7546771E-02  0.1095284E+00
         21   -1    0    0  504  503  0.00000000000E+00  0.00000000000E+00  0.59317309381E+02  0.59317309381E+02  0.00000000000E+00 0. -1.
         21   -1    0    0  503  504 -0.00000000000E+00 -0.00000000000E+00 -0.33218289541E+03  0.33218289541E+03  0.00000000000E+00 0. -1.
         25    2    1    2    0    0  0.47641434065E+02  0.38313918803E+02 -0.16222434639E+03  0.21372376953E+03  0.12499379380E+03 0.  0.
         25    2    1    2    0    0 -0.47641434065E+02 -0.38313918803E+02 -0.11064123964E+03  0.17777643526E+03  0.12500125763E+03 0.  0.
          5    1    3    3  501    0  0.47870041171E+02 -0.21645132873E+02 -0.15229153076E+02  0.54900543915E+02  0.47000000000E+01 0.  1.
         -5    1    3    3    0  501 -0.22860710574E+00  0.59959051676E+02 -0.14699519331E+03  0.15882322562E+03  0.47000000000E+01 0.  1.
          5    1    4    4  502    0  0.21414739975E+02 -0.52199203482E+02 -0.14398972605E+02  0.58418903999E+02  0.47000000000E+01 0. -1.
         -5    1    4    4    0  502 -0.69056174040E+02  0.13885284679E+02 -0.96242267036E+02  0.11935753126E+03  0.47000000000E+01 0. -1.
<mgrwt>
<rscale>  0 0.28074327E+03</rscale>
<asrwt>0</asrwt>
<pdfrwt beam="1">  1       21 0.91257398E-02 0.28074327E+03</pdfrwt>
<pdfrwt beam="2">  1       21 0.51105061E-01 0.28074327E+03</pdfrwt>
<totfact> 0.34004528E+05</totfact>
</mgrwt>
</event>
<event>
 8    1  0.9478272E-006  0.3176757E+03  0.7546771E-02  0.1076724E+00
         21   -1    0    0  504  503  0.00000000000E+00  0.00000000000E+00  0.47599437059E+02  0.47599437059E+02  0.00000000000E+00 0.  1.
         21   -1    0    0  503  504 -0.00000000000E+00 -0.00000000000E+00 -0.53003712522E+03  0.53003712522E+03  0.00000000000E+00 0.  1.
         25    2    1    2    0    0 -0.68143091216E+02 -0.26119953370E+02 -0.12228370682E+03  0.18948551405E+03  0.12500288890E+03 0.  0.
         25    2    1    2    0    0  0.68143091216E+02  0.26119953370E+02 -0.36015398134E+03  0.38815104823E+03  0.12499845249E+03 0.  0.
          5    1    3    3  501    0 -0.74548386586E+02  0.15730259363E+02 -0.12536496378E+03  0.14677658923E+03  0.47000000000E+01 0. -1.
         -5    1    3    3    0  501  0.64052953697E+01 -0.41850212732E+02  0.30812569578E+01  0.42708924816E+02  0.47000000000E+01 0. -1.
          5    1    4    4  502    0  0.10073035317E+03  0.25207189249E+02 -0.20863752866E+03  0.23309593476E+03  0.47000000000E+01 0.  1.
         -5    1    4    4    0  502 -0.32587261950E+02  0.91276412066E+00 -0.15151645268E+03  0.15505511347E+03  0.47000000000E+01 0.  1.
<mgrwt>
<rscale>  0 0.31767574E+03</rscale>
<asrwt>0</asrwt>
<pdfrwt beam="1">  1       21 0.73229902E-02 0.31767574E+03</pdfrwt>
<pdfrwt beam="2">  1       21 0.81544174E-01 0.31767574E+03</pdfrwt>
<totfact> 0.17774578E+05</totfact>
</mgrwt>
</event>
<event>
 8    1  0.9478272E-006  0.2848112E+03  0.7546771E-02  0.1093090E+00
         21   -1    0    0  504  503  0.00000000000E+00  0.00000000000E+00  0.37459352614E+02  0.37459352614E+02  0.00000000000E+00 0.  1.
         21   -1    0    0  503  504 -0.00000000000E+00 -0.00000000000E+00 -0.54136955630E+03  0.54136955630E+03  0.00000000000E+00 0.  1.
         25    2    1    2    0    0  0.31502095489E+02 -0.27636884752E+02 -0.36136460695E+03  0.38466319214E+03  0.12500085124E+03 0.  0.
         25    2    1    2    0    0 -0.31502095489E+02  0.27636884752E+02 -0.14254559674E+03  0.19416571678E+03  0.12499959601E+03 0.  0.
          5    1    3    3  501    0 -0.11619046637E+02  0.38780299474E+02 -0.56616883498E+02  0.69760127359E+02  0.47000000000E+01 0. -1.
         -5    1    3    3    0  501  0.43121142126E+02 -0.66417184227E+02 -0.30474772345E+03  0.31490306478E+03  0.47000000000E+01 0. -1.
          5    1    4    4  502    0 -0.18001780225E+02 -0.22370647831E+02 -0.13902385850E+03  0.14203602785E+03  0.47000000000E+01 0. -1.
         -5    1    4    4    0  502 -0.13500315264E+02  0.50007532584E+02 -0.35217382401E+01  0.52129688927E+02  0.47000000000E+01 0. -1.
<mgrwt>
<rscale>  0 0.28481119E+03</rscale>
<asrwt>0</asrwt>
<pdfrwt beam="1">  1       21 0.57629776E-02 0.28481119E+03</pdfrwt>
<pdfrwt beam="2">  1       21 0.83287620E-01 0.28481119E+03</pdfrwt>
<totfact> 0.25860657E+05</totfact>
</mgrwt>
</event>
<event>
 8    1  0.9478272E-006  0.2517280E+03  0.7546771E-02  0.1112218E+00
         21   -1    0    0  504  503  0.00000000000E+00  0.00000000000E+00  0.52511045062E+02  0.52511045062E+02  0.00000000000E+00 0. -1.
         21   -1    0    0  503  504 -0.00000000000E+00 -0.00000000000E+00 -0.30168413499E+03  0.30168413499E+03  0.00000000000E+00 0. -1.
         25    2    1    2    0    0 -0.17113418847E+01 -0.12494626904E+02 -0.13545365287E+03  0.18473912089E+03  0.12498722462E+03 0.  0.
         25    2    1    2    0    0  0.17113418847E+01  0.12494626904E+02 -0.11371943705E+03  0.16945605916E+03  0.12499680488E+03 0.  0.
          5    1    3    3  501    0 -0.99854559514E+01  0.20089801716E+02  0.17009115984E+02  0.28543116335E+02  0.47000000000E+01 0. -1.
         -5    1    3    3    0  501  0.82741140666E+01 -0.32584428620E+02 -0.15246276886E+03  0.15619600456E+03  0.47000000000E+01 0. -1.
          5    1    4    4  502    0 -0.52133962481E+02  0.38592767627E+02 -0.51018912292E+02  0.82658158512E+02  0.47000000000E+01 0.  1.
         -5    1    4    4    0  502  0.53845304366E+02 -0.26098140723E+02 -0.62700524762E+02  0.86797900648E+02  0.47000000000E+01 0.  1.
<mgrwt>
<rscale>  0 0.25172802E+03</rscale>
<asrwt>0</asrwt>
<pdfrwt beam="1">  1       21 0.80786224E-02 0.25172802E+03</pdfrwt>
<pdfrwt beam="2">  1       21 0.46412943E-01 0.25172802E+03</pdfrwt>
<totfact> 0.51846899E+05</totfact>
</mgrwt>
</event>
<event>
 8    1  0.9478272E-006  0.2781330E+03  0.7546771E-02  0.1096713E+00
         21   -1    0    0  504  503  0.00000000000E+00  0.00000000000E+00  0.60202152588E+03  0.60202152588E+03  0.00000000000E+00 0. -1.
         21   -1    0    0  503  504 -0.00000000000E+00 -0.00000000000E+00 -0.32124250466E+02  0.32124250466E+02  0.00000000000E+00 0. -1.
         25    2    1    2    0    0  0.54723698437E+01 -0.57850336715E+02  0.24310797627E+03  0.27947272165E+03  0.12500762270E+03 0.  0.
         25    2    1    2    0    0 -0.54723698437E+01  0.57850336715E+02  0.32678929915E+03  0.35467305470E+03  0.12500048560E+03 0.  0.
          5    1    3    3  501    0 -0.22980842032E+02 -0.51836434564E+02  0.29967656003E+02  0.64306185201E+02  0.47000000000E+01 0. -1.
         -5    1    3    3    0  501  0.28453211876E+02 -0.60139021503E+01  0.21314032026E+03  0.21516653645E+03  0.47000000000E+01 0. -1.
          5    1    4    4  502    0 -0.42667775273E+02  0.44493195856E+02  0.30091908028E+03  0.30720443747E+03  0.47000000000E+01 0. -1.
         -5    1    4    4    0  502  0.37195405430E+02  0.13357140859E+02  0.25870218862E+02  0.47468617222E+02  0.47000000000E+01 0. -1.
<mgrwt>
<rscale>  0 0.27813299E+03</rscale>
<asrwt>0</asrwt>
<pdfrwt beam="1">  1       21 0.92618688E-01 0.27813299E+03</pdfrwt>
<pdfrwt beam="2">  1       21 0.49421928E-02 0.27813299E+03</pdfrwt>
<totfact> 0.26328059E+05</totfact>
</mgrwt>
</event>
<event>
 8    1  0.9478272E-006  0.2710190E+03  0.7546771E-02  0.1100698E+00
         21   -1    0    0  504  503  0.00000000000E+00  0.00000000000E+00  0.14404672783E+03  0.14404672783E+03  0.00000000000E+00 0. -1.
         21   -1    0    0  503  504 -0.00000000000E+00 -0.00000000000E+00 -0.12747823614E+03  0.12747823614E+03  0.00000000000E+00 0. -1.
         25    2    1    2    0    0 -0.55477682973E+01 -0.48717149014E+02  0.26565563881E+02  0.13686495651E+03  0.12498859467E+03 0.  0.
         25    2    1    2    0    0  0.55477682973E+01  0.48717149014E+02 -0.99970721939E+01  0.13466000746E+03  0.12501695011E+03 0.  0.
          5    1    3    3  501    0 -0.57413301894E+02  0.60809570727E+01  0.18653014789E+02  0.60854664850E+02  0.47000000000E+01 0.  1.
         -5    1    3    3    0  501  0.51865533596E+02 -0.54798106086E+02  0.79125490915E+01  0.76010291665E+02  0.47000000000E+01 0.  1.
          5    1    4    4  502    0  0.37865222190E+02  0.68664364707E+02  0.25373440782E+02  0.82549812411E+02  0.47000000000E+01 0. -1.
         -5    1    4    4    0  502 -0.32317453892E+02 -0.19947215693E+02 -0.35370512976E+02  0.52110195050E+02  0.47000000000E+01 0. -1.
<mgrwt>
<rscale>  0 0.27101899E+03</rscale>
<asrwt>0</asrwt>
<pdfrwt beam="1">  1       21 0.22161035E-01 0.27101899E+03</pdfrwt>
<pdfrwt beam="2">  1       21 0.19612036E-01 0.27101899E+03</pdfrwt>
<totfact> 0.44877658E+05</totfact>
</mgrwt>
</event>
<event>
 8    1  0.9478272E-006  0.3594117E+03  0.7546771E-02  0.1058817E+00
         21   -1    0    0  504  503  0.00000000000E+00  0.00000000000E+00  0.53485410256E+02  0.53485410256E+02  0.00000000000E+00 0.  1.
         21   -1    0    0  503  504 -0.00000000000E+00 -0.00000000000E+00 -0.60379448901E+03  0.60379448901E+03  0.00000000000E+00 0.  1.
         25    2    1    2    0    0 -0.49530111751E+02  0.31401642149E+02 -0.64791458203E+02  0.15251880719E+03  0.12499903356E+03 0.  0.
         25    2    1    2    0    0  0.49530111751E+02 -0.31401642149E+02 -0.48551762056E+03  0.50476109208E+03  0.12496841643E+03 0.  0.
          5    1    3    3  501    0 -0.73501957165E+02  0.23864910759E+01  0.41767625833E+01  0.73808999400E+02  0.47000000000E+01 0.  1.
         -5    1    3    3    0  501  0.23971845414E+02  0.29015151073E+02 -0.68968220786E+02  0.78709807793E+02  0.47000000000E+01 0.  1.
          5    1    4    4  502    0 -0.12391767638E+02  0.28012374099E+02 -0.28394547457E+03  0.28563153106E+03  0.47000000000E+01 0.  1.
         -5    1    4    4    0  502  0.61921879389E+02 -0.59414016249E+02 -0.20157214599E+03  0.21912956102E+03  0.47000000000E+01 0.  1.
<mgrwt>
<rscale>  0 0.35941172E+03</rscale>
<asrwt>0</asrwt>
<pdfrwt beam="1">  1       21 0.82285247E-02 0.35941172E+03</pdfrwt>
<pdfrwt beam="2">  1       21 0.92891459E-01 0.35941172E+03</pdfrwt>
<totfact> 0.10576414E+05</totfact>
</mgrwt>
</event>
<event>
 8    1  0.9478272E-006  0.2815634E+03  0.7546771E-02  0.1094838E+00
         21   -1    0    0  504  503  0.00000000000E+00  0.00000000000E+00  0.49198947795E+02  0.49198947795E+02  0.00000000000E+00 0.  1.
         21   -1    0    0  503  504 -0.00000000000E+00 -0.00000000000E+00 -0.40284373387E+03  0.40284373387E+03  0.00000000000E+00 0.  1.
         25    2    1    2    0    0 -0.39997038841E+01  0.48575858568E+02 -0.24527231976E+03  0.27957032548E+03  0.12500177753E+03 0.  0.
         25    2    1    2    0    0  0.39997038841E+01 -0.48575858568E+02 -0.10837246632E+03  0.17247235618E+03  0.12500604195E+03 0.  0.
          5    1    3    3  501    0 -0.13931127151E+01 -0.40426785757E+02 -0.47106584691E+02  0.62268660584E+02  0.47000000000E+01 0. -1.
         -5    1    3    3    0  501 -0.26065911691E+01  0.89002644325E+02 -0.19816573507E+03  0.21730166490E+03  0.47000000000E+01 0. -1.
          5    1    4    4  502    0  0.47137408432E+00  0.36035039334E+02 -0.19620953843E+01  0.36396237053E+02  0.47000000000E+01 0. -1.
         -5    1    4    4    0  502  0.35283297998E+01 -0.84610897902E+02 -0.10641037094E+03  0.13607611913E+03  0.47000000000E+01 0. -1.
<mgrwt>
<rscale>  0 0.28156341E+03</rscale>
<asrwt>0</asrwt>
<pdfrwt beam="1">  1       21 0.75690688E-02 0.28156341E+03</pdfrwt>
<pdfrwt beam="2">  1       21 0.61975959E-01 0.28156341E+03</pdfrwt>
<totfact> 0.31244282E+05</totfact>
</mgrwt>
</event>
<event>
 8    1  0.9478272E-006  0.2743836E+03  0.7546771E-02  0.1098797E+00
         21   -1    0    0  504  503  0.00000000000E+00  0.00000000000E+00  0.24093812432E+02  0.24093812432E+02  0.00000000000E+00 0.  1.
         21   -1    0    0  503  504 -0.00000000000E+00 -0.00000000000E+00 -0.78117964361E+03  0.78117964361E+03  0.00000000000E+00 0.  1.
         25    2    1    2    0    0 -0.78496644371E+01  0.39503225999E+02 -0.26209604482E+03  0.29315909940E+03  0.12500319497E+03 0.  0.
         25    2    1    2    0    0  0.78496644371E+01 -0.39503225999E+02 -0.49498978636E+03  0.51211435665E+03  0.12499641429E+03 0.  0.
          5    1    3    3  501    0  0.49867631013E+02  0.51167893690E+02 -0.12891789208E+03  0.14746812153E+03  0.47000000000E+01 0. -1.
         -5    1    3    3    0  501 -0.57717295450E+02 -0.11664667691E+02 -0.13317815274E+03  0.14569097787E+03  0.47000000000E+01 0. -1.
          5    1    4    4  502    0  0.21457828813E+02  0.22841204094E+01 -0.85680363232E+01  0.23688749858E+02  0.47000000000E+01 0.  1.
         -5    1    4    4    0  502 -0.13608164376E+02 -0.41787346409E+02 -0.48642175004E+03  0.48842560679E+03  0.47000000000E+01 0.  1.
<mgrwt>
<rscale>  0 0.27438364E+03</rscale>
<asrwt>0</asrwt>
<pdfrwt beam="1">  1       21 0.37067406E-02 0.27438364E+03</pdfrwt>
<pdfrwt beam="2">  1       21 0.12018148E+00 0.27438364E+03</pdfrwt>
<totfact> 0.22815559E+05</totfact>
</mgrwt>
</event>
<event>
 8    1  0.9478272E-006  0.6463825E+03  0.7546771E-02  0.9813591E-01
         21   -1    0    0  504  503  0.00000000000E+00  0.00000000000E+00  0.13930823795E+03  0.13930823795E+03  0.00000000000E+00 0. -1.
         21   -1    0    0  503  504 -0.00000000000E+00 -0.00000000000E+00 -0.74979472770E+03  0.74979472770E+03  0.00000000000E+00 0. -1.
         25    2    1    2    0    0 -0.18641100145E+03 -0.33205274618E+02  0.11349237410E+02  0.22716935834E+03  0.12500184179E+03 0.  0.
         25    2    1    2    0    0  0.18641100145E+03  0.33205274618E+02 -0.62183572716E+03  0.66193360732E+03  0.12499910881E+03 0.  0.
          5    1    3    3  501    0 -0.81031725589E+02 -0.74741483318E+02 -0.13349355657E+02  0.11114281433E+03  0.47000000000E+01 0.  1.
         -5    1    3    3    0  501 -0.10537927586E+03  0.41536208700E+02  0.24698593067E+02  0.11602654401E+03  0.47000000000E+01 0.  1.
          5    1    4    4  502    0  0.40920756248E+02 -0.23509100541E+02 -0.30511766574E+03  0.30878158307E+03  0.47000000000E+01 0. -1.
         -5    1    4    4    0  502  0.14549024520E+03  0.56714375159E+02 -0.31671806142E+03  0.35315202425E+03  0.47000000000E+01 0. -1.
<mgrwt>
<rscale>  0 0.64638249E+03</rscale>
<asrwt>0</asrwt>
<pdfrwt beam="1">  1       21 0.21432036E-01 0.64638249E+03</pdfrwt>
<pdfrwt beam="2">  1       21 0.11535304E+00 0.64638249E+03</pdfrwt>
<totfact> 0.99849776E+03</totfact>
</mgrwt>
</event>
<event>
 8    1  0.9478272E-006  0.2622911E+03  0.7546771E-02  0.1105774E+00
         21   -1    0    0  504  503  0.00000000000E+00  0.00000000000E+00  0.11747946047E+03  0.11747946047E+03  0.00000000000E+00 0.  1.
         21   -1    0    0  503  504 -0.00000000000E+00 -0.00000000000E+00 -0.14640135736E+03  0.14640135736E+03  0.00000000000E+00 0.  1.
         25    2    1    2    0    0  0.26892651399E+01 -0.18877162604E+02 -0.49457640257E+02  0.13577910102E+03  0.12500530661E+03 0.  0.
         25    2    1    2    0    0 -0.26892651399E+01  0.18877162604E+02  0.20535743366E+02  0.12810171680E+03  0.12499901471E+03 0.  0.
          5    1    3    3  501    0  0.62689134967E+02 -0.16379826689E+02 -0.16122151411E+02  0.66934595923E+02  0.47000000000E+01 0. -1.
         -5    1    3    3    0  501 -0.59999869827E+02 -0.24973359147E+01 -0.33335488845E+02  0.68844505100E+02  0.47000000000E+01 0. -1.
          5    1    4    4  502    0 -0.23340409409E+02 -0.47362176321E+02 -0.66677034472E+01  0.53427509080E+02  0.47000000000E+01 0.  1.
         -5    1    4    4    0  502  0.20651144269E+02  0.66239338925E+02  0.27203446813E+02  0.74674207725E+02  0.47000000000E+01 0.  1.
<mgrwt>
<rscale>  0 0.26229108E+03</rscale>
<asrwt>0</asrwt>
<pdfrwt beam="1">  1       21 0.18073763E-01 0.26229108E+03</pdfrwt>
<pdfrwt beam="2">  1       21 0.22523286E-01 0.26229108E+03</pdfrwt>
<totfact> 0.50776680E+05</totfact>
</mgrwt>
</event>
<event>
 8    1  0.9478272E-006  0.2625511E+03  0.7546771E-02  0.1105620E+00
         21   -1    0    0  504  503  0.00000000000E+00  0.00000000000E+00  0.91301537922E+01  0.91301537922E+01  0.00000000000E+00 0.  1.
         21   -1    0    0  503  504 -0.00000000000E+00 -0.00000000000E+00 -0.18875114293E+04  0.18875114293E+04  0.00000000000E+00 0.  1.
         25    2    1    2    0    0 -0.37501915903E+02 -0.14169958919E+02 -0.93004203895E+03  0.93926120651E+03  0.12500495357E+03 0.  0.
         25    2    1    2    0    0  0.37501915903E+02  0.14169958919E+02 -0.94833923651E+03  0.95738037653E+03  0.12499078537E+03 0.  0.
          5    1    3    3  501    0  0.25225694064E+02  0.36097286985E+02 -0.20306702998E+03  0.20784046390E+03  0.47000000000E+01 0.  1.
         -5    1    3    3    0  501 -0.62727609967E+02 -0.50267245904E+02 -0.72697500896E+03  0.73142074261E+03  0.47000000000E+01 0.  1.
          5    1    4    4  502    0 -0.38775777440E+02  0.31259013697E+02 -0.27614776951E+03  0.28064277553E+03  0.47000000000E+01 0.  1.
         -5    1    4    4    0  502  0.76277693343E+02 -0.17089054778E+02 -0.67219146700E+03  0.67673760100E+03  0.47000000000E+01 0.  1.
<mgrwt>
<rscale>  0 0.26255110E+03</rscale>
<asrwt>0</asrwt>
<pdfrwt beam="1">  1       21 0.14046389E-02 0.26255110E+03</pdfrwt>
<pdfrwt beam="2">  1       21 0.29038640E+00 0.26255110E+03</pdfrwt>
<totfact> 0.80395541E+04</totfact>
</mgrwt>
</event>
<event>
 8    1  0.9478272E-006  0.2759530E+03  0.7546771E-02  0.1097920E+00
         21   -1    0    0  504  503  0.00000000000E+00  0.00000000000E+00  0.24345808611E+03  0.24345808611E+03  0.00000000000E+00 0.  1.
         21   -1    0    0  503  504 -0.00000000000E+00 -0.00000000000E+00 -0.78196267871E+02  0.78196267871E+02  0.00000000000E+00 0.  1.
         25    2    1    2    0    0  0.18037331973E+02  0.36576909966E+02  0.33833048883E+02  0.13574985042E+03  0.12498052250E+03 0.  0.
         25    2    1    2    0    0 -0.18037331973E+02 -0.36576909966E+02  0.13142876936E+03  0.18590450357E+03  0.12499498927E+03 0.  0.
          5    1    3    3  501    0 -0.22122054276E+00  0.82069281614E+02  0.22232004342E+02  0.85157312899E+02  0.47000000000E+01 0.  1.
         -5    1    3    3    0  501  0.18258552516E+02 -0.45492371648E+02  0.11601044541E+02  0.50592537518E+02  0.47000000000E+01 0.  1.
          5    1    4    4  502    0  0.13007761496E+02 -0.39625917769E+02  0.14544856894E+03  0.15138292977E+03  0.47000000000E+01 0.  1.
         -5    1    4    4    0  502 -0.31045093469E+02  0.30490078029E+01 -0.14019799583E+02  0.34521573798E+02  0.47000000000E+01 0.  1.
<mgrwt>
<rscale>  0 0.27595299E+03</rscale>
<asrwt>0</asrwt>
<pdfrwt beam="1">  1       21 0.37455090E-01 0.27595299E+03</pdfrwt>
<pdfrwt beam="2">  1       21 0.12030195E-01 0.27595299E+03</pdfrwt>
<totfact> 0.39452066E+05</totfact>
</mgrwt>
</event>
<event>
 8    1  0.9478272E-006  0.3696363E+03  0.7546771E-02  0.1054832E+00
         21   -1    0    0  504  503  0.00000000000E+00  0.00000000000E+00  0.61497367967E+03  0.61497367967E+03  0.00000000000E+00 0.  1.
         21   -1    0    0  503  504 -0.00000000000E+00 -0.00000000000E+00 -0.55543419291E+02  0.55543419291E+02  0.00000000000E+00 0.  1.
         25    2    1    2    0    0  0.54549334157E+02 -0.99352221283E+02  0.41651454465E+03  0.44939162405E+03  0.12498788793E+03 0.  0.
         25    2    1    2    0    0 -0.54549334157E+02  0.99352221283E+02  0.14291571572E+03  0.22112547491E+03  0.12500032048E+03 0.  0.
          5    1    3    3  501    0 -0.69152109810E+01 -0.10494680780E+03  0.23195287292E+03  0.25472706544E+03  0.47000000000E+01 0.  1.
         -5    1    3    3    0  501  0.61464545138E+02  0.55945865217E+01  0.18456167173E+03  0.19466455861E+03  0.47000000000E+01 0.  1.
          5    1    4    4  502    0  0.25148670854E+02  0.23181148152E+02 -0.67522585050E+01  0.35178178894E+02  0.47000000000E+01 0. -1.
         -5    1    4    4    0  502 -0.79698005011E+02  0.76171073130E+02  0.14966797423E+03  0.18594729601E+03  0.47000000000E+01 0. -1.
<mgrwt>
<rscale>  0 0.36963626E+03</rscale>
<asrwt>0</asrwt>
<pdfrwt beam="1">  1       21 0.94611330E-01 0.36963626E+03</pdfrwt>
<pdfrwt beam="2">  1       21 0.85451419E-02 0.36963626E+03</pdfrwt>
<totfact> 0.94473750E+04</totfact>
</mgrwt>
</event>
<event>
 8    1  0.9478272E-006  0.4212039E+03  0.7546771E-02  0.1036675E+00
         21   -1    0    0  504  503  0.00000000000E+00  0.00000000000E+00  0.16402744841E+03  0.16402744841E+03  0.00000000000E+00 0.  1.
         21   -1    0    0  503  504 -0.00000000000E+00 -0.00000000000E+00 -0.27040092791E+03  0.27040092791E+03  0.00000000000E+00 0.  1.
         25    2    1    2    0    0 -0.12485411925E+03 -0.92727371022E+02 -0.12267586986E+03  0.23423416287E+03  0.12501742910E+03 0.  0.
         25    2    1    2    0    0  0.12485411925E+03  0.92727371022E+02  0.16302390361E+02  0.20019421344E+03  0.12500015494E+03 0.  0.
          5    1    3    3  501    0 -0.11608347972E+03 -0.20383743726E+02 -0.10762396739E+03  0.15967429232E+03  0.47000000000E+01 0. -1.
         -5    1    3    3    0  501 -0.87706395371E+01 -0.72343627296E+02 -0.15051902465E+02  0.74559870548E+02  0.47000000000E+01 0. -1.
          5    1    4    4  502    0  0.13024124418E+03  0.65311660994E+02  0.51863332784E+02  0.15472650075E+03  0.47000000000E+01 0. -1.
         -5    1    4    4    0  502 -0.53871249287E+01  0.27415710029E+02 -0.35560942423E+02  0.45467712692E+02  0.47000000000E+01 0. -1.
<mgrwt>
<rscale>  0 0.42120387E+03</rscale>
<asrwt>0</asrwt>
<pdfrwt beam="1">  1       21 0.25234993E-01 0.42120387E+03</pdfrwt>
<pdfrwt beam="2">  1       21 0.41600142E-01 0.42120387E+03</pdfrwt>
<totfact> 0.77317183E+04</totfact>
</mgrwt>
</event>
<event>
 8    1  0.9478272E-006  0.3369027E+03  0.7546771E-02  0.1068123E+00
         21   -1    0    0  504  503  0.00000000000E+00  0.00000000000E+00  0.94168692538E+02  0.94168692538E+02  0.00000000000E+00 0.  1.
         21   -1    0    0  503  504 -0.00000000000E+00 -0.00000000000E+00 -0.30133006600E+03  0.30133006600E+03  0.00000000000E+00 0.  1.
         25    2    1    2    0    0  0.62040708900E+02 -0.66966991257E+02 -0.18159025245E+03  0.23861461223E+03  0.12501314293E+03 0.  0.
         25    2    1    2    0    0 -0.62040708900E+02  0.66966991257E+02 -0.25571121008E+02  0.15688414631E+03  0.12500050261E+03 0.  0.
          5    1    3    3  501    0 -0.93691091485E+01 -0.79105389495E+02 -0.73997147540E+02  0.10882605707E+03  0.47000000000E+01 0. -1.
         -5    1    3    3    0  501  0.71409818049E+02  0.12138398238E+02 -0.10759310491E+03  0.12978855516E+03  0.47000000000E+01 0. -1.
          5    1    4    4  502    0 -0.68567609405E+02  0.61791660722E+02  0.32546233235E+02  0.97985068720E+02  0.47000000000E+01 0. -1.
         -5    1    4    4    0  502  0.65269005052E+01  0.51753305349E+01 -0.58117354242E+02  0.58899077586E+02  0.47000000000E+01 0. -1.
<mgrwt>
<rscale>  0 0.33690271E+03</rscale>
<asrwt>0</asrwt>
<pdfrwt beam="1">  1       21 0.14487491E-01 0.33690271E+03</pdfrwt>
<pdfrwt beam="2">  1       21 0.46358472E-01 0.33690271E+03</pdfrwt>
<totfact> 0.17926533E+05</totfact>
</mgrwt>
</event>
<event>
 8    1  0.9478272E-006  0.2760355E+03  0.7546771E-02  0.1097874E+00
         21   -1    0    0  504  503  0.00000000000E+00  0.00000000000E+00  0.57644693478E+02  0.57644693478E+02  0.00000000000E+00 0. -1.
         21   -1    0    0  503  504 -0.00000000000E+00 -0.00000000000E+00 -0.33045355665E+03  0.33045355665E+03  0.00000000000E+00 0. -1.
         25    2    1    2    0    0  0.38821170396E+02 -0.97792398391E+01 -0.76375213297E+02  0.15184632423E+03  0.12498566387E+03 0.  0.
         25    2    1    2    0    0 -0.38821170396E+02  0.97792398391E+01 -0.19643364988E+03  0.23625192591E+03  0.12500430747E+03 0.  0.
          5    1    3    3  501    0  0.19630682077E+02 -0.36247266450E+02  0.22782425257E+02  0.47332408607E+02  0.47000000000E+01 0.  1.
         -5    1    3    3    0  501  0.19190488319E+02  0.26468026611E+02 -0.99157638554E+02  0.10451391562E+03  0.47000000000E+01 0.  1.
          5    1    4    4  502    0  0.38051329398E+02  0.31131281477E+00 -0.19423722091E+02  0.42981060532E+02  0.47000000000E+01 0. -1.
         -5    1    4    4    0  502 -0.76872499794E+02  0.94679270243E+01 -0.17700992779E+03  0.19327086537E+03  0.47000000000E+01 0. -1.
<mgrwt>
<rscale>  0 0.27603546E+03</rscale>
<asrwt>0</asrwt>
<pdfrwt beam="1">  1       21 0.88684145E-02 0.27603546E+03</pdfrwt>
<pdfrwt beam="2">  1       21 0.50839008E-01 0.27603546E+03</pdfrwt>
<totfact> 0.36198907E+05</totfact>
</mgrwt>
</event>
<event>
 8    1  0.9478272E-006  0.5930342E+03  0.7546771E-02  0.9919964E-01
         21   -1    0    0  504  503  0.00000000000E+00  0.00000000000E+00  0.35134694064E+03  0.35134694064E+03  0.00000000000E+00 0. -1.
         21   -1    0    0  503  504 -0.00000000000E+00 -0.00000000000E+00 -0.25024378579E+03  0.25024378579E+03  0.00000000000E+00 0. -1.
         25    2    1    2    0    0 -0.16037108945E+03 -0.63222122063E+02 -0.15877988884E+03  0.26561514639E+03  0.12499771934E+03 0.  0.
         25    2    1    2    0    0  0.16037108945E+03  0.63222122063E+02  0.25988304369E+03  0.33597558004E+03  0.12499788370E+03 0.  0.
          5    1    3    3  501    0 -0.15707181931E+03 -0.40337100218E+02 -0.17371398729E+03  0.23769155950E+03  0.47000000000E+01 0. -1.
         -5    1    3    3    0  501 -0.32992701372E+01 -0.22885021845E+02  0.14934098448E+02  0.27923586889E+02  0.47000000000E+01 0. -1.
          5    1    4    4  502    0  0.17725340630E+03  0.73847926623E+02  0.24025260358E+03  0.30759663496E+03  0.47000000000E+01 0.  1.
         -5    1    4    4    0  502 -0.16882316845E+02 -0.10625804561E+02  0.19630440110E+02  0.28378945075E+02  0.47000000000E+01 0.  1.
<mgrwt>
<rscale>  0 0.59303419E+03</rscale>
<asrwt>0</asrwt>
<pdfrwt beam="1">  1       21 0.54053376E-01 0.59303419E+03</pdfrwt>
<pdfrwt beam="2">  1       21 0.38499044E-01 0.59303419E+03</pdfrwt>
<totfact> 0.18420100E+04</totfact>
</mgrwt>
</event>
<event>
 8    1  0.9478272E-006  0.2582675E+03  0.7546771E-02  0.1108189E+00
         21   -1    0    0  504  503  0.00000000000E+00  0.00000000000E+00  0.12986595892E+03  0.12986595892E+03  0.00000000000E+00 0. -1.
         21   -1    0    0  503  504 -0.00000000000E+00 -0.00000000000E+00 -0.12840565030E+03  0.12840565030E+03  0.00000000000E+00 0. -1.
         25    2    1    2    0    0  0.11916065142E+02  0.13927750877E+02  0.27440587819E+02  0.12928111312E+03  0.12499858198E+03 0.  0.
         25    2    1    2    0    0 -0.11916065142E+02 -0.13927750877E+02 -0.25980279194E+02  0.12899049610E+03  0.12501039286E+03 0.  0.
          5    1    3    3  501    0 -0.47936115604E+02  0.10599405306E+01  0.44469077600E+02  0.65563583762E+02  0.47000000000E+01 0.  1.
         -5    1    3    3    0  501  0.59852180745E+02  0.12867810347E+02 -0.17028489781E+02  0.63717529357E+02  0.47000000000E+01 0.  1.
          5    1    4    4  502    0 -0.41166751050E+02 -0.56339083143E+02  0.24140405955E+01  0.69976505153E+02  0.47000000000E+01 0.  1.
         -5    1    4    4    0  502  0.29250685909E+02  0.42411332266E+02 -0.28394319790E+02  0.59013990943E+02  0.47000000000E+01 0.  1.
<mgrwt>
<rscale>  0 0.25826748E+03</rscale>
<asrwt>0</asrwt>
<pdfrwt beam="1">  1       21 0.19979378E-01 0.25826748E+03</pdfrwt>
<pdfrwt beam="2">  1       21 0.19754715E-01 0.25826748E+03</pdfrwt>
<totfact> 0.53971665E+05</totfact>
</mgrwt>
</event>
<event>
 8    1  0.9478272E-006  0.2731575E+03  0.7546771E-02  0.1099486E+00
         21   -1    0    0  504  503  0.00000000000E+00  0.00000000000E+00  0.28705941073E+03  0.28705941073E+03  0.00000000000E+00 0.  1.
         21   -1    0    0  503  504 -0.00000000000E+00 -0.00000000000E+00 -0.64982209499E+02  0.64982209499E+02  0.00000000000E+00 0.  1.
         25    2    1    2    0    0  0.20273669494E+02  0.42141263362E+02  0.73642597865E+02  0.15242985848E+03  0.12499888713E+03 0.  0.
         25    2    1    2    0    0 -0.20273669494E+02 -0.42141263362E+02  0.14843460336E+03  0.19961176175E+03  0.12500046479E+03 0.  0.
          5    1    3    3  501    0  0.33307620488E+02  0.79935431138E+02  0.27024919672E+02  0.90837806100E+02  0.47000000000E+01 0.  1.
         -5    1    3    3    0  501 -0.13033950994E+02 -0.37794167776E+02  0.46617678193E+02  0.61592052381E+02  0.47000000000E+01 0.  1.
          5    1    4    4  502    0  0.32581404706E+02  0.11163697885E+02  0.17933575842E+01  0.34806353077E+02  0.47000000000E+01 0. -1.
         -5    1    4    4    0  502 -0.52855074201E+02 -0.53304961248E+02  0.14664124578E+03  0.16480540867E+03  0.47000000000E+01 0. -1.
<mgrwt>
<rscale>  0 0.27315750E+03</rscale>
<asrwt>0</asrwt>
<pdfrwt beam="1">  1       21 0.44162985E-01 0.27315750E+03</pdfrwt>
<pdfrwt beam="2">  1       21 0.99972632E-02 0.27315750E+03</pdfrwt>
<totfact> 0.39286322E+05</totfact>
</mgrwt>
</event>
<event>
 8    1  0.9478272E-006  0.2842600E+03  0.7546771E-02  0.1093385E+00
         21   -1    0    0  504  503  0.00000000000E+00  0.00000000000E+00  0.27917280894E+02  0.27917280894E+02  0.00000000000E+00 0. -1.
         21   -1    0    0  503  504 -0.00000000000E+00 -0.00000000000E+00 -0.72359965394E+03  0.72359965394E+03  0.00000000000E+00 0. -1.
         25    2    1    2    0    0  0.60568352035E+02  0.65903917185E+01 -0.27012439961E+03  0.30381569761E+03  0.12499931327E+03 0.  0.
         25    2    1    2    0    0 -0.60568352035E+02 -0.65903917185E+01 -0.42555797343E+03  0.44770123722E+03  0.12499940211E+03 0.  0.
          5    1    3    3  501    0 -0.28236336479E+02  0.18703756454E+02 -0.23830044941E+02  0.41678318646E+02  0.47000000000E+01 0.  1.
         -5    1    3    3    0  501  0.88804688514E+02 -0.12113364736E+02 -0.24629435467E+03  0.26213737896E+03  0.47000000000E+01 0.  1.
          5    1    4    4  502    0 -0.16118287821E+01  0.54032593215E+02 -0.15787688613E+03  0.16694106833E+03  0.47000000000E+01 0. -1.
         -5    1    4    4    0  502 -0.58956523253E+02 -0.60622984933E+02 -0.26768108731E+03  0.28076016889E+03  0.47000000000E+01 0. -1.
<mgrwt>
<rscale>  0 0.28425999E+03</rscale>
<asrwt>0</asrwt>
<pdfrwt beam="1">  1       21 0.42949666E-02 0.28425999E+03</pdfrwt>
<pdfrwt beam="2">  1       21 0.11132302E+00 0.28425999E+03</pdfrwt>
<totfact> 0.21441882E+05</totfact>
</mgrwt>
</event>
<event>
 8    1  0.9478272E-006  0.2656071E+03  0.7546771E-02  0.1103820E+00
         21   -1    0    0  504  503  0.00000000000E+00  0.00000000000E+00  0.13625650463E+03  0.13625650463E+03  0.00000000000E+00 0. -1.
         21   -1    0    0  503  504 -0.00000000000E+00 -0.00000000000E+00 -0.12943805729E+03  0.12943805729E+03  0.00000000000E+00 0. -1.
         25    2    1    2    0    0 -0.14950915801E+02 -0.18109986265E+02  0.41625610548E+02  0.13382202753E+03  0.12499656841E+03 0.  0.
         25    2    1    2    0    0  0.14950915801E+02  0.18109986265E+02 -0.34807163212E+02  0.13187253438E+03  0.12500930056E+03 0.  0.
          5    1    3    3  501    0 -0.69952693892E+02 -0.15405936112E+02  0.20490646995E+02  0.74650377525E+02  0.47000000000E+01 0.  1.
         -5    1    3    3    0  501  0.55001778092E+02 -0.27040501526E+01  0.21134963553E+02  0.59171650009E+02  0.47000000000E+01 0.  1.
          5    1    4    4  502    0 -0.11208089547E+01 -0.35665955106E+02 -0.60161845622E+02  0.70106021389E+02  0.47000000000E+01 0.  1.
         -5    1    4    4    0  502  0.16071724756E+02  0.53775941371E+02  0.25354682410E+02  0.61766512991E+02  0.47000000000E+01 0.  1.
<mgrwt>
<rscale>  0 0.26560706E+03</rscale>
<asrwt>0</asrwt>
<pdfrwt beam="1">  1       21 0.20962539E-01 0.26560706E+03</pdfrwt>
<pdfrwt beam="2">  1       21 0.19913547E-01 0.26560706E+03</pdfrwt>
<totfact> 0.48501454E+05</totfact>
</mgrwt>
</event>
<event>
 8    1  0.9478272E-006  0.2576124E+03  0.7546771E-02  0.1108586E+00
         21   -1    0    0  504  503  0.00000000000E+00  0.00000000000E+00  0.17707648541E+03  0.17707648541E+03  0.00000000000E+00 0.  1.
         21   -1    0    0  503  504 -0.00000000000E+00 -0.00000000000E+00 -0.93694214155E+02  0.93694214155E+02  0.00000000000E+00 0.  1.
         25    2    1    2    0    0  0.13083478793E+01  0.81178460004E+01  0.73189126205E+02  0.14508765739E+03  0.12500467565E+03 0.  0.
         25    2    1    2    0    0 -0.13083478793E+01 -0.81178460004E+01  0.10193145051E+02  0.12568304218E+03  0.12499886274E+03 0.  0.
          5    1    3    3  501    0 -0.30384216308E+02  0.55750759016E+02  0.19752990948E+02  0.66660470917E+02  0.47000000000E+01 0. -1.
         -5    1    3    3    0  501  0.31692564187E+02 -0.47632913016E+02  0.53436135256E+02  0.78427186474E+02  0.47000000000E+01 0. -1.
          5    1    4    4  502    0 -0.51992290173E+02  0.27953721780E+02 -0.10113045561E+02  0.60074724213E+02  0.47000000000E+01 0.  1.
         -5    1    4    4    0  502  0.50683942294E+02 -0.36071567781E+02  0.20306190612E+02  0.65608317962E+02  0.47000000000E+01 0.  1.
<mgrwt>
<rscale>  0 0.25761244E+03</rscale>
<asrwt>0</asrwt>
<pdfrwt beam="1">  1       21 0.27242536E-01 0.25761244E+03</pdfrwt>
<pdfrwt beam="2">  1       21 0.14414495E-01 0.25761244E+03</pdfrwt>
<totfact> 0.53523093E+05</totfact>
</mgrwt>
</event>
<event>
 8    1  0.9478272E-006  0.2555970E+03  0.7546771E-02  0.1109818E+00
         21   -1    0    0  504  503  0.00000000000E+00  0.00000000000E+00  0.69000375553E+02  0.69000375553E+02  0.00000000000E+00 0.  1.
         21   -1    0    0  503  504 -0.00000000000E+00 -0.00000000000E+00 -0.23670106282E+03  0.23670106282E+03  0.00000000000E+00 0.  1.
         25    2    1    2    0    0  0.17320500230E+02 -0.35604706354E+01 -0.60084484209E+02  0.13981406359E+03  0.12500060182E+03 0.  0.
         25    2    1    2    0    0 -0.17320500230E+02  0.35604706354E+01 -0.10761620305E+03  0.16588737478E+03  0.12499878909E+03 0.  0.
          5    1    3    3  501    0  0.22144114072E+02 -0.46724884768E+02  0.14030149475E+02  0.53782076372E+02  0.47000000000E+01 0.  1.
         -5    1    3    3    0  501 -0.48236138410E+01  0.43164414133E+02 -0.74114633684E+02  0.86031987214E+02  0.47000000000E+01 0.  1.
          5    1    4    4  502    0 -0.48580860577E+02 -0.39573854706E+02 -0.25326639667E+02  0.67747462443E+02  0.47000000000E+01 0.  1.
         -5    1    4    4    0  502  0.31260360346E+02  0.43134325341E+02 -0.82289563387E+02  0.98139912340E+02  0.47000000000E+01 0.  1.
<mgrwt>
<rscale>  0 0.25559704E+03</rscale>
<asrwt>0</asrwt>
<pdfrwt beam="1">  1       21 0.10615442E-01 0.25559704E+03</pdfrwt>
<pdfrwt beam="2">  1       21 0.36415549E-01 0.25559704E+03</pdfrwt>
<totfact> 0.52453771E+05</totfact>
</mgrwt>
</event>
<event>
 8    1  0.9478272E-006  0.2876129E+03  0.7546771E-02  0.1091602E+00
         21   -1    0    0  504  503  0.00000000000E+00  0.00000000000E+00  0.16361476665E+03  0.16361476665E+03  0.00000000000E+00 0.  1.
         21   -1    0    0  503  504 -0.00000000000E+00 -0.00000000000E+00 -0.12639626788E+03  0.12639626788E+03  0.00000000000E+00 0.  1.
         25    2    1    2    0    0  0.50596933705E+02 -0.43324445008E+02  0.43731536275E+02  0.14823526085E+03  0.12499675219E+03 0.  0.
         25    2    1    2    0    0 -0.50596933705E+02  0.43324445008E+02 -0.65130375061E+01  0.14177577368E+03  0.12498357136E+03 0.  0.
          5    1    3    3  501    0 -0.45395880990E+00 -0.78952323673E+02  0.21492214287E+02  0.81961459033E+02  0.47000000000E+01 0. -1.
         -5    1    3    3    0  501  0.51050892515E+02  0.35627878665E+02  0.22239321988E+02  0.66273801816E+02  0.47000000000E+01 0. -1.
          5    1    4    4  502    0 -0.65783328334E+02 -0.25595612084E+02 -0.65476215747E+01  0.71046062473E+02  0.47000000000E+01 0. -1.
         -5    1    4    4    0  502  0.15186394629E+02  0.68920057092E+02  0.34584068644E-01  0.70729711207E+02  0.47000000000E+01 0. -1.
<mgrwt>
<rscale>  0 0.28761291E+03</rscale>
<asrwt>0</asrwt>
<pdfrwt beam="1">  1       21 0.25171503E-01 0.28761291E+03</pdfrwt>
<pdfrwt beam="2">  1       21 0.19445580E-01 0.28761291E+03</pdfrwt>
<totfact> 0.35625743E+05</totfact>
</mgrwt>
</event>
<event>
 8    1  0.9478272E-006  0.2823424E+03  0.7546771E-02  0.1094416E+00
         21   -1    0    0  504  503  0.00000000000E+00  0.00000000000E+00  0.32700117927E+03  0.32700117927E+03  0.00000000000E+00 0. -1.
         21   -1    0    0  503  504 -0.00000000000E+00 -0.00000000000E+00 -0.60945686611E+02  0.60945686611E+02  0.00000000000E+00 0. -1.
         25    2    1    2    0    0  0.14289200080E+02 -0.61142310107E+02  0.10692704809E+03  0.17607369694E+03  0.12500395919E+03 0.  0.
         25    2    1    2    0    0 -0.14289200080E+02  0.61142310107E+02  0.15912844456E+03  0.21187316894E+03  0.12500325805E+03 0.  0.
          5    1    3    3  501    0 -0.52657469892E+02 -0.69071793249E+01  0.35431318403E+02  0.64015518317E+02  0.47000000000E+01 0.  1.
         -5    1    3    3    0  501  0.66946669972E+02 -0.54235130782E+02  0.71495729691E+02  0.11205817862E+03  0.47000000000E+01 0.  1.
          5    1    4    4  502    0 -0.61122420012E+02  0.35379912416E-01  0.55532075568E+02  0.82715493692E+02  0.47000000000E+01 0. -1.
         -5    1    4    4    0  502  0.46833219932E+02  0.61106930195E+02  0.10359636899E+03  0.12915767525E+03  0.47000000000E+01 0. -1.
<mgrwt>
<rscale>  0 0.28234243E+03</rscale>
<asrwt>0</asrwt>
<pdfrwt beam="1">  1       21 0.50307873E-01 0.28234243E+03</pdfrwt>
<pdfrwt beam="2">  1       21 0.93762597E-02 0.28234243E+03</pdfrwt>
<totfact> 0.33492734E+05</totfact>
</mgrwt>
</event>
<event>
 8    1  0.9478272E-006  0.2842629E+03  0.7546771E-02  0.1093383E+00
         21   -1    0    0  504  503  0.00000000000E+00  0.00000000000E+00  0.23145006215E+02  0.23145006215E+02  0.00000000000E+00 0. -1.
         21   -1    0    0  503  504 -0.00000000000E+00 -0.00000000000E+00 -0.87281678698E+03  0.87281678698E+03  0.00000000000E+00 0. -1.
         25    2    1    2    0    0  0.20777387310E+02  0.16341462925E+02 -0.22855185552E+03  0.26183941570E+03  0.12500074287E+03 0.  0.
         25    2    1    2    0    0 -0.20777387310E+02 -0.16341462925E+02 -0.62111992525E+03  0.63412237750E+03  0.12498993908E+03 0.  0.
          5    1    3    3  501    0  0.21850458046E+02  0.20125232987E+02  0.29830323156E+01  0.30223434640E+02  0.47000000000E+01 0.  1.
         -5    1    3    3    0  501 -0.10730707362E+01 -0.37837700627E+01 -0.23153488784E+03  0.23161598106E+03  0.47000000000E+01 0.  1.
          5    1    4    4  502    0  0.10096221566E+02 -0.57709336713E+02 -0.16673429273E+03  0.17679003254E+03  0.47000000000E+01 0. -1.
         -5    1    4    4    0  502 -0.30873608876E+02  0.41367873788E+02 -0.45438563252E+03  0.45733234496E+03  0.47000000000E+01 0. -1.
<mgrwt>
<rscale>  0 0.28426291E+03</rscale>
<asrwt>0</asrwt>
<pdfrwt beam="1">  1       21 0.35607698E-02 0.28426291E+03</pdfrwt>
<pdfrwt beam="2">  1       21 0.13427952E+00 0.28426291E+03</pdfrwt>
<totfact> 0.18359939E+05</totfact>
</mgrwt>
</event>
<event>
 8    1  0.9478272E-006  0.2583046E+03  0.7546771E-02  0.1108166E+00
         21   -1    0    0  504  503  0.00000000000E+00  0.00000000000E+00  0.20050997297E+02  0.20050997297E+02  0.00000000000E+00 0.  1.
         21   -1    0    0  503  504 -0.00000000000E+00 -0.00000000000E+00 -0.83189448634E+03  0.83189448634E+03  0.00000000000E+00 0.  1.
         25    2    1    2    0    0 -0.66519264879E+01 -0.55780262033E+01 -0.30265073522E+03  0.32756199769E+03  0.12499612913E+03 0.  0.
         25    2    1    2    0    0  0.66519264879E+01  0.55780262033E+01 -0.50919275383E+03  0.52438348595E+03  0.12500166914E+03 0.  0.
          5    1    3    3  501    0 -0.22290040126E+02  0.54984921369E+02 -0.11161335472E+03  0.12649038865E+03  0.47000000000E+01 0.  1.
         -5    1    3    3    0  501  0.15638113638E+02 -0.60562947573E+02 -0.19103738050E+03  0.20107160905E+03  0.47000000000E+01 0.  1.
          5    1    4    4  502    0 -0.58337973654E+02  0.10596518111E+02 -0.22000404078E+03  0.22790233286E+03  0.47000000000E+01 0. -1.
         -5    1    4    4    0  502  0.64989900142E+02 -0.50184919078E+01 -0.28918871305E+03  0.29648115309E+03  0.47000000000E+01 0. -1.
<mgrwt>
<rscale>  0 0.25830458E+03</rscale>
<asrwt>0</asrwt>
<pdfrwt beam="1">  1       21 0.30847700E-02 0.25830458E+03</pdfrwt>
<pdfrwt beam="2">  1       21 0.12798372E+00 0.25830458E+03</pdfrwt>
<totfact> 0.26597509E+05</totfact>
</mgrwt>
</event>
<event>
 8    1  0.9478272E-006  0.4048814E+03  0.7546771E-02  0.1042102E+00
         21   -1    0    0  504  503  0.00000000000E+00  0.00000000000E+00  0.13295214229E+03  0.13295214229E+03  0.00000000000E+00 0.  1.
         21   -1    0    0  503  504 -0.00000000000E+00 -0.00000000000E+00 -0.30824810937E+03  0.30824810937E+03  0.00000000000E+00 0.  1.
         25    2    1    2    0    0  0.37105678498E+01 -0.15707841103E+03 -0.59521359731E+02  0.20943285627E+03  0.12502773090E+03 0.  0.
         25    2    1    2    0    0 -0.37105678498E+01  0.15707841103E+03 -0.11577460736E+03  0.23176739539E+03  0.12499988133E+03 0.  0.
          5    1    3    3  501    0 -0.32779264676E+01 -0.17692697594E+03 -0.42728762543E+02  0.18210364292E+03  0.47000000000E+01 0.  1.
         -5    1    3    3    0  501  0.69884943174E+01  0.19848564909E+02 -0.16792597188E+02  0.27329213346E+02  0.47000000000E+01 0.  1.
          5    1    4    4  502    0  0.57511671423E+02  0.56025652306E+02 -0.63542681463E+02  0.10249989480E+03  0.47000000000E+01 0.  1.
         -5    1    4    4    0  502 -0.61222239273E+02  0.10105275873E+03 -0.52231925894E+02  0.12926750060E+03  0.47000000000E+01 0.  1.
<mgrwt>
<rscale>  0 0.40488145E+03</rscale>
<asrwt>0</asrwt>
<pdfrwt beam="1">  1       21 0.20454176E-01 0.40488145E+03</pdfrwt>
<pdfrwt beam="2">  1       21 0.47422786E-01 0.40488145E+03</pdfrwt>
<totfact> 0.88413407E+04</totfact>
</mgrwt>
</event>
<event>
 8    1  0.9478272E-006  0.2707536E+03  0.7546771E-02  0.1100849E+00
         21   -1    0    0  504  503  0.00000000000E+00  0.00000000000E+00  0.16910226150E+04  0.16910226150E+04  0.00000000000E+00 0.  1.
         21   -1    0    0  503  504 -0.00000000000E+00 -0.00000000000E+00 -0.10837749466E+02  0.10837749466E+02  0.00000000000E+00 0.  1.
         25    2    1    2    0    0  0.36880018525E+02 -0.80530131723E+01  0.10646840974E+04  0.10726611731E+04  0.12499911326E+03 0.  0.
         25    2    1    2    0    0 -0.36880018525E+02  0.80530131723E+01  0.61550076813E+03  0.62919919132E+03  0.12500176001E+03 0.  0.
          5    1    3    3  501    0  0.50421680895E+02 -0.50643315779E+02  0.86610094588E+03  0.86905697730E+03  0.47000000000E+01 0.  1.
         -5    1    3    3    0  501 -0.13541662370E+02  0.42590302607E+02  0.19858315149E+03  0.20360419581E+03  0.47000000000E+01 0.  1.
          5    1    4    4  502    0 -0.20878169872E+02 -0.52867758738E+02  0.17167052406E+03  0.18089708876E+03  0.47000000000E+01 0.  1.
         -5    1    4    4    0  502 -0.16001848653E+02  0.60920771910E+02  0.44383024407E+03  0.44830210256E+03  0.47000000000E+01 0.  1.
<mgrwt>
<rscale>  0 0.27075361E+03</rscale>
<asrwt>0</asrwt>
<pdfrwt beam="1">  1       21 0.26015712E+00 0.27075361E+03</pdfrwt>
<pdfrwt beam="2">  1       21 0.16673474E-02 0.27075361E+03</pdfrwt>
<totfact> 0.91260247E+04</totfact>
</mgrwt>
</event>
<event>
 8    1  0.9478272E-006  0.5688375E+03  0.7546771E-02  0.9972254E-01
         21   -1    0    0  504  503  0.00000000000E+00  0.00000000000E+00  0.15287872860E+03  0.15287872860E+03  0.00000000000E+00 0. -1.
         21   -1    0    0  503  504 -0.00000000000E+00 -0.00000000000E+00 -0.52913843583E+03  0.52913843583E+03  0.00000000000E+00 0. -1.
         25    2    1    2    0    0 -0.16716140859E+03 -0.14747570910E+03 -0.38473756542E+02  0.25845289641E+03  0.12500259366E+03 0.  0.
         25    2    1    2    0    0  0.16716140859E+03  0.14747570910E+03 -0.33778595068E+03  0.42356426802E+03  0.12496127148E+03 0.  0.
          5    1    3    3  501    0 -0.75942408986E+01 -0.56022841128E+02  0.27449128192E+02  0.63022026795E+02  0.47000000000E+01 0. -1.
         -5    1    3    3    0  501 -0.15956716769E+03 -0.91452867974E+02 -0.65922884735E+02  0.19543086961E+03  0.47000000000E+01 0. -1.
          5    1    4    4  502    0  0.54021335651E+02  0.92732014674E+02 -0.71425159957E+02  0.12900067723E+03  0.47000000000E+01 0.  1.
         -5    1    4    4    0  502  0.11314007294E+03  0.54743694427E+02 -0.26636079073E+03  0.29456359079E+03  0.47000000000E+01 0.  1.
<mgrwt>
<rscale>  0 0.56883745E+03</rscale>
<asrwt>0</asrwt>
<pdfrwt beam="1">  1       21 0.23519805E-01 0.56883745E+03</pdfrwt>
<pdfrwt beam="2">  1       21 0.81405912E-01 0.56883745E+03</pdfrwt>
<totfact> 0.19770699E+04</totfact>
</mgrwt>
</event>
<event>
 8    1  0.9478272E-006  0.4086350E+03  0.7546771E-02  0.1040830E+00
         21   -1    0    0  504  503  0.00000000000E+00  0.00000000000E+00  0.88027681070E+02  0.88027681070E+02  0.00000000000E+00 0.  1.
         21   -1    0    0  503  504 -0.00000000000E+00 -0.00000000000E+00 -0.47423302920E+03  0.47423302920E+03  0.00000000000E+00 0.  1.
         25    2    1    2    0    0  0.95334949087E+02 -0.91150048122E+02 -0.32158895146E+03  0.36938088068E+03  0.12500279006E+03 0.  0.
         25    2    1    2    0    0 -0.95334949087E+02  0.91150048122E+02 -0.64616396669E+02  0.19287982959E+03  0.12502106284E+03 0.  0.
          5    1    3    3  501    0  0.45061530591E+02  0.23275000533E+02 -0.55298687200E+02  0.75181792976E+02  0.47000000000E+01 0. -1.
         -5    1    3    3    0  501  0.50273418496E+02 -0.11442504866E+03 -0.26629026426E+03  0.29419908771E+03  0.47000000000E+01 0. -1.
          5    1    4    4  502    0 -0.74329949769E+02  0.30157578258E+02 -0.92430248270E+02  0.12247392275E+03  0.47000000000E+01 0.  1.
         -5    1    4    4    0  502 -0.21004999318E+02  0.60992469864E+02  0.27813851601E+02  0.70405906836E+02  0.47000000000E+01 0.  1.
<mgrwt>
<rscale>  0 0.40863497E+03</rscale>
<asrwt>0</asrwt>
<pdfrwt beam="1">  1       21 0.13542721E-01 0.40863497E+03</pdfrwt>
<pdfrwt beam="2">  1       21 0.72958925E-01 0.40863497E+03</pdfrwt>
<totfact> 0.74593501E+04</totfact>
</mgrwt>
</event>
<event>
 8    1  0.9478272E-006  0.2746376E+03  0.7546771E-02  0.1098654E+00
         21   -1    0    0  504  503  0.00000000000E+00  0.00000000000E+00  0.19396595639E+03  0.19396595639E+03  0.00000000000E+00 0.  1.
         21   -1    0    0  503  504 -0.00000000000E+00 -0.00000000000E+00 -0.97215234755E+02  0.97215234755E+02  0.00000000000E+00 0.  1.
         25    2    1    2    0    0 -0.46777401631E+02  0.89274316745E+01  0.15467886099E+02  0.13465679685E+03  0.12500149238E+03 0.  0.
         25    2    1    2    0    0  0.46777401631E+02 -0.89274316745E+01  0.81282835534E+02  0.15652439429E+03  0.12500064926E+03 0.  0.
          5    1    3    3  501    0 -0.54100015744E+02  0.48561345434E+02  0.43950098885E+02  0.85080650949E+02  0.47000000000E+01 0. -1.
         -5    1    3    3    0  501  0.73226141132E+01 -0.39633913760E+02 -0.28482212786E+02  0.49576145903E+02  0.47000000000E+01 0. -1.
          5    1    4    4  502    0  0.85674902110E+02  0.82194290499E+01  0.73014187780E+02  0.11296419558E+03  0.47000000000E+01 0.  1.
         -5    1    4    4    0  502 -0.38897500479E+02 -0.17146860724E+02  0.82686477532E+01  0.43560198713E+02  0.47000000000E+01 0.  1.
<mgrwt>
<rscale>  0 0.27463755E+03</rscale>
<asrwt>0</asrwt>
<pdfrwt beam="1">  1       21 0.29840916E-01 0.27463755E+03</pdfrwt>
<pdfrwt beam="2">  1       21 0.14956190E-01 0.27463755E+03</pdfrwt>
<totfact> 0.41749566E+05</totfact>
</mgrwt>
</event>
<event>
 8    1  0.9478272E-006  0.2583991E+03  0.7546771E-02  0.1108109E+00
         21   -1    0    0  504  503  0.00000000000E+00  0.00000000000E+00  0.10320096395E+04  0.10320096395E+04  0.00000000000E+00 0. -1.
         21   -1    0    0  503  504 -0.00000000000E+00 -0.00000000000E+00 -0.16174780514E+02  0.16174780514E+02  0.00000000000E+00 0. -1.
         25    2    1    2    0    0  0.20307495934E+02  0.23931675881E+02  0.47105062948E+03  0.48836305606E+03  0.12499863797E+03 0.  0.
         25    2    1    2    0    0 -0.20307495934E+02 -0.23931675881E+02  0.54478422951E+03  0.55982136396E+03  0.12499993326E+03 0.  0.
          5    1    3    3  501    0 -0.49818898314E+02  0.29833751394E+02  0.20406956274E+03  0.21222264673E+03  0.47000000000E+01 0. -1.
         -5    1    3    3    0  501  0.70126394248E+02 -0.59020755129E+01  0.26698106674E+03  0.27614040933E+03  0.47000000000E+01 0. -1.
          5    1    4    4  502    0  0.21078490143E+02  0.67884010009E+00  0.11747910639E+02  0.24594043486E+02  0.47000000000E+01 0.  1.
         -5    1    4    4    0  502 -0.41385986077E+02 -0.24610515981E+02  0.53303631887E+03  0.53522732047E+03  0.47000000000E+01 0.  1.
<mgrwt>
<rscale>  0 0.25839914E+03</rscale>
<asrwt>0</asrwt>
<pdfrwt beam="1">  1       21 0.15877066E+00 0.25839914E+03</pdfrwt>
<pdfrwt beam="2">  1       21 0.24884286E-02 0.25839914E+03</pdfrwt>
<totfact> 0.21581114E+05</totfact>
</mgrwt>
</event>
<event>
 8    1  0.9478272E-006  0.2774884E+03  0.7546771E-02  0.1097069E+00
         21   -1    0    0  504  503  0.00000000000E+00  0.00000000000E+00  0.32943011297E+03  0.32943011297E+03  0.00000000000E+00 0.  1.
         21   -1    0    0  503  504 -0.00000000000E+00 -0.00000000000E+00 -0.58434120639E+02  0.58434120639E+02  0.00000000000E+00 0.  1.
         25    2    1    2    0    0 -0.32753748645E+02  0.20774071775E+02  0.71126168711E+02  0.14895510826E+03  0.12499728915E+03 0.  0.
         25    2    1    2    0    0  0.32753748645E+02 -0.20774071775E+02  0.19986982362E+03  0.23890912534E+03  0.12500101468E+03 0.  0.
          5    1    3    3  501    0 -0.23842726816E+02  0.47326134255E+02  0.96938919059E+02  0.11057794823E+03  0.47000000000E+01 0. -1.
         -5    1    3    3    0  501 -0.89110218295E+01 -0.26552062481E+02 -0.25812750348E+02  0.38377160038E+02  0.47000000000E+01 0. -1.
          5    1    4    4  502    0  0.63793162330E+02 -0.44538438209E+02  0.17693581097E+03  0.19334324721E+03  0.47000000000E+01 0.  1.
         -5    1    4    4    0  502 -0.31039413684E+02  0.23764366434E+02  0.22934012649E+02  0.45565878133E+02  0.47000000000E+01 0.  1.
<mgrwt>
<rscale>  0 0.27748844E+03</rscale>
<asrwt>0</asrwt>
<pdfrwt beam="1">  1       21 0.50681555E-01 0.27748844E+03</pdfrwt>
<pdfrwt beam="2">  1       21 0.89898649E-02 0.27748844E+03</pdfrwt>
<totfact> 0.35560734E+05</totfact>
</mgrwt>
</event>
<event>
 8    1  0.9478272E-006  0.2934694E+03  0.7546771E-02  0.1088552E+00
         21   -1    0    0  504  503  0.00000000000E+00  0.00000000000E+00  0.44075607668E+03  0.44075607668E+03  0.00000000000E+00 0.  1.
         21   -1    0    0  503  504 -0.00000000000E+00 -0.00000000000E+00 -0.48850322953E+02  0.48850322953E+02  0.00000000000E+00 0.  1.
         25    2    1    2    0    0  0.65036683559E+02  0.37193292797E+02  0.22448964008E+03  0.26764554892E+03  0.12500172046E+03 0.  0.
         25    2    1    2    0    0 -0.65036683559E+02 -0.37193292797E+02  0.16741611365E+03  0.22196085071E+03  0.12500141160E+03 0.  0.
          5    1    3    3  501    0 -0.27306780019E+02  0.10046259413E+01  0.70513962012E+01  0.28609119117E+02  0.47000000000E+01 0. -1.
         -5    1    3    3    0  501  0.92343463577E+02  0.36188666856E+02  0.21743824387E+03  0.23903642980E+03  0.47000000000E+01 0. -1.
          5    1    4    4  502    0 -0.87285504075E+01  0.63163006281E+01 -0.19015249467E+02  0.22355155069E+02  0.47000000000E+01 0. -1.
         -5    1    4    4    0  502 -0.56308133151E+02 -0.43509593425E+02  0.18643136312E+03  0.19960569564E+03  0.47000000000E+01 0. -1.
<mgrwt>
<rscale>  0 0.29346943E+03</rscale>
<asrwt>0</asrwt>
<pdfrwt beam="1">  1       21 0.67808624E-01 0.29346943E+03</pdfrwt>
<pdfrwt beam="2">  1       21 0.75154346E-02 0.29346943E+03</pdfrwt>
<totfact> 0.25895159E+05</totfact>
</mgrwt>
</event>
<event>
 8    1  0.9478272E-006  0.3868383E+03  0.7546771E-02  0.1048435E+00
         21   -1    0    0  504  503  0.00000000000E+00  0.00000000000E+00  0.84419497186E+02  0.84419497186E+02  0.00000000000E+00 0. -1.
         21   -1    0    0  503  504 -0.00000000000E+00 -0.00000000000E+00 -0.44315563622E+03  0.44315563622E+03  0.00000000000E+00 0. -1.
         25    2    1    2    0    0 -0.10168128580E+03  0.95200814748E+02 -0.11277021879E+03  0.21850157595E+03  0.12499414960E+03 0.  0.
         25    2    1    2    0    0  0.10168128580E+03 -0.95200814748E+02 -0.24596592025E+03  0.30907355746E+03  0.12499980394E+03 0.  0.
          5    1    3    3  501    0 -0.25970363216E+01  0.75784777110E+02 -0.84313532796E+02  0.11349422387E+03  0.47000000000E+01 0. -1.
         -5    1    3    3    0  501 -0.99084249483E+02  0.19416037637E+02 -0.28456685993E+02  0.10500735208E+03  0.47000000000E+01 0. -1.
          5    1    4    4  502    0  0.12707139414E+03 -0.57153165511E+02 -0.16547205605E+03  0.21637170534E+03  0.47000000000E+01 0.  1.
         -5    1    4    4    0  502 -0.25390108334E+02 -0.38047649236E+02 -0.80493864199E+02  0.92701852125E+02  0.47000000000E+01 0.  1.
<mgrwt>
<rscale>  0 0.38683834E+03</rscale>
<asrwt>0</asrwt>
<pdfrwt beam="1">  1       21 0.12987615E-01 0.38683834E+03</pdfrwt>
<pdfrwt beam="2">  1       21 0.68177790E-01 0.38683834E+03</pdfrwt>
<totfact> 0.94256742E+04</totfact>
</mgrwt>
</event>
<event>
 8    1  0.9478272E-006  0.3196584E+03  0.7546771E-02  0.1075807E+00
         21   -1    0    0  504  503  0.00000000000E+00  0.00000000000E+00  0.36568656365E+03  0.36568656365E+03  0.00000000000E+00 0. -1.
         21   -1    0    0  503  504 -0.00000000000E+00 -0.00000000000E+00 -0.69855909580E+02  0.69855909580E+02  0.00000000000E+00 0. -1.
         25    2    1    2    0    0  0.52853308899E+02  0.51515417028E+02  0.23904373385E+03  0.27966591319E+03  0.12499522333E+03 0.  0.
         25    2    1    2    0    0 -0.52853308899E+02 -0.51515417028E+02  0.56786920221E+02  0.15587656004E+03  0.12500174882E+03 0.  0.
          5    1    3    3  501    0 -0.11429228286E+02 -0.26740815939E+02  0.11874324071E+03  0.12234273870E+03  0.47000000000E+01 0. -1.
         -5    1    3    3    0  501  0.64282537185E+02  0.78256232966E+02  0.12030049313E+03  0.15732317449E+03  0.47000000000E+01 0. -1.
          5    1    4    4  502    0 -0.71382697111E+02  0.67004057786E+01 -0.70490706987E+00  0.71853822295E+02  0.47000000000E+01 0.  1.
         -5    1    4    4    0  502  0.18529388212E+02 -0.58215822806E+02  0.57491827291E+02  0.84022737743E+02  0.47000000000E+01 0.  1.
<mgrwt>
<rscale>  0 0.31965836E+03</rscale>
<asrwt>0</asrwt>
<pdfrwt beam="1">  1       21 0.56259470E-01 0.31965836E+03</pdfrwt>
<pdfrwt beam="2">  1       21 0.10747063E-01 0.31965836E+03</pdfrwt>
<totfact> 0.20535276E+05</totfact>
</mgrwt>
</event>
<event>
 8    1  0.9478272E-006  0.3530120E+03  0.7546771E-02  0.1061386E+00
         21   -1    0    0  504  503  0.00000000000E+00  0.00000000000E+00  0.58824581985E+03  0.58824581985E+03  0.00000000000E+00 0. -1.
         21   -1    0    0  503  504 -0.00000000000E+00 -0.00000000000E+00 -0.52961477746E+02  0.52961477746E+02  0.00000000000E+00 0. -1.
         25    2    1    2    0    0  0.29310526882E+02 -0.11773596258E+03  0.21600219338E+03  0.27749473587E+03  0.12500206808E+03 0.  0.
         25    2    1    2    0    0 -0.29310526882E+02  0.11773596258E+03  0.31928214873E+03  0.36371256173E+03  0.12499949276E+03 0.  0.
          5    1    3    3  501    0 -0.39115672767E+02 -0.21977227539E+02  0.21187994577E+02  0.49840299965E+02  0.47000000000E+01 0.  1.
         -5    1    3    3    0  501  0.68426199649E+02 -0.95758735037E+02  0.19481419880E+03  0.22765443591E+03  0.47000000000E+01 0.  1.
          5    1    4    4  502    0 -0.24295299096E+02  0.40647813741E+02  0.26485648989E+03  0.26909767103E+03  0.47000000000E+01 0. -1.
         -5    1    4    4    0  502 -0.50152277859E+01  0.77088148835E+02  0.54425658839E+02  0.94614890692E+02  0.47000000000E+01 0. -1.
<mgrwt>
<rscale>  0 0.35301200E+03</rscale>
<asrwt>0</asrwt>
<pdfrwt beam="1">  1       21 0.90499352E-01 0.35301200E+03</pdfrwt>
<pdfrwt beam="2">  1       21 0.81479201E-02 0.35301200E+03</pdfrwt>
<totfact> 0.11464027E+05</totfact>
</mgrwt>
</event>
<event>
 8    1  0.9478272E-006  0.2865195E+03  0.7546771E-02  0.1092180E+00
         21   -1    0    0  504  503  0.00000000000E+00  0.00000000000E+00  0.11981331712E+02  0.11981331712E+02  0.00000000000E+00 0. -1.
         21   -1    0    0  503  504 -0.00000000000E+00 -0.00000000000E+00 -0.17129441922E+04  0.17129441922E+04  0.00000000000E+00 0. -1.
         25    2    1    2    0    0  0.65350980571E+02 -0.24337177207E+02 -0.88608296252E+03  0.89756862018E+03  0.12499345025E+03 0.  0.
         25    2    1    2    0    0 -0.65350980571E+02  0.24337177207E+02 -0.81487989801E+03  0.82735690378E+03  0.12500859646E+03 0.  0.
          5    1    3    3  501    0  0.67956375227E+02  0.32351485303E+01 -0.20779692037E+03  0.21870113222E+03  0.47000000000E+01 0. -1.
         -5    1    3    3    0  501 -0.26053946560E+01 -0.27572325738E+02 -0.67828604215E+03  0.67886748796E+03  0.47000000000E+01 0. -1.
          5    1    4    4  502    0  0.24600747161E+02  0.41484510472E+02 -0.36717911847E+03  0.37036300627E+03  0.47000000000E+01 0.  1.
         -5    1    4    4    0  502 -0.89951727733E+02 -0.17147333265E+02 -0.44770077954E+03  0.45699389751E+03  0.47000000000E+01 0.  1.
<mgrwt>
<rscale>  0 0.28651948E+03</rscale>
<asrwt>0</asrwt>
<pdfrwt beam="1">  1       21 0.18432831E-02 0.28651948E+03</pdfrwt>
<pdfrwt beam="2">  1       21 0.26352970E+00 0.28651948E+03</pdfrwt>
<totfact> 0.73366797E+04</totfact>
</mgrwt>
</event>
<event>
 8    1  0.9478272E-006  0.3141250E+03  0.7546771E-02  0.1078385E+00
         21   -1    0    0  504  503  0.00000000000E+00  0.00000000000E+00  0.63296542391E+03  0.63296542391E+03  0.00000000000E+00 0.  1.
         21   -1    0    0  503  504 -0.00000000000E+00 -0.00000000000E+00 -0.38973117704E+02  0.38973117704E+02  0.00000000000E+00 0.  1.
         25    2    1    2    0    0 -0.59023738501E+02 -0.60232717385E+02  0.20298640277E+03  0.25286493584E+03  0.12500165645E+03 0.  0.
         25    2    1    2    0    0  0.59023738501E+02  0.60232717385E+02  0.39100590343E+03  0.41907360578E+03  0.12500115434E+03 0.  0.
          5    1    3    3  501    0 -0.56878450440E+02 -0.46434896385E+02  0.30332178338E+02  0.79583219145E+02  0.47000000000E+01 0. -1.
         -5    1    3    3    0  501 -0.21452880610E+01 -0.13797820999E+02  0.17265422443E+03  0.17328171669E+03  0.47000000000E+01 0. -1.
          5    1    4    4  502    0  0.53268121605E+02 -0.10672802956E+02  0.29212599554E+03  0.29717181692E+03  0.47000000000E+01 0. -1.
         -5    1    4    4    0  502  0.57556168964E+01  0.70905520340E+02  0.98879907894E+02  0.12190178885E+03  0.47000000000E+01 0. -1.
<mgrwt>
<rscale>  0 0.31412504E+03</rscale>
<asrwt>0</asrwt>
<pdfrwt beam="1">  1       21 0.97379289E-01 0.31412504E+03</pdfrwt>
<pdfrwt beam="2">  1       21 0.59958647E-02 0.31412504E+03</pdfrwt>
<totfact> 0.16625254E+05</totfact>
</mgrwt>
</event>
<event>
 8    1  0.9478272E-006  0.2576410E+03  0.7546771E-02  0.1108569E+00
         21   -1    0    0  504  503  0.00000000000E+00  0.00000000000E+00  0.87633806936E+01  0.87633806936E+01  0.00000000000E+00 0. -1.
         21   -1    0    0  503  504 -0.00000000000E+00 -0.00000000000E+00 -0.18936442850E+04  0.18936442850E+04  0.00000000000E+00 0. -1.
         25    2    1    2    0    0 -0.14530379798E+01  0.24906571633E+02 -0.10803404254E+04  0.10878346260E+04  0.12500516012E+03 0.  0.
         25    2    1    2    0    0  0.14530379798E+01 -0.24906571633E+02 -0.80454047894E+03  0.81457303976E+03  0.12498562409E+03 0.  0.
          5    1    3    3  501    0 -0.46754143972E+02  0.12386892267E+02 -0.18585540787E+03  0.19210337767E+03  0.47000000000E+01 0.  1.
         -5    1    3    3    0  501  0.45301105992E+02  0.12519679366E+02 -0.89448501752E+03  0.89573124828E+03  0.47000000000E+01 0.  1.
          5    1    4    4  502    0  0.75792376915E+01 -0.57934827443E+02 -0.18411088806E+03  0.19321697176E+03  0.47000000000E+01 0.  1.
         -5    1    4    4    0  502 -0.61261997117E+01  0.33028255810E+02 -0.62042959088E+03  0.62135606800E+03  0.47000000000E+01 0.  1.
<mgrwt>
<rscale>  0 0.25764104E+03</rscale>
<asrwt>0</asrwt>
<pdfrwt beam="1">  1       21 0.13482117E-02 0.25764104E+03</pdfrwt>
<pdfrwt beam="2">  1       21 0.29133004E+00 0.25764104E+03</pdfrwt>
<totfact> 0.85076305E+04</totfact>
</mgrwt>
</event>
<event>
 8    1  0.9478272E-006  0.3238682E+03  0.7546771E-02  0.1073883E+00
         21   -1    0    0  504  503  0.00000000000E+00  0.00000000000E+00  0.28934733896E+02  0.28934733896E+02  0.00000000000E+00 0.  1.
         21   -1    0    0  503  504 -0.00000000000E+00 -0.00000000000E+00 -0.90626925309E+03  0.90626925309E+03  0.00000000000E+00 0.  1.
         25    2    1    2    0    0  0.26878124213E+02 -0.60997553535E+02 -0.21220126112E+03  0.25514301651E+03  0.12500179422E+03 0.  0.
         25    2    1    2    0    0 -0.26878124213E+02  0.60997553535E+02 -0.66513325807E+03  0.68006097047E+03  0.12505013979E+03 0.  0.
          5    1    3    3  501    0  0.51619068432E+02  0.72177629040E+01 -0.33301295274E+02  0.62029755715E+02  0.47000000000E+01 0.  1.
         -5    1    3    3    0  501 -0.24740944220E+02 -0.68215316439E+02 -0.17889996584E+03  0.19311326080E+03  0.47000000000E+01 0.  1.
          5    1    4    4  502    0 -0.58925286291E+01  0.97580991546E+02 -0.41752829646E+03  0.42884582328E+03  0.47000000000E+01 0.  1.
         -5    1    4    4    0  502 -0.20985595584E+02 -0.36583438011E+02 -0.24760496162E+03  0.25121514719E+03  0.47000000000E+01 0.  1.
<mgrwt>
<rscale>  0 0.32386824E+03</rscale>
<asrwt>0</asrwt>
<pdfrwt beam="1">  1       21 0.44514983E-02 0.32386824E+03</pdfrwt>
<pdfrwt beam="2">  1       21 0.13942602E+00 0.32386824E+03</pdfrwt>
<totfact> 0.11277761E+05</totfact>
</mgrwt>
</event>
<event>
 8    1  0.9478272E-006  0.2797216E+03  0.7546771E-02  0.1095841E+00
         21   -1    0    0  504  503  0.00000000000E+00  0.00000000000E+00  0.11476641848E+03  0.11476641848E+03  0.00000000000E+00 0.  1.
         21   -1    0    0  503  504 -0.00000000000E+00 -0.00000000000E+00 -0.17044223227E+03  0.17044223227E+03  0.00000000000E+00 0.  1.
         25    2    1    2    0    0  0.56369282885E+02 -0.15688427424E+02 -0.47916541971E+01  0.13810347920E+03  0.12500395278E+03 0.  0.
         25    2    1    2    0    0 -0.56369282885E+02  0.15688427424E+02 -0.50884159586E+02  0.14710517154E+03  0.12500844368E+03 0.  0.
          5    1    3    3  501    0  0.23098717543E+02 -0.36834783114E+02 -0.57421846835E+02  0.72178324261E+02  0.47000000000E+01 0. -1.
         -5    1    3    3    0  501  0.33270565343E+02  0.21146355691E+02  0.52630192637E+02  0.65925154943E+02  0.47000000000E+01 0. -1.
          5    1    4    4  502    0  0.21727916772E+02  0.24773405147E+02  0.21913966681E+02  0.39851422880E+02  0.47000000000E+01 0. -1.
         -5    1    4    4    0  502 -0.78097199658E+02 -0.90849777236E+01 -0.72798126267E+02  0.10725374866E+03  0.47000000000E+01 0. -1.
<mgrwt>
<rscale>  0 0.27972161E+03</rscale>
<asrwt>0</asrwt>
<pdfrwt beam="1">  1       21 0.17656372E-01 0.27972161E+03</pdfrwt>
<pdfrwt beam="2">  1       21 0.26221882E-01 0.27972161E+03</pdfrwt>
<totfact> 0.39493049E+05</totfact>
</mgrwt>
</event>
<event>
 8    1  0.9478272E-006  0.3908504E+03  0.7546771E-02  0.1046995E+00
         21   -1    0    0  504  503  0.00000000000E+00  0.00000000000E+00  0.47119223830E+02  0.47119223830E+02  0.00000000000E+00 0. -1.
         21   -1    0    0  503  504 -0.00000000000E+00 -0.00000000000E+00 -0.81051850237E+03  0.81051850237E+03  0.00000000000E+00 0. -1.
         25    2    1    2    0    0  0.11425069661E+03  0.97530648126E+02 -0.37982999699E+03  0.42715454207E+03  0.12499890878E+03 0.  0.
         25    2    1    2    0    0 -0.11425069661E+03 -0.97530648126E+02 -0.38356928155E+03  0.43048318413E+03  0.12499971630E+03 0.  0.
          5    1    3    3  501    0  0.11084322190E+03  0.92726834349E+02 -0.19803183774E+03  0.24520029447E+03  0.47000000000E+01 0. -1.
         -5    1    3    3    0  501  0.34074747036E+01  0.48038137775E+01 -0.18179815926E+03  0.18195424760E+03  0.47000000000E+01 0. -1.
          5    1    4    4  502    0 -0.85626302736E+02 -0.11074162403E+03 -0.20000066388E+03  0.24416782459E+03  0.47000000000E+01 0. -1.
         -5    1    4    4    0  502 -0.28624393872E+02  0.13210975902E+02 -0.18356861767E+03  0.18631535955E+03  0.47000000000E+01 0. -1.
<mgrwt>
<rscale>  0 0.39085037E+03</rscale>
<asrwt>0</asrwt>
<pdfrwt beam="1">  1       21 0.72491123E-02 0.39085037E+03</pdfrwt>
<pdfrwt beam="2">  1       21 0.12469514E+00 0.39085037E+03</pdfrwt>
<totfact> 0.63582174E+04</totfact>
</mgrwt>
</event>
<event>
 8    1  0.9478272E-006  0.3353465E+03  0.7546771E-02  0.1068795E+00
         21   -1    0    0  504  503  0.00000000000E+00  0.00000000000E+00  0.44953016252E+02  0.44953016252E+02  0.00000000000E+00 0.  1.
         21   -1    0    0  503  504 -0.00000000000E+00 -0.00000000000E+00 -0.62541567655E+03  0.62541567655E+03  0.00000000000E+00 0.  1.
         25    2    1    2    0    0 -0.30455984194E+02  0.21327547322E+02 -0.50091296934E+03  0.51761152280E+03  0.12500181772E+03 0.  0.
         25    2    1    2    0    0  0.30455984194E+02 -0.21327547322E+02 -0.79549690956E+02  0.15275717000E+03  0.12499667359E+03 0.  0.
          5    1    3    3  501    0  0.46326393654E+01  0.69775005818E+02 -0.28795095911E+03  0.29635765156E+03  0.47000000000E+01 0.  1.
         -5    1    3    3    0  501 -0.35088623559E+02 -0.48447458495E+02 -0.21296201023E+03  0.22125387124E+03  0.47000000000E+01 0.  1.
          5    1    4    4  502    0 -0.11071562416E+02  0.47107788856E+02 -0.41848089684E+02  0.64148857164E+02  0.47000000000E+01 0. -1.
         -5    1    4    4    0  502  0.41527546609E+02 -0.68435336179E+02 -0.37701601271E+02  0.88608312836E+02  0.47000000000E+01 0. -1.
<mgrwt>
<rscale>  0 0.33534651E+03</rscale>
<asrwt>0</asrwt>
<pdfrwt beam="1">  1       21 0.69158489E-02 0.33534651E+03</pdfrwt>
<pdfrwt beam="2">  1       21 0.96217792E-01 0.33534651E+03</pdfrwt>
<totfact> 0.13278559E+05</totfact>
</mgrwt>
</event>
<event>
 8    1  0.9478272E-006  0.3806055E+03  0.7546771E-02  0.1050710E+00
         21   -1    0    0  504  503  0.00000000000E+00  0.00000000000E+00  0.94227704773E+03  0.94227704773E+03  0.00000000000E+00 0.  1.
         21   -1    0    0  503  504 -0.00000000000E+00 -0.00000000000E+00 -0.38433648077E+02  0.38433648077E+02  0.00000000000E+00 0.  1.
         25    2    1    2    0    0 -0.13104398630E+03 -0.58315909608E+02  0.46193499971E+03  0.49958715148E+03  0.12502042356E+03 0.  0.
         25    2    1    2    0    0  0.13104398630E+03  0.58315909608E+02  0.44190839995E+03  0.48112354433E+03  0.12499423709E+03 0.  0.
          5    1    3    3  501    0 -0.14456616287E+03 -0.33486068072E+02  0.43722414386E+03  0.46174423026E+03  0.47000000000E+01 0. -1.
         -5    1    3    3    0  501  0.13522176566E+02 -0.24829841536E+02  0.24710855845E+02  0.37842921219E+02  0.47000000000E+01 0. -1.
          5    1    4    4  502    0  0.12674553222E+03  0.82476057392E+02  0.42454685175E+03  0.45069817984E+03  0.47000000000E+01 0.  1.
         -5    1    4    4    0  502  0.42984540803E+01 -0.24160147785E+02  0.17361548198E+02  0.30425364489E+02  0.47000000000E+01 0.  1.
<mgrwt>
<rscale>  0 0.38060554E+03</rscale>
<asrwt>0</asrwt>
<pdfrwt beam="1">  1       21 0.14496568E+00 0.38060554E+03</pdfrwt>
<pdfrwt beam="2">  1       21 0.59128696E-02 0.38060554E+03</pdfrwt>
<totfact> 0.61410751E+04</totfact>
</mgrwt>
</event>
<event>
 8    1  0.9478272E-006  0.3887906E+03  0.7546771E-02  0.1047732E+00
         21   -1    0    0  504  503  0.00000000000E+00  0.00000000000E+00  0.15904988347E+03  0.15904988347E+03  0.00000000000E+00 0. -1.
         21   -1    0    0  503  504 -0.00000000000E+00 -0.00000000000E+00 -0.23759547528E+03  0.23759547528E+03  0.00000000000E+00 0. -1.
         25    2    1    2    0    0 -0.16642725258E+02 -0.14701738926E+03 -0.56111258377E+02  0.20165420116E+03  0.12499940192E+03 0.  0.
         25    2    1    2    0    0  0.16642725258E+02  0.14701738926E+03 -0.22434333432E+02  0.19499115760E+03  0.12500863640E+03 0.  0.
          5    1    3    3  501    0  0.51998057182E+01  0.59642650156E+01  0.25302035886E+02  0.26923845503E+02  0.47000000000E+01 0.  1.
         -5    1    3    3    0  501 -0.21842530977E+02 -0.15298165428E+03 -0.81413294263E+02  0.17473035566E+03  0.47000000000E+01 0.  1.
          5    1    4    4  502    0 -0.23088719303E+02  0.10103494757E+03  0.36721387771E+02  0.11005316856E+03  0.47000000000E+01 0.  1.
         -5    1    4    4    0  502  0.39731444561E+02  0.45982441694E+02 -0.59155721203E+02  0.84937989040E+02  0.47000000000E+01 0.  1.
<mgrwt>
<rscale>  0 0.38879060E+03</rscale>
<asrwt>0</asrwt>
<pdfrwt beam="1">  1       21 0.24469213E-01 0.38879060E+03</pdfrwt>
<pdfrwt beam="2">  1       21 0.36553150E-01 0.38879060E+03</pdfrwt>
<totfact> 0.10770350E+05</totfact>
</mgrwt>
</event>
<event>
 8    1  0.9478272E-006  0.2819530E+03  0.7546771E-02  0.1094627E+00
         21   -1    0    0  504  503  0.00000000000E+00  0.00000000000E+00  0.21539379110E+02  0.21539379110E+02  0.00000000000E+00 0. -1.
         21   -1    0    0  503  504 -0.00000000000E+00 -0.00000000000E+00 -0.92269973045E+03  0.92269973045E+03  0.00000000000E+00 0. -1.
         25    2    1    2    0    0  0.31211373955E+00 -0.28133910309E+02 -0.64747371265E+03  0.66002892332E+03  0.12499742685E+03 0.  0.
         25    2    1    2    0    0 -0.31211373955E+00  0.28133910309E+02 -0.25368663869E+03  0.28421018625E+03  0.12500761973E+03 0.  0.
          5    1    3    3  501    0 -0.57171287467E+02 -0.38496588352E+02 -0.37742993121E+03  0.38370038624E+03  0.47000000000E+01 0.  1.
         -5    1    3    3    0  501  0.57483401207E+02  0.10362678043E+02 -0.27004378144E+03  0.27632853708E+03  0.47000000000E+01 0.  1.
          5    1    4    4  502    0 -0.62003151499E+02  0.87779406108E+01 -0.11217406916E+03  0.12855564877E+03  0.47000000000E+01 0.  1.
         -5    1    4    4    0  502  0.61691037759E+02  0.19355969698E+02 -0.14151256953E+03  0.15565453748E+03  0.47000000000E+01 0.  1.
<mgrwt>
<rscale>  0 0.28195304E+03</rscale>
<asrwt>0</asrwt>
<pdfrwt beam="1">  1       21 0.33137502E-02 0.28195304E+03</pdfrwt>
<pdfrwt beam="2">  1       21 0.14195382E+00 0.28195304E+03</pdfrwt>
<totfact> 0.17934385E+05</totfact>
</mgrwt>
</event>
<event>
 8    1  0.9478272E-006  0.3548194E+03  0.7546771E-02  0.1060654E+00
         21   -1    0    0  504  503  0.00000000000E+00  0.00000000000E+00  0.95169646898E+03  0.95169646898E+03  0.00000000000E+00 0. -1.
         21   -1    0    0  503  504 -0.00000000000E+00 -0.00000000000E+00 -0.33071671542E+02  0.33071671542E+02  0.00000000000E+00 0. -1.
         25    2    1    2    0    0 -0.17356178106E+02 -0.12007133920E+03  0.55264342785E+03  0.57944700506E+03  0.12500283963E+03 0.  0.
         25    2    1    2    0    0  0.17356178106E+02  0.12007133920E+03  0.36598136958E+03  0.40532113545E+03  0.12499798618E+03 0.  0.
          5    1    3    3  501    0 -0.35598443956E+02 -0.10322015150E+03  0.21809347811E+03  0.24394364940E+03  0.47000000000E+01 0.  1.
         -5    1    3    3    0  501  0.18242265851E+02 -0.16851187692E+02  0.33454994974E+03  0.33550335567E+03  0.47000000000E+01 0.  1.
          5    1    4    4  502    0  0.22416288041E+02  0.70631751098E+02  0.60475845298E+02  0.95764043865E+02  0.47000000000E+01 0.  1.
         -5    1    4    4    0  502 -0.50601099358E+01  0.49439588099E+02  0.30550552429E+03  0.30955709159E+03  0.47000000000E+01 0.  1.
<mgrwt>
<rscale>  0 0.35481935E+03</rscale>
<asrwt>0</asrwt>
<pdfrwt beam="1">  1       21 0.14641482E+00 0.35481935E+03</pdfrwt>
<pdfrwt beam="2">  1       21 0.50879502E-02 0.35481935E+03</pdfrwt>
<totfact> 0.78092557E+04</totfact>
</mgrwt>
</event>
<event>
 8    1  0.9478272E-006  0.3628760E+03  0.7546771E-02  0.1057451E+00
         21   -1    0    0  504  503  0.00000000000E+00  0.00000000000E+00  0.21248365421E+03  0.21248365421E+03  0.00000000000E+00 0. -1.
         21   -1    0    0  503  504 -0.00000000000E+00 -0.00000000000E+00 -0.15492839801E+03  0.15492839801E+03  0.00000000000E+00 0. -1.
         25    2    1    2    0    0 -0.12337186664E+03  0.34399190240E+02 -0.14239015704E+01  0.17897323036E+03  0.12500187168E+03 0.  0.
         25    2    1    2    0    0  0.12337186664E+03 -0.34399190240E+02  0.58979157772E+02  0.18843882185E+03  0.12500690685E+03 0.  0.
          5    1    3    3  501    0 -0.78204996157E+02  0.33602041605E+02  0.58787788412E+02  0.10355294631E+03  0.47000000000E+01 0.  1.
         -5    1    3    3    0  501 -0.45166870488E+02  0.79714863548E+00 -0.60211689982E+02  0.75420284049E+02  0.47000000000E+01 0.  1.
          5    1    4    4  502    0  0.94819178954E+01  0.18061323187E+02  0.59376622285E+02  0.62958648622E+02  0.47000000000E+01 0. -1.
         -5    1    4    4    0  502  0.11388994875E+03 -0.52460513427E+02 -0.39746451339E+00  0.12548017323E+03  0.47000000000E+01 0. -1.
<mgrwt>
<rscale>  0 0.36287602E+03</rscale>
<asrwt>0</asrwt>
<pdfrwt beam="1">  1       21 0.32689793E-01 0.36287602E+03</pdfrwt>
<pdfrwt beam="2">  1       21 0.23835138E-01 0.36287602E+03</pdfrwt>
<totfact> 0.14263896E+05</totfact>
</mgrwt>
</event>
<event>
 8    1  0.9478272E-006  0.2776233E+03  0.7546771E-02  0.1096994E+00
         21   -1    0    0  504  503  0.00000000000E+00  0.00000000000E+00  0.37333655381E+03  0.37333655381E+03  0.00000000000E+00 0. -1.
         21   -1    0    0  503  504 -0.00000000000E+00 -0.00000000000E+00 -0.51612079092E+02  0.51612079092E+02  0.00000000000E+00 0. -1.
         25    2    1    2    0    0  0.59313797871E+02 -0.93845841584E+01  0.17008776508E+03  0.21945640776E+03  0.12500028015E+03 0.  0.
         25    2    1    2    0    0 -0.59313797871E+02  0.93845841584E+01  0.15163670964E+03  0.20549222514E+03  0.12500866309E+03 0.  0.
          5    1    3    3  501    0  0.96824152769E+02 -0.20826493635E+02  0.12365947276E+03  0.15850051925E+03  0.47000000000E+01 0.  1.
         -5    1    3    3    0  501 -0.37510354898E+02  0.11441909477E+02  0.46428292312E+02  0.60955888510E+02  0.47000000000E+01 0.  1.
          5    1    4    4  502    0 -0.86540531756E+02 -0.28426582954E+02  0.10933363128E+03  0.14238422379E+03  0.47000000000E+01 0. -1.
         -5    1    4    4    0  502  0.27226733885E+02  0.37811167113E+02  0.42303078363E+02  0.63108001358E+02  0.47000000000E+01 0. -1.
<mgrwt>
<rscale>  0 0.27762331E+03</rscale>
<asrwt>0</asrwt>
<pdfrwt beam="1">  1       21 0.57436391E-01 0.27762331E+03</pdfrwt>
<pdfrwt beam="2">  1       21 0.79403201E-02 0.27762331E+03</pdfrwt>
<totfact> 0.33902678E+05</totfact>
</mgrwt>
</event>
<event>
 8    1  0.9478272E-006  0.2687054E+03  0.7546771E-02  0.1102023E+00
         21   -1    0    0  504  503  0.00000000000E+00  0.00000000000E+00  0.22340627666E+02  0.22340627666E+02  0.00000000000E+00 0. -1.
         21   -1    0    0  503  504 -0.00000000000E+00 -0.00000000000E+00 -0.80797387258E+03  0.80797387258E+03  0.00000000000E+00 0. -1.
         25    2    1    2    0    0  0.16257686971E+02  0.45256618293E+02 -0.36001911729E+03  0.38412472660E+03  0.12500226754E+03 0.  0.
         25    2    1    2    0    0 -0.16257686971E+02 -0.45256618293E+02 -0.42561412762E+03  0.44618977364E+03  0.12500181833E+03 0.  0.
          5    1    3    3  501    0  0.39699781153E+02 -0.28887027037E+02 -0.20215837020E+03  0.20808803329E+03  0.47000000000E+01 0.  1.
         -5    1    3    3    0  501 -0.23442094182E+02  0.74143645331E+02 -0.15786074709E+03  0.17603669331E+03  0.47000000000E+01 0.  1.
          5    1    4    4  502    0 -0.12452723086E+01 -0.75896427563E+02 -0.38719113798E+03  0.39458951551E+03  0.47000000000E+01 0.  1.
         -5    1    4    4    0  502 -0.15012414662E+02  0.30639809270E+02 -0.38422989640E+02  0.51600258129E+02  0.47000000000E+01 0.  1.
<mgrwt>
<rscale>  0 0.26870537E+03</rscale>
<asrwt>0</asrwt>
<pdfrwt beam="1">  1       21 0.34370202E-02 0.26870537E+03</pdfrwt>
<pdfrwt beam="2">  1       21 0.12430365E+00 0.26870537E+03</pdfrwt>
<totfact> 0.23831162E+05</totfact>
</mgrwt>
</event>
<event>
 8    1  0.9478272E-006  0.2508211E+03  0.7546771E-02  0.1112787E+00
         21   -1    0    0  504  503  0.00000000000E+00  0.00000000000E+00  0.30205612351E+02  0.30205612351E+02  0.00000000000E+00 0. -1.
         21   -1    0    0  503  504 -0.00000000000E+00 -0.00000000000E+00 -0.52069167024E+03  0.52069167024E+03  0.00000000000E+00 0. -1.
         25    2    1    2    0    0  0.17877729177E+01 -0.83083553252E+01 -0.23311169791E+03  0.26464787582E+03  0.12500083831E+03 0.  0.
         25    2    1    2    0    0 -0.17877729177E+01  0.83083553252E+01 -0.25737435998E+03  0.28624940676E+03  0.12499974719E+03 0.  0.
          5    1    3    3  501    0  0.10772086099E+02 -0.59455527047E+02 -0.66068359446E+02  0.89655538899E+02  0.47000000000E+01 0. -1.
         -5    1    3    3    0  501 -0.89843131815E+01  0.51147171722E+02 -0.16704333846E+03  0.17499233693E+03  0.47000000000E+01 0. -1.
          5    1    4    4  502    0  0.21305226091E+02 -0.18151972350E+02 -0.24797047048E+03  0.24958936473E+03  0.47000000000E+01 0.  1.
         -5    1    4    4    0  502 -0.23092999009E+02  0.26460327675E+02 -0.94038894996E+01  0.36660042030E+02  0.47000000000E+01 0.  1.
<mgrwt>
<rscale>  0 0.25082114E+03</rscale>
<asrwt>0</asrwt>
<pdfrwt beam="1">  1       21 0.46470175E-02 0.25082114E+03</pdfrwt>
<pdfrwt beam="2">  1       21 0.80106406E-01 0.25082114E+03</pdfrwt>
<totfact> 0.41169841E+05</totfact>
</mgrwt>
</event>
<event>
 8    1  0.9478272E-006  0.3215390E+03  0.7546771E-02  0.1074943E+00
         21   -1    0    0  504  503  0.00000000000E+00  0.00000000000E+00  0.19825853737E+03  0.19825853737E+03  0.00000000000E+00 0. -1.
         21   -1    0    0  503  504 -0.00000000000E+00 -0.00000000000E+00 -0.13036928925E+03  0.13036928925E+03  0.00000000000E+00 0. -1.
         25    2    1    2    0    0  0.19206949509E+02  0.35839577604E+02  0.12855813747E+03  0.18386237935E+03  0.12499919039E+03 0.  0.
         25    2    1    2    0    0 -0.19206949509E+02 -0.35839577604E+02 -0.60668889350E+02  0.14476544728E+03  0.12499175316E+03 0.  0.
          5    1    3    3  501    0 -0.24371829081E+02 -0.35031558143E+02  0.20980366482E+02  0.47785582516E+02  0.47000000000E+01 0.  1.
         -5    1    3    3    0  501  0.43578778590E+02  0.70871135747E+02  0.10757777099E+03  0.13607679683E+03  0.47000000000E+01 0.  1.
          5    1    4    4  502    0 -0.58283397649E+02 -0.60933384467E+02 -0.43801988584E+02  0.95134305001E+02  0.47000000000E+01 0. -1.
         -5    1    4    4    0  502  0.39076448140E+02  0.25093806863E+02 -0.16866900767E+02  0.49631142276E+02  0.47000000000E+01 0. -1.
<mgrwt>
<rscale>  0 0.32153895E+03</rscale>
<asrwt>0</asrwt>
<pdfrwt beam="1">  1       21 0.30501313E-01 0.32153895E+03</pdfrwt>
<pdfrwt beam="2">  1       21 0.20056814E-01 0.32153895E+03</pdfrwt>
<totfact> 0.22948395E+05</totfact>
</mgrwt>
</event>
<event>
 8    1  0.9478272E-006  0.3128802E+03  0.7546771E-02  0.1078973E+00
         21   -1    0    0  504  503  0.00000000000E+00  0.00000000000E+00  0.51208161123E+03  0.51208161123E+03  0.00000000000E+00 0. -1.
         21   -1    0    0  503  504 -0.00000000000E+00 -0.00000000000E+00 -0.47792198813E+02  0.47792198813E+02  0.00000000000E+00 0. -1.
         25    2    1    2    0    0 -0.31002772887E+02 -0.24825740008E+02  0.38471679714E+03  0.40645899883E+03  0.12499765770E+03 0.  0.
         25    2    1    2    0    0  0.31002772887E+02  0.24825740008E+02  0.79572615278E+02  0.15341481122E+03  0.12500725541E+03 0.  0.
          5    1    3    3  501    0  0.55690384950E+01 -0.21116669759E+02  0.25320500979E+01  0.22481752804E+02  0.47000000000E+01 0. -1.
         -5    1    3    3    0  501 -0.36571811382E+02 -0.37090702488E+01  0.38218474705E+03  0.38397724602E+03  0.47000000000E+01 0. -1.
          5    1    4    4  502    0 -0.11889690638E+02  0.50664614884E+02 -0.75716813319E+01  0.52798563456E+02  0.47000000000E+01 0. -1.
         -5    1    4    4    0  502  0.42892463525E+02 -0.25838874877E+02  0.87144296609E+02  0.10061624776E+03  0.47000000000E+01 0. -1.
<mgrwt>
<rscale>  0 0.31288021E+03</rscale>
<asrwt>0</asrwt>
<pdfrwt beam="1">  1       21 0.78781782E-01 0.31288021E+03</pdfrwt>
<pdfrwt beam="2">  1       21 0.73526463E-02 0.31288021E+03</pdfrwt>
<totfact> 0.19120292E+05</totfact>
</mgrwt>
</event>
<event>
 8    1  0.9478272E-006  0.2910820E+03  0.7546771E-02  0.1089786E+00
         21   -1    0    0  504  503  0.00000000000E+00  0.00000000000E+00  0.19558473332E+02  0.19558473332E+02  0.00000000000E+00 0. -1.
         21   -1    0    0  503  504 -0.00000000000E+00 -0.00000000000E+00 -0.10830181409E+04  0.10830181409E+04  0.00000000000E+00 0. -1.
         25    2    1    2    0    0 -0.56772927139E+02 -0.12397840806E+02 -0.70855484159E+03  0.72183957945E+03  0.12500217281E+03 0.  0.
         25    2    1    2    0    0  0.56772927139E+02  0.12397840806E+02 -0.35490482603E+03  0.38073703483E+03  0.12500552965E+03 0.  0.
          5    1    3    3  501    0  0.10486286128E+02  0.92367258883E+01 -0.63152823973E+01  0.16039080200E+02  0.47000000000E+01 0.  1.
         -5    1    3    3    0  501 -0.67259213268E+02 -0.21634566695E+02 -0.70223955919E+03  0.70580049925E+03  0.47000000000E+01 0.  1.
          5    1    4    4  502    0  0.51300439416E+02 -0.44134263126E+02 -0.27062317580E+03  0.27899562998E+03  0.47000000000E+01 0.  1.
         -5    1    4    4    0  502  0.54724877227E+01  0.56532103932E+02 -0.84281650227E+02  0.10174140486E+03  0.47000000000E+01 0.  1.
<mgrwt>
<rscale>  0 0.29108199E+03</rscale>
<asrwt>0</asrwt>
<pdfrwt beam="1">  1       21 0.30089964E-02 0.29108199E+03</pdfrwt>
<pdfrwt beam="2">  1       21 0.16661815E+00 0.29108199E+03</pdfrwt>
<totfact> 0.13634149E+05</totfact>
</mgrwt>
</event>
<event>
 8    1  0.9478272E-006  0.3503477E+03  0.7546771E-02  0.1062472E+00
         21   -1    0    0  504  503  0.00000000000E+00  0.00000000000E+00  0.13637545863E+03  0.13637545863E+03  0.00000000000E+00 0.  1.
         21   -1    0    0  503  504 -0.00000000000E+00 -0.00000000000E+00 -0.22501022846E+03  0.22501022846E+03  0.00000000000E+00 0.  1.
         25    2    1    2    0    0  0.78336423734E+02 -0.29685654687E+02 -0.13682581082E+03  0.20338275882E+03  0.12500164279E+03 0.  0.
         25    2    1    2    0    0 -0.78336423734E+02  0.29685654687E+02  0.48191040988E+02  0.15800292826E+03  0.12499886212E+03 0.  0.
          5    1    3    3  501    0 -0.26563378487E+02 -0.38561139538E+01  0.21020424696E+01  0.27331141103E+02  0.47000000000E+01 0. -1.
         -5    1    3    3    0  501  0.10489980222E+03 -0.25829540733E+02 -0.13892785329E+03  0.17605161772E+03  0.47000000000E+01 0. -1.
          5    1    4    4  502    0 -0.45492457577E+02 -0.64977278902E+00 -0.38866921586E+02  0.60022608196E+02  0.47000000000E+01 0. -1.
         -5    1    4    4    0  502 -0.32843966157E+02  0.30335427476E+02  0.87057962574E+02  0.97980320068E+02  0.47000000000E+01 0. -1.
<mgrwt>
<rscale>  0 0.35034767E+03</rscale>
<asrwt>0</asrwt>
<pdfrwt beam="1">  1       21 0.20980840E-01 0.35034767E+03</pdfrwt>
<pdfrwt beam="2">  1       21 0.34616958E-01 0.35034767E+03</pdfrwt>
<totfact> 0.16276928E+05</totfact>
</mgrwt>
</event>
<event>
 8    1  0.9478272E-006  0.3135469E+03  0.7546771E-02  0.1078658E+00
         21   -1    0    0  504  503  0.00000000000E+00  0.00000000000E+00  0.11333058361E+03  0.11333058361E+03  0.00000000000E+00 0. -1.
         21   -1    0    0  503  504 -0.00000000000E+00 -0.00000000000E+00 -0.21686922974E+03  0.21686922974E+03  0.00000000000E+00 0. -1.
         25    2    1    2    0    0  0.14619078576E+02 -0.82837621635E+02 -0.61199521132E+01  0.15078889818E+03  0.12499619588E+03 0.  0.
         25    2    1    2    0    0 -0.14619078576E+02  0.82837621635E+02 -0.97418694014E+02  0.17941091517E+03  0.12498834155E+03 0.  0.
          5    1    3    3  501    0  0.65977180452E+02 -0.72205553255E+02 -0.63996270453E+01  0.98130909950E+02  0.47000000000E+01 0.  1.
         -5    1    3    3    0  501 -0.51358101876E+02 -0.10632068380E+02  0.27967493205E+00  0.52657988230E+02  0.47000000000E+01 0.  1.
          5    1    4    4  502    0 -0.54996200477E+02  0.72222137373E+02 -0.22700611075E+02  0.93691125177E+02  0.47000000000E+01 0. -1.
         -5    1    4    4    0  502  0.40377121902E+02  0.10615484262E+02 -0.74718082938E+02  0.85719789997E+02  0.47000000000E+01 0. -1.
<mgrwt>
<rscale>  0 0.31354691E+03</rscale>
<asrwt>0</asrwt>
<pdfrwt beam="1">  1       21 0.17435474E-01 0.31354691E+03</pdfrwt>
<pdfrwt beam="2">  1       21 0.33364497E-01 0.31354691E+03</pdfrwt>
<totfact> 0.25017006E+05</totfact>
</mgrwt>
</event>
<event>
 8    1  0.9478272E-006  0.3940065E+03  0.7546771E-02  0.1045875E+00
         21   -1    0    0  504  503  0.00000000000E+00  0.00000000000E+00  0.19351819334E+02  0.19351819334E+02  0.00000000000E+00 0. -1.
         21   -1    0    0  503  504 -0.00000000000E+00 -0.00000000000E+00 -0.20055109200E+04  0.20055109200E+04  0.00000000000E+00 0. -1.
         25    2    1    2    0    0 -0.10837731142E+03  0.82381724714E+02 -0.13435949683E+04  0.13562468411E+04  0.12500265987E+03 0.  0.
         25    2    1    2    0    0  0.10837731142E+03 -0.82381724714E+02 -0.64256413237E+03  0.66861589823E+03  0.12500465975E+03 0.  0.
          5    1    3    3  501    0 -0.16471739174E+02 -0.32699894598E+02 -0.31359122344E+03  0.31575646742E+03  0.47000000000E+01 0.  1.
         -5    1    3    3    0  501 -0.91905572250E+02  0.11508161931E+03 -0.10300037449E+04  0.10404903737E+04  0.47000000000E+01 0.  1.
          5    1    4    4  502    0  0.47671444886E+01  0.29483569113E+02 -0.14811749603E+03  0.15117172072E+03  0.47000000000E+01 0. -1.
         -5    1    4    4    0  502  0.10361016694E+03 -0.11186529383E+03 -0.49444663634E+03  0.51744417751E+03  0.47000000000E+01 0. -1.
<mgrwt>
<rscale>  0 0.39400652E+03</rscale>
<asrwt>0</asrwt>
<pdfrwt beam="1">  1       21 0.29772028E-02 0.39400652E+03</pdfrwt>
<pdfrwt beam="2">  1       21 0.30854016E+00 0.39400652E+03</pdfrwt>
<totfact> 0.16951825E+04</totfact>
</mgrwt>
</event>
<event>
 8    1  0.9478272E-006  0.3241204E+03  0.7546771E-02  0.1073768E+00
         21   -1    0    0  504  503  0.00000000000E+00  0.00000000000E+00  0.40923466413E+02  0.40923466413E+02  0.00000000000E+00 0. -1.
         21   -1    0    0  503  504 -0.00000000000E+00 -0.00000000000E+00 -0.64177126910E+03  0.64177126910E+03  0.00000000000E+00 0. -1.
         25    2    1    2    0    0 -0.54014588047E+02  0.28112588308E+02 -0.12508651020E+03  0.18702768740E+03  0.12499930991E+03 0.  0.
         25    2    1    2    0    0  0.54014588047E+02 -0.28112588308E+02 -0.47576129249E+03  0.49566704811E+03  0.12501648617E+03 0.  0.
          5    1    3    3  501    0 -0.67170683976E+02 -0.16221245242E+01 -0.13652874957E+03  0.15223902763E+03  0.47000000000E+01 0. -1.
         -5    1    3    3    0  501  0.13156095928E+02  0.29734712832E+02  0.11442239366E+02  0.34788659776E+02  0.47000000000E+01 0. -1.
          5    1    4    4  502    0  0.48882948737E+02  0.19664415883E+02 -0.41354544617E+03  0.41691504888E+03  0.47000000000E+01 0. -1.
         -5    1    4    4    0  502  0.51316393104E+01 -0.47777004191E+02 -0.62215846313E+02  0.78751999238E+02  0.47000000000E+01 0. -1.
<mgrwt>
<rscale>  0 0.32412038E+03</rscale>
<asrwt>0</asrwt>
<pdfrwt beam="1">  1       21 0.62959175E-02 0.32412038E+03</pdfrwt>
<pdfrwt beam="2">  1       21 0.98734047E-01 0.32412038E+03</pdfrwt>
<totfact> 0.14743008E+05</totfact>
</mgrwt>
</event>
<event>
 8    1  0.9478272E-006  0.3114783E+03  0.7546771E-02  0.1079639E+00
         21   -1    0    0  504  503  0.00000000000E+00  0.00000000000E+00  0.62611841287E+03  0.62611841287E+03  0.00000000000E+00 0. -1.
         21   -1    0    0  503  504 -0.00000000000E+00 -0.00000000000E+00 -0.38738167627E+02  0.38738167627E+02  0.00000000000E+00 0. -1.
         25    2    1    2    0    0  0.42122493211E+02  0.41748978321E+02  0.44634866569E+03  0.46730099977E+03  0.12500324556E+03 0.  0.
         25    2    1    2    0    0 -0.42122493211E+02 -0.41748978321E+02  0.14103157955E+03  0.19755558072E+03  0.12498407666E+03 0.  0.
          5    1    3    3  501    0  0.82716749504E+02  0.42412141125E+02  0.35890699609E+03  0.37077914209E+03  0.47000000000E+01 0. -1.
         -5    1    3    3    0  501 -0.40594256293E+02 -0.66316280487E+00  0.87441669600E+02  0.96521857686E+02  0.47000000000E+01 0. -1.
          5    1    4    4  502    0  0.77892367772E+01  0.39169941935E+02  0.24504084612E+02  0.47090303922E+02  0.47000000000E+01 0.  1.
         -5    1    4    4    0  502 -0.49911729989E+02 -0.80918920256E+02  0.11652749494E+03  0.15046527680E+03  0.47000000000E+01 0.  1.
<mgrwt>
<rscale>  0 0.31147828E+03</rscale>
<asrwt>0</asrwt>
<pdfrwt beam="1">  1       21 0.96325902E-01 0.31147828E+03</pdfrwt>
<pdfrwt beam="2">  1       21 0.59597186E-02 0.31147828E+03</pdfrwt>
<totfact> 0.17252571E+05</totfact>
</mgrwt>
</event>
<event>
 8    1  0.9478272E-006  0.3050413E+03  0.7546771E-02  0.1082747E+00
         21   -1    0    0  504  503  0.00000000000E+00  0.00000000000E+00  0.31878253776E+02  0.31878253776E+02  0.00000000000E+00 0. -1.
         21   -1    0    0  503  504 -0.00000000000E+00 -0.00000000000E+00 -0.72973083262E+03  0.72973083262E+03  0.00000000000E+00 0. -1.
         25    2    1    2    0    0  0.14097506198E+02 -0.24123385518E+02 -0.55567967797E+03  0.57024906339E+03  0.12499364937E+03 0.  0.
         25    2    1    2    0    0 -0.14097506198E+02  0.24123385518E+02 -0.14217290088E+03  0.19136002301E+03  0.12499938900E+03 0.  0.
          5    1    3    3  501    0  0.57717210964E+02  0.95790163414E+01 -0.15451451086E+03  0.16528719873E+03  0.47000000000E+01 0.  1.
         -5    1    3    3    0  501 -0.43619704765E+02 -0.33702401860E+02 -0.40116516711E+03  0.40496186467E+03  0.47000000000E+01 0.  1.
          5    1    4    4  502    0 -0.27788593362E+02  0.71465232309E+02 -0.70609115643E+02  0.10434185432E+03  0.47000000000E+01 0. -1.
         -5    1    4    4    0  502  0.13691087164E+02 -0.47341846791E+02 -0.71563785236E+02  0.87018168693E+02  0.47000000000E+01 0. -1.
<mgrwt>
<rscale>  0 0.30504127E+03</rscale>
<asrwt>0</asrwt>
<pdfrwt beam="1">  1       21 0.49043468E-02 0.30504127E+03</pdfrwt>
<pdfrwt beam="2">  1       21 0.11226628E+00 0.30504127E+03</pdfrwt>
<totfact> 0.16661823E+05</totfact>
</mgrwt>
</event>
<event>
 8    1  0.9478272E-006  0.3272538E+03  0.7546771E-02  0.1072358E+00
         21   -1    0    0  504  503  0.00000000000E+00  0.00000000000E+00  0.84179919854E+02  0.84179919854E+02  0.00000000000E+00 0. -1.
         21   -1    0    0  503  504 -0.00000000000E+00 -0.00000000000E+00 -0.31805410264E+03  0.31805410264E+03  0.00000000000E+00 0. -1.
         25    2    1    2    0    0 -0.63305716623E+02 -0.46869343758E+01 -0.13205606608E+02  0.14079877574E+03  0.12498130298E+03 0.  0.
         25    2    1    2    0    0  0.63305716623E+02  0.46869343758E+01 -0.22066857618E+03  0.26143524675E+03  0.12499674644E+03 0.  0.
          5    1    3    3  501    0  0.25631771880E+02  0.74239354870E+01 -0.38817993693E+02  0.47339509737E+02  0.47000000000E+01 0.  1.
         -5    1    3    3    0  501 -0.88937488503E+02 -0.12110869863E+02  0.25612387084E+02  0.93459266005E+02  0.47000000000E+01 0.  1.
          5    1    4    4  502    0 -0.25881256269E+02 -0.11356887674E+02 -0.13014758654E+03  0.13326403343E+03  0.47000000000E+01 0.  1.
         -5    1    4    4    0  502  0.89186972892E+02  0.16043822050E+02 -0.90520989639E+02  0.12817121332E+03  0.47000000000E+01 0.  1.
<mgrwt>
<rscale>  0 0.32725384E+03</rscale>
<asrwt>0</asrwt>
<pdfrwt beam="1">  1       21 0.12950757E-01 0.32725384E+03</pdfrwt>
<pdfrwt beam="2">  1       21 0.48931400E-01 0.32725384E+03</pdfrwt>
<totfact> 0.19691952E+05</totfact>
</mgrwt>
</event>
<event>
 8    1  0.9478272E-006  0.2794731E+03  0.7546771E-02  0.1095977E+00
         21   -1    0    0  504  503  0.00000000000E+00  0.00000000000E+00  0.98908621821E+02  0.98908621821E+02  0.00000000000E+00 0. -1.
         21   -1    0    0  503  504 -0.00000000000E+00 -0.00000000000E+00 -0.19741754072E+03  0.19741754072E+03  0.00000000000E+00 0. -1.
         25    2    1    2    0    0  0.91744298672E+00  0.46772423336E+02 -0.53624817605E+01  0.13357072429E+03  0.12499552348E+03 0.  0.
         25    2    1    2    0    0 -0.91744298672E+00 -0.46772423336E+02 -0.93146437141E+02  0.16275543826E+03  0.12499829056E+03 0.  0.
          5    1    3    3  501    0  0.12076646403E+02  0.48781101635E+00 -0.59746656983E+02  0.61137847268E+02  0.47000000000E+01 0.  1.
         -5    1    3    3    0  501 -0.11159203416E+02  0.46284612319E+02  0.54384175222E+02  0.72432877018E+02  0.47000000000E+01 0.  1.
          5    1    4    4  502    0  0.37085970888E+02  0.97107447743E+01 -0.85835568422E+02  0.94124930848E+02  0.47000000000E+01 0. -1.
         -5    1    4    4    0  502 -0.38003413874E+02 -0.56483168110E+02 -0.73108687189E+01  0.68630507410E+02  0.47000000000E+01 0. -1.
<mgrwt>
<rscale>  0 0.27947305E+03</rscale>
<asrwt>0</asrwt>
<pdfrwt beam="1">  1       21 0.15216711E-01 0.27947305E+03</pdfrwt>
<pdfrwt beam="2">  1       21 0.30371929E-01 0.27947305E+03</pdfrwt>
<totfact> 0.39032870E+05</totfact>
</mgrwt>
</event>
<event>
 8    1  0.9478272E-006  0.3563169E+03  0.7546771E-02  0.1060052E+00
         21   -1    0    0  504  503  0.00000000000E+00  0.00000000000E+00  0.23796790043E+02  0.23796790043E+02  0.00000000000E+00 0.  1.
         21   -1    0    0  503  504 -0.00000000000E+00 -0.00000000000E+00 -0.13338115876E+04  0.13338115876E+04  0.00000000000E+00 0.  1.
         25    2    1    2    0    0  0.11140293336E+02  0.11123256824E+03 -0.42584941645E+03  0.45767797077E+03  0.12499843624E+03 0.  0.
         25    2    1    2    0    0 -0.11140293336E+02 -0.11123256824E+03 -0.88416538107E+03  0.89993040684E+03  0.12501810148E+03 0.  0.
          5    1    3    3  501    0  0.51671937270E+02  0.10653919976E+03 -0.36887751471E+03  0.38744457803E+03  0.47000000000E+01 0. -1.
         -5    1    3    3    0  501 -0.40531643934E+02  0.46933684780E+01 -0.56971901744E+02  0.70233392741E+02  0.47000000000E+01 0. -1.
          5    1    4    4  502    0 -0.31968909152E+02  0.68639795863E+01 -0.75528211691E+02  0.82436194293E+02  0.47000000000E+01 0. -1.
         -5    1    4    4    0  502  0.20828615816E+02 -0.11809654782E+03 -0.80863716938E+03  0.81749421255E+03  0.47000000000E+01 0. -1.
<mgrwt>
<rscale>  0 0.35631691E+03</rscale>
<asrwt>0</asrwt>
<pdfrwt beam="1">  1       21 0.36610446E-02 0.35631691E+03</pdfrwt>
<pdfrwt beam="2">  1       21 0.20520179E+00 0.35631691E+03</pdfrwt>
<totfact> 0.52141968E+04</totfact>
</mgrwt>
</event>
<event>
 8    1  0.9478272E-006  0.3122906E+03  0.7546771E-02  0.1079253E+00
         21   -1    0    0  504  503  0.00000000000E+00  0.00000000000E+00  0.37484001529E+03  0.37484001529E+03  0.00000000000E+00 0.  1.
         21   -1    0    0  503  504 -0.00000000000E+00 -0.00000000000E+00 -0.65044715298E+02  0.65044715298E+02  0.00000000000E+00 0.  1.
         25    2    1    2    0    0  0.17123327003E+02  0.50956048485E+02  0.47013736436E+02  0.14396202404E+03  0.12500018299E+03 0.  0.
         25    2    1    2    0    0 -0.17123327003E+02 -0.50956048485E+02  0.26278156356E+03  0.29592270655E+03  0.12500548348E+03 0.  0.
          5    1    3    3  501    0 -0.94728889789E+01  0.47149042579E+02  0.84656665940E+02  0.97476196735E+02  0.47000000000E+01 0.  1.
         -5    1    3    3    0  501  0.26596215982E+02  0.38070059070E+01 -0.37642929505E+02  0.46485827305E+02  0.47000000000E+01 0.  1.
          5    1    4    4  502    0 -0.32240590791E+02 -0.89036452652E+02  0.18562728559E+03  0.20843829962E+03  0.47000000000E+01 0.  1.
         -5    1    4    4    0  502  0.15117263788E+02  0.38080404167E+02  0.77154277967E+02  0.87484406923E+02  0.47000000000E+01 0.  1.
<mgrwt>
<rscale>  0 0.31229065E+03</rscale>
<asrwt>0</asrwt>
<pdfrwt beam="1">  1       21 0.57667694E-01 0.31229065E+03</pdfrwt>
<pdfrwt beam="2">  1       21 0.10006879E-01 0.31229065E+03</pdfrwt>
<totfact> 0.22158697E+05</totfact>
</mgrwt>
</event>
<event>
 8    1  0.9478272E-006  0.3522170E+03  0.7546771E-02  0.1061709E+00
         21   -1    0    0  504  503  0.00000000000E+00  0.00000000000E+00  0.29614402062E+02  0.29614402062E+02  0.00000000000E+00 0.  1.
         21   -1    0    0  503  504 -0.00000000000E+00 -0.00000000000E+00 -0.10472675770E+04  0.10472675770E+04  0.00000000000E+00 0.  1.
         25    2    1    2    0    0  0.47787487088E+02 -0.38256375241E+02 -0.17894153621E+03  0.22670001552E+03  0.12500251792E+03 0.  0.
         25    2    1    2    0    0 -0.47787487088E+02  0.38256375241E+02 -0.83871163869E+03  0.85018196350E+03  0.12499985609E+03 0.  0.
          5    1    3    3  501    0  0.88759900466E+02 -0.10803918989E+02 -0.11093942729E+03  0.14256469101E+03  0.47000000000E+01 0. -1.
         -5    1    3    3    0  501 -0.40972413378E+02 -0.27452456252E+02 -0.68002108921E+02  0.84135324508E+02  0.47000000000E+01 0. -1.
          5    1    4    4  502    0  0.27587634896E+02  0.33201710693E+02 -0.12223993834E+03  0.12972325820E+03  0.47000000000E+01 0. -1.
         -5    1    4    4    0  502 -0.75375121984E+02  0.50546645480E+01 -0.71647170035E+03  0.72045870530E+03  0.47000000000E+01 0. -1.
<mgrwt>
<rscale>  0 0.35221700E+03</rscale>
<asrwt>0</asrwt>
<pdfrwt beam="1">  1       21 0.45560619E-02 0.35221700E+03</pdfrwt>
<pdfrwt beam="2">  1       21 0.16111809E+00 0.35221700E+03</pdfrwt>
<totfact> 0.72807978E+04</totfact>
</mgrwt>
</event>
<event>
 8    1  0.9478272E-006  0.2776151E+03  0.7546771E-02  0.1096999E+00
         21   -1    0    0  504  503  0.00000000000E+00  0.00000000000E+00  0.20495046305E+03  0.20495046305E+03  0.00000000000E+00 0.  1.
         21   -1    0    0  503  504 -0.00000000000E+00 -0.00000000000E+00 -0.94010684393E+02  0.94010684393E+02  0.00000000000E+00 0.  1.
         25    2    1    2    0    0 -0.39832972210E+02  0.21320846526E+02  0.98545973222E+02  0.16547360374E+03  0.12501584109E+03 0.  0.
         25    2    1    2    0    0  0.39832972210E+02 -0.21320846526E+02  0.12393805437E+02  0.13348754371E+03  0.12499629490E+03 0.  0.
          5    1    3    3  501    0  0.22462918790E+02  0.24033962734E+02  0.97419804584E+02  0.10293163950E+03  0.47000000000E+01 0. -1.
         -5    1    3    3    0  501 -0.62295891000E+02 -0.27131162077E+01  0.11261686383E+01  0.62541964238E+02  0.47000000000E+01 0. -1.
          5    1    4    4  502    0  0.52743725458E+01 -0.66913497477E+02  0.29676873340E+02  0.73539390544E+02  0.47000000000E+01 0. -1.
         -5    1    4    4    0  502  0.34558599664E+02  0.45592650950E+02 -0.17283067903E+02  0.59948153162E+02  0.47000000000E+01 0. -1.
<mgrwt>
<rscale>  0 0.27761508E+03</rscale>
<asrwt>0</asrwt>
<pdfrwt beam="1">  1       21 0.31530840E-01 0.27761508E+03</pdfrwt>
<pdfrwt beam="2">  1       21 0.14463182E-01 0.27761508E+03</pdfrwt>
<totfact> 0.39806630E+05</totfact>
</mgrwt>
</event>
<event>
 8    1  0.9478272E-006  0.3213710E+03  0.7546771E-02  0.1075020E+00
         21   -1    0    0  504  503  0.00000000000E+00  0.00000000000E+00  0.29924674693E+02  0.29924674693E+02  0.00000000000E+00 0. -1.
         21   -1    0    0  503  504 -0.00000000000E+00 -0.00000000000E+00 -0.86282756877E+03  0.86282756877E+03  0.00000000000E+00 0. -1.
         25    2    1    2    0    0 -0.10145060795E+02  0.45552830438E+02 -0.66519002130E+03  0.67843874116E+03  0.12499351365E+03 0.  0.
         25    2    1    2    0    0  0.10145060795E+02 -0.45552830438E+02 -0.16771287278E+03  0.21431350230E+03  0.12499874780E+03 0.  0.
          5    1    3    3  501    0 -0.25317287878E+02 -0.11673101117E+02 -0.32955580451E+02  0.43421039117E+02  0.47000000000E+01 0.  1.
         -5    1    3    3    0  501  0.15172227082E+02  0.57225931555E+02 -0.63223444085E+03  0.63501770204E+03  0.47000000000E+01 0.  1.
          5    1    4    4  502    0 -0.50259719744E+02 -0.39667615538E+02 -0.48507240824E+02  0.80464908895E+02  0.47000000000E+01 0. -1.
         -5    1    4    4    0  502  0.60404780540E+02 -0.58852149006E+01 -0.11920563195E+03  0.13384859340E+03  0.47000000000E+01 0. -1.
<mgrwt>
<rscale>  0 0.32137103E+03</rscale>
<asrwt>0</asrwt>
<pdfrwt beam="1">  1       21 0.46037969E-02 0.32137103E+03</pdfrwt>
<pdfrwt beam="2">  1       21 0.13274268E+00 0.32137103E+03</pdfrwt>
<totfact> 0.12109616E+05</totfact>
</mgrwt>
</event>
<event>
 8    1  0.9478272E-006  0.3254976E+03  0.7546771E-02  0.1073147E+00
         21   -1    0    0  504  503  0.00000000000E+00  0.00000000000E+00  0.70304417324E+03  0.70304417324E+03  0.00000000000E+00 0.  1.
         21   -1    0    0  503  504 -0.00000000000E+00 -0.00000000000E+00 -0.37674976257E+02  0.37674976257E+02  0.00000000000E+00 0.  1.
         25    2    1    2    0    0  0.59675732518E+02  0.49539087967E+02  0.49112339703E+03  0.51268055249E+03  0.12499537391E+03 0.  0.
         25    2    1    2    0    0 -0.59675732518E+02 -0.49539087967E+02  0.17424579994E+03  0.22803859700E+03  0.12499875454E+03 0.  0.
          5    1    3    3  501    0  0.15427196065E+01  0.33508887767E+02  0.23652720228E+02  0.41313033262E+02  0.47000000000E+01 0. -1.
         -5    1    3    3    0  501  0.58133012911E+02  0.16030200200E+02  0.46747067680E+03  0.47136751923E+03  0.47000000000E+01 0. -1.
          5    1    4    4  502    0 -0.88854056956E+02 -0.53863310141E+02  0.16789436542E+03  0.19750166469E+03  0.47000000000E+01 0.  1.
         -5    1    4    4    0  502  0.29178324439E+02  0.43242221739E+01  0.63514345248E+01  0.30536932311E+02  0.47000000000E+01 0.  1.
<mgrwt>
<rscale>  0 0.32549760E+03</rscale>
<asrwt>0</asrwt>
<pdfrwt beam="1">  1       21 0.10816063E+00 0.32549760E+03</pdfrwt>
<pdfrwt beam="2">  1       21 0.57961507E-02 0.32549760E+03</pdfrwt>
<totfact> 0.13627965E+05</totfact>
</mgrwt>
</event>
<event>
 8    1  0.9478272E-006  0.2535168E+03  0.7546771E-02  0.1111102E+00
         21   -1    0    0  504  503  0.00000000000E+00  0.00000000000E+00  0.50591261094E+03  0.50591261094E+03  0.00000000000E+00 0.  1.
         21   -1    0    0  503  504 -0.00000000000E+00 -0.00000000000E+00 -0.31759808436E+02  0.31759808436E+02  0.00000000000E+00 0.  1.
         25    2    1    2    0    0 -0.18532700321E+02 -0.57523425329E+01  0.21979057540E+03  0.25359018440E+03  0.12499413652E+03 0.  0.
         25    2    1    2    0    0  0.18532700321E+02  0.57523425329E+01  0.25436222710E+03  0.28408223497E+03  0.12500409284E+03 0.  0.
          5    1    3    3  501    0 -0.26415883349E+02  0.44172577013E+02  0.36169913651E+02  0.63082232891E+02  0.47000000000E+01 0.  1.
         -5    1    3    3    0  501  0.78831830278E+01 -0.49924919546E+02  0.18362066175E+03  0.19050795151E+03  0.47000000000E+01 0.  1.
          5    1    4    4  502    0  0.45932384096E+02  0.26823250682E+02  0.39533531009E+02  0.66439903371E+02  0.47000000000E+01 0. -1.
         -5    1    4    4    0  502 -0.27399683775E+02 -0.21070908149E+02  0.21482869609E+03  0.21764233160E+03  0.47000000000E+01 0. -1.
<mgrwt>
<rscale>  0 0.25351677E+03</rscale>
<asrwt>0</asrwt>
<pdfrwt beam="1">  1       21 0.77832704E-01 0.25351677E+03</pdfrwt>
<pdfrwt beam="2">  1       21 0.48861247E-02 0.25351677E+03</pdfrwt>
<totfact> 0.40332155E+05</totfact>
</mgrwt>
</event>
<event>
 8    1  0.9478272E-006  0.4483770E+03  0.7546771E-02  0.1028207E+00
         21   -1    0    0  504  503  0.00000000000E+00  0.00000000000E+00  0.22780189720E+03  0.22780189720E+03  0.00000000000E+00 0. -1.
         21   -1    0    0  503  504 -0.00000000000E+00 -0.00000000000E+00 -0.22063240498E+03  0.22063240498E+03  0.00000000000E+00 0. -1.
         25    2    1    2    0    0  0.10385758713E+03  0.15440113690E+03  0.64584640918E+01  0.22426199183E+03  0.12500247892E+03 0.  0.
         25    2    1    2    0    0 -0.10385758713E+03 -0.15440113690E+03  0.71102812943E+00  0.22417231035E+03  0.12500643858E+03 0.  0.
          5    1    3    3  501    0  0.11322761401E+03  0.75500535543E+02  0.33441715110E+02  0.14021862127E+03  0.47000000000E+01 0. -1.
         -5    1    3    3    0  501 -0.93700268768E+01  0.78900601362E+02 -0.26983251018E+02  0.84043370556E+02  0.47000000000E+01 0. -1.
          5    1    4    4  502    0 -0.29834010429E+02 -0.58570001836E+02  0.60127782821E+02  0.89207362703E+02  0.47000000000E+01 0.  1.
         -5    1    4    4    0  502 -0.74023576703E+02 -0.95831135068E+02 -0.59416754691E+02  0.13496494765E+03  0.47000000000E+01 0.  1.
<mgrwt>
<rscale>  0 0.44837699E+03</rscale>
<asrwt>0</asrwt>
<pdfrwt beam="1">  1       21 0.35046446E-01 0.44837699E+03</pdfrwt>
<pdfrwt beam="2">  1       21 0.33943447E-01 0.44837699E+03</pdfrwt>
<totfact> 0.60700392E+04</totfact>
</mgrwt>
</event>
<event>
 8    1  0.9478272E-006  0.4213255E+03  0.7546771E-02  0.1036636E+00
         21   -1    0    0  504  503  0.00000000000E+00  0.00000000000E+00  0.11117907366E+03  0.11117907366E+03  0.00000000000E+00 0.  1.
         21   -1    0    0  503  504 -0.00000000000E+00 -0.00000000000E+00 -0.39916502541E+03  0.39916502541E+03  0.00000000000E+00 0.  1.
         25    2    1    2    0    0 -0.10147279811E+03 -0.23294065565E+02 -0.30611923604E+03  0.34665955804E+03  0.12499808103E+03 0.  0.
         25    2    1    2    0    0  0.10147279811E+03  0.23294065565E+02  0.18133284293E+02  0.16368454103E+03  0.12499788288E+03 0.  0.
          5    1    3    3  501    0  0.14514998334E+02  0.21745257445E+02 -0.16151782202E+02  0.31088767526E+02  0.47000000000E+01 0.  1.
         -5    1    3    3    0  501 -0.11598779645E+03 -0.45039323010E+02 -0.28996745384E+03  0.31557079052E+03  0.47000000000E+01 0.  1.
          5    1    4    4  502    0  0.10856737636E+03 -0.21115248199E+02 -0.88049630800E+01  0.11105109766E+03  0.47000000000E+01 0.  1.
         -5    1    4    4    0  502 -0.70945782438E+01  0.44409313764E+02  0.26938247373E+02  0.52633443370E+02  0.47000000000E+01 0.  1.
<mgrwt>
<rscale>  0 0.42132552E+03</rscale>
<asrwt>0</asrwt>
<pdfrwt beam="1">  1       21 0.17104473E-01 0.42132552E+03</pdfrwt>
<pdfrwt beam="2">  1       21 0.61410004E-01 0.42132552E+03</pdfrwt>
<totfact> 0.70850392E+04</totfact>
</mgrwt>
</event>
<event>
 8    1  0.9478272E-006  0.3564667E+03  0.7546771E-02  0.1059992E+00
         21   -1    0    0  504  503  0.00000000000E+00  0.00000000000E+00  0.37562067067E+02  0.37562067067E+02  0.00000000000E+00 0. -1.
         21   -1    0    0  503  504 -0.00000000000E+00 -0.00000000000E+00 -0.84572378324E+03  0.84572378324E+03  0.00000000000E+00 0. -1.
         25    2    1    2    0    0  0.12596944650E+03  0.11594666969E+02 -0.43332821127E+03  0.46840337391E+03  0.12500257701E+03 0.  0.
         25    2    1    2    0    0 -0.12596944650E+03 -0.11594666969E+02 -0.37483350490E+03  0.41488247640E+03  0.12499830026E+03 0.  0.
          5    1    3    3  501    0  0.84921037135E+02 -0.45888423714E+02 -0.32443307299E+03  0.33852066234E+03  0.47000000000E+01 0. -1.
         -5    1    3    3    0  501  0.41048409360E+02  0.57483090683E+02 -0.10889513828E+03  0.12988271158E+03  0.47000000000E+01 0. -1.
          5    1    4    4  502    0  0.10538341983E+02 -0.18081796370E+02 -0.15150413837E+03  0.15301503832E+03  0.47000000000E+01 0.  1.
         -5    1    4    4    0  502 -0.13650778848E+03  0.64871294012E+01 -0.22332936654E+03  0.26186743807E+03  0.47000000000E+01 0.  1.
<mgrwt>
<rscale>  0 0.35646674E+03</rscale>
<asrwt>0</asrwt>
<pdfrwt beam="1">  1       21 0.57787795E-02 0.35646674E+03</pdfrwt>
<pdfrwt beam="2">  1       21 0.13011135E+00 0.35646674E+03</pdfrwt>
<totfact> 0.85430341E+04</totfact>
</mgrwt>
</event>
<event>
 8    1  0.9478272E-006  0.3059716E+03  0.7546771E-02  0.1082293E+00
         21   -1    0    0  504  503  0.00000000000E+00  0.00000000000E+00  0.36161931941E+03  0.36161931941E+03  0.00000000000E+00 0.  1.
         21   -1    0    0  503  504 -0.00000000000E+00 -0.00000000000E+00 -0.64721811536E+02  0.64721811536E+02  0.00000000000E+00 0.  1.
         25    2    1    2    0    0  0.86657299468E+02 -0.17494882911E+01  0.12564229647E+03  0.19729070277E+03  0.12500034592E+03 0.  0.
         25    2    1    2    0    0 -0.86657299468E+02  0.17494882911E+01  0.17125521141E+03  0.22905042817E+03  0.12499281160E+03 0.  0.
          5    1    3    3  501    0  0.82856476088E+02 -0.39336249946E+02  0.33785551978E+02  0.97857496964E+02  0.47000000000E+01 0. -1.
         -5    1    3    3    0  501  0.38008233803E+01  0.37586761655E+02  0.91856744487E+02  0.99433205811E+02  0.47000000000E+01 0. -1.
          5    1    4    4  502    0 -0.38396986574E+02 -0.18944924605E+02 -0.65727786429E+01  0.43572126014E+02  0.47000000000E+01 0.  1.
         -5    1    4    4    0  502 -0.48260312894E+02  0.20694412896E+02  0.17782799005E+03  0.18547830216E+03  0.47000000000E+01 0.  1.
<mgrwt>
<rscale>  0 0.30597162E+03</rscale>
<asrwt>0</asrwt>
<pdfrwt beam="1">  1       21 0.55633740E-01 0.30597162E+03</pdfrwt>
<pdfrwt beam="2">  1       21 0.99572020E-02 0.30597162E+03</pdfrwt>
<totfact> 0.24183649E+05</totfact>
</mgrwt>
</event>
<event>
 8    1  0.9478272E-006  0.3401201E+03  0.7546771E-02  0.1066745E+00
         21   -1    0    0  504  503  0.00000000000E+00  0.00000000000E+00  0.54913537571E+02  0.54913537571E+02  0.00000000000E+00 0.  1.
         21   -1    0    0  503  504 -0.00000000000E+00 -0.00000000000E+00 -0.52665372011E+03  0.52665372011E+03  0.00000000000E+00 0.  1.
         25    2    1    2    0    0  0.11452747851E+03  0.11806745085E+01 -0.25854510660E+03  0.30917517604E+03  0.12500311999E+03 0.  0.
         25    2    1    2    0    0 -0.11452747851E+03 -0.11806745085E+01 -0.21319507594E+03  0.27239208165E+03  0.12500947329E+03 0.  0.
          5    1    3    3  501    0  0.10810360546E+03  0.50600638901E+02 -0.17950818833E+03  0.21562025380E+03  0.47000000000E+01 0.  1.
         -5    1    3    3    0  501  0.64238730433E+01 -0.49419964392E+02 -0.79036918265E+02  0.93554922234E+02  0.47000000000E+01 0.  1.
          5    1    4    4  502    0  0.22547393524E+02  0.12020028878E+02 -0.12199791810E+02  0.28701758991E+02  0.47000000000E+01 0. -1.
         -5    1    4    4    0  502 -0.13707487203E+03 -0.13200703386E+02 -0.20099528413E+03  0.24369032265E+03  0.47000000000E+01 0. -1.
<mgrwt>
<rscale>  0 0.34012009E+03</rscale>
<asrwt>0</asrwt>
<pdfrwt beam="1">  1       21 0.84482364E-02 0.34012009E+03</pdfrwt>
<pdfrwt beam="2">  1       21 0.81023651E-01 0.34012009E+03</pdfrwt>
<totfact> 0.13954117E+05</totfact>
</mgrwt>
</event>
<event>
 8    1  0.9478272E-006  0.2641414E+03  0.7546771E-02  0.1104680E+00
         21   -1    0    0  504  503  0.00000000000E+00  0.00000000000E+00  0.41838821828E+02  0.41838821828E+02  0.00000000000E+00 0. -1.
         21   -1    0    0  503  504 -0.00000000000E+00 -0.00000000000E+00 -0.41690168446E+03  0.41690168446E+03  0.00000000000E+00 0. -1.
         25    2    1    2    0    0 -0.30773605803E+02  0.29390518650E+02 -0.19204157896E+03  0.23305627438E+03  0.12499776629E+03 0.  0.
         25    2    1    2    0    0  0.30773605803E+02 -0.29390518650E+02 -0.18302128367E+03  0.22568423190E+03  0.12500305938E+03 0.  0.
          5    1    3    3  501    0 -0.44107975107E+02  0.14873019143E+02 -0.20415509212E+03  0.20944715755E+03  0.47000000000E+01 0. -1.
         -5    1    3    3    0  501  0.13334369304E+02  0.14517499507E+02  0.12113513157E+02  0.23609116834E+02  0.47000000000E+01 0. -1.
          5    1    4    4  502    0 -0.16979002802E+02  0.41233003802E+02 -0.81603403201E+02  0.93110969024E+02  0.47000000000E+01 0.  1.
         -5    1    4    4    0  502  0.47752608605E+02 -0.70623522452E+02 -0.10141788047E+03  0.13257326288E+03  0.47000000000E+01 0.  1.
<mgrwt>
<rscale>  0 0.26414144E+03</rscale>
<asrwt>0</asrwt>
<pdfrwt beam="1">  1       21 0.64367420E-02 0.26414144E+03</pdfrwt>
<pdfrwt beam="2">  1       21 0.64138719E-01 0.26414144E+03</pdfrwt>
<totfact> 0.38571514E+05</totfact>
</mgrwt>
</event>
<event>
 8    1  0.9478272E-006  0.2555279E+03  0.7546771E-02  0.1109860E+00
         21   -1    0    0  504  503  0.00000000000E+00  0.00000000000E+00  0.27102041074E+02  0.27102041074E+02  0.00000000000E+00 0. -1.
         21   -1    0    0  503  504 -0.00000000000E+00 -0.00000000000E+00 -0.60230244493E+03  0.60230244493E+03  0.00000000000E+00 0. -1.
         25    2    1    2    0    0  0.16847807643E+02 -0.10242048172E+02 -0.24408339898E+03  0.27493586702E+03  0.12499710854E+03 0.  0.
         25    2    1    2    0    0 -0.16847807643E+02  0.10242048172E+02 -0.33111700488E+03  0.35446861899E+03  0.12498312987E+03 0.  0.
          5    1    3    3  501    0  0.46862807146E+02 -0.54678011162E+02 -0.15229419527E+03  0.16852720704E+03  0.47000000000E+01 0.  1.
         -5    1    3    3    0  501 -0.30014999504E+02  0.44435962991E+02 -0.91789203711E+02  0.10640865999E+03  0.47000000000E+01 0.  1.
          5    1    4    4  502    0  0.36231558625E+02  0.35478188909E+02 -0.24411159546E+03  0.24936717661E+03  0.47000000000E+01 0.  1.
         -5    1    4    4    0  502 -0.53079366268E+02 -0.25236140737E+02 -0.87005409415E+02  0.10510144238E+03  0.47000000000E+01 0.  1.
<mgrwt>
<rscale>  0 0.25552789E+03</rscale>
<asrwt>0</asrwt>
<pdfrwt beam="1">  1       21 0.41695448E-02 0.25552789E+03</pdfrwt>
<pdfrwt beam="2">  1       21 0.92661915E-01 0.25552789E+03</pdfrwt>
<totfact> 0.35296741E+05</totfact>
</mgrwt>
</event>
<event>
 8    1  0.9478272E-006  0.3029963E+03  0.7546771E-02  0.1083752E+00
         21   -1    0    0  504  503  0.00000000000E+00  0.00000000000E+00  0.15115586555E+02  0.15115586555E+02  0.00000000000E+00 0.  1.
         21   -1    0    0  503  504 -0.00000000000E+00 -0.00000000000E+00 -0.15184119124E+04  0.15184119124E+04  0.00000000000E+00 0.  1.
         25    2    1    2    0    0 -0.36319835331E+02  0.29954603016E+02 -0.11132845631E+04  0.11212691470E+04  0.12500229152E+03 0.  0.
         25    2    1    2    0    0  0.36319835331E+02 -0.29954603016E+02 -0.39001176284E+03  0.41225835205E+03  0.12502545743E+03 0.  0.
          5    1    3    3  501    0  0.51151820384E+01  0.66230698567E+02 -0.82840418153E+03  0.83107655995E+03  0.47000000000E+01 0. -1.
         -5    1    3    3    0  501 -0.41435017369E+02 -0.36276095550E+02 -0.28488038152E+03  0.29019258700E+03  0.47000000000E+01 0. -1.
          5    1    4    4  502    0 -0.34232407289E+01  0.15803595524E+02  0.69216904628E+00  0.16853525048E+02  0.47000000000E+01 0. -1.
         -5    1    4    4    0  502  0.39743076060E+02 -0.45758198540E+02 -0.39070393188E+03  0.39540482700E+03  0.47000000000E+01 0. -1.
<mgrwt>
<rscale>  0 0.30299628E+03</rscale>
<asrwt>0</asrwt>
<pdfrwt beam="1">  1       21 0.23254753E-02 0.30299628E+03</pdfrwt>
<pdfrwt beam="2">  1       21 0.23360178E+00 0.30299628E+03</pdfrwt>
<totfact> 0.75268232E+04</totfact>
</mgrwt>
</event>
<event>
 8    1  0.9478272E-006  0.4853851E+03  0.7546771E-02  0.1017666E+00
         21   -1    0    0  504  503  0.00000000000E+00  0.00000000000E+00  0.29441074986E+03  0.29441074986E+03  0.00000000000E+00 0. -1.
         21   -1    0    0  503  504 -0.00000000000E+00 -0.00000000000E+00 -0.20005952603E+03  0.20005952603E+03  0.00000000000E+00 0. -1.
         25    2    1    2    0    0  0.20346848031E+03 -0.32292727652E+02  0.17808730648E+02  0.24163328740E+03  0.12500900750E+03 0.  0.
         25    2    1    2    0    0 -0.20346848031E+03  0.32292727652E+02  0.76542493186E+02  0.25283698849E+03  0.12500218697E+03 0.  0.
          5    1    3    3  501    0  0.16972649650E+03  0.27624743105E+02  0.11091886513E+02  0.17238135047E+03  0.47000000000E+01 0. -1.
         -5    1    3    3    0  501  0.33741983812E+02 -0.59917470756E+02  0.67168441354E+01  0.69251936930E+02  0.47000000000E+01 0. -1.
          5    1    4    4  502    0 -0.13114736539E+03  0.75603882984E+02  0.73520820659E+02  0.16835373367E+03  0.47000000000E+01 0. -1.
         -5    1    4    4    0  502 -0.72321114924E+02 -0.43311155332E+02  0.30216725267E+01  0.84483254820E+02  0.47000000000E+01 0. -1.
<mgrwt>
<rscale>  0 0.48538511E+03</rscale>
<asrwt>0</asrwt>
<pdfrwt beam="1">  1       21 0.45293961E-01 0.48538511E+03</pdfrwt>
<pdfrwt beam="2">  1       21 0.30778389E-01 0.48538511E+03</pdfrwt>
<totfact> 0.43205755E+04</totfact>
</mgrwt>
</event>
<event>
 8    1  0.9478272E-006  0.2600555E+03  0.7546771E-02  0.1107110E+00
         21   -1    0    0  504  503  0.00000000000E+00  0.00000000000E+00  0.37663721090E+02  0.37663721090E+02  0.00000000000E+00 0. -1.
         21   -1    0    0  503  504 -0.00000000000E+00 -0.00000000000E+00 -0.44889907685E+03  0.44889907685E+03  0.00000000000E+00 0. -1.
         25    2    1    2    0    0 -0.11349165607E+02  0.29390861410E+02 -0.23760196755E+03  0.27030839360E+03  0.12497722340E+03 0.  0.
         25    2    1    2    0    0  0.11349165607E+02 -0.29390861410E+02 -0.17363338821E+03  0.21625440434E+03  0.12499915041E+03 0.  0.
          5    1    3    3  501    0  0.87956719814E+01  0.74344835120E+02 -0.17581449882E+03  0.19114744662E+03  0.47000000000E+01 0.  1.
         -5    1    3    3    0  501 -0.20144837588E+02 -0.44953973709E+02 -0.61787468734E+02  0.79160946977E+02  0.47000000000E+01 0.  1.
          5    1    4    4  502    0 -0.41773956219E+02 -0.75329939891E+00 -0.14171748408E+03  0.14782275255E+03  0.47000000000E+01 0. -1.
         -5    1    4    4    0  502  0.53123121826E+02 -0.28637562012E+02 -0.31915904129E+02  0.68431651791E+02  0.47000000000E+01 0. -1.
<mgrwt>
<rscale>  0 0.26005545E+03</rscale>
<asrwt>0</asrwt>
<pdfrwt beam="1">  1       21 0.57944189E-02 0.26005545E+03</pdfrwt>
<pdfrwt beam="2">  1       21 0.69061393E-01 0.26005545E+03</pdfrwt>
<totfact> 0.39323984E+05</totfact>
</mgrwt>
</event>
<event>
 8    1  0.9478272E-006  0.3220645E+03  0.7546771E-02  0.1074703E+00
         21   -1    0    0  504  503  0.00000000000E+00  0.00000000000E+00  0.30387646739E+03  0.30387646739E+03  0.00000000000E+00 0. -1.
         21   -1    0    0  503  504 -0.00000000000E+00 -0.00000000000E+00 -0.85335299191E+02  0.85335299191E+02  0.00000000000E+00 0. -1.
         25    2    1    2    0    0  0.10137841097E+03  0.50607814667E+01  0.10705347690E+03  0.19335697900E+03  0.12499312258E+03 0.  0.
         25    2    1    2    0    0 -0.10137841097E+03 -0.50607814667E+01  0.11148769131E+03  0.19585478759E+03  0.12500559504E+03 0.  0.
          5    1    3    3  501    0 -0.20215026159E+02 -0.20305242890E+02  0.47155893667E+02  0.55377960228E+02  0.47000000000E+01 0. -1.
         -5    1    3    3    0  501  0.12159343712E+03  0.25366024357E+02  0.59897583230E+02  0.13797901877E+03  0.47000000000E+01 0. -1.
          5    1    4    4  502    0 -0.93938041768E+02  0.46473747771E+02  0.53450194868E+02  0.11774199869E+03  0.47000000000E+01 0.  1.
         -5    1    4    4    0  502 -0.74403691972E+01 -0.51534529238E+02  0.58037496437E+02  0.78112788903E+02  0.47000000000E+01 0.  1.
<mgrwt>
<rscale>  0 0.32206452E+03</rscale>
<asrwt>0</asrwt>
<pdfrwt beam="1">  1       21 0.46750225E-01 0.32206452E+03</pdfrwt>
<pdfrwt beam="2">  1       21 0.13128508E-01 0.32206452E+03</pdfrwt>
<totfact> 0.21159953E+05</totfact>
</mgrwt>
</event>
<event>
 8    1  0.9478272E-006  0.2815320E+03  0.7546771E-02  0.1094855E+00
         21   -1    0    0  504  503  0.00000000000E+00  0.00000000000E+00  0.17346922250E+03  0.17346922250E+03  0.00000000000E+00 0.  1.
         21   -1    0    0  503  504 -0.00000000000E+00 -0.00000000000E+00 -0.11422812618E+03  0.11422812618E+03  0.00000000000E+00 0.  1.
         25    2    1    2    0    0  0.21586650661E+02 -0.44056048579E+02  0.72745733040E+02  0.15274383772E+03  0.12502727455E+03 0.  0.
         25    2    1    2    0    0 -0.21586650661E+02  0.44056048579E+02 -0.13504636716E+02  0.13495351097E+03  0.12499262381E+03 0.  0.
          5    1    3    3  501    0  0.18622688642E+02 -0.82908416447E+02  0.74993836134E+02  0.11343180995E+03  0.47000000000E+01 0.  1.
         -5    1    3    3    0  501  0.29639620191E+01  0.38852367867E+02 -0.22481030937E+01  0.39312027768E+02  0.47000000000E+01 0.  1.
          5    1    4    4  502    0  0.24787478445E+02 -0.12143721754E+02 -0.46933203695E+02  0.54650751823E+02  0.47000000000E+01 0.  1.
         -5    1    4    4    0  502 -0.46374129106E+02  0.56199770333E+02  0.33428566980E+02  0.80302759144E+02  0.47000000000E+01 0.  1.
<mgrwt>
<rscale>  0 0.28153198E+03</rscale>
<asrwt>0</asrwt>
<pdfrwt beam="1">  1       21 0.26687573E-01 0.28153198E+03</pdfrwt>
<pdfrwt beam="2">  1       21 0.17573558E-01 0.28153198E+03</pdfrwt>
<totfact> 0.38491601E+05</totfact>
</mgrwt>
</event>
<event>
 8    1  0.9478272E-006  0.2558863E+03  0.7546771E-02  0.1109640E+00
         21   -1    0    0  504  503  0.00000000000E+00  0.00000000000E+00  0.55847800324E+02  0.55847800324E+02  0.00000000000E+00 0. -1.
         21   -1    0    0  503  504 -0.00000000000E+00 -0.00000000000E+00 -0.29310823000E+03  0.29310823000E+03  0.00000000000E+00 0. -1.
         25    2    1    2    0    0 -0.51769429326E+01 -0.26018719648E+02 -0.11009872124E+03  0.16867877093E+03  0.12500809907E+03 0.  0.
         25    2    1    2    0    0  0.51769429326E+01  0.26018719648E+02 -0.12716170844E+03  0.18027725940E+03  0.12500406255E+03 0.  0.
          5    1    3    3  501    0 -0.17161872259E+02 -0.73745211135E+02 -0.49975676666E+02  0.90843515361E+02  0.47000000000E+01 0.  1.
         -5    1    3    3    0  501  0.11984929327E+02  0.47726491487E+02 -0.60123044575E+02  0.77835255570E+02  0.47000000000E+01 0.  1.
          5    1    4    4  502    0 -0.26114526145E+01  0.60854234403E+02 -0.13052759983E+03  0.14411662585E+03  0.47000000000E+01 0. -1.
         -5    1    4    4    0  502  0.77883955471E+01 -0.34835514755E+02  0.33658913931E+01  0.36160633544E+02  0.47000000000E+01 0. -1.
<mgrwt>
<rscale>  0 0.25588630E+03</rscale>
<asrwt>0</asrwt>
<pdfrwt beam="1">  1       21 0.85919693E-02 0.25588630E+03</pdfrwt>
<pdfrwt beam="2">  1       21 0.45093574E-01 0.25588630E+03</pdfrwt>
<totfact> 0.49359574E+05</totfact>
</mgrwt>
</event>
<event>
 8    1  0.9478272E-006  0.3787801E+03  0.7546771E-02  0.1051386E+00
         21   -1    0    0  504  503  0.00000000000E+00  0.00000000000E+00  0.30444995866E+02  0.30444995866E+02  0.00000000000E+00 0.  1.
         21   -1    0    0  503  504 -0.00000000000E+00 -0.00000000000E+00 -0.11781441680E+04  0.11781441680E+04  0.00000000000E+00 0.  1.
         25    2    1    2    0    0 -0.72313253741E+02 -0.68199033046E+02 -0.89866427149E+03  0.91274473267E+03  0.12500063754E+03 0.  0.
         25    2    1    2    0    0  0.72313253741E+02  0.68199033046E+02 -0.24903490060E+03  0.29584443116E+03  0.12500092381E+03 0.  0.
          5    1    3    3  501    0 -0.10594263260E+03 -0.49052964907E+02 -0.57577346603E+03  0.58750932669E+03  0.47000000000E+01 0. -1.
         -5    1    3    3    0  501  0.33629378861E+02 -0.19146068139E+02 -0.32289080546E+03  0.32523540597E+03  0.47000000000E+01 0. -1.
          5    1    4    4  502    0  0.77809283091E+02  0.97379313830E+02 -0.16676556262E+03  0.20825431130E+03  0.47000000000E+01 0. -1.
         -5    1    4    4    0  502 -0.54960293494E+01 -0.29180280784E+02 -0.82269337979E+02  0.87590119858E+02  0.47000000000E+01 0. -1.
<mgrwt>
<rscale>  0 0.37878012E+03</rscale>
<asrwt>0</asrwt>
<pdfrwt beam="1">  1       21 0.46838449E-02 0.37878012E+03</pdfrwt>
<pdfrwt beam="2">  1       21 0.18125297E+00 0.37878012E+03</pdfrwt>
<totfact> 0.49311926E+04</totfact>
</mgrwt>
</event>
<event>
 8    1  0.9478272E-006  0.2720397E+03  0.7546771E-02  0.1100118E+00
         21   -1    0    0  504  503  0.00000000000E+00  0.00000000000E+00  0.39295762557E+03  0.39295762557E+03  0.00000000000E+00 0. -1.
         21   -1    0    0  503  504 -0.00000000000E+00 -0.00000000000E+00 -0.47082442627E+02  0.47082442627E+02  0.00000000000E+00 0. -1.
         25    2    1    2    0    0 -0.52283541584E+02 -0.67014274637E+00  0.19231931880E+03  0.23525671246E+03  0.12499993026E+03 0.  0.
         25    2    1    2    0    0  0.52283541584E+02  0.67014274637E+00  0.15355586414E+03  0.20478335573E+03  0.12499120593E+03 0.  0.
          5    1    3    3  501    0 -0.36556220942E+02 -0.42664364547E+02  0.24477393883E+02  0.61464120453E+02  0.47000000000E+01 0. -1.
         -5    1    3    3    0  501 -0.15727320642E+02  0.41994221800E+02  0.16784192491E+03  0.17379259201E+03  0.47000000000E+01 0. -1.
          5    1    4    4  502    0  0.19115028038E+02  0.61509454984E+02  0.88989973550E+02  0.10995500326E+03  0.47000000000E+01 0. -1.
         -5    1    4    4    0  502  0.33168513547E+02 -0.60839312238E+02  0.64565890592E+02  0.94828352471E+02  0.47000000000E+01 0. -1.
<mgrwt>
<rscale>  0 0.27203974E+03</rscale>
<asrwt>0</asrwt>
<pdfrwt beam="1">  1       21 0.60455017E-01 0.27203974E+03</pdfrwt>
<pdfrwt beam="2">  1       21 0.72434530E-02 0.27203974E+03</pdfrwt>
<totfact> 0.35681593E+05</totfact>
</mgrwt>
</event>
<event>
 8    1  0.9478272E-006  0.5485760E+03  0.7546771E-02  0.1001824E+00
         21   -1    0    0  504  503  0.00000000000E+00  0.00000000000E+00  0.23559584244E+03  0.23559584244E+03  0.00000000000E+00 0.  1.
         21   -1    0    0  503  504 -0.00000000000E+00 -0.00000000000E+00 -0.31933463548E+03  0.31933463548E+03  0.00000000000E+00 0.  1.
         25    2    1    2    0    0 -0.42182294438E+02 -0.15266820280E+03 -0.22981562949E+03  0.30582751041E+03  0.12501326511E+03 0.  0.
         25    2    1    2    0    0  0.42182294438E+02  0.15266820280E+03  0.14607683645E+03  0.24910296752E+03  0.12500768045E+03 0.  0.
          5    1    3    3  501    0 -0.37471933210E+02 -0.13670674583E+03 -0.24481890269E+03  0.28293332297E+03  0.47000000000E+01 0. -1.
         -5    1    3    3    0  501 -0.47103612284E+01 -0.15961456971E+02  0.15003273201E+02  0.22894187435E+02  0.47000000000E+01 0. -1.
          5    1    4    4  502    0  0.63452611130E+02  0.73884238851E+02  0.13512691077E+03  0.16663278976E+03  0.47000000000E+01 0. -1.
         -5    1    4    4    0  502 -0.21270316692E+02  0.78783963946E+02  0.10949925681E+02  0.82470177759E+02  0.47000000000E+01 0. -1.
<mgrwt>
<rscale>  0 0.54857602E+03</rscale>
<asrwt>0</asrwt>
<pdfrwt beam="1">  1       21 0.36245514E-01 0.54857602E+03</pdfrwt>
<pdfrwt beam="2">  1       21 0.49128405E-01 0.54857602E+03</pdfrwt>
<totfact> 0.25822108E+04</totfact>
</mgrwt>
</event>
<event>
 8    1  0.9478272E-006  0.3891488E+03  0.7546771E-02  0.1047603E+00
         21   -1    0    0  504  503  0.00000000000E+00  0.00000000000E+00  0.56737382950E+02  0.56737382950E+02  0.00000000000E+00 0.  1.
         21   -1    0    0  503  504 -0.00000000000E+00 -0.00000000000E+00 -0.66727078319E+03  0.66727078319E+03  0.00000000000E+00 0.  1.
         25    2    1    2    0    0  0.80639543102E+02 -0.87062245541E+02 -0.47324101041E+03  0.50365254105E+03  0.12500503054E+03 0.  0.
         25    2    1    2    0    0 -0.80639543102E+02  0.87062245541E+02 -0.13729238983E+03  0.22035562509E+03  0.12499932277E+03 0.  0.
          5    1    3    3  501    0  0.37481876608E+02  0.19472699502E+02 -0.23827777246E+03  0.24203814564E+03  0.47000000000E+01 0.  1.
         -5    1    3    3    0  501  0.43157666494E+02 -0.10653494504E+03 -0.23496323795E+03  0.26161439540E+03  0.47000000000E+01 0.  1.
          5    1    4    4  502    0 -0.45758083447E+02  0.26743221887E+02  0.12874786217E+02  0.54743513202E+02  0.47000000000E+01 0.  1.
         -5    1    4    4    0  502 -0.34881459655E+02  0.60319023655E+02 -0.15016717604E+03  0.16561211189E+03  0.47000000000E+01 0.  1.
<mgrwt>
<rscale>  0 0.38914880E+03</rscale>
<asrwt>0</asrwt>
<pdfrwt beam="1">  1       21 0.87288277E-02 0.38914880E+03</pdfrwt>
<pdfrwt beam="2">  1       21 0.10265705E+00 0.38914880E+03</pdfrwt>
<totfact> 0.74377846E+04</totfact>
</mgrwt>
</event>
<event>
 8    1  0.9478272E-006  0.3037359E+03  0.7546771E-02  0.1083388E+00
         21   -1    0    0  504  503  0.00000000000E+00  0.00000000000E+00  0.32446685191E+02  0.32446685191E+02  0.00000000000E+00 0. -1.
         21   -1    0    0  503  504 -0.00000000000E+00 -0.00000000000E+00 -0.71082361676E+03  0.71082361676E+03  0.00000000000E+00 0. -1.
         25    2    1    2    0    0 -0.62899590279E+02  0.84884375449E+01 -0.19656250322E+03  0.24147363102E+03  0.12507711531E+03 0.  0.
         25    2    1    2    0    0  0.62899590279E+02 -0.84884375449E+01 -0.48181442835E+03  0.50179667094E+03  0.12500537415E+03 0.  0.
          5    1    3    3  501    0  0.10439381397E+02  0.50367891802E+02 -0.47963531965E+02  0.70487556399E+02  0.47000000000E+01 0.  1.
         -5    1    3    3    0  501 -0.73338971676E+02 -0.41879454257E+02 -0.14859897126E+03  0.17098607462E+03  0.47000000000E+01 0.  1.
          5    1    4    4  502    0 -0.14955418542E+02 -0.49116710370E+02 -0.20276438968E+03  0.20921664251E+03  0.47000000000E+01 0. -1.
         -5    1    4    4    0  502  0.77855008821E+02  0.40628272826E+02 -0.27905003867E+03  0.29258002843E+03  0.47000000000E+01 0. -1.
<mgrwt>
<rscale>  0 0.30373587E+03</rscale>
<asrwt>0</asrwt>
<pdfrwt beam="1">  1       21 0.49917978E-02 0.30373587E+03</pdfrwt>
<pdfrwt beam="2">  1       21 0.10935748E+00 0.30373587E+03</pdfrwt>
<totfact> 0.17248365E+05</totfact>
</mgrwt>
</event>
<event>
 8    1  0.9478272E-006  0.2650121E+03  0.7546771E-02  0.1104169E+00
         21   -1    0    0  504  503  0.00000000000E+00  0.00000000000E+00  0.14892200363E+03  0.14892200363E+03  0.00000000000E+00 0. -1.
         21   -1    0    0  503  504 -0.00000000000E+00 -0.00000000000E+00 -0.11789968565E+03  0.11789968565E+03  0.00000000000E+00 0. -1.
         25    2    1    2    0    0  0.41146919097E+02  0.10599500091E+02  0.26842994637E+02  0.13473128548E+03  0.12500621814E+03 0.  0.
         25    2    1    2    0    0 -0.41146919097E+02 -0.10599500091E+02  0.41793233475E+01  0.13209040380E+03  0.12499995872E+03 0.  0.
          5    1    3    3  501    0 -0.36696202645E+02 -0.25026827362E+02 -0.72226491811E+00  0.44671747704E+02  0.47000000000E+01 0.  1.
         -5    1    3    3    0  501  0.77843121742E+02  0.35626327453E+02  0.27565259555E+02  0.90059537777E+02  0.47000000000E+01 0.  1.
          5    1    4    4  502    0  0.34461226749E+02 -0.73960595042E+01  0.35323921751E+02  0.50121325732E+02  0.47000000000E+01 0.  1.
         -5    1    4    4    0  502 -0.75608145846E+02 -0.32034405870E+01 -0.31144598404E+02  0.81969078070E+02  0.47000000000E+01 0.  1.
<mgrwt>
<rscale>  0 0.26501213E+03</rscale>
<asrwt>0</asrwt>
<pdfrwt beam="1">  1       21 0.22911078E-01 0.26501213E+03</pdfrwt>
<pdfrwt beam="2">  1       21 0.18138413E-01 0.26501213E+03</pdfrwt>
<totfact> 0.48803595E+05</totfact>
</mgrwt>
</event>
<event>
 8    1  0.9478272E-006  0.2641822E+03  0.7546771E-02  0.1104656E+00
         21   -1    0    0  504  503  0.00000000000E+00  0.00000000000E+00  0.15682825924E+04  0.15682825924E+04  0.00000000000E+00 0.  1.
         21   -1    0    0  503  504 -0.00000000000E+00 -0.00000000000E+00 -0.11125583277E+02  0.11125583277E+02  0.00000000000E+00 0.  1.
         25    2    1    2    0    0  0.22937270473E+02  0.33862781485E+02  0.85234639663E+03  0.86243385277E+03  0.12499985682E+03 0.  0.
         25    2    1    2    0    0 -0.22937270473E+02 -0.33862781485E+02  0.70481061254E+03  0.71697432295E+03  0.12498549468E+03 0.  0.
          5    1    3    3  501    0 -0.49577885190E+02  0.11820957111E+02  0.24001539564E+03  0.24541226919E+03  0.47000000000E+01 0. -1.
         -5    1    3    3    0  501  0.72515155663E+02  0.22041824374E+02  0.61233100100E+03  0.61702158358E+03  0.47000000000E+01 0. -1.
          5    1    4    4  502    0 -0.58174912954E+02 -0.39621850271E+02  0.63010355555E+03  0.63404005570E+03  0.47000000000E+01 0. -1.
         -5    1    4    4    0  502  0.35237642482E+02  0.57590687861E+01  0.74707056993E+02  0.82934267257E+02  0.47000000000E+01 0. -1.
<mgrwt>
<rscale>  0 0.26418220E+03</rscale>
<asrwt>0</asrwt>
<pdfrwt beam="1">  1       21 0.24127407E+00 0.26418220E+03</pdfrwt>
<pdfrwt beam="2">  1       21 0.17116294E-02 0.26418220E+03</pdfrwt>
<totfact> 0.11382542E+05</totfact>
</mgrwt>
</event>
<event>
 8    1  0.9478272E-006  0.3329536E+03  0.7546771E-02  0.1069837E+00
         21   -1    0    0  504  503  0.00000000000E+00  0.00000000000E+00  0.14021669545E+03  0.14021669545E+03  0.00000000000E+00 0. -1.
         21   -1    0    0  503  504 -0.00000000000E+00 -0.00000000000E+00 -0.19765499369E+03  0.19765499369E+03  0.00000000000E+00 0. -1.
         25    2    1    2    0    0 -0.28376920691E+02  0.90591048904E+02 -0.85047188065E+02  0.17850022760E+03  0.12496927337E+03 0.  0.
         25    2    1    2    0    0  0.28376920691E+02 -0.90591048904E+02  0.27608889824E+02  0.15937146154E+03  0.12500009674E+03 0.  0.
          5    1    3    3  501    0 -0.47163649727E+02 -0.36732579407E+01 -0.64452484194E+02  0.80088172649E+02  0.47000000000E+01 0.  1.
         -5    1    3    3    0  501  0.18786729035E+02  0.94264306844E+02 -0.20594703871E+02  0.98412054954E+02  0.47000000000E+01 0.  1.
          5    1    4    4  502    0  0.11702024113E+02 -0.11473659264E+03 -0.46362499115E+01  0.11552059501E+03  0.47000000000E+01 0. -1.
         -5    1    4    4    0  502  0.16674896578E+02  0.24145543738E+02  0.32245139736E+02  0.43850866523E+02  0.47000000000E+01 0. -1.
<mgrwt>
<rscale>  0 0.33295363E+03</rscale>
<asrwt>0</asrwt>
<pdfrwt beam="1">  1       21 0.21571800E-01 0.33295363E+03</pdfrwt>
<pdfrwt beam="2">  1       21 0.30408460E-01 0.33295363E+03</pdfrwt>
<totfact> 0.20061514E+05</totfact>
</mgrwt>
</event>
<event>
 8    1  0.9478272E-006  0.3427925E+03  0.7546771E-02  0.1065613E+00
         21   -1    0    0  504  503  0.00000000000E+00  0.00000000000E+00  0.68000203039E+02  0.68000203039E+02  0.00000000000E+00 0. -1.
         21   -1    0    0  503  504 -0.00000000000E+00 -0.00000000000E+00 -0.43200857351E+03  0.43200857351E+03  0.00000000000E+00 0. -1.
         25    2    1    2    0    0  0.12148901453E+02  0.93767347986E+02 -0.28317715230E+03  0.32365636087E+03  0.12499691595E+03 0.  0.
         25    2    1    2    0    0 -0.12148901453E+02 -0.93767347986E+02 -0.80831218176E+02  0.17635241568E+03  0.12500630916E+03 0.  0.
          5    1    3    3  501    0  0.19682970588E+02 -0.26729819495E+02 -0.40590270420E+02  0.52645632622E+02  0.47000000000E+01 0.  1.
         -5    1    3    3    0  501 -0.75340691353E+01  0.12049716748E+03 -0.24258688188E+03  0.27101072825E+03  0.47000000000E+01 0.  1.
          5    1    4    4  502    0 -0.55998115551E+02 -0.96529050731E+02 -0.66030586208E+02  0.12975274523E+03  0.47000000000E+01 0. -1.
         -5    1    4    4    0  502  0.43849214098E+02  0.27617027449E+01 -0.14800631967E+02  0.46599670446E+02  0.47000000000E+01 0. -1.
<mgrwt>
<rscale>  0 0.34279248E+03</rscale>
<asrwt>0</asrwt>
<pdfrwt beam="1">  1       21 0.10461569E-01 0.34279248E+03</pdfrwt>
<pdfrwt beam="2">  1       21 0.66462860E-01 0.34279248E+03</pdfrwt>
<totfact> 0.14902641E+05</totfact>
</mgrwt>
</event>
<event>
 8    1  0.9478272E-006  0.2750897E+03  0.7546771E-02  0.1098401E+00
         21   -1    0    0  504  503  0.00000000000E+00  0.00000000000E+00  0.83048306117E+02  0.83048306117E+02  0.00000000000E+00 0.  1.
         21   -1    0    0  503  504 -0.00000000000E+00 -0.00000000000E+00 -0.22780214647E+03  0.22780214647E+03  0.00000000000E+00 0.  1.
         25    2    1    2    0    0  0.23377269714E+00  0.70982655475E+01 -0.13673331236E+03  0.18538866846E+03  0.12499007826E+03 0.  0.
         25    2    1    2    0    0 -0.23377269714E+00 -0.70982655475E+01 -0.80205279957E+01  0.12546178413E+03  0.12500356148E+03 0.  0.
          5    1    3    3  501    0  0.34903910769E+02  0.65959326466E+01  0.78081726242E+01  0.36672153934E+02  0.47000000000E+01 0.  1.
         -5    1    3    3    0  501 -0.34670138072E+02  0.50233290090E+00 -0.14454148498E+03  0.14871651453E+03  0.47000000000E+01 0.  1.
          5    1    4    4  502    0 -0.58020626212E+02 -0.11346865119E+02  0.17702376707E+02  0.61891910256E+02  0.47000000000E+01 0.  1.
         -5    1    4    4    0  502  0.57786853515E+02  0.42485995714E+01 -0.25722904703E+02  0.63569873869E+02  0.47000000000E+01 0.  1.
<mgrwt>
<rscale>  0 0.27508968E+03</rscale>
<asrwt>0</asrwt>
<pdfrwt beam="1">  1       21 0.12776663E-01 0.27508968E+03</pdfrwt>
<pdfrwt beam="2">  1       21 0.35046483E-01 0.27508968E+03</pdfrwt>
<totfact> 0.40449099E+05</totfact>
</mgrwt>
</event>
<event>
 8    1  0.9478272E-006  0.2733764E+03  0.7546771E-02  0.1099363E+00
         21   -1    0    0  504  503  0.00000000000E+00  0.00000000000E+00  0.33326563473E+02  0.33326563473E+02  0.00000000000E+00 0.  1.
         21   -1    0    0  503  504 -0.00000000000E+00 -0.00000000000E+00 -0.56062383730E+03  0.56062383730E+03  0.00000000000E+00 0.  1.
         25    2    1    2    0    0 -0.26567707759E+02 -0.41914165702E+02 -0.31658636145E+03  0.34397587485E+03  0.12501934986E+03 0.  0.
         25    2    1    2    0    0  0.26567707759E+02  0.41914165702E+02 -0.21071091238E+03  0.24997452592E+03  0.12500213852E+03 0.  0.
          5    1    3    3  501    0 -0.59692819996E+02  0.19639247299E+02 -0.17510443823E+03  0.18609832638E+03  0.47000000000E+01 0. -1.
         -5    1    3    3    0  501  0.33125112237E+02 -0.61553413001E+02 -0.14148192323E+03  0.15787754847E+03  0.47000000000E+01 0. -1.
          5    1    4    4  502    0  0.41337889721E+02 -0.13329248232E+02 -0.15259852299E+02  0.46275728814E+02  0.47000000000E+01 0. -1.
         -5    1    4    4    0  502 -0.14770181962E+02  0.55243413934E+02 -0.19545106008E+03  0.20369879711E+03  0.47000000000E+01 0. -1.
<mgrwt>
<rscale>  0 0.27337641E+03</rscale>
<asrwt>0</asrwt>
<pdfrwt beam="1">  1       21 0.51271638E-02 0.27337641E+03</pdfrwt>
<pdfrwt beam="2">  1       21 0.86249818E-01 0.27337641E+03</pdfrwt>
<totfact> 0.29232918E+05</totfact>
</mgrwt>
</event>
<event>
 8    1  0.9478272E-006  0.3462148E+03  0.7546771E-02  0.1064179E+00
         21   -1    0    0  504  503  0.00000000000E+00  0.00000000000E+00  0.21295420745E+02  0.21295420745E+02  0.00000000000E+00 0.  1.
         21   -1    0    0  503  504 -0.00000000000E+00 -0.00000000000E+00 -0.14071651962E+04  0.14071651962E+04  0.00000000000E+00 0.  1.
         25    2    1    2    0    0  0.81860233279E+02 -0.87386550802E+02 -0.69733483470E+03  0.71850203097E+03  0.12502715616E+03 0.  0.
         25    2    1    2    0    0 -0.81860233279E+02  0.87386550802E+02 -0.68853494075E+03  0.70995858597E+03  0.12499328821E+03 0.  0.
          5    1    3    3  501    0  0.27926572527E+02 -0.67448768560E+02 -0.13791283940E+03  0.15611300748E+03  0.47000000000E+01 0.  1.
         -5    1    3    3    0  501  0.53933660752E+02 -0.19937782242E+02 -0.55942199530E+03  0.56238902350E+03  0.47000000000E+01 0.  1.
          5    1    4    4  502    0 -0.68059794915E+02 -0.14812848556E+02 -0.26974100799E+03  0.27862852969E+03  0.47000000000E+01 0. -1.
         -5    1    4    4    0  502 -0.13800438364E+02  0.10219939936E+03 -0.41879393276E+03  0.43133005627E+03  0.47000000000E+01 0. -1.
<mgrwt>
<rscale>  0 0.34621482E+03</rscale>
<asrwt>0</asrwt>
<pdfrwt beam="1">  1       21 0.32762179E-02 0.34621482E+03</pdfrwt>
<pdfrwt beam="2">  1       21 0.21648700E+00 0.34621482E+03</pdfrwt>
<totfact> 0.53393971E+04</totfact>
</mgrwt>
</event>
<event>
 8    1  0.9478272E-006  0.3116699E+03  0.7546771E-02  0.1079548E+00
         21   -1    0    0  504  503  0.00000000000E+00  0.00000000000E+00  0.10337885586E+04  0.10337885586E+04  0.00000000000E+00 0. -1.
         21   -1    0    0  503  504 -0.00000000000E+00 -0.00000000000E+00 -0.23490815163E+02  0.23490815163E+02  0.00000000000E+00 0. -1.
         25    2    1    2    0    0 -0.18428623466E+02 -0.46713657303E+02  0.77094954945E+03  0.78262785625E+03  0.12498549371E+03 0.  0.
         25    2    1    2    0    0  0.18428623466E+02  0.46713657303E+02  0.23934819400E+03  0.27465151753E+03  0.12499647262E+03 0.  0.
          5    1    3    3  501    0 -0.53092746453E+02 -0.59704536199E+02  0.67416084898E+03  0.67889499310E+03  0.47000000000E+01 0.  1.
         -5    1    3    3    0  501  0.34664122987E+02  0.12990878896E+02  0.96788700470E+02  0.10373286314E+03  0.47000000000E+01 0.  1.
          5    1    4    4  502    0 -0.44096997279E+02  0.47459511845E+02  0.77740482199E+02  0.10130460506E+03  0.47000000000E+01 0.  1.
         -5    1    4    4    0  502  0.62525620745E+02 -0.74585454245E+00  0.16160771180E+03  0.17334691247E+03  0.47000000000E+01 0.  1.
<mgrwt>
<rscale>  0 0.31166993E+03</rscale>
<asrwt>0</asrwt>
<pdfrwt beam="1">  1       21 0.15904436E+00 0.31166993E+03</pdfrwt>
<pdfrwt beam="2">  1       21 0.36139724E-02 0.31166993E+03</pdfrwt>
<totfact> 0.11324200E+05</totfact>
</mgrwt>
</event>
<event>
 8    1  0.9478272E-006  0.3636882E+03  0.7546771E-02  0.1057133E+00
         21   -1    0    0  504  503  0.00000000000E+00  0.00000000000E+00  0.23139263213E+03  0.23139263213E+03  0.00000000000E+00 0. -1.
         21   -1    0    0  503  504 -0.00000000000E+00 -0.00000000000E+00 -0.14290547701E+03  0.14290547701E+03  0.00000000000E+00 0. -1.
         25    2    1    2    0    0 -0.31691783672E+02  0.12783905770E+03  0.54281735063E+02  0.18952348932E+03  0.12500180965E+03 0.  0.
         25    2    1    2    0    0  0.31691783672E+02 -0.12783905770E+03  0.34205420055E+02  0.18477461981E+03  0.12499782214E+03 0.  0.
          5    1    3    3  501    0  0.18606847343E+02 -0.43510132211E+01 -0.21375783720E+02  0.29054435353E+02  0.47000000000E+01 0. -1.
         -5    1    3    3    0  501 -0.50298631015E+02  0.13219007093E+03  0.75657518782E+02  0.16046905397E+03  0.47000000000E+01 0. -1.
          5    1    4    4  502    0  0.36593426636E+02 -0.14809038464E+03  0.47229058533E+02  0.15975767545E+03  0.47000000000E+01 0.  1.
         -5    1    4    4    0  502 -0.49016429639E+01  0.20251326932E+02 -0.13023638478E+02  0.25016944367E+02  0.47000000000E+01 0.  1.
<mgrwt>
<rscale>  0 0.36368819E+03</rscale>
<asrwt>0</asrwt>
<pdfrwt beam="1">  1       21 0.35598866E-01 0.36368819E+03</pdfrwt>
<pdfrwt beam="2">  1       21 0.21985458E-01 0.36368819E+03</pdfrwt>
<totfact> 0.14033579E+05</totfact>
</mgrwt>
</event>
<event>
 8    1  0.9478272E-006  0.2563722E+03  0.7546771E-02  0.1109343E+00
         21   -1    0    0  504  503  0.00000000000E+00  0.00000000000E+00  0.23611205895E+03  0.23611205895E+03  0.00000000000E+00 0. -1.
         21   -1    0    0  503  504 -0.00000000000E+00 -0.00000000000E+00 -0.69592685872E+02  0.69592685872E+02  0.00000000000E+00 0. -1.
         25    2    1    2    0    0  0.24392307778E+01  0.20803149786E+02  0.60394848566E+02  0.14039661022E+03  0.12499979816E+03 0.  0.
         25    2    1    2    0    0 -0.24392307778E+01 -0.20803149786E+02  0.10612452451E+03  0.16530813460E+03  0.12500257507E+03 0.  0.
          5    1    3    3  501    0 -0.18715066008E+02 -0.48635216967E+02  0.14160646074E+02  0.54205644746E+02  0.47000000000E+01 0.  1.
         -5    1    3    3    0  501  0.21154296786E+02  0.69438366753E+02  0.46234202492E+02  0.86190965477E+02  0.47000000000E+01 0.  1.
          5    1    4    4  502    0 -0.35075868234E+02  0.42510608986E+02  0.44112551485E+02  0.70749385914E+02  0.47000000000E+01 0.  1.
         -5    1    4    4    0  502  0.32636637456E+02 -0.63313758772E+02  0.62011973029E+02  0.94558748687E+02  0.47000000000E+01 0.  1.
<mgrwt>
<rscale>  0 0.25637217E+03</rscale>
<asrwt>0</asrwt>
<pdfrwt beam="1">  1       21 0.36324932E-01 0.25637217E+03</pdfrwt>
<pdfrwt beam="2">  1       21 0.10706567E-01 0.25637217E+03</pdfrwt>
<totfact> 0.51911297E+05</totfact>
</mgrwt>
</event>
<event>
 8    1  0.9478272E-006  0.4044622E+03  0.7546771E-02  0.1042245E+00
         21   -1    0    0  504  503  0.00000000000E+00  0.00000000000E+00  0.35795439174E+02  0.35795439174E+02  0.00000000000E+00 0. -1.
         21   -1    0    0  503  504 -0.00000000000E+00 -0.00000000000E+00 -0.11425316808E+04  0.11425316808E+04  0.00000000000E+00 0. -1.
         25    2    1    2    0    0  0.80459158548E+02  0.31318934998E+02 -0.94225264703E+03  0.95442128541E+03  0.12500154931E+03 0.  0.
         25    2    1    2    0    0 -0.80459158548E+02 -0.31318934998E+02 -0.16448359462E+03  0.22390583458E+03  0.12499767189E+03 0.  0.
          5    1    3    3  501    0  0.25411115712E+02  0.75433945442E+01 -0.30477445965E+02  0.40664386329E+02  0.47000000000E+01 0.  1.
         -5    1    3    3    0  501  0.55048042836E+02  0.23775540454E+02 -0.91177520106E+03  0.91375689908E+03  0.47000000000E+01 0.  1.
          5    1    4    4  502    0 -0.77685989935E+02  0.33682504426E+02 -0.11013497374E+03  0.13900153444E+03  0.47000000000E+01 0. -1.
         -5    1    4    4    0  502 -0.27731686133E+01 -0.65001439423E+02 -0.54348620875E+02  0.84904300140E+02  0.47000000000E+01 0. -1.
<mgrwt>
<rscale>  0 0.40446223E+03</rscale>
<asrwt>0</asrwt>
<pdfrwt beam="1">  1       21 0.55069901E-02 0.40446223E+03</pdfrwt>
<pdfrwt beam="2">  1       21 0.17577412E+00 0.40446223E+03</pdfrwt>
<totfact> 0.40448393E+04</totfact>
</mgrwt>
</event>
<event>
 8    1  0.9478272E-006  0.2651830E+03  0.7546771E-02  0.1104069E+00
         21   -1    0    0  504  503  0.00000000000E+00  0.00000000000E+00  0.99432453487E+02  0.99432453487E+02  0.00000000000E+00 0. -1.
         21   -1    0    0  503  504 -0.00000000000E+00 -0.00000000000E+00 -0.17680846927E+03  0.17680846927E+03  0.00000000000E+00 0. -1.
         25    2    1    2    0    0  0.16784221229E+02 -0.18203710060E+02 -0.76952633057E+02  0.14885315509E+03  0.12498987521E+03 0.  0.
         25    2    1    2    0    0 -0.16784221229E+02  0.18203710060E+02 -0.42338272471E+00  0.12738776766E+03  0.12495750860E+03 0.  0.
          5    1    3    3  501    0 -0.96358691904E+01  0.21490790855E+02 -0.94745475667E+02  0.97742003386E+02  0.47000000000E+01 0.  1.
         -5    1    3    3    0  501  0.26420090420E+02 -0.39694500915E+02  0.17792842610E+02  0.51111151707E+02  0.47000000000E+01 0.  1.
          5    1    4    4  502    0  0.24418022731E+01  0.54235774009E+02 -0.42088895450E+02  0.68855259065E+02  0.47000000000E+01 0. -1.
         -5    1    4    4    0  502 -0.19226023502E+02 -0.36032063949E+02  0.41665512725E+02  0.58532508598E+02  0.47000000000E+01 0. -1.
<mgrwt>
<rscale>  0 0.26518295E+03</rscale>
<asrwt>0</asrwt>
<pdfrwt beam="1">  1       21 0.15297301E-01 0.26518295E+03</pdfrwt>
<pdfrwt beam="2">  1       21 0.27201303E-01 0.26518295E+03</pdfrwt>
<totfact> 0.48079079E+05</totfact>
</mgrwt>
</event>
<event>
 8    1  0.9478272E-006  0.2647431E+03  0.7546771E-02  0.1104327E+00
         21   -1    0    0  504  503  0.00000000000E+00  0.00000000000E+00  0.14307724523E+03  0.14307724523E+03  0.00000000000E+00 0.  1.
         21   -1    0    0  503  504 -0.00000000000E+00 -0.00000000000E+00 -0.12246689288E+03  0.12246689288E+03  0.00000000000E+00 0.  1.
         25    2    1    2    0    0  0.39600288410E+02 -0.67257630374E+01 -0.65526482695E+01  0.13145916846E+03  0.12500062816E+03 0.  0.
         25    2    1    2    0    0 -0.39600288410E+02  0.67257630374E+01  0.27163000623E+02  0.13408496966E+03  0.12501012661E+03 0.  0.
          5    1    3    3  501    0  0.34482564228E+02  0.51495225534E+02 -0.29115210400E+02  0.68633745091E+02  0.47000000000E+01 0. -1.
         -5    1    3    3    0  501  0.51177241823E+01 -0.58220988572E+02  0.22562562130E+02  0.62825423365E+02  0.47000000000E+01 0. -1.
          5    1    4    4  502    0 -0.48546455062E+02  0.44936541826E+02 -0.23025262598E+02  0.70201878950E+02  0.47000000000E+01 0. -1.
         -5    1    4    4    0  502  0.89461666526E+01 -0.38210778789E+02  0.50188263220E+02  0.63883090709E+02  0.47000000000E+01 0. -1.
<mgrwt>
<rscale>  0 0.26474309E+03</rscale>
<asrwt>0</asrwt>
<pdfrwt beam="1">  1       21 0.22011884E-01 0.26474309E+03</pdfrwt>
<pdfrwt beam="2">  1       21 0.18841060E-01 0.26474309E+03</pdfrwt>
<totfact> 0.49061320E+05</totfact>
</mgrwt>
</event>
<event>
 8    1  0.9478272E-006  0.3578715E+03  0.7546771E-02  0.1059430E+00
         21   -1    0    0  504  503  0.00000000000E+00  0.00000000000E+00  0.11294160078E+04  0.11294160078E+04  0.00000000000E+00 0. -1.
         21   -1    0    0  503  504 -0.00000000000E+00 -0.00000000000E+00 -0.28349162071E+02  0.28349162071E+02  0.00000000000E+00 0. -1.
         25    2    1    2    0    0  0.22133744583E+02 -0.12602407823E+03  0.56576001524E+03  0.59336325528E+03  0.12499434763E+03 0.  0.
         25    2    1    2    0    0 -0.22133744583E+02  0.12602407823E+03  0.53530683047E+03  0.56440191456E+03  0.12499658985E+03 0.  0.
          5    1    3    3  501    0 -0.88986281060E+01 -0.14052236263E+03  0.49420958192E+03  0.51389777276E+03  0.47000000000E+01 0.  1.
         -5    1    3    3    0  501  0.31032372689E+02  0.14498284409E+02  0.71550433313E+02  0.79465482525E+02  0.47000000000E+01 0.  1.
          5    1    4    4  502    0  0.20996452831E+02  0.10232896853E+03  0.20211028219E+03  0.22755817937E+03  0.47000000000E+01 0. -1.
         -5    1    4    4    0  502 -0.43130197414E+02  0.23695109694E+02  0.33319654828E+03  0.33684373519E+03  0.47000000000E+01 0. -1.
<mgrwt>
<rscale>  0 0.35787147E+03</rscale>
<asrwt>0</asrwt>
<pdfrwt beam="1">  1       21 0.17375627E+00 0.35787147E+03</pdfrwt>
<pdfrwt beam="2">  1       21 0.43614104E-02 0.35787147E+03</pdfrwt>
<totfact> 0.63351630E+04</totfact>
</mgrwt>
</event>
<event>
 8    1  0.9478272E-006  0.2864424E+03  0.7546771E-02  0.1092221E+00
         21   -1    0    0  504  503  0.00000000000E+00  0.00000000000E+00  0.47792184472E+03  0.47792184472E+03  0.00000000000E+00 0.  1.
         21   -1    0    0  503  504 -0.00000000000E+00 -0.00000000000E+00 -0.42919808106E+02  0.42919808106E+02  0.00000000000E+00 0.  1.
         25    2    1    2    0    0 -0.61741970660E+02 -0.30886136824E+02  0.23740741786E+03  0.27704859983E+03  0.12501048045E+03 0.  0.
         25    2    1    2    0    0  0.61741970660E+02  0.30886136824E+02  0.19759461876E+03  0.24379305300E+03  0.12500157975E+03 0.  0.
          5    1    3    3  501    0 -0.54363062208E+02 -0.21032386706E+02  0.23963692794E+02  0.63198515771E+02  0.47000000000E+01 0.  1.
         -5    1    3    3    0  501 -0.73789084517E+01 -0.98537501179E+01  0.21344372507E+03  0.21385008406E+03  0.47000000000E+01 0.  1.
          5    1    4    4  502    0  0.88415880932E+02 -0.28717235008E+01  0.17210096529E+03  0.19356251458E+03  0.47000000000E+01 0. -1.
         -5    1    4    4    0  502 -0.26673910271E+02  0.33757860325E+02  0.25493653466E+02  0.50230538420E+02  0.47000000000E+01 0. -1.
<mgrwt>
<rscale>  0 0.28644241E+03</rscale>
<asrwt>0</asrwt>
<pdfrwt beam="1">  1       21 0.73526434E-01 0.28644241E+03</pdfrwt>
<pdfrwt beam="2">  1       21 0.66030477E-02 0.28644241E+03</pdfrwt>
<totfact> 0.27127875E+05</totfact>
</mgrwt>
</event>
<event>
 8    1  0.9478272E-006  0.6009805E+03  0.7546771E-02  0.9903374E-01
         21   -1    0    0  504  503  0.00000000000E+00  0.00000000000E+00  0.30302510170E+02  0.30302510170E+02  0.00000000000E+00 0.  1.
         21   -1    0    0  503  504 -0.00000000000E+00 -0.00000000000E+00 -0.29797659279E+04  0.29797659279E+04  0.00000000000E+00 0.  1.
         25    2    1    2    0    0 -0.60297644350E+02 -0.18485239844E+03 -0.24363807096E+04  0.24473215767E+04  0.12500288881E+03 0.  0.
         25    2    1    2    0    0  0.60297644350E+02  0.18485239844E+03 -0.51308270806E+03  0.56274686137E+03  0.12499579812E+03 0.  0.
          5    1    3    3  501    0 -0.69378674148E+02 -0.14167694745E+03 -0.22578800370E+04  0.22633890760E+04  0.47000000000E+01 0. -1.
         -5    1    3    3    0  501  0.90810297980E+01 -0.43175450994E+02 -0.17850067263E+03  0.18393250066E+03  0.47000000000E+01 0. -1.
          5    1    4    4  502    0  0.18129672042E+02  0.11141828172E+03 -0.42781843935E+03  0.44248550887E+03  0.47000000000E+01 0.  1.
         -5    1    4    4    0  502  0.42167972308E+02  0.73434116718E+02 -0.85264268709E+02  0.12026135250E+03  0.47000000000E+01 0.  1.
<mgrwt>
<rscale>  0 0.60098049E+03</rscale>
<asrwt>0</asrwt>
<pdfrwt beam="1">  1       21 0.46619264E-02 0.60098049E+03</pdfrwt>
<pdfrwt beam="2">  1       21 0.45842535E+00 0.60098049E+03</pdfrwt>
<totfact> 0.79590293E+02</totfact>
</mgrwt>
</event>
<event>
 8    1  0.9478272E-006  0.2728983E+03  0.7546771E-02  0.1099632E+00
         21   -1    0    0  504  503  0.00000000000E+00  0.00000000000E+00  0.26874262388E+03  0.26874262388E+03  0.00000000000E+00 0. -1.
         21   -1    0    0  503  504 -0.00000000000E+00 -0.00000000000E+00 -0.69279581061E+02  0.69279581061E+02  0.00000000000E+00 0. -1.
         25    2    1    2    0    0  0.26233802695E+02  0.25828156978E+02  0.49661803145E+02  0.13944902388E+03  0.12499771787E+03 0.  0.
         25    2    1    2    0    0 -0.26233802695E+02 -0.25828156978E+02  0.14980123967E+03  0.19857318106E+03  0.12504235575E+03 0.  0.
          5    1    3    3  501    0  0.50748924374E+02  0.65752959467E+02  0.30320773305E+02  0.88545718686E+02  0.47000000000E+01 0. -1.
         -5    1    3    3    0  501 -0.24515121678E+02 -0.39924802489E+02  0.19341029840E+02  0.50903305197E+02  0.47000000000E+01 0. -1.
          5    1    4    4  502    0  0.47298989900E+02 -0.23415487477E+02  0.86322098083E+02  0.10128708761E+03  0.47000000000E+01 0.  1.
         -5    1    4    4    0  502 -0.73532792595E+02 -0.24126695010E+01  0.63479141590E+02  0.97286093446E+02  0.47000000000E+01 0.  1.
<mgrwt>
<rscale>  0 0.27289834E+03</rscale>
<asrwt>0</asrwt>
<pdfrwt beam="1">  1       21 0.41345018E-01 0.27289834E+03</pdfrwt>
<pdfrwt beam="2">  1       21 0.10658397E-01 0.27289834E+03</pdfrwt>
<totfact> 0.40134768E+05</totfact>
</mgrwt>
</event>
<event>
 8    1  0.9478272E-006  0.2909120E+03  0.7546771E-02  0.1089874E+00
         21   -1    0    0  504  503  0.00000000000E+00  0.00000000000E+00  0.10492224990E+02  0.10492224990E+02  0.00000000000E+00 0.  1.
         21   -1    0    0  503  504 -0.00000000000E+00 -0.00000000000E+00 -0.20164885320E+04  0.20164885320E+04  0.00000000000E+00 0.  1.
         25    2    1    2    0    0 -0.52368501931E+02  0.38616696804E+02 -0.12534822988E+04  0.12613844150E+04  0.12505622660E+03 0.  0.
         25    2    1    2    0    0  0.52368501931E+02 -0.38616696804E+02 -0.75251400820E+03  0.76559634195E+03  0.12500686782E+03 0.  0.
          5    1    3    3  501    0 -0.55994427210E+02  0.16215057863E+02 -0.12153904370E+04  0.12167967407E+04  0.47000000000E+01 0.  1.
         -5    1    3    3    0  501  0.36259252791E+01  0.22401638940E+02 -0.38091861807E+02  0.44587674275E+02  0.47000000000E+01 0.  1.
          5    1    4    4  502    0  0.87128028444E+02 -0.52086108268E+02 -0.49179965732E+03  0.50218845960E+03  0.47000000000E+01 0.  1.
         -5    1    4    4    0  502 -0.34759526513E+02  0.13469411465E+02 -0.26071435088E+03  0.26340788235E+03  0.47000000000E+01 0.  1.
<mgrwt>
<rscale>  0 0.29091202E+03</rscale>
<asrwt>0</asrwt>
<pdfrwt beam="1">  1       21 0.16141884E-02 0.29091202E+03</pdfrwt>
<pdfrwt beam="2">  1       21 0.31022902E+00 0.29091202E+03</pdfrwt>
<totfact> 0.48201487E+04</totfact>
</mgrwt>
</event>
<event>
 8    1  0.9478272E-006  0.2599597E+03  0.7546771E-02  0.1107167E+00
         21   -1    0    0  504  503  0.00000000000E+00  0.00000000000E+00  0.14091211627E+02  0.14091211627E+02  0.00000000000E+00 0.  1.
         21   -1    0    0  503  504 -0.00000000000E+00 -0.00000000000E+00 -0.11989577822E+04  0.11989577822E+04  0.00000000000E+00 0.  1.
         25    2    1    2    0    0  0.30835886868E+02  0.11247036406E+02 -0.52746742322E+03  0.54306742273E+03  0.12499198106E+03 0.  0.
         25    2    1    2    0    0 -0.30835886868E+02 -0.11247036406E+02 -0.65739914733E+03  0.66998157107E+03  0.12499727564E+03 0.  0.
          5    1    3    3  501    0 -0.30092981208E+02 -0.17085692429E+02 -0.37199416487E+03  0.37362983968E+03  0.47000000000E+01 0. -1.
         -5    1    3    3    0  501  0.60928868076E+02  0.28332728835E+02 -0.15547325835E+03  0.16943758305E+03  0.47000000000E+01 0. -1.
          5    1    4    4  502    0  0.49919841372E+01 -0.56927529208E+02 -0.47648804202E+03  0.47992562723E+03  0.47000000000E+01 0.  1.
         -5    1    4    4    0  502 -0.35827871005E+02  0.45680492802E+02 -0.18091110531E+03  0.19005594384E+03  0.47000000000E+01 0.  1.
<mgrwt>
<rscale>  0 0.25995975E+03</rscale>
<asrwt>0</asrwt>
<pdfrwt beam="1">  1       21 0.21678783E-02 0.25995975E+03</pdfrwt>
<pdfrwt beam="2">  1       21 0.18445508E+00 0.25995975E+03</pdfrwt>
<totfact> 0.17791855E+05</totfact>
</mgrwt>
</event>
<event>
 8    1  0.9478272E-006  0.6941719E+03  0.7546771E-02  0.9727251E-01
         21   -1    0    0  504  503  0.00000000000E+00  0.00000000000E+00  0.43738120496E+03  0.43738120496E+03  0.00000000000E+00 0.  1.
         21   -1    0    0  503  504 -0.00000000000E+00 -0.00000000000E+00 -0.27543169117E+03  0.27543169117E+03  0.00000000000E+00 0.  1.
         25    2    1    2    0    0  0.10129656733E+03 -0.23077373527E+03  0.28971174257E+03  0.40382615910E+03  0.12500064617E+03 0.  0.
         25    2    1    2    0    0 -0.10129656733E+03  0.23077373527E+03 -0.12776222877E+03  0.30898673703E+03  0.12502841722E+03 0.  0.
          5    1    3    3  501    0  0.38153354604E+02 -0.13291023575E+02  0.65271521205E+01  0.41194944957E+02  0.47000000000E+01 0. -1.
         -5    1    3    3    0  501  0.63143212728E+02 -0.21748271170E+03  0.28318459045E+03  0.36263121414E+03  0.47000000000E+01 0. -1.
          5    1    4    4  502    0  0.26012453994E+02  0.20260328282E+02 -0.27853203746E+02  0.43416812686E+02  0.47000000000E+01 0. -1.
         -5    1    4    4    0  502 -0.12730902133E+03  0.21051340699E+03 -0.99909025028E+02  0.26556992434E+03  0.47000000000E+01 0. -1.
<mgrwt>
<rscale>  0 0.69417187E+03</rscale>
<asrwt>0</asrwt>
<pdfrwt beam="1">  1       21 0.67289416E-01 0.69417187E+03</pdfrwt>
<pdfrwt beam="2">  1       21 0.42374106E-01 0.69417187E+03</pdfrwt>
<totfact> 0.91192938E+03</totfact>
</mgrwt>
</event>
<event>
 8    1  0.9478272E-006  0.3277531E+03  0.7546771E-02  0.1072135E+00
         21   -1    0    0  504  503  0.00000000000E+00  0.00000000000E+00  0.80097377413E+02  0.80097377413E+02  0.00000000000E+00 0.  1.
         21   -1    0    0  503  504 -0.00000000000E+00 -0.00000000000E+00 -0.33528593043E+03  0.33528593043E+03  0.00000000000E+00 0.  1.
         25    2    1    2    0    0  0.14677854822E+02  0.10465035886E+03 -0.13745493400E+03  0.21373691332E+03  0.12498988841E+03 0.  0.
         25    2    1    2    0    0 -0.14677854822E+02 -0.10465035886E+03 -0.11773361902E+03  0.20164639453E+03  0.12503170137E+03 0.  0.
          5    1    3    3  501    0 -0.43233650510E+02  0.56218570263E+01 -0.16196931261E+02  0.46745955922E+02  0.47000000000E+01 0.  1.
         -5    1    3    3    0  501  0.57911505332E+02  0.99028501829E+02 -0.12125800274E+03  0.16699095740E+03  0.47000000000E+01 0.  1.
          5    1    4    4  502    0  0.90351340646E+01 -0.57951577460E+02 -0.13420923837E+03  0.14654087703E+03  0.47000000000E+01 0. -1.
         -5    1    4    4    0  502 -0.23712988887E+02 -0.46698781395E+02  0.16475619345E+02  0.55105517496E+02  0.47000000000E+01 0. -1.
<mgrwt>
<rscale>  0 0.32775310E+03</rscale>
<asrwt>0</asrwt>
<pdfrwt beam="1">  1       21 0.12322673E-01 0.32775310E+03</pdfrwt>
<pdfrwt beam="2">  1       21 0.51582451E-01 0.32775310E+03</pdfrwt>
<totfact> 0.19277280E+05</totfact>
</mgrwt>
</event>
<event>
 8    1  0.9478272E-006  0.2584097E+03  0.7546771E-02  0.1108102E+00
         21   -1    0    0  504  503  0.00000000000E+00  0.00000000000E+00  0.31883164991E+03  0.31883164991E+03  0.00000000000E+00 0.  1.
         21   -1    0    0  503  504 -0.00000000000E+00 -0.00000000000E+00 -0.52359597571E+02  0.52359597571E+02  0.00000000000E+00 0.  1.
         25    2    1    2    0    0  0.10801726984E+01 -0.14239716411E+02  0.17544759828E+03  0.21589636704E+03  0.12500178103E+03 0.  0.
         25    2    1    2    0    0 -0.10801726984E+01  0.14239716411E+02  0.91024454054E+02  0.15529488044E+03  0.12500844915E+03 0.  0.
          5    1    3    3  501    0  0.48526866821E+02  0.32497772411E+02  0.72874364381E+02  0.93507887363E+02  0.47000000000E+01 0. -1.
         -5    1    3    3    0  501 -0.47446694123E+02 -0.46737488823E+02  0.10257323390E+03  0.12238847968E+03  0.47000000000E+01 0. -1.
          5    1    4    4  502    0 -0.51097133128E+02  0.68225973932E+01  0.90792623405E+02  0.10451246487E+03  0.47000000000E+01 0. -1.
         -5    1    4    4    0  502  0.50016960429E+02  0.74171190182E+01  0.23183064877E+00  0.50782415565E+02  0.47000000000E+01 0. -1.
<mgrwt>
<rscale>  0 0.25840973E+03</rscale>
<asrwt>0</asrwt>
<pdfrwt beam="1">  1       21 0.49051022E-01 0.25840973E+03</pdfrwt>
<pdfrwt beam="2">  1       21 0.80553229E-02 0.25840973E+03</pdfrwt>
<totfact> 0.46378997E+05</totfact>
</mgrwt>
</event>
<event>
 8    1  0.9478272E-006  0.2854580E+03  0.7546771E-02  0.1092745E+00
         21   -1    0    0  504  503  0.00000000000E+00  0.00000000000E+00  0.88177256911E+03  0.88177256911E+03  0.00000000000E+00 0. -1.
         21   -1    0    0  503  504 -0.00000000000E+00 -0.00000000000E+00 -0.23102973886E+02  0.23102973886E+02  0.00000000000E+00 0. -1.
         25    2    1    2    0    0 -0.68015741626E+02 -0.30660279589E+01  0.39591723992E+03  0.42072707078E+03  0.12500106234E+03 0.  0.
         25    2    1    2    0    0  0.68015741626E+02  0.30660279589E+01  0.46275235530E+03  0.48414847221E+03  0.12499783667E+03 0.  0.
          5    1    3    3  501    0 -0.20636409545E+02  0.55274894399E+02  0.10833584418E+03  0.12345007284E+03  0.47000000000E+01 0.  1.
         -5    1    3    3    0  501 -0.47379332081E+02 -0.58340922358E+02  0.28758139574E+03  0.29727699794E+03  0.47000000000E+01 0.  1.
          5    1    4    4  502    0  0.85267321237E+02  0.45129693586E+02  0.30849723076E+03  0.32326434492E+03  0.47000000000E+01 0.  1.
         -5    1    4    4    0  502 -0.17251579611E+02 -0.42063665627E+02  0.15425512455E+03  0.16088412729E+03  0.47000000000E+01 0.  1.
<mgrwt>
<rscale>  0 0.28545801E+03</rscale>
<asrwt>0</asrwt>
<pdfrwt beam="1">  1       21 0.13565729E+00 0.28545801E+03</pdfrwt>
<pdfrwt beam="2">  1       21 0.35543044E-02 0.28545801E+03</pdfrwt>
<totfact> 0.17931382E+05</totfact>
</mgrwt>
</event>
<event>
 8    1  0.9478272E-006  0.3152833E+03  0.7546771E-02  0.1077841E+00
         21   -1    0    0  504  503  0.00000000000E+00  0.00000000000E+00  0.23379246550E+03  0.23379246550E+03  0.00000000000E+00 0. -1.
         21   -1    0    0  503  504 -0.00000000000E+00 -0.00000000000E+00 -0.10629467097E+03  0.10629467097E+03  0.00000000000E+00 0. -1.
         25    2    1    2    0    0  0.31522191976E+02  0.63050513381E+02 -0.66235528338E+01  0.14366136510E+03  0.12500280215E+03 0.  0.
         25    2    1    2    0    0 -0.31522191976E+02 -0.63050513381E+02  0.13412134737E+03  0.19642577137E+03  0.12500212804E+03 0.  0.
          5    1    3    3  501    0  0.52559711949E+02  0.82689681595E+02  0.24402217843E+02  0.10108246632E+03  0.47000000000E+01 0.  1.
         -5    1    3    3    0  501 -0.21037519972E+02 -0.19639168214E+02 -0.31025770677E+02  0.42578898774E+02  0.47000000000E+01 0.  1.
          5    1    4    4  502    0 -0.62873294981E+01 -0.66523545764E+02  0.77556326330E+01  0.67432577370E+02  0.47000000000E+01 0.  1.
         -5    1    4    4    0  502 -0.25234862478E+02  0.34730323836E+01  0.12636571473E+03  0.12899319400E+03  0.47000000000E+01 0.  1.
<mgrwt>
<rscale>  0 0.31528332E+03</rscale>
<asrwt>0</asrwt>
<pdfrwt beam="1">  1       21 0.35968072E-01 0.31528332E+03</pdfrwt>
<pdfrwt beam="2">  1       21 0.16353026E-01 0.31528332E+03</pdfrwt>
<totfact> 0.24232557E+05</totfact>
</mgrwt>
</event>
<event>
 8    1  0.9478272E-006  0.2934232E+03  0.7546771E-02  0.1088575E+00
         21   -1    0    0  504  503  0.00000000000E+00  0.00000000000E+00  0.27889418373E+02  0.27889418373E+02  0.00000000000E+00 0. -1.
         21   -1    0    0  503  504 -0.00000000000E+00 -0.00000000000E+00 -0.77177291341E+03  0.77177291341E+03  0.00000000000E+00 0. -1.
         25    2    1    2    0    0 -0.26665758869E+02  0.53002109868E+02 -0.50489180492E+03  0.52350660868E+03  0.12499259300E+03 0.  0.
         25    2    1    2    0    0  0.26665758869E+02 -0.53002109868E+02 -0.23899169012E+03  0.27615572311E+03  0.12499867645E+03 0.  0.
          5    1    3    3  501    0  0.36507723229E+02  0.40110746942E+02 -0.36931486970E+03  0.37330583823E+03  0.47000000000E+01 0. -1.
         -5    1    3    3    0  501 -0.63173482098E+02  0.12891362926E+02 -0.13557693522E+03  0.15020077045E+03  0.47000000000E+01 0. -1.
          5    1    4    4  502    0  0.53480806082E+02  0.22420038878E+02 -0.10049096630E+03  0.11611795326E+03  0.47000000000E+01 0.  1.
         -5    1    4    4    0  502 -0.26815047213E+02 -0.75422148746E+02 -0.13850072382E+03  0.16003776985E+03  0.47000000000E+01 0.  1.
<mgrwt>
<rscale>  0 0.29342323E+03</rscale>
<asrwt>0</asrwt>
<pdfrwt beam="1">  1       21 0.42906800E-02 0.29342323E+03</pdfrwt>
<pdfrwt beam="2">  1       21 0.11873429E+00 0.29342323E+03</pdfrwt>
<totfact> 0.18272497E+05</totfact>
</mgrwt>
</event>
<event>
 8    1  0.9478272E-006  0.2688818E+03  0.7546771E-02  0.1101921E+00
         21   -1    0    0  504  503  0.00000000000E+00  0.00000000000E+00  0.25924248627E+02  0.25924248627E+02  0.00000000000E+00 0.  1.
         21   -1    0    0  503  504 -0.00000000000E+00 -0.00000000000E+00 -0.69719878683E+03  0.69719878683E+03  0.00000000000E+00 0.  1.
         25    2    1    2    0    0  0.35686841086E+02 -0.16897170677E+02 -0.41586025003E+03  0.43603174043E+03  0.12499946441E+03 0.  0.
         25    2    1    2    0    0 -0.35686841086E+02  0.16897170677E+02 -0.25541428817E+03  0.28709129503E+03  0.12500355225E+03 0.  0.
          5    1    3    3  501    0 -0.14013414179E+02  0.16000230620E+02 -0.70823512369E+01  0.22904865333E+02  0.47000000000E+01 0.  1.
         -5    1    3    3    0  501  0.49700255266E+02 -0.32897401297E+02 -0.40877789879E+03  0.41312687509E+03  0.47000000000E+01 0.  1.
          5    1    4    4  502    0  0.20013020673E+02  0.24658780530E+02 -0.21571881711E+03  0.21809464576E+03  0.47000000000E+01 0.  1.
         -5    1    4    4    0  502 -0.55699861759E+02 -0.77616098527E+01 -0.39695471064E+02  0.68996649270E+02  0.47000000000E+01 0.  1.
<mgrwt>
<rscale>  0 0.26888179E+03</rscale>
<asrwt>0</asrwt>
<pdfrwt beam="1">  1       21 0.39883459E-02 0.26888179E+03</pdfrwt>
<pdfrwt beam="2">  1       21 0.10726135E+00 0.26888179E+03</pdfrwt>
<totfact> 0.26723826E+05</totfact>
</mgrwt>
</event>
<event>
 8    1  0.9478272E-006  0.2820723E+03  0.7546771E-02  0.1094562E+00
         21   -1    0    0  504  503  0.00000000000E+00  0.00000000000E+00  0.82803045609E+02  0.82803045609E+02  0.00000000000E+00 0.  1.
         21   -1    0    0  503  504 -0.00000000000E+00 -0.00000000000E+00 -0.24022300457E+03  0.24022300457E+03  0.00000000000E+00 0.  1.
         25    2    1    2    0    0  0.28941300355E+02  0.47542082935E+02 -0.39659777174E+02  0.14247850026E+03  0.12501750515E+03 0.  0.
         25    2    1    2    0    0 -0.28941300355E+02 -0.47542082935E+02 -0.11776018179E+03  0.18054754992E+03  0.12502843218E+03 0.  0.
          5    1    3    3  501    0 -0.34149015347E+02  0.20438354993E+02 -0.58692524929E+02  0.71068868617E+02  0.47000000000E+01 0.  1.
         -5    1    3    3    0  501  0.63090315701E+02  0.27103727943E+02  0.19032747755E+02  0.71409631639E+02  0.47000000000E+01 0.  1.
          5    1    4    4  502    0  0.43474532333E+02 -0.16698458734E+02 -0.11451526869E+02  0.48188182714E+02  0.47000000000E+01 0. -1.
         -5    1    4    4    0  502 -0.72415832687E+02 -0.30843624202E+02 -0.10630865492E+03  0.13235936721E+03  0.47000000000E+01 0. -1.
<mgrwt>
<rscale>  0 0.28207231E+03</rscale>
<asrwt>0</asrwt>
<pdfrwt beam="1">  1       21 0.12738930E-01 0.28207231E+03</pdfrwt>
<pdfrwt beam="2">  1       21 0.36957386E-01 0.28207231E+03</pdfrwt>
<totfact> 0.36504312E+05</totfact>
</mgrwt>
</event>
<event>
 8    1  0.9478272E-006  0.2707931E+03  0.7546771E-02  0.1100827E+00
         21   -1    0    0  504  503  0.00000000000E+00  0.00000000000E+00  0.73366017746E+02  0.73366017746E+02  0.00000000000E+00 0. -1.
         21   -1    0    0  503  504 -0.00000000000E+00 -0.00000000000E+00 -0.24987352408E+03  0.24987352408E+03  0.00000000000E+00 0. -1.
         25    2    1    2    0    0 -0.13232525099E+02  0.50200036297E+02 -0.84115798458E+02  0.15935970391E+03  0.12499961726E+03 0.  0.
         25    2    1    2    0    0  0.13232525099E+02 -0.50200036297E+02 -0.92391707876E+02  0.16387983792E+03  0.12500092091E+03 0.  0.
          5    1    3    3  501    0 -0.39783725516E+02  0.44198611746E+02 -0.10764836324E+03  0.12307120786E+03  0.47000000000E+01 0.  1.
         -5    1    3    3    0  501  0.26551200417E+02  0.60014245510E+01  0.23532564780E+02  0.36288496047E+02  0.47000000000E+01 0.  1.
          5    1    4    4  502    0 -0.22876986137E+01 -0.90809581273E+02 -0.69841101977E+02  0.11467991603E+03  0.47000000000E+01 0. -1.
         -5    1    4    4    0  502  0.15520223713E+02  0.40609544976E+02 -0.22550605900E+02  0.49199921887E+02  0.47000000000E+01 0. -1.
<mgrwt>
<rscale>  0 0.27079310E+03</rscale>
<asrwt>0</asrwt>
<pdfrwt beam="1">  1       21 0.11287080E-01 0.27079310E+03</pdfrwt>
<pdfrwt beam="2">  1       21 0.38442080E-01 0.27079310E+03</pdfrwt>
<totfact> 0.42021517E+05</totfact>
</mgrwt>
</event>
<event>
 8    1  0.9478272E-006  0.3266866E+03  0.7546771E-02  0.1072612E+00
         21   -1    0    0  504  503  0.00000000000E+00  0.00000000000E+00  0.14563266536E+03  0.14563266536E+03  0.00000000000E+00 0.  1.
         21   -1    0    0  503  504 -0.00000000000E+00 -0.00000000000E+00 -0.18320780002E+03  0.18320780002E+03  0.00000000000E+00 0.  1.
         25    2    1    2    0    0 -0.57491108520E+02 -0.19736007429E+02  0.67577529228E+02  0.15455401047E+03  0.12500192857E+03 0.  0.
         25    2    1    2    0    0  0.57491108520E+02  0.19736007429E+02 -0.10515266389E+03  0.17428645492E+03  0.12499579232E+03 0.  0.
          5    1    3    3  501    0 -0.85967614916E+02 -0.45899285415E+02  0.34618320983E+02  0.10352629310E+03  0.47000000000E+01 0.  1.
         -5    1    3    3    0  501  0.28476506396E+02  0.26163277986E+02  0.32959208245E+02  0.51027717366E+02  0.47000000000E+01 0.  1.
          5    1    4    4  502    0  0.19549099941E+02 -0.52304081611E+02 -0.30893360838E+02  0.63987295657E+02  0.47000000000E+01 0.  1.
         -5    1    4    4    0  502  0.37942008579E+02  0.72040089040E+02 -0.74259303050E+02  0.11029915926E+03  0.47000000000E+01 0.  1.
<mgrwt>
<rscale>  0 0.32668664E+03</rscale>
<asrwt>0</asrwt>
<pdfrwt beam="1">  1       21 0.22405026E-01 0.32668664E+03</pdfrwt>
<pdfrwt beam="2">  1       21 0.28185815E-01 0.32668664E+03</pdfrwt>
<totfact> 0.21695964E+05</totfact>
</mgrwt>
</event>
<event>
 8    1  0.9478272E-006  0.2889457E+03  0.7546771E-02  0.1090901E+00
         21   -1    0    0  504  503  0.00000000000E+00  0.00000000000E+00  0.14289441888E+02  0.14289441888E+02  0.00000000000E+00 0.  1.
         21   -1    0    0  503  504 -0.00000000000E+00 -0.00000000000E+00 -0.14606875837E+04  0.14606875837E+04  0.00000000000E+00 0.  1.
         25    2    1    2    0    0 -0.11551602336E+02  0.52399424903E+02 -0.97164195530E+03  0.98111739552E+03  0.12499646092E+03 0.  0.
         25    2    1    2    0    0  0.11551602336E+02 -0.52399424903E+02 -0.47475618655E+03  0.49385963011E+03  0.12499903334E+03 0.  0.
          5    1    3    3  501    0 -0.15203300418E+02  0.57685113527E+02 -0.18504077585E+03  0.19447594040E+03  0.47000000000E+01 0. -1.
         -5    1    3    3    0  501  0.36516980818E+01 -0.52856886235E+01 -0.78660117945E+03  0.78664145512E+03  0.47000000000E+01 0. -1.
          5    1    4    4  502    0 -0.10570332747E+02 -0.20532777587E+02 -0.44267305900E+03  0.44329995946E+03  0.47000000000E+01 0.  1.
         -5    1    4    4    0  502  0.22121935083E+02 -0.31866647316E+02 -0.32083127548E+02  0.50559670650E+02  0.47000000000E+01 0.  1.
<mgrwt>
<rscale>  0 0.28894574E+03</rscale>
<asrwt>0</asrwt>
<pdfrwt beam="1">  1       21 0.21983752E-02 0.28894574E+03</pdfrwt>
<pdfrwt beam="2">  1       21 0.22472122E+00 0.28894574E+03</pdfrwt>
<totfact> 0.94284103E+04</totfact>
</mgrwt>
</event>
<event>
 8    1  0.9478272E-006  0.4451204E+03  0.7546771E-02  0.1029187E+00
         21   -1    0    0  504  503  0.00000000000E+00  0.00000000000E+00  0.49364313094E+03  0.49364313094E+03  0.00000000000E+00 0. -1.
         21   -1    0    0  503  504 -0.00000000000E+00 -0.00000000000E+00 -0.10034182006E+03  0.10034182006E+03  0.00000000000E+00 0. -1.
         25    2    1    2    0    0 -0.14802548069E+03  0.49423269806E+02  0.66213625137E+02  0.21062437077E+03  0.12499671546E+03 0.  0.
         25    2    1    2    0    0  0.14802548069E+03 -0.49423269806E+02  0.32708768574E+03  0.38336058022E+03  0.12499911109E+03 0.  0.
          5    1    3    3  501    0 -0.68022676773E+02  0.56944569571E+02 -0.21678814857E+02  0.91443040045E+02  0.47000000000E+01 0. -1.
         -5    1    3    3    0  501 -0.80002803921E+02 -0.75212997645E+01  0.87892439994E+02  0.11918133073E+03  0.47000000000E+01 0. -1.
          5    1    4    4  502    0  0.81852568570E+01  0.19382880165E+02  0.61806956707E+00  0.21567718546E+02  0.47000000000E+01 0. -1.
         -5    1    4    4    0  502  0.13984022384E+03 -0.68806149971E+02  0.32646961617E+03  0.36179286168E+03  0.47000000000E+01 0. -1.
<mgrwt>
<rscale>  0 0.44512043E+03</rscale>
<asrwt>0</asrwt>
<pdfrwt beam="1">  1       21 0.75945095E-01 0.44512043E+03</pdfrwt>
<pdfrwt beam="2">  1       21 0.15437203E-01 0.44512043E+03</pdfrwt>
<totfact> 0.53026613E+04</totfact>
</mgrwt>
</event>
<event>
 8    1  0.9478272E-006  0.2723998E+03  0.7546771E-02  0.1099914E+00
         21   -1    0    0  504  503  0.00000000000E+00  0.00000000000E+00  0.58071830304E+03  0.58071830304E+03  0.00000000000E+00 0.  1.
         21   -1    0    0  503  504 -0.00000000000E+00 -0.00000000000E+00 -0.31943902552E+02  0.31943902552E+02  0.00000000000E+00 0.  1.
         25    2    1    2    0    0 -0.25825394544E+02  0.41246362853E+02  0.22129400491E+03  0.25877539404E+03  0.12500181799E+03 0.  0.
         25    2    1    2    0    0  0.25825394544E+02 -0.41246362853E+02  0.32748039558E+03  0.35388681155E+03  0.12499700976E+03 0.  0.
          5    1    3    3  501    0 -0.12612816831E+02 -0.43894147533E+01 -0.13268601361E+02  0.19403502065E+02  0.47000000000E+01 0. -1.
         -5    1    3    3    0  501 -0.13212577712E+02  0.45635777607E+02  0.23456260627E+03  0.23937189197E+03  0.47000000000E+01 0. -1.
          5    1    4    4  502    0 -0.22702037234E+02  0.27255434757E+02  0.36955108525E+02  0.51439394091E+02  0.47000000000E+01 0. -1.
         -5    1    4    4    0  502  0.48527431777E+02 -0.68501797610E+02  0.29052528705E+03  0.30244741746E+03  0.47000000000E+01 0. -1.
<mgrwt>
<rscale>  0 0.27239977E+03</rscale>
<asrwt>0</asrwt>
<pdfrwt beam="1">  1       21 0.89341269E-01 0.27239977E+03</pdfrwt>
<pdfrwt beam="2">  1       21 0.49144470E-02 0.27239977E+03</pdfrwt>
<totfact> 0.28963553E+05</totfact>
</mgrwt>
</event>
<event>
 8    1  0.9478272E-006  0.3223214E+03  0.7546771E-02  0.1074586E+00
         21   -1    0    0  504  503  0.00000000000E+00  0.00000000000E+00  0.21624217344E+03  0.21624217344E+03  0.00000000000E+00 0. -1.
         21   -1    0    0  503  504 -0.00000000000E+00 -0.00000000000E+00 -0.12010966999E+03  0.12010966999E+03  0.00000000000E+00 0. -1.
         25    2    1    2    0    0 -0.35534166296E+02  0.23477108422E+02  0.14445155661E+03  0.19572746817E+03  0.12501655088E+03 0.  0.
         25    2    1    2    0    0  0.35534166296E+02 -0.23477108422E+02 -0.48319053159E+02  0.14062437526E+03  0.12500652953E+03 0.  0.
          5    1    3    3  501    0  0.45998917428E+02 -0.82703916250E+00  0.60053455862E+02  0.75796384869E+02  0.47000000000E+01 0.  1.
         -5    1    3    3    0  501 -0.81533083724E+02  0.24304147585E+02  0.84398100752E+02  0.11993108330E+03  0.47000000000E+01 0.  1.
          5    1    4    4  502    0  0.67169596232E+02  0.23607047748E+02 -0.10098426479E+02  0.72063274826E+02  0.47000000000E+01 0.  1.
         -5    1    4    4    0  502 -0.31635429935E+02 -0.47084156170E+02 -0.38220626680E+02  0.68561100438E+02  0.47000000000E+01 0.  1.
<mgrwt>
<rscale>  0 0.32232143E+03</rscale>
<asrwt>0</asrwt>
<pdfrwt beam="1">  1       21 0.33268027E-01 0.32232143E+03</pdfrwt>
<pdfrwt beam="2">  1       21 0.18478411E-01 0.32232143E+03</pdfrwt>
<totfact> 0.22532841E+05</totfact>
</mgrwt>
</event>
<event>
 8    1  0.9478272E-006  0.3013555E+03  0.7546771E-02  0.1084565E+00
         21   -1    0    0  504  503  0.00000000000E+00  0.00000000000E+00  0.14203839327E+04  0.14203839327E+04  0.00000000000E+00 0.  1.
         21   -1    0    0  503  504 -0.00000000000E+00 -0.00000000000E+00 -0.15984262706E+02  0.15984262706E+02  0.00000000000E+00 0.  1.
         25    2    1    2    0    0 -0.71114787890E+02 -0.40627493700E+02  0.79403963324E+03  0.80797934020E+03  0.12499507487E+03 0.  0.
         25    2    1    2    0    0  0.71114787890E+02  0.40627493700E+02  0.61036003679E+03  0.62838885524E+03  0.12500109029E+03 0.  0.
          5    1    3    3  501    0 -0.77058088717E+02 -0.17773623655E+02  0.76961816567E+03  0.77368473015E+03  0.47000000000E+01 0. -1.
         -5    1    3    3    0  501  0.59433008268E+01 -0.22853870044E+02  0.24421467567E+02  0.34294610056E+02  0.47000000000E+01 0. -1.
          5    1    4    4  502    0 -0.18190821113E+02  0.55581423367E+02  0.25115924746E+03  0.25792103090E+03  0.47000000000E+01 0.  1.
         -5    1    4    4    0  502  0.89305609002E+02 -0.14953929667E+02  0.35920078933E+03  0.37046782434E+03  0.47000000000E+01 0.  1.
<mgrwt>
<rscale>  0 0.30135554E+03</rscale>
<asrwt>0</asrwt>
<pdfrwt beam="1">  1       21 0.21852051E+00 0.30135554E+03</pdfrwt>
<pdfrwt beam="2">  1       21 0.24591185E-02 0.30135554E+03</pdfrwt>
<totfact> 0.85209479E+04</totfact>
</mgrwt>
</event>
<event>
 8    1  0.9478272E-006  0.5497544E+03  0.7546771E-02  0.1001551E+00
         21   -1    0    0  504  503  0.00000000000E+00  0.00000000000E+00  0.64038981381E+02  0.64038981381E+02  0.00000000000E+00 0. -1.
         21   -1    0    0  503  504 -0.00000000000E+00 -0.00000000000E+00 -0.11798668177E+04  0.11798668177E+04  0.00000000000E+00 0. -1.
         25    2    1    2    0    0 -0.11439845409E+03 -0.21572633717E+03 -0.59778873660E+03  0.65771982041E+03  0.12497651666E+03 0.  0.
         25    2    1    2    0    0  0.11439845409E+03  0.21572633717E+03 -0.51803909973E+03  0.58618597867E+03  0.12499853560E+03 0.  0.
          5    1    3    3  501    0 -0.39648743782E+01 -0.13948127109E+03 -0.32267527333E+03  0.35158522044E+03  0.47000000000E+01 0. -1.
         -5    1    3    3    0  501 -0.11043357972E+03 -0.76245066081E+02 -0.27511346327E+03  0.30613459998E+03  0.47000000000E+01 0. -1.
          5    1    4    4  502    0  0.80173835271E+01  0.19385505087E+02 -0.17836087833E+03  0.17965179978E+03  0.47000000000E+01 0.  1.
         -5    1    4    4    0  502  0.10638107057E+03  0.19634083208E+03 -0.33967822139E+03  0.40653417889E+03  0.47000000000E+01 0.  1.
<mgrwt>
<rscale>  0 0.54975438E+03</rscale>
<asrwt>0</asrwt>
<pdfrwt beam="1">  1       21 0.98521511E-02 0.54975438E+03</pdfrwt>
<pdfrwt beam="2">  1       21 0.18151797E+00 0.54975438E+03</pdfrwt>
<totfact> 0.12644638E+04</totfact>
</mgrwt>
</event>
<event>
 8    1  0.9478272E-006  0.2552370E+03  0.7546771E-02  0.1110039E+00
         21   -1    0    0  504  503  0.00000000000E+00  0.00000000000E+00  0.26369759348E+03  0.26369759348E+03  0.00000000000E+00 0. -1.
         21   -1    0    0  503  504 -0.00000000000E+00 -0.00000000000E+00 -0.61761974347E+02  0.61761974347E+02  0.00000000000E+00 0. -1.
         25    2    1    2    0    0  0.21880474527E+01 -0.92105219491E+01  0.13147450620E+03  0.18165949281E+03  0.12500001712E+03 0.  0.
         25    2    1    2    0    0 -0.21880474527E+01  0.92105219491E+01  0.70461112927E+02  0.14380007502E+03  0.12499628744E+03 0.  0.
          5    1    3    3  501    0  0.58172551196E+01 -0.66922938384E+02  0.71049817609E+02  0.97891198385E+02  0.47000000000E+01 0.  1.
         -5    1    3    3    0  501 -0.36292076668E+01  0.57712416435E+02  0.60424688595E+02  0.83768294425E+02  0.47000000000E+01 0.  1.
          5    1    4    4  502    0 -0.17981261024E+02  0.46660676978E+02  0.86361077620E+02  0.99904305472E+02  0.47000000000E+01 0. -1.
         -5    1    4    4    0  502  0.15793213572E+02 -0.37450155028E+02 -0.15899964694E+02  0.43895769544E+02  0.47000000000E+01 0. -1.
<mgrwt>
<rscale>  0 0.25523702E+03</rscale>
<asrwt>0</asrwt>
<pdfrwt beam="1">  1       21 0.40568860E-01 0.25523702E+03</pdfrwt>
<pdfrwt beam="2">  1       21 0.95018424E-02 0.25523702E+03</pdfrwt>
<totfact> 0.51348133E+05</totfact>
</mgrwt>
</event>
<event>
 8    1  0.9478272E-006  0.2925718E+03  0.7546771E-02  0.1089014E+00
         21   -1    0    0  504  503  0.00000000000E+00  0.00000000000E+00  0.85507263917E+02  0.85507263917E+02  0.00000000000E+00 0.  1.
         21   -1    0    0  503  504 -0.00000000000E+00 -0.00000000000E+00 -0.25026608202E+03  0.25026608202E+03  0.00000000000E+00 0.  1.
         25    2    1    2    0    0 -0.76506089590E+01 -0.23022861844E+02 -0.16507731016E+03  0.20844103766E+03  0.12493423817E+03 0.  0.
         25    2    1    2    0    0  0.76506089590E+01  0.23022861844E+02  0.31849205026E+00  0.12733230828E+03  0.12499932524E+03 0.  0.
          5    1    3    3  501    0  0.32179156741E+02 -0.51615819410E+02 -0.37316180394E+02  0.71514182238E+02  0.47000000000E+01 0. -1.
         -5    1    3    3    0  501 -0.39829765700E+02  0.28592957566E+02 -0.12776112976E+03  0.13692685542E+03  0.47000000000E+01 0. -1.
          5    1    4    4  502    0  0.41200895490E+02  0.59378445997E+02  0.17927841426E+02  0.74611065777E+02  0.47000000000E+01 0.  1.
         -5    1    4    4    0  502 -0.33550286531E+02 -0.36355584153E+02 -0.17609349376E+02  0.52721242501E+02  0.47000000000E+01 0.  1.
<mgrwt>
<rscale>  0 0.29257182E+03</rscale>
<asrwt>0</asrwt>
<pdfrwt beam="1">  1       21 0.13154963E-01 0.29257182E+03</pdfrwt>
<pdfrwt beam="2">  1       21 0.38502475E-01 0.29257182E+03</pdfrwt>
<totfact> 0.31632747E+05</totfact>
</mgrwt>
</event>
<event>
 8    1  0.9478272E-006  0.1555937E+04  0.7546771E-02  0.8848085E-01
         21   -1    0    0  504  503  0.00000000000E+00  0.00000000000E+00  0.62790483068E+03  0.62790483068E+03  0.00000000000E+00 0. -1.
         21   -1    0    0  503  504 -0.00000000000E+00 -0.00000000000E+00 -0.96389564303E+03  0.96389564303E+03  0.00000000000E+00 0. -1.
         25    2    1    2    0    0 -0.12035060286E+03 -0.75437909212E+03 -0.24748747513E+03  0.81267923302E+03  0.12500161281E+03 0.  0.
         25    2    1    2    0    0  0.12035060286E+03  0.75437909212E+03 -0.88503337223E+02  0.77912124069E+03  0.12499993900E+03 0.  0.
          5    1    3    3  501    0 -0.15946033547E+02 -0.35182726384E+03 -0.63480049153E+02  0.35789454621E+03  0.47000000000E+01 0. -1.
         -5    1    3    3    0  501 -0.10440456931E+03 -0.40255182829E+03 -0.18400742598E+03  0.45478468682E+03  0.47000000000E+01 0. -1.
          5    1    4    4  502    0 -0.37230412212E+01  0.22863776449E+03  0.14537294196E+02  0.22917790319E+03  0.47000000000E+01 0.  1.
         -5    1    4    4    0  502  0.12407364408E+03  0.52574132763E+03 -0.10304063142E+03  0.54994333750E+03  0.47000000000E+01 0.  1.
<mgrwt>
<rscale>  0 0.15559367E+04</rscale>
<asrwt>0</asrwt>
<pdfrwt beam="1">  1       21 0.96600744E-01 0.15559367E+04</pdfrwt>
<pdfrwt beam="2">  1       21 0.14829164E+00 0.15559367E+04</pdfrwt>
<totfact> 0.17156843E+02</totfact>
</mgrwt>
</event>
<event>
 8    1  0.9478272E-006  0.4724533E+03  0.7546771E-02  0.1021230E+00
         21   -1    0    0  504  503  0.00000000000E+00  0.00000000000E+00  0.78525770185E+03  0.78525770185E+03  0.00000000000E+00 0. -1.
         21   -1    0    0  503  504 -0.00000000000E+00 -0.00000000000E+00 -0.71063323169E+02  0.71063323169E+02  0.00000000000E+00 0. -1.
         25    2    1    2    0    0 -0.54192337419E+02 -0.15505118867E+03  0.14885899535E+03  0.25448476091E+03  0.12500324995E+03 0.  0.
         25    2    1    2    0    0  0.54192337419E+02  0.15505118867E+03  0.56533538333E+03  0.60183626410E+03  0.12500045040E+03 0.  0.
          5    1    3    3  501    0 -0.32236863626E+02 -0.10952393603E+02 -0.12881119383E+02  0.36703998946E+02  0.47000000000E+01 0. -1.
         -5    1    3    3    0  501 -0.21955473793E+02 -0.14409879507E+03  0.16174011473E+03  0.21778076197E+03  0.47000000000E+01 0. -1.
          5    1    4    4  502    0  0.39137923668E+02  0.17410348111E+03  0.45504175613E+03  0.48880352804E+03  0.47000000000E+01 0.  1.
         -5    1    4    4    0  502  0.15054413752E+02 -0.19052292439E+02  0.11029362720E+03  0.11303273606E+03  0.47000000000E+01 0.  1.
<mgrwt>
<rscale>  0 0.47245326E+03</rscale>
<asrwt>0</asrwt>
<pdfrwt beam="1">  1       21 0.12080887E+00 0.47245326E+03</pdfrwt>
<pdfrwt beam="2">  1       21 0.10932819E-01 0.47245326E+03</pdfrwt>
<totfact> 0.32453654E+04</totfact>
</mgrwt>
</event>
<event>
 8    1  0.9478272E-006  0.2559554E+03  0.7546771E-02  0.1109598E+00
         21   -1    0    0  504  503  0.00000000000E+00  0.00000000000E+00  0.29765013911E+03  0.29765013911E+03  0.00000000000E+00 0.  1.
         21   -1    0    0  503  504 -0.00000000000E+00 -0.00000000000E+00 -0.55025290327E+02  0.55025290327E+02  0.00000000000E+00 0.  1.
         25    2    1    2    0    0  0.25057327556E+02 -0.75520538338E+01  0.10996252541E+03  0.16853128177E+03  0.12500453095E+03 0.  0.
         25    2    1    2    0    0 -0.25057327556E+02  0.75520538338E+01  0.13266232337E+03  0.18414414766E+03  0.12499948758E+03 0.  0.
          5    1    3    3  501    0  0.27585276769E+02 -0.19598409303E+01 -0.22428115836E+02  0.35915161852E+02  0.47000000000E+01 0. -1.
         -5    1    3    3    0  501 -0.25279492136E+01 -0.55922129035E+01  0.13239064125E+03  0.13261611992E+03  0.47000000000E+01 0. -1.
          5    1    4    4  502    0 -0.69252323897E+02 -0.23263935432E+02  0.68847243231E+02  0.10049441754E+03  0.47000000000E+01 0.  1.
         -5    1    4    4    0  502  0.44194996342E+02  0.30815989266E+02  0.63815080136E+02  0.83649730118E+02  0.47000000000E+01 0.  1.
<mgrwt>
<rscale>  0 0.25595535E+03</rscale>
<asrwt>0</asrwt>
<pdfrwt beam="1">  1       21 0.45792328E-01 0.25595535E+03</pdfrwt>
<pdfrwt beam="2">  1       21 0.84654294E-02 0.25595535E+03</pdfrwt>
<totfact> 0.49076037E+05</totfact>
</mgrwt>
</event>
<event>
 8    1  0.9478272E-006  0.3009019E+03  0.7546771E-02  0.1084791E+00
         21   -1    0    0  504  503  0.00000000000E+00  0.00000000000E+00  0.15097294199E+03  0.15097294199E+03  0.00000000000E+00 0.  1.
         21   -1    0    0  503  504 -0.00000000000E+00 -0.00000000000E+00 -0.14993081143E+03  0.14993081143E+03  0.00000000000E+00 0.  1.
         25    2    1    2    0    0  0.81007555790E+02  0.17015861615E+02 -0.11962133225E+02  0.15041837828E+03  0.12502332682E+03 0.  0.
         25    2    1    2    0    0 -0.81007555790E+02 -0.17015861615E+02  0.13004263781E+02  0.15048537515E+03  0.12499989446E+03 0.  0.
          5    1    3    3  501    0 -0.14483173657E+02  0.11004801575E+02  0.37990110846E+02  0.42381676453E+02  0.47000000000E+01 0.  1.
         -5    1    3    3    0  501  0.95490729447E+02  0.60110600396E+01 -0.49952244071E+02  0.10803670182E+03  0.47000000000E+01 0.  1.
          5    1    4    4  502    0 -0.70242117820E+02  0.37078634117E+02 -0.24928297989E+02  0.83380394965E+02  0.47000000000E+01 0.  1.
         -5    1    4    4    0  502 -0.10765437970E+02 -0.54094495731E+02  0.37932561770E+02  0.67104980184E+02  0.47000000000E+01 0.  1.
<mgrwt>
<rscale>  0 0.30090195E+03</rscale>
<asrwt>0</asrwt>
<pdfrwt beam="1">  1       21 0.23226606E-01 0.30090195E+03</pdfrwt>
<pdfrwt beam="2">  1       21 0.23066279E-01 0.30090195E+03</pdfrwt>
<totfact> 0.30000143E+05</totfact>
</mgrwt>
</event>
<event>
 8    1  0.9478272E-006  0.3081016E+03  0.7546771E-02  0.1081259E+00
         21   -1    0    0  504  503  0.00000000000E+00  0.00000000000E+00  0.33217508465E+03  0.33217508465E+03  0.00000000000E+00 0. -1.
         21   -1    0    0  503  504 -0.00000000000E+00 -0.00000000000E+00 -0.71443197798E+02  0.71443197798E+02  0.00000000000E+00 0. -1.
         25    2    1    2    0    0 -0.59427378771E+02  0.67462946062E+02  0.13690161236E+03  0.20602810432E+03  0.12499066310E+03 0.  0.
         25    2    1    2    0    0  0.59427378771E+02 -0.67462946062E+02  0.12383027449E+03  0.19759017813E+03  0.12500031670E+03 0.  0.
          5    1    3    3  501    0 -0.12455797099E+02  0.71535656574E+02  0.13717303453E+02  0.74045603899E+02  0.47000000000E+01 0.  1.
         -5    1    3    3    0  501 -0.46971581673E+02 -0.40727105119E+01  0.12318430891E+03  0.13198250042E+03  0.47000000000E+01 0.  1.
          5    1    4    4  502    0  0.75854017585E+02 -0.40300729626E+02  0.19187171611E+02  0.88137496825E+02  0.47000000000E+01 0. -1.
         -5    1    4    4    0  502 -0.16426638814E+02 -0.27162216436E+02  0.10464310288E+03  0.10945268131E+03  0.47000000000E+01 0. -1.
<mgrwt>
<rscale>  0 0.30810161E+03</rscale>
<asrwt>0</asrwt>
<pdfrwt beam="1">  1       21 0.51103858E-01 0.30810161E+03</pdfrwt>
<pdfrwt beam="2">  1       21 0.10991261E-01 0.30810161E+03</pdfrwt>
<totfact> 0.24268873E+05</totfact>
</mgrwt>
</event>
<event>
 8    1  0.9478272E-006  0.2674782E+03  0.7546771E-02  0.1102732E+00
         21   -1    0    0  504  503  0.00000000000E+00  0.00000000000E+00  0.26471092390E+02  0.26471092390E+02  0.00000000000E+00 0. -1.
         21   -1    0    0  503  504 -0.00000000000E+00 -0.00000000000E+00 -0.67568585351E+03  0.67568585351E+03  0.00000000000E+00 0. -1.
         25    2    1    2    0    0  0.20935836010E+02  0.32724540256E+02 -0.39659905040E+03  0.41764159297E+03  0.12499795452E+03 0.  0.
         25    2    1    2    0    0 -0.20935836010E+02 -0.32724540256E+02 -0.25261571072E+03  0.28451535293E+03  0.12500033595E+03 0.  0.
          5    1    3    3  501    0 -0.30026155018E+02 -0.14498993506E+02 -0.32003532848E+02  0.46455429313E+02  0.47000000000E+01 0.  1.
         -5    1    3    3    0  501  0.50961991028E+02  0.47223533761E+02 -0.36459551755E+03  0.37118616366E+03  0.47000000000E+01 0.  1.
          5    1    4    4  502    0  0.74218826788E+01 -0.53166055433E+02 -0.35445690357E+02  0.64499618276E+02  0.47000000000E+01 0. -1.
         -5    1    4    4    0  502 -0.28357718689E+02  0.20441515178E+02 -0.21717002036E+03  0.22001573465E+03  0.47000000000E+01 0. -1.
<mgrwt>
<rscale>  0 0.26747817E+03</rscale>
<asrwt>0</asrwt>
<pdfrwt beam="1">  1       21 0.40724763E-02 0.26747817E+03</pdfrwt>
<pdfrwt beam="2">  1       21 0.10395166E+00 0.26747817E+03</pdfrwt>
<totfact> 0.27847611E+05</totfact>
</mgrwt>
</event>
<event>
 8    1  0.9478272E-006  0.2537657E+03  0.7546771E-02  0.1110948E+00
         21   -1    0    0  504  503  0.00000000000E+00  0.00000000000E+00  0.39278346821E+03  0.39278346821E+03  0.00000000000E+00 0.  1.
         21   -1    0    0  503  504 -0.00000000000E+00 -0.00000000000E+00 -0.40987601529E+02  0.40987601529E+02  0.00000000000E+00 0.  1.
         25    2    1    2    0    0 -0.32382243015E+00  0.21677552706E+02  0.17194402804E+03  0.21367857840E+03  0.12499505965E+03 0.  0.
         25    2    1    2    0    0  0.32382243015E+00 -0.21677552706E+02  0.17985183864E+03  0.22009249134E+03  0.12499599885E+03 0.  0.
          5    1    3    3  501    0  0.47973032624E+02  0.39036596609E+02  0.13979196190E+03  0.15293511809E+03  0.47000000000E+01 0.  1.
         -5    1    3    3    0  501 -0.48296855054E+02 -0.17359043904E+02  0.32152066137E+02  0.60743460308E+02  0.47000000000E+01 0.  1.
          5    1    4    4  502    0  0.52056739156E+02 -0.61697924335E+01  0.29653342531E+02  0.60410108040E+02  0.47000000000E+01 0.  1.
         -5    1    4    4    0  502 -0.51732916725E+02 -0.15507760272E+02  0.15019849611E+03  0.15968238330E+03  0.47000000000E+01 0.  1.
<mgrwt>
<rscale>  0 0.25376566E+03</rscale>
<asrwt>0</asrwt>
<pdfrwt beam="1">  1       21 0.60428223E-01 0.25376566E+03</pdfrwt>
<pdfrwt beam="2">  1       21 0.63057851E-02 0.25376566E+03</pdfrwt>
<totfact> 0.45598231E+05</totfact>
</mgrwt>
</event>
<event>
 8    1  0.9478272E-006  0.5835922E+03  0.7546771E-02  0.9940044E-01
         21   -1    0    0  504  503  0.00000000000E+00  0.00000000000E+00  0.81266725662E+02  0.81266725662E+02  0.00000000000E+00 0.  1.
         21   -1    0    0  503  504 -0.00000000000E+00 -0.00000000000E+00 -0.10477223663E+04  0.10477223663E+04  0.00000000000E+00 0.  1.
         25    2    1    2    0    0 -0.25243840830E+03 -0.72216711174E+02 -0.43674454340E+03  0.52470115534E+03  0.12500041147E+03 0.  0.
         25    2    1    2    0    0  0.25243840830E+03  0.72216711174E+02 -0.52971109723E+03  0.60428793661E+03  0.12501864040E+03 0.  0.
          5    1    3    3  501    0 -0.19389677017E+01 -0.29757816912E+02 -0.89157834812E+02  0.94130211789E+02  0.47000000000E+01 0.  1.
         -5    1    3    3    0  501 -0.25049944060E+03 -0.42458894262E+02 -0.34758670859E+03  0.43057094355E+03  0.47000000000E+01 0.  1.
          5    1    4    4  502    0  0.45695794505E+01 -0.21234607021E+02 -0.72832473556E+02  0.76147546224E+02  0.47000000000E+01 0.  1.
         -5    1    4    4    0  502  0.24786882885E+03  0.93451318195E+02 -0.45687862367E+03  0.52814039039E+03  0.47000000000E+01 0.  1.
<mgrwt>
<rscale>  0 0.58359221E+03</rscale>
<asrwt>0</asrwt>
<pdfrwt beam="1">  1       21 0.12502574E-01 0.58359221E+03</pdfrwt>
<pdfrwt beam="2">  1       21 0.16118805E+00 0.58359221E+03</pdfrwt>
<totfact> 0.11441793E+04</totfact>
</mgrwt>
</event>
<event>
 8    1  0.9478272E-006  0.6171875E+03  0.7546771E-02  0.9870375E-01
         21   -1    0    0  504  503  0.00000000000E+00  0.00000000000E+00  0.13039401942E+03  0.13039401942E+03  0.00000000000E+00 0. -1.
         21   -1    0    0  503  504 -0.00000000000E+00 -0.00000000000E+00 -0.73032578850E+03  0.73032578850E+03  0.00000000000E+00 0. -1.
         25    2    1    2    0    0 -0.81999575931E+02 -0.71035034423E+02 -0.66318591035E+03  0.68352805469E+03  0.12500057319E+03 0.  0.
         25    2    1    2    0    0  0.81999575931E+02  0.71035034423E+02  0.63254141264E+02  0.17719175323E+03  0.12500369778E+03 0.  0.
          5    1    3    3  501    0 -0.27737597929E+01  0.22922935220E+02 -0.28219231197E+03  0.28317440851E+03  0.47000000000E+01 0. -1.
         -5    1    3    3    0  501 -0.79225816138E+02 -0.93957969643E+02 -0.38099359838E+03  0.40035364618E+03  0.47000000000E+01 0. -1.
          5    1    4    4  502    0  0.82996391361E+02  0.26272729619E+02 -0.13487805306E+02  0.88219432057E+02  0.47000000000E+01 0. -1.
         -5    1    4    4    0  502 -0.99681542931E+00  0.44762304804E+02  0.76741946570E+02  0.88972321178E+02  0.47000000000E+01 0. -1.
<mgrwt>
<rscale>  0 0.61718754E+03</rscale>
<asrwt>0</asrwt>
<pdfrwt beam="1">  1       21 0.20060618E-01 0.61718754E+03</pdfrwt>
<pdfrwt beam="2">  1       21 0.11235781E+00 0.61718754E+03</pdfrwt>
<totfact> 0.12190377E+04</totfact>
</mgrwt>
</event>
<event>
 8    1  0.9478272E-006  0.2738217E+03  0.7546771E-02  0.1099112E+00
         21   -1    0    0  504  503  0.00000000000E+00  0.00000000000E+00  0.12101393147E+03  0.12101393147E+03  0.00000000000E+00 0. -1.
         21   -1    0    0  503  504 -0.00000000000E+00 -0.00000000000E+00 -0.15489604115E+03  0.15489604115E+03  0.00000000000E+00 0. -1.
         25    2    1    2    0    0  0.10385759738E+02 -0.41792196013E+01  0.38210023551E+02  0.13118320728E+03  0.12499479225E+03 0.  0.
         25    2    1    2    0    0 -0.10385759738E+02  0.41792196013E+01 -0.72092133229E+02  0.14472676535E+03  0.12499292401E+03 0.  0.
          5    1    3    3  501    0 -0.43209266470E+02  0.37397758820E+02  0.14158944641E+02  0.59060975161E+02  0.47000000000E+01 0. -1.
         -5    1    3    3    0  501  0.53595026209E+02 -0.41576978421E+02  0.24051078910E+02  0.72122232118E+02  0.47000000000E+01 0. -1.
          5    1    4    4  502    0 -0.64506815400E+01 -0.32577528093E+02  0.24276221594E+02  0.41404487243E+02  0.47000000000E+01 0.  1.
         -5    1    4    4    0  502 -0.39350781984E+01  0.36756747694E+02 -0.96368354823E+02  0.10332227810E+03  0.47000000000E+01 0.  1.
<mgrwt>
<rscale>  0 0.27382169E+03</rscale>
<asrwt>0</asrwt>
<pdfrwt beam="1">  1       21 0.18617528E-01 0.27382169E+03</pdfrwt>
<pdfrwt beam="2">  1       21 0.23830160E-01 0.27382169E+03</pdfrwt>
<totfact> 0.43053341E+05</totfact>
</mgrwt>
</event>
<event>
 8    1  0.9478272E-006  0.2946586E+03  0.7546771E-02  0.1087942E+00
         21   -1    0    0  504  503  0.00000000000E+00  0.00000000000E+00  0.15047765819E+02  0.15047765819E+02  0.00000000000E+00 0. -1.
         21   -1    0    0  503  504 -0.00000000000E+00 -0.00000000000E+00 -0.14424676821E+04  0.14424676821E+04  0.00000000000E+00 0. -1.
         25    2    1    2    0    0 -0.31453517964E+02  0.70720808175E+02 -0.76012117068E+03  0.77421159410E+03  0.12501456646E+03 0.  0.
         25    2    1    2    0    0  0.31453517964E+02 -0.70720808175E+02 -0.66729874564E+03  0.68330385386E+03  0.12500313699E+03 0.  0.
          5    1    3    3  501    0  0.17058151481E+02  0.51740933330E+02 -0.65004439474E+03  0.65234033284E+03  0.47000000000E+01 0. -1.
         -5    1    3    3    0  501 -0.48511669444E+02  0.18979874845E+02 -0.11007677594E+03  0.12187126127E+03  0.47000000000E+01 0. -1.
          5    1    4    4  502    0  0.74895078654E+02 -0.15884564442E+02 -0.33059269729E+03  0.33937473934E+03  0.47000000000E+01 0.  1.
         -5    1    4    4    0  502 -0.43441560690E+02 -0.54836243733E+02 -0.33670604835E+03  0.34392911452E+03  0.47000000000E+01 0.  1.
<mgrwt>
<rscale>  0 0.29465855E+03</rscale>
<asrwt>0</asrwt>
<pdfrwt beam="1">  1       21 0.23150406E-02 0.29465855E+03</pdfrwt>
<pdfrwt beam="2">  1       21 0.22191813E+00 0.29465855E+03</pdfrwt>
<totfact> 0.89904369E+04</totfact>
</mgrwt>
</event>
<event>
 8    1  0.9478272E-006  0.2956559E+03  0.7546771E-02  0.1087433E+00
         21   -1    0    0  504  503  0.00000000000E+00  0.00000000000E+00  0.41527488455E+02  0.41527488455E+02  0.00000000000E+00 0.  1.
         21   -1    0    0  503  504 -0.00000000000E+00 -0.00000000000E+00 -0.52623240632E+03  0.52623240632E+03  0.00000000000E+00 0.  1.
         25    2    1    2    0    0 -0.29916239733E+02 -0.40874709615E+02 -0.12612509247E+03  0.18465545860E+03  0.12499750458E+03 0.  0.
         25    2    1    2    0    0  0.29916239733E+02  0.40874709615E+02 -0.35857982539E+03  0.38310443618E+03  0.12499517814E+03 0.  0.
          5    1    3    3  501    0  0.38534643223E+01 -0.67552884352E+02 -0.12396806317E+03  0.14130963187E+03  0.47000000000E+01 0. -1.
         -5    1    3    3    0  501 -0.33769704055E+02  0.26678174737E+02 -0.21570293001E+01  0.43345826727E+02  0.47000000000E+01 0. -1.
          5    1    4    4  502    0 -0.24598960987E+02  0.18372396276E+02 -0.29354897085E+03  0.29518763883E+03  0.47000000000E+01 0. -1.
         -5    1    4    4    0  502  0.54515200720E+02  0.22502313339E+02 -0.65030854538E+02  0.87916797355E+02  0.47000000000E+01 0. -1.
<mgrwt>
<rscale>  0 0.29565595E+03</rscale>
<asrwt>0</asrwt>
<pdfrwt beam="1">  1       21 0.63888445E-02 0.29565595E+03</pdfrwt>
<pdfrwt beam="2">  1       21 0.80958830E-01 0.29565595E+03</pdfrwt>
<totfact> 0.23038959E+05</totfact>
</mgrwt>
</event>
<event>
 8    1  0.9478272E-006  0.3151840E+03  0.7546771E-02  0.1077887E+00
         21   -1    0    0  504  503  0.00000000000E+00  0.00000000000E+00  0.41840547098E+03  0.41840547098E+03  0.00000000000E+00 0.  1.
         21   -1    0    0  503  504 -0.00000000000E+00 -0.00000000000E+00 -0.59356879547E+02  0.59356879547E+02  0.00000000000E+00 0.  1.
         25    2    1    2    0    0 -0.83609866604E+02 -0.46389259210E+02  0.16701976059E+03  0.22947572864E+03  0.12498374473E+03 0.  0.
         25    2    1    2    0    0  0.83609866604E+02  0.46389259210E+02  0.19202883084E+03  0.24828662188E+03  0.12501440544E+03 0.  0.
          5    1    3    3  501    0 -0.81602227154E+02  0.17208557796E+02  0.53317317132E+02  0.99095329073E+02  0.47000000000E+01 0. -1.
         -5    1    3    3    0  501 -0.20076394493E+01 -0.63597817006E+02  0.11370244346E+03  0.13038039957E+03  0.47000000000E+01 0. -1.
          5    1    4    4  502    0  0.76615435577E+02  0.83739787558E+02  0.16892049765E+03  0.20356448982E+03  0.47000000000E+01 0. -1.
         -5    1    4    4    0  502  0.69944310266E+01 -0.37350528348E+02  0.23108333192E+02  0.44722132062E+02  0.47000000000E+01 0. -1.
<mgrwt>
<rscale>  0 0.31518403E+03</rscale>
<asrwt>0</asrwt>
<pdfrwt beam="1">  1       21 0.64370070E-01 0.31518403E+03</pdfrwt>
<pdfrwt beam="2">  1       21 0.91318279E-02 0.31518403E+03</pdfrwt>
<totfact> 0.20510196E+05</totfact>
</mgrwt>
</event>
<event>
 8    1  0.9478272E-006  0.2842256E+03  0.7546771E-02  0.1093403E+00
         21   -1    0    0  504  503  0.00000000000E+00  0.00000000000E+00  0.17190994827E+03  0.17190994827E+03  0.00000000000E+00 0. -1.
         21   -1    0    0  503  504 -0.00000000000E+00 -0.00000000000E+00 -0.11748036259E+03  0.11748036259E+03  0.00000000000E+00 0. -1.
         25    2    1    2    0    0 -0.49561828646E+02 -0.24105511977E+02 -0.12708418314E+02  0.13719817881E+03  0.12499754320E+03 0.  0.
         25    2    1    2    0    0  0.49561828646E+02  0.24105511977E+02  0.67138003992E+02  0.15219213205E+03  0.12496992803E+03 0.  0.
          5    1    3    3  501    0 -0.76093824077E+02 -0.39448170196E+02 -0.41085769345E+02  0.95165953141E+02  0.47000000000E+01 0.  1.
         -5    1    3    3    0  501  0.26531995431E+02  0.15342658219E+02  0.28377351032E+02  0.42032225666E+02  0.47000000000E+01 0.  1.
          5    1    4    4  502    0  0.58093500812E+02 -0.46099918660E+01  0.94648348931E+02  0.11124974974E+03  0.47000000000E+01 0. -1.
         -5    1    4    4    0  502 -0.85316721665E+01  0.28715503843E+02 -0.27510344939E+02  0.40942382314E+02  0.47000000000E+01 0. -1.
<mgrwt>
<rscale>  0 0.28422557E+03</rscale>
<asrwt>0</asrwt>
<pdfrwt beam="1">  1       21 0.26447684E-01 0.28422557E+03</pdfrwt>
<pdfrwt beam="2">  1       21 0.18073902E-01 0.28422557E+03</pdfrwt>
<totfact> 0.37155939E+05</totfact>
</mgrwt>
</event>
<event>
 8    1  0.9478272E-006  0.2766170E+03  0.7546771E-02  0.1097551E+00
         21   -1    0    0  504  503  0.00000000000E+00  0.00000000000E+00  0.11755513433E+04  0.11755513433E+04  0.00000000000E+00 0. -1.
         21   -1    0    0  503  504 -0.00000000000E+00 -0.00000000000E+00 -0.16272573610E+02  0.16272573610E+02  0.00000000000E+00 0. -1.
         25    2    1    2    0    0  0.10866628560E+02  0.46643131237E+02  0.42999547814E+03  0.45035654645E+03  0.12502496713E+03 0.  0.
         25    2    1    2    0    0 -0.10866628560E+02 -0.46643131237E+02  0.72928329153E+03  0.74146737044E+03  0.12500430715E+03 0.  0.
          5    1    3    3  501    0  0.66370955257E+02  0.22355352936E+02  0.27648886703E+03  0.28525961702E+03  0.47000000000E+01 0.  1.
         -5    1    3    3    0  501 -0.55504326696E+02  0.24287778301E+02  0.15350661110E+03  0.16509692943E+03  0.47000000000E+01 0.  1.
          5    1    4    4  502    0  0.45030912602E+01  0.33159399752E+02  0.76541666151E+02  0.83669231381E+02  0.47000000000E+01 0. -1.
         -5    1    4    4    0  502 -0.15369719821E+02 -0.79802530988E+02  0.65274162538E+03  0.65779813906E+03  0.47000000000E+01 0. -1.
<mgrwt>
<rscale>  0 0.27661703E+03</rscale>
<asrwt>0</asrwt>
<pdfrwt beam="1">  1       21 0.18085399E+00 0.27661703E+03</pdfrwt>
<pdfrwt beam="2">  1       21 0.25034738E-02 0.27661703E+03</pdfrwt>
<totfact> 0.14758421E+05</totfact>
</mgrwt>
</event>
<event>
 8    1  0.9478272E-006  0.3073136E+03  0.7546771E-02  0.1081641E+00
         21   -1    0    0  504  503  0.00000000000E+00  0.00000000000E+00  0.84112086310E+03  0.84112086310E+03  0.00000000000E+00 0.  1.
         21   -1    0    0  503  504 -0.00000000000E+00 -0.00000000000E+00 -0.28070184399E+02  0.28070184399E+02  0.00000000000E+00 0.  1.
         25    2    1    2    0    0 -0.78484589515E+02 -0.41763169003E+02  0.38110110460E+03  0.41081442483E+03  0.12500578642E+03 0.  0.
         25    2    1    2    0    0  0.78484589515E+02  0.41763169003E+02  0.43194957410E+03  0.45837662267E+03  0.12499880229E+03 0.  0.
          5    1    3    3  501    0 -0.59361793156E+02 -0.29604564127E+02  0.62140443813E+02  0.91015259497E+02  0.47000000000E+01 0. -1.
         -5    1    3    3    0  501 -0.19122796358E+02 -0.12158604876E+02  0.31896066079E+03  0.31979916533E+03  0.47000000000E+01 0. -1.
          5    1    4    4  502    0 -0.20219582400E+02  0.40110503066E+02  0.21903539526E+03  0.22364319428E+03  0.47000000000E+01 0.  1.
         -5    1    4    4    0  502  0.98704171915E+02  0.16526659372E+01  0.21291417883E+03  0.23473342840E+03  0.47000000000E+01 0.  1.
<mgrwt>
<rscale>  0 0.30731364E+03</rscale>
<asrwt>0</asrwt>
<pdfrwt beam="1">  1       21 0.12940319E+00 0.30731364E+03</pdfrwt>
<pdfrwt beam="2">  1       21 0.43184905E-02 0.30731364E+03</pdfrwt>
<totfact> 0.14475601E+05</totfact>
</mgrwt>
</event>
<event>
 8    1  0.9478272E-006  0.3682253E+03  0.7546771E-02  0.1055374E+00
         21   -1    0    0  504  503  0.00000000000E+00  0.00000000000E+00  0.34205954245E+03  0.34205954245E+03  0.00000000000E+00 0.  1.
         21   -1    0    0  503  504 -0.00000000000E+00 -0.00000000000E+00 -0.99098162590E+02  0.99098162590E+02  0.00000000000E+00 0.  1.
         25    2    1    2    0    0 -0.87289577868E+02  0.40502357701E+02  0.77143637333E+01  0.15793695158E+03  0.12499863153E+03 0.  0.
         25    2    1    2    0    0  0.87289577868E+02 -0.40502357701E+02  0.23524701613E+03  0.28322075346E+03  0.12495169150E+03 0.  0.
          5    1    3    3  501    0 -0.19512818940E+02 -0.46827047799E+01 -0.52585333789E+02  0.56479953583E+02  0.47000000000E+01 0.  1.
         -5    1    3    3    0  501 -0.67776758927E+02  0.45185062481E+02  0.60299697523E+02  0.10145699800E+03  0.47000000000E+01 0.  1.
          5    1    4    4  502    0  0.23757300294E+02 -0.33796009470E+02  0.21047104312E+03  0.21453841047E+03  0.47000000000E+01 0.  1.
         -5    1    4    4    0  502  0.63532277573E+02 -0.67063482313E+01  0.24775973008E+02  0.68682342991E+02  0.47000000000E+01 0.  1.
<mgrwt>
<rscale>  0 0.36822532E+03</rscale>
<asrwt>0</asrwt>
<pdfrwt beam="1">  1       21 0.52624544E-01 0.36822532E+03</pdfrwt>
<pdfrwt beam="2">  1       21 0.15245871E-01 0.36822532E+03</pdfrwt>
<totfact> 0.12401297E+05</totfact>
</mgrwt>
</event>
<event>
 8    1  0.9478272E-006  0.3021086E+03  0.7546771E-02  0.1084191E+00
         21   -1    0    0  504  503  0.00000000000E+00  0.00000000000E+00  0.41224131465E+02  0.41224131465E+02  0.00000000000E+00 0.  1.
         21   -1    0    0  503  504 -0.00000000000E+00 -0.00000000000E+00 -0.55349624527E+03  0.55349624527E+03  0.00000000000E+00 0.  1.
         25    2    1    2    0    0 -0.55798501415E+02 -0.49745444930E+02 -0.17728692819E+03  0.22944133842E+03  0.12499836325E+03 0.  0.
         25    2    1    2    0    0  0.55798501415E+02  0.49745444930E+02 -0.33498518562E+03  0.36527903832E+03  0.12500247679E+03 0.  0.
          5    1    3    3  501    0  0.12088724912E+02 -0.64234746838E+01 -0.13969526877E+03  0.14044307179E+03  0.47000000000E+01 0. -1.
         -5    1    3    3    0  501 -0.67887226327E+02 -0.43321970247E+02 -0.37591659421E+02  0.88998266626E+02  0.47000000000E+01 0. -1.
          5    1    4    4  502    0 -0.13939208455E+02 -0.13590911536E+02 -0.31193127895E+01  0.20269053284E+02  0.47000000000E+01 0. -1.
         -5    1    4    4    0  502  0.69737709870E+02  0.63336356466E+02 -0.33186587283E+03  0.34500998504E+03  0.47000000000E+01 0. -1.
<mgrwt>
<rscale>  0 0.30210860E+03</rscale>
<asrwt>0</asrwt>
<pdfrwt beam="1">  1       21 0.63421746E-02 0.30210860E+03</pdfrwt>
<pdfrwt beam="2">  1       21 0.85153261E-01 0.30210860E+03</pdfrwt>
<totfact> 0.20739010E+05</totfact>
</mgrwt>
</event>
<event>
 8    1  0.9478272E-006  0.2709781E+03  0.7546771E-02  0.1100721E+00
         21   -1    0    0  504  503  0.00000000000E+00  0.00000000000E+00  0.31293562199E+02  0.31293562199E+02  0.00000000000E+00 0. -1.
         21   -1    0    0  503  504 -0.00000000000E+00 -0.00000000000E+00 -0.58661520722E+03  0.58661520722E+03  0.00000000000E+00 0. -1.
         25    2    1    2    0    0  0.19406552789E+01 -0.24245646571E+01 -0.15859182369E+03  0.20194088727E+03  0.12497644079E+03 0.  0.
         25    2    1    2    0    0 -0.19406552789E+01  0.24245646571E+01 -0.39672982134E+03  0.41596788215E+03  0.12500033276E+03 0.  0.
          5    1    3    3  501    0  0.57497856668E+02 -0.10747668710E+02 -0.12012962291E+03  0.13369641807E+03  0.47000000000E+01 0. -1.
         -5    1    3    3    0  501 -0.55557201389E+02  0.83231040529E+01 -0.38462200774E+02  0.68244469194E+02  0.47000000000E+01 0. -1.
          5    1    4    4  502    0  0.12498985062E+02 -0.16603261454E+02 -0.39017513520E+03  0.39075647025E+03  0.47000000000E+01 0.  1.
         -5    1    4    4    0  502 -0.14439640341E+02  0.19027826111E+02 -0.65546861388E+01  0.25211411902E+02  0.47000000000E+01 0.  1.
<mgrwt>
<rscale>  0 0.27097808E+03</rscale>
<asrwt>0</asrwt>
<pdfrwt beam="1">  1       21 0.48143941E-02 0.27097808E+03</pdfrwt>
<pdfrwt beam="2">  1       21 0.90248496E-01 0.27097808E+03</pdfrwt>
<totfact> 0.29307922E+05</totfact>
</mgrwt>
</event>
<event>
 8    1  0.9478272E-006  0.4001050E+03  0.7546771E-02  0.1043743E+00
         21   -1    0    0  504  503  0.00000000000E+00  0.00000000000E+00  0.23728947579E+02  0.23728947579E+02  0.00000000000E+00 0. -1.
         21   -1    0    0  503  504 -0.00000000000E+00 -0.00000000000E+00 -0.16865894961E+04  0.16865894961E+04  0.00000000000E+00 0. -1.
         25    2    1    2    0    0 -0.52526076792E+02  0.14708048246E+03 -0.83911363415E+03  0.86262847725E+03  0.12499816668E+03 0.  0.
         25    2    1    2    0    0  0.52526076792E+02 -0.14708048246E+03 -0.82374691440E+03  0.84768996647E+03  0.12501057233E+03 0.  0.
          5    1    3    3  501    0  0.20563426461E+02  0.69579500785E+02 -0.54407392609E+03  0.54891045580E+03  0.47000000000E+01 0. -1.
         -5    1    3    3    0  501 -0.73089503253E+02  0.77500981675E+02 -0.29503970806E+03  0.31371802145E+03  0.47000000000E+01 0. -1.
          5    1    4    4  502    0 -0.26894578461E+02  0.10363292583E+00 -0.20153489380E+03  0.20337584052E+03  0.47000000000E+01 0. -1.
         -5    1    4    4    0  502  0.79420655253E+02 -0.14718411539E+03 -0.62221202061E+03  0.64431412594E+03  0.47000000000E+01 0. -1.
<mgrwt>
<rscale>  0 0.40010495E+03</rscale>
<asrwt>0</asrwt>
<pdfrwt beam="1">  1       21 0.36506075E-02 0.40010495E+03</pdfrwt>
<pdfrwt beam="2">  1       21 0.25947530E+00 0.40010495E+03</pdfrwt>
<totfact> 0.23598734E+04</totfact>
</mgrwt>
</event>
<event>
 8    1  0.9478272E-006  0.2988190E+03  0.7546771E-02  0.1085832E+00
         21   -1    0    0  504  503  0.00000000000E+00  0.00000000000E+00  0.58170146450E+02  0.58170146450E+02  0.00000000000E+00 0. -1.
         21   -1    0    0  503  504 -0.00000000000E+00 -0.00000000000E+00 -0.38375691129E+03  0.38375691129E+03  0.00000000000E+00 0. -1.
         25    2    1    2    0    0  0.23242845151E+02 -0.78422759691E+02 -0.15859813649E+03  0.21787248069E+03  0.12499875942E+03 0.  0.
         25    2    1    2    0    0 -0.23242845151E+02  0.78422759691E+02 -0.16698862836E+03  0.22405457705E+03  0.12499956964E+03 0.  0.
          5    1    3    3  501    0 -0.44400938340E+02 -0.59972543367E+02 -0.55553905929E+02  0.93147601942E+02  0.47000000000E+01 0.  1.
         -5    1    3    3    0  501  0.67643783491E+02 -0.18450216324E+02 -0.10304423056E+03  0.12472487875E+03  0.47000000000E+01 0.  1.
          5    1    4    4  502    0  0.28163422908E+02  0.55395926662E+02 -0.15389364060E+03  0.16603382094E+03  0.47000000000E+01 0. -1.
         -5    1    4    4    0  502 -0.51406268059E+02  0.23026833030E+02 -0.13094987758E+02  0.58020756109E+02  0.47000000000E+01 0. -1.
<mgrwt>
<rscale>  0 0.29881898E+03</rscale>
<asrwt>0</asrwt>
<pdfrwt beam="1">  1       21 0.89492534E-02 0.29881898E+03</pdfrwt>
<pdfrwt beam="2">  1       21 0.59039524E-01 0.29881898E+03</pdfrwt>
<totfact> 0.25761932E+05</totfact>
</mgrwt>
</event>
<event>
 8    1  0.9478272E-006  0.9321254E+03  0.7546771E-02  0.9386291E-01
         21   -1    0    0  504  503  0.00000000000E+00  0.00000000000E+00  0.39126652274E+03  0.39126652274E+03  0.00000000000E+00 0. -1.
         21   -1    0    0  503  504 -0.00000000000E+00 -0.00000000000E+00 -0.55515719825E+03  0.55515719825E+03  0.00000000000E+00 0. -1.
         25    2    1    2    0    0 -0.79185419003E+02 -0.34646488978E+03  0.19663646186E+03  0.42497134776E+03  0.12500599128E+03 0.  0.
         25    2    1    2    0    0  0.79185419003E+02  0.34646488978E+03 -0.36052713737E+03  0.52145237324E+03  0.12499804138E+03 0.  0.
          5    1    3    3  501    0 -0.12735490353E+02 -0.10044002149E+03 -0.27107225909E+01  0.10138948983E+03  0.47000000000E+01 0.  1.
         -5    1    3    3    0  501 -0.66449928649E+02 -0.24602486829E+03  0.19934718445E+03  0.32358185793E+03  0.47000000000E+01 0.  1.
          5    1    4    4  502    0  0.99403808713E+02  0.24874136892E+03 -0.30924569118E+03  0.40915568346E+03  0.47000000000E+01 0.  1.
         -5    1    4    4    0  502 -0.20218389710E+02  0.97723520857E+02 -0.51281446188E+02  0.11229668977E+03  0.47000000000E+01 0.  1.
<mgrwt>
<rscale>  0 0.93212537E+03</rscale>
<asrwt>0</asrwt>
<pdfrwt beam="1">  1       21 0.60194850E-01 0.93212537E+03</pdfrwt>
<pdfrwt beam="2">  1       21 0.85408800E-01 0.93212537E+03</pdfrwt>
<totfact> 0.23587171E+03</totfact>
</mgrwt>
</event>
<event>
 8    1  0.9478272E-006  0.2836277E+03  0.7546771E-02  0.1093724E+00
         21   -1    0    0  504  503  0.00000000000E+00  0.00000000000E+00  0.27745770280E+03  0.27745770280E+03  0.00000000000E+00 0. -1.
         21   -1    0    0  503  504 -0.00000000000E+00 -0.00000000000E+00 -0.72483714291E+02  0.72483714291E+02  0.00000000000E+00 0. -1.
         25    2    1    2    0    0 -0.48222680377E+01 -0.36452651774E+02  0.33410297671E+02  0.13450956756E+03  0.12499810272E+03 0.  0.
         25    2    1    2    0    0  0.48222680377E+01  0.36452651774E+02  0.17156369083E+03  0.21543184953E+03  0.12499892675E+03 0.  0.
          5    1    3    3  501    0  0.32406713665E+02 -0.55082737584E+02  0.57573723969E+02  0.86145961959E+02  0.47000000000E+01 0. -1.
         -5    1    3    3    0  501 -0.37228981703E+02  0.18630085809E+02 -0.24163426298E+02  0.48363605597E+02  0.47000000000E+01 0. -1.
          5    1    4    4  502    0  0.40910200203E+02  0.56112287941E+02  0.46499681074E+02  0.83705099478E+02  0.47000000000E+01 0.  1.
         -5    1    4    4    0  502 -0.36087932166E+02 -0.19659636166E+02  0.12506400976E+03  0.13172675005E+03  0.47000000000E+01 0.  1.
<mgrwt>
<rscale>  0 0.28362768E+03</rscale>
<asrwt>0</asrwt>
<pdfrwt beam="1">  1       21 0.42685800E-01 0.28362768E+03</pdfrwt>
<pdfrwt beam="2">  1       21 0.11151341E-01 0.28362768E+03</pdfrwt>
<totfact> 0.34594400E+05</totfact>
</mgrwt>
</event>
<event>
 8    1  0.9478272E-006  0.3089930E+03  0.7546771E-02  0.1080830E+00
         21   -1    0    0  504  503  0.00000000000E+00  0.00000000000E+00  0.93614978876E+02  0.93614978876E+02  0.00000000000E+00 0.  1.
         21   -1    0    0  503  504 -0.00000000000E+00 -0.00000000000E+00 -0.25497162939E+03  0.25497162939E+03  0.00000000000E+00 0.  1.
         25    2    1    2    0    0 -0.70099957447E+02  0.20389764915E+02 -0.14158011429E+03  0.20248074291E+03  0.12499510366E+03 0.  0.
         25    2    1    2    0    0  0.70099957447E+02 -0.20389764915E+02 -0.19776536228E+02  0.14610586536E+03  0.12500426377E+03 0.  0.
          5    1    3    3  501    0 -0.10340299062E+03 -0.30724171042E+01 -0.10601415151E+03  0.14819820693E+03  0.47000000000E+01 0. -1.
         -5    1    3    3    0  501  0.33303033177E+02  0.23462182019E+02 -0.35565962776E+02  0.54282535977E+02  0.47000000000E+01 0. -1.
          5    1    4    4  502    0  0.80051813487E+01  0.47866163271E+02  0.84742490296E+01  0.49488942314E+02  0.47000000000E+01 0. -1.
         -5    1    4    4    0  502  0.62094776099E+02 -0.68255928186E+02 -0.28250785257E+02  0.96616923046E+02  0.47000000000E+01 0. -1.
<mgrwt>
<rscale>  0 0.30899297E+03</rscale>
<asrwt>0</asrwt>
<pdfrwt beam="1">  1       21 0.14402305E-01 0.30899297E+03</pdfrwt>
<pdfrwt beam="2">  1       21 0.39226404E-01 0.30899297E+03</pdfrwt>
<totfact> 0.25728035E+05</totfact>
</mgrwt>
</event>
<event>
 8    1  0.9478272E-006  0.3023793E+03  0.7546771E-02  0.1084057E+00
         21   -1    0    0  504  503  0.00000000000E+00  0.00000000000E+00  0.58805603130E+02  0.58805603130E+02  0.00000000000E+00 0.  1.
         21   -1    0    0  503  504 -0.00000000000E+00 -0.00000000000E+00 -0.38870985491E+03  0.38870985491E+03  0.00000000000E+00 0.  1.
         25    2    1    2    0    0 -0.81641406206E+02  0.79667921895E+01 -0.13186021964E+03  0.19934956658E+03  0.12499737272E+03 0.  0.
         25    2    1    2    0    0  0.81641406206E+02 -0.79667921895E+01 -0.19804403214E+03  0.24816589146E+03  0.12504432028E+03 0.  0.
          5    1    3    3  501    0 -0.62648363763E+01  0.12906737013E+01 -0.12272763705E+03  0.12298405144E+03  0.47000000000E+01 0. -1.
         -5    1    3    3    0  501 -0.75376569830E+02  0.66761184882E+01 -0.91325825937E+01  0.76365515138E+02  0.47000000000E+01 0. -1.
          5    1    4    4  502    0  0.28236585714E+02  0.54319474465E+02 -0.12017641447E+03  0.13495321661E+03  0.47000000000E+01 0.  1.
         -5    1    4    4    0  502  0.53404820492E+02 -0.62286266655E+02 -0.77867617673E+02  0.11321267485E+03  0.47000000000E+01 0.  1.
<mgrwt>
<rscale>  0 0.30237935E+03</rscale>
<asrwt>0</asrwt>
<pdfrwt beam="1">  1       21 0.90470159E-02 0.30237935E+03</pdfrwt>
<pdfrwt beam="2">  1       21 0.59801516E-01 0.30237935E+03</pdfrwt>
<totfact> 0.24559359E+05</totfact>
</mgrwt>
</event>
<event>
 8    1  0.9478272E-006  0.9022137E+03  0.7546771E-02  0.9422818E-01
         21   -1    0    0  504  503  0.00000000000E+00  0.00000000000E+00  0.97948367527E+03  0.97948367527E+03  0.00000000000E+00 0.  1.
         21   -1    0    0  503  504 -0.00000000000E+00 -0.00000000000E+00 -0.20775984617E+03  0.20775984617E+03  0.00000000000E+00 0.  1.
         25    2    1    2    0    0  0.42472226334E+03 -0.60972582633E+02  0.46666629726E+03  0.64614056868E+03  0.12495417032E+03 0.  0.
         25    2    1    2    0    0 -0.42472226334E+03  0.60972582633E+02  0.30505753184E+03  0.54110295277E+03  0.12500260379E+03 0.  0.
          5    1    3    3  501    0  0.26410776705E+03 -0.36731497702E+01  0.35397387151E+03  0.44168540428E+03  0.47000000000E+01 0. -1.
         -5    1    3    3    0  501  0.16061449629E+03 -0.57299432862E+02  0.11269242575E+03  0.20445516439E+03  0.47000000000E+01 0. -1.
          5    1    4    4  502    0 -0.13071030521E+03  0.71111264189E+02  0.69993015473E+02  0.16450868669E+03  0.47000000000E+01 0. -1.
         -5    1    4    4    0  502 -0.29401195813E+03 -0.10138681556E+02  0.23506451637E+03  0.37659426607E+03  0.47000000000E+01 0. -1.
<mgrwt>
<rscale>  0 0.90221367E+03</rscale>
<asrwt>0</asrwt>
<pdfrwt beam="1">  1       21 0.15068979E+00 0.90221367E+03</pdfrwt>
<pdfrwt beam="2">  1       21 0.31963054E-01 0.90221367E+03</pdfrwt>
<totfact> 0.21197780E+03</totfact>
</mgrwt>
</event>
<event>
 8    1  0.9478272E-006  0.2878905E+03  0.7546771E-02  0.1091456E+00
         21   -1    0    0  504  503  0.00000000000E+00  0.00000000000E+00  0.44329927081E+02  0.44329927081E+02  0.00000000000E+00 0.  1.
         21   -1    0    0  503  504 -0.00000000000E+00 -0.00000000000E+00 -0.46740974799E+03  0.46740974799E+03  0.00000000000E+00 0.  1.
         25    2    1    2    0    0  0.47710832578E+02 -0.33756378280E+02 -0.13866450857E+03  0.19562452501E+03  0.12500116891E+03 0.  0.
         25    2    1    2    0    0 -0.47710832578E+02  0.33756378280E+02 -0.28441531234E+03  0.31611515006E+03  0.12498360527E+03 0.  0.
          5    1    3    3  501    0  0.20238640175E+01  0.24328002037E+02  0.12106183945E+02  0.27651354368E+02  0.47000000000E+01 0.  1.
         -5    1    3    3    0  501  0.45686968561E+02 -0.58084380317E+02 -0.15077069252E+03  0.16797317064E+03  0.47000000000E+01 0.  1.
          5    1    4    4  502    0 -0.69800810694E+02 -0.15089086304E+02 -0.22425664470E+03  0.23539958877E+03  0.47000000000E+01 0. -1.
         -5    1    4    4    0  502  0.22089978116E+02  0.48845464584E+02 -0.60158667639E+02  0.80715561298E+02  0.47000000000E+01 0. -1.
<mgrwt>
<rscale>  0 0.28789054E+03</rscale>
<asrwt>0</asrwt>
<pdfrwt beam="1">  1       21 0.68199884E-02 0.28789054E+03</pdfrwt>
<pdfrwt beam="2">  1       21 0.71909196E-01 0.28789054E+03</pdfrwt>
<totfact> 0.26948981E+05</totfact>
</mgrwt>
</event>
<event>
 8    1  0.9478272E-006  0.2758226E+03  0.7546771E-02  0.1097993E+00
         21   -1    0    0  504  503  0.00000000000E+00  0.00000000000E+00  0.16507524358E+03  0.16507524358E+03  0.00000000000E+00 0.  1.
         21   -1    0    0  503  504 -0.00000000000E+00 -0.00000000000E+00 -0.11521730201E+03  0.11521730201E+03  0.00000000000E+00 0.  1.
         25    2    1    2    0    0 -0.46040324885E+02 -0.35369534600E+02  0.19717511685E+02  0.13921293759E+03  0.12498298377E+03 0.  0.
         25    2    1    2    0    0  0.46040324885E+02  0.35369534600E+02  0.30140429894E+02  0.14107960800E+03  0.12499717912E+03 0.  0.
          5    1    3    3  501    0 -0.12427042496E+02  0.39454190286E+01  0.67337042252E+02  0.68748563445E+02  0.47000000000E+01 0. -1.
         -5    1    3    3    0  501 -0.33613282389E+02 -0.39314953629E+02 -0.47619530567E+02  0.70464374142E+02  0.47000000000E+01 0. -1.
          5    1    4    4  502    0  0.83298699185E+02  0.12914991970E+02  0.43973136983E+02  0.95190320304E+02  0.47000000000E+01 0. -1.
         -5    1    4    4    0  502 -0.37258374299E+02  0.22454542631E+02 -0.13832707090E+02  0.45889287700E+02  0.47000000000E+01 0. -1.
<mgrwt>
<rscale>  0 0.27582258E+03</rscale>
<asrwt>0</asrwt>
<pdfrwt beam="1">  1       21 0.25396191E-01 0.27582258E+03</pdfrwt>
<pdfrwt beam="2">  1       21 0.17725739E-01 0.27582258E+03</pdfrwt>
<totfact> 0.41734822E+05</totfact>
</mgrwt>
</event>
<event>
 8    1  0.9478272E-006  0.3076719E+03  0.7546771E-02  0.1081467E+00
         21   -1    0    0  504  503  0.00000000000E+00  0.00000000000E+00  0.22123164019E+02  0.22123164019E+02  0.00000000000E+00 0. -1.
         21   -1    0    0  503  504 -0.00000000000E+00 -0.00000000000E+00 -0.10697158093E+04  0.10697158093E+04  0.00000000000E+00 0. -1.
         25    2    1    2    0    0  0.50681550477E+02 -0.70264777458E+02 -0.44177019879E+03  0.46721790623E+03  0.12500361936E+03 0.  0.
         25    2    1    2    0    0 -0.50681550477E+02  0.70264777458E+02 -0.60582244650E+03  0.62462106710E+03  0.12499952908E+03 0.  0.
          5    1    3    3  501    0  0.76787663881E+02 -0.89608684184E+02 -0.36761680859E+03  0.38612209152E+03  0.47000000000E+01 0.  1.
         -5    1    3    3    0  501 -0.26106113404E+02  0.19343906727E+02 -0.74153390204E+02  0.81095814709E+02  0.47000000000E+01 0.  1.
          5    1    4    4  502    0  0.32524057362E+02  0.16856392491E+02 -0.32041285717E+03  0.32253440330E+03  0.47000000000E+01 0.  1.
         -5    1    4    4    0  502 -0.83205607839E+02  0.53408384966E+02 -0.28540958933E+03  0.30208666380E+03  0.47000000000E+01 0.  1.
<mgrwt>
<rscale>  0 0.30767189E+03</rscale>
<asrwt>0</asrwt>
<pdfrwt beam="1">  1       21 0.34035635E-02 0.30767189E+03</pdfrwt>
<pdfrwt beam="2">  1       21 0.16457167E+00 0.30767189E+03</pdfrwt>
<totfact> 0.11415347E+05</totfact>
</mgrwt>
</event>
<event>
 8    1  0.9478272E-006  0.4746264E+03  0.7546771E-02  0.1020623E+00
         21   -1    0    0  504  503  0.00000000000E+00  0.00000000000E+00  0.44069452675E+02  0.44069452675E+02  0.00000000000E+00 0.  1.
         21   -1    0    0  503  504 -0.00000000000E+00 -0.00000000000E+00 -0.12779270563E+04  0.12779270563E+04  0.00000000000E+00 0.  1.
         25    2    1    2    0    0  0.28106985196E+02  0.18885401949E+03 -0.43553164305E+03  0.49169916177E+03  0.12499764114E+03 0.  0.
         25    2    1    2    0    0 -0.28106985196E+02 -0.18885401949E+03 -0.79832596056E+03  0.83029734719E+03  0.12495400016E+03 0.  0.
          5    1    3    3  501    0  0.48016376477E+02  0.17106167469E+03 -0.26537243057E+03  0.31939362214E+03  0.47000000000E+01 0.  1.
         -5    1    3    3    0  501 -0.19909391281E+02  0.17792344801E+02 -0.17015921248E+03  0.17230553962E+03  0.47000000000E+01 0.  1.
          5    1    4    4  502    0  0.32269605863E+02 -0.31142642410E+02 -0.31686273906E+03  0.32005511564E+03  0.47000000000E+01 0.  1.
         -5    1    4    4    0  502 -0.60376591059E+02 -0.15771137708E+03 -0.48146322149E+03  0.51024223155E+03  0.47000000000E+01 0.  1.
<mgrwt>
<rscale>  0 0.47462636E+03</rscale>
<asrwt>0</asrwt>
<pdfrwt beam="1">  1       21 0.67799161E-02 0.47462636E+03</pdfrwt>
<pdfrwt beam="2">  1       21 0.19660415E+00 0.47462636E+03</pdfrwt>
<totfact> 0.19769911E+04</totfact>
</mgrwt>
</event>
<event>
 8    1  0.9478272E-006  0.3892991E+03  0.7546771E-02  0.1047549E+00
         21   -1    0    0  504  503  0.00000000000E+00  0.00000000000E+00  0.19831644494E+03  0.19831644494E+03  0.00000000000E+00 0. -1.
         21   -1    0    0  503  504 -0.00000000000E+00 -0.00000000000E+00 -0.19105041938E+03  0.19105041938E+03  0.00000000000E+00 0. -1.
         25    2    1    2    0    0  0.72824010319E+02 -0.15021612203E+02  0.13301838347E+03  0.19709762004E+03  0.12499838468E+03 0.  0.
         25    2    1    2    0    0 -0.72824010319E+02  0.15021612203E+02 -0.12575235791E+03  0.19226924428E+03  0.12499928585E+03 0.  0.
          5    1    3    3  501    0  0.31506906972E+02 -0.54477899462E+02  0.12390984202E+03  0.13905490163E+03  0.47000000000E+01 0.  1.
         -5    1    3    3    0  501  0.41317103347E+02  0.39456287259E+02  0.91085414435E+01  0.58042718410E+02  0.47000000000E+01 0.  1.
          5    1    4    4  502    0 -0.54081501483E+02  0.61404184883E+02 -0.11444543050E+03  0.14076622210E+03  0.47000000000E+01 0. -1.
         -5    1    4    4    0  502 -0.18742508835E+02 -0.46382572680E+02 -0.11306927418E+02  0.51503022178E+02  0.47000000000E+01 0. -1.
<mgrwt>
<rscale>  0 0.38929906E+03</rscale>
<asrwt>0</asrwt>
<pdfrwt beam="1">  1       21 0.30510222E-01 0.38929906E+03</pdfrwt>
<pdfrwt beam="2">  1       21 0.29392372E-01 0.38929906E+03</pdfrwt>
<totfact> 0.10813156E+05</totfact>
</mgrwt>
</event>
<event>
 8    1  0.9478272E-006  0.2872454E+03  0.7546771E-02  0.1091796E+00
         21   -1    0    0  504  503  0.00000000000E+00  0.00000000000E+00  0.12049793353E+04  0.12049793353E+04  0.00000000000E+00 0.  1.
         21   -1    0    0  503  504 -0.00000000000E+00 -0.00000000000E+00 -0.17118539618E+02  0.17118539618E+02  0.00000000000E+00 0.  1.
         25    2    1    2    0    0  0.14761191839E+02  0.63822561991E+02  0.70751526951E+03  0.72145249482E+03  0.12499853393E+03 0.  0.
         25    2    1    2    0    0 -0.14761191839E+02 -0.63822561991E+02  0.48034552619E+03  0.50064538012E+03  0.12499103928E+03 0.  0.
          5    1    3    3  501    0 -0.80919389580E+01  0.98149134110E+02  0.53549905583E+03  0.54449982626E+03  0.47000000000E+01 0.  1.
         -5    1    3    3    0  501  0.22853130797E+02 -0.34326572119E+02  0.17201621368E+03  0.17695266855E+03  0.47000000000E+01 0.  1.
          5    1    4    4  502    0 -0.66195862361E+02 -0.26462143003E+02  0.32441001510E+03  0.33218381223E+03  0.47000000000E+01 0. -1.
         -5    1    4    4    0  502  0.51434670521E+02 -0.37360418988E+02  0.15593551109E+03  0.16846156789E+03  0.47000000000E+01 0. -1.
<mgrwt>
<rscale>  0 0.28724545E+03</rscale>
<asrwt>0</asrwt>
<pdfrwt beam="1">  1       21 0.18538137E+00 0.28724545E+03</pdfrwt>
<pdfrwt beam="2">  1       21 0.26336224E-02 0.28724545E+03</pdfrwt>
<totfact> 0.12584975E+05</totfact>
</mgrwt>
</event>
<event>
 8    1  0.9478272E-006  0.3016961E+03  0.7546771E-02  0.1084396E+00
         21   -1    0    0  504  503  0.00000000000E+00  0.00000000000E+00  0.19384526416E+03  0.19384526416E+03  0.00000000000E+00 0. -1.
         21   -1    0    0  503  504 -0.00000000000E+00 -0.00000000000E+00 -0.11738814552E+03  0.11738814552E+03  0.00000000000E+00 0. -1.
         25    2    1    2    0    0 -0.83758328129E+02 -0.36005457119E+01  0.27874852926E+02  0.15307186920E+03  0.12500227300E+03 0.  0.
         25    2    1    2    0    0  0.83758328129E+02  0.36005457119E+01  0.48582265714E+02  0.15816154048E+03  0.12500565941E+03 0.  0.
          5    1    3    3  501    0  0.59288141458E+01  0.70339070862E+01 -0.39159619596E+02  0.40499290030E+02  0.47000000000E+01 0.  1.
         -5    1    3    3    0  501 -0.89687142275E+02 -0.10634452798E+02  0.67034472522E+02  0.11257257917E+03  0.47000000000E+01 0.  1.
          5    1    4    4  502    0  0.60405501119E+02  0.53216407045E+02  0.61753306547E+02  0.10156953979E+03  0.47000000000E+01 0. -1.
         -5    1    4    4    0  502  0.23352827011E+02 -0.49615861333E+02 -0.13171040832E+02  0.56592000688E+02  0.47000000000E+01 0. -1.
<mgrwt>
<rscale>  0 0.30169611E+03</rscale>
<asrwt>0</asrwt>
<pdfrwt beam="1">  1       21 0.29822348E-01 0.30169611E+03</pdfrwt>
<pdfrwt beam="2">  1       21 0.18059715E-01 0.30169611E+03</pdfrwt>
<totfact> 0.29332042E+05</totfact>
</mgrwt>
</event>
<event>
 8    1  0.9478272E-006  0.4625540E+03  0.7546771E-02  0.1024043E+00
         21   -1    0    0  504  503  0.00000000000E+00  0.00000000000E+00  0.96076270732E+02  0.96076270732E+02  0.00000000000E+00 0.  1.
         21   -1    0    0  503  504 -0.00000000000E+00 -0.00000000000E+00 -0.55673539287E+03  0.55673539287E+03  0.00000000000E+00 0.  1.
         25    2    1    2    0    0 -0.57723930099E+02 -0.66689736681E+02 -0.47512031274E+03  0.49914385766E+03  0.12500282389E+03 0.  0.
         25    2    1    2    0    0  0.57723930099E+02  0.66689736681E+02  0.14461190602E+02  0.15366780594E+03  0.12500038185E+03 0.  0.
          5    1    3    3  501    0  0.20014744388E+02 -0.71423898686E+02 -0.25462668560E+03  0.26525233706E+03  0.47000000000E+01 0. -1.
         -5    1    3    3    0  501 -0.77738674487E+02  0.47341620045E+01 -0.22049362714E+03  0.23389152060E+03  0.47000000000E+01 0. -1.
          5    1    4    4  502    0  0.32709975682E+02  0.11918991991E+02 -0.52705896833E+02  0.63340401326E+02  0.47000000000E+01 0.  1.
         -5    1    4    4    0  502  0.25013954417E+02  0.54770744690E+02  0.67167087435E+02  0.90327404612E+02  0.47000000000E+01 0.  1.
<mgrwt>
<rscale>  0 0.46255404E+03</rscale>
<asrwt>0</asrwt>
<pdfrwt beam="1">  1       21 0.14780965E-01 0.46255404E+03</pdfrwt>
<pdfrwt beam="2">  1       21 0.85651599E-01 0.46255404E+03</pdfrwt>
<totfact> 0.43342418E+04</totfact>
</mgrwt>
</event>
<event>
 8    1  0.9478272E-006  0.2816651E+03  0.7546771E-02  0.1094783E+00
         21   -1    0    0  504  503  0.00000000000E+00  0.00000000000E+00  0.49678302091E+02  0.49678302091E+02  0.00000000000E+00 0.  1.
         21   -1    0    0  503  504 -0.00000000000E+00 -0.00000000000E+00 -0.39924483387E+03  0.39924483387E+03  0.00000000000E+00 0.  1.
         25    2    1    2    0    0  0.58987726868E+02  0.28250655379E+01 -0.13238128889E+03  0.19147010746E+03  0.12509381874E+03 0.  0.
         25    2    1    2    0    0 -0.58987726868E+02 -0.28250655379E+01 -0.21718524289E+03  0.25745302850E+03  0.12500039695E+03 0.  0.
          5    1    3    3  501    0 -0.23699929414E+02 -0.19724401740E+02  0.28256013415E+01  0.31317929388E+02  0.47000000000E+01 0.  1.
         -5    1    3    3    0  501  0.82687656282E+02  0.22549467277E+02 -0.13520689023E+03  0.16015217807E+03  0.47000000000E+01 0.  1.
          5    1    4    4  502    0 -0.81416404014E+02  0.14547531345E+02 -0.72957279998E+02  0.11038621388E+03  0.47000000000E+01 0. -1.
         -5    1    4    4    0  502  0.22428677146E+02 -0.17372596883E+02 -0.14422796289E+03  0.14706681462E+03  0.47000000000E+01 0. -1.
<mgrwt>
<rscale>  0 0.28166509E+03</rscale>
<asrwt>0</asrwt>
<pdfrwt beam="1">  1       21 0.76428159E-02 0.28166509E+03</pdfrwt>
<pdfrwt beam="2">  1       21 0.61422281E-01 0.28166509E+03</pdfrwt>
<totfact> 0.31324228E+05</totfact>
</mgrwt>
</event>
<event>
 8    1  0.9478272E-006  0.2832589E+03  0.7546771E-02  0.1093922E+00
         21   -1    0    0  504  503  0.00000000000E+00  0.00000000000E+00  0.49570992675E+03  0.49570992675E+03  0.00000000000E+00 0. -1.
         21   -1    0    0  503  504 -0.00000000000E+00 -0.00000000000E+00 -0.40464995269E+02  0.40464995269E+02  0.00000000000E+00 0. -1.
         25    2    1    2    0    0  0.62267354494E+02  0.19296732532E+02  0.20200490171E+03  0.24633466037E+03  0.12500078905E+03 0.  0.
         25    2    1    2    0    0 -0.62267354494E+02 -0.19296732532E+02  0.25324002977E+03  0.28984026165E+03  0.12500910875E+03 0.  0.
          5    1    3    3  501    0  0.68915899664E+02  0.33892463521E+02  0.46433356995E+02  0.89867941736E+02  0.47000000000E+01 0.  1.
         -5    1    3    3    0  501 -0.66485451698E+01 -0.14595730989E+02  0.15557154471E+03  0.15646671863E+03  0.47000000000E+01 0.  1.
          5    1    4    4  502    0 -0.97964778786E+02 -0.32347720757E+01  0.14917915208E+03  0.17856111293E+03  0.47000000000E+01 0. -1.
         -5    1    4    4    0  502  0.35697424292E+02 -0.16061960456E+02  0.10406087769E+03  0.11127914872E+03  0.47000000000E+01 0. -1.
<mgrwt>
<rscale>  0 0.28325889E+03</rscale>
<asrwt>0</asrwt>
<pdfrwt beam="1">  1       21 0.76263061E-01 0.28325889E+03</pdfrwt>
<pdfrwt beam="2">  1       21 0.62253842E-02 0.28325889E+03</pdfrwt>
<totfact> 0.27686572E+05</totfact>
</mgrwt>
</event>
<event>
 8    1  0.9478272E-006  0.2903240E+03  0.7546771E-02  0.1090180E+00
         21   -1    0    0  504  503  0.00000000000E+00  0.00000000000E+00  0.33580094834E+02  0.33580094834E+02  0.00000000000E+00 0. -1.
         21   -1    0    0  503  504 -0.00000000000E+00 -0.00000000000E+00 -0.62751469477E+03  0.62751469477E+03  0.00000000000E+00 0. -1.
         25    2    1    2    0    0 -0.44848426369E+01  0.73556468418E+02 -0.30481100648E+03  0.33758998876E+03  0.12500633176E+03 0.  0.
         25    2    1    2    0    0  0.44848426369E+01 -0.73556468418E+02 -0.28912359345E+03  0.32350480084E+03  0.12502894072E+03 0.  0.
          5    1    3    3  501    0 -0.11029044624E+02  0.45575409892E+02 -0.19834553893E+02  0.51129808725E+02  0.47000000000E+01 0.  1.
         -5    1    3    3    0  501  0.65442019875E+01  0.27981058526E+02 -0.28497645259E+03  0.28646018004E+03  0.47000000000E+01 0.  1.
          5    1    4    4  502    0  0.47103492184E+02 -0.68263200500E+01 -0.19321674060E+03  0.19904807577E+03  0.47000000000E+01 0.  1.
         -5    1    4    4    0  502 -0.42618649547E+02 -0.66730148368E+02 -0.95906852854E+02  0.12445672507E+03  0.47000000000E+01 0.  1.
<mgrwt>
<rscale>  0 0.29032398E+03</rscale>
<asrwt>0</asrwt>
<pdfrwt beam="1">  1       21 0.51661684E-02 0.29032398E+03</pdfrwt>
<pdfrwt beam="2">  1       21 0.96540724E-01 0.29032398E+03</pdfrwt>
<totfact> 0.22060086E+05</totfact>
</mgrwt>
</event>
<event>
 8    1  0.9478272E-006  0.2689664E+03  0.7546771E-02  0.1101873E+00
         21   -1    0    0  504  503  0.00000000000E+00  0.00000000000E+00  0.23313338346E+02  0.23313338346E+02  0.00000000000E+00 0. -1.
         21   -1    0    0  503  504 -0.00000000000E+00 -0.00000000000E+00 -0.77576771849E+03  0.77576771849E+03  0.00000000000E+00 0. -1.
         25    2    1    2    0    0 -0.23429523703E+02 -0.27878559692E+02 -0.27608356315E+03  0.30523959289E+03  0.12499167396E+03 0.  0.
         25    2    1    2    0    0  0.23429523703E+02  0.27878559692E+02 -0.47637081700E+03  0.49384146395E+03  0.12499631815E+03 0.  0.
          5    1    3    3  501    0 -0.36162109268E+02  0.25847524587E+02 -0.32068407246E+02  0.55011502591E+02  0.47000000000E+01 0.  1.
         -5    1    3    3    0  501  0.12732585565E+02 -0.53726084278E+02 -0.24401515590E+03  0.25022809030E+03  0.47000000000E+01 0.  1.
          5    1    4    4  502    0 -0.42722817455E+02  0.18160536764E+02 -0.86797837544E+02  0.98544400293E+02  0.47000000000E+01 0. -1.
         -5    1    4    4    0  502  0.66152341159E+02  0.97180229279E+01 -0.38957297946E+03  0.39529706365E+03  0.47000000000E+01 0. -1.
<mgrwt>
<rscale>  0 0.26896643E+03</rscale>
<asrwt>0</asrwt>
<pdfrwt beam="1">  1       21 0.35866673E-02 0.26896643E+03</pdfrwt>
<pdfrwt beam="2">  1       21 0.11934888E+00 0.26896643E+03</pdfrwt>
<totfact> 0.24575257E+05</totfact>
</mgrwt>
</event>
<event>
 8    1  0.9478272E-006  0.3923387E+03  0.7546771E-02  0.1046465E+00
         21   -1    0    0  504  503  0.00000000000E+00  0.00000000000E+00  0.65442113149E+03  0.65442113149E+03  0.00000000000E+00 0.  1.
         21   -1    0    0  503  504 -0.00000000000E+00 -0.00000000000E+00 -0.58803736792E+02  0.58803736792E+02  0.00000000000E+00 0.  1.
         25    2    1    2    0    0 -0.24215731807E+02  0.75617565613E+02  0.53170458047E+03  0.55194116572E+03  0.12499948650E+03 0.  0.
         25    2    1    2    0    0  0.24215731807E+02 -0.75617565613E+02  0.63912814229E+02  0.16128370256E+03  0.12499266776E+03 0.  0.
          5    1    3    3  501    0 -0.43051963520E+02  0.47806880516E+02  0.10060266076E+03  0.11950713259E+03  0.47000000000E+01 0.  1.
         -5    1    3    3    0  501  0.18836231712E+02  0.27810685098E+02  0.43110191971E+03  0.43243403313E+03  0.47000000000E+01 0.  1.
          5    1    4    4  502    0 -0.42317806417E+02 -0.31435791327E+02  0.61643075891E+02  0.81246320049E+02  0.47000000000E+01 0. -1.
         -5    1    4    4    0  502  0.66533538224E+02 -0.44181774287E+02  0.22697383382E+01  0.80037382515E+02  0.47000000000E+01 0. -1.
<mgrwt>
<rscale>  0 0.39233867E+03</rscale>
<asrwt>0</asrwt>
<pdfrwt beam="1">  1       21 0.10068017E+00 0.39233867E+03</pdfrwt>
<pdfrwt beam="2">  1       21 0.90467292E-02 0.39233867E+03</pdfrwt>
<totfact> 0.73118929E+04</totfact>
</mgrwt>
</event>
<event>
 8    1  0.9478272E-006  0.4460565E+03  0.7546771E-02  0.1028905E+00
         21   -1    0    0  504  503  0.00000000000E+00  0.00000000000E+00  0.46446173220E+03  0.46446173220E+03  0.00000000000E+00 0.  1.
         21   -1    0    0  503  504 -0.00000000000E+00 -0.00000000000E+00 -0.10709513710E+03  0.10709513710E+03  0.00000000000E+00 0.  1.
         25    2    1    2    0    0 -0.12148696339E+03 -0.62095445338E+02  0.33820776545E+03  0.38551916350E+03  0.12500242483E+03 0.  0.
         25    2    1    2    0    0  0.12148696339E+03  0.62095445338E+02  0.19158829647E+02  0.18603770580E+03  0.12501216188E+03 0.  0.
          5    1    3    3  501    0 -0.19628116405E+02 -0.34890184431E+02  0.11098717599E+02  0.41807409099E+02  0.47000000000E+01 0.  1.
         -5    1    3    3    0  501 -0.10185884699E+03 -0.27205260907E+02  0.32710904785E+03  0.34371175440E+03  0.47000000000E+01 0.  1.
          5    1    4    4  502    0 -0.23403923138E+02  0.15970183062E+02  0.18018947869E+02  0.33905203843E+02  0.47000000000E+01 0.  1.
         -5    1    4    4    0  502  0.14489088653E+03  0.46125262276E+02  0.11398817776E+01  0.15213250195E+03  0.47000000000E+01 0.  1.
<mgrwt>
<rscale>  0 0.44605647E+03</rscale>
<asrwt>0</asrwt>
<pdfrwt beam="1">  1       21 0.71455650E-01 0.44605647E+03</pdfrwt>
<pdfrwt beam="2">  1       21 0.16476175E-01 0.44605647E+03</pdfrwt>
<totfact> 0.53929037E+04</totfact>
</mgrwt>
</event>
<event>
 8    1  0.9478272E-006  0.2732585E+03  0.7546771E-02  0.1099429E+00
         21   -1    0    0  504  503  0.00000000000E+00  0.00000000000E+00  0.81703007039E+02  0.81703007039E+02  0.00000000000E+00 0. -1.
         21   -1    0    0  503  504 -0.00000000000E+00 -0.00000000000E+00 -0.22848055097E+03  0.22848055097E+03  0.00000000000E+00 0. -1.
         25    2    1    2    0    0  0.21381432782E+02 -0.37390579417E+02 -0.34280272582E+02  0.13658457971E+03  0.12499995692E+03 0.  0.
         25    2    1    2    0    0 -0.21381432782E+02  0.37390579417E+02 -0.11249727135E+03  0.17359897829E+03  0.12500299239E+03 0.  0.
          5    1    3    3  501    0 -0.51925078556E+02 -0.66832928464E+01 -0.15098703479E+02  0.54689496551E+02  0.47000000000E+01 0. -1.
         -5    1    3    3    0  501  0.73306511338E+02 -0.30707286570E+02 -0.19181569103E+02  0.81895083163E+02  0.47000000000E+01 0. -1.
          5    1    4    4  502    0  0.51479334063E+01  0.25450664155E+02  0.22956756177E+02  0.34976280226E+02  0.47000000000E+01 0.  1.
         -5    1    4    4    0  502 -0.26529366188E+02  0.11939915261E+02 -0.13545402752E+03  0.13862269806E+03  0.47000000000E+01 0.  1.
<mgrwt>
<rscale>  0 0.27325847E+03</rscale>
<asrwt>0</asrwt>
<pdfrwt beam="1">  1       21 0.12569693E-01 0.27325847E+03</pdfrwt>
<pdfrwt beam="2">  1       21 0.35150854E-01 0.27325847E+03</pdfrwt>
<totfact> 0.41429578E+05</totfact>
</mgrwt>
</event>
<event>
 8    1  0.9478272E-006  0.3427774E+03  0.7546771E-02  0.1065619E+00
         21   -1    0    0  504  503  0.00000000000E+00  0.00000000000E+00  0.23271793171E+03  0.23271793171E+03  0.00000000000E+00 0. -1.
         21   -1    0    0  503  504 -0.00000000000E+00 -0.00000000000E+00 -0.12622183836E+03  0.12622183836E+03  0.00000000000E+00 0. -1.
         25    2    1    2    0    0  0.10139209684E+03  0.58837250745E+02  0.50480427055E+02  0.17864844762E+03  0.12499925978E+03 0.  0.
         25    2    1    2    0    0 -0.10139209684E+03 -0.58837250745E+02  0.56015666292E+02  0.18029132245E+03  0.12500010681E+03 0.  0.
          5    1    3    3  501    0  0.84615171836E+02 -0.20663613435E+02  0.10152234293E+02  0.87817253921E+02  0.47000000000E+01 0. -1.
         -5    1    3    3    0  501  0.16776925002E+02  0.79500864180E+02  0.40328192762E+02  0.90831193702E+02  0.47000000000E+01 0. -1.
          5    1    4    4  502    0 -0.12557452733E+03 -0.56405040017E+02  0.67044184867E+02  0.15319106755E+03  0.47000000000E+01 0.  1.
         -5    1    4    4    0  502  0.24182430491E+02 -0.24322107278E+01 -0.11028518574E+02  0.27100254896E+02  0.47000000000E+01 0.  1.
<mgrwt>
<rscale>  0 0.34277739E+03</rscale>
<asrwt>0</asrwt>
<pdfrwt beam="1">  1       21 0.35802759E-01 0.34277739E+03</pdfrwt>
<pdfrwt beam="2">  1       21 0.19418744E-01 0.34277739E+03</pdfrwt>
<totfact> 0.17638358E+05</totfact>
</mgrwt>
</event>
<event>
 8    1  0.9478272E-006  0.2705686E+03  0.7546771E-02  0.1100955E+00
         21   -1    0    0  504  503  0.00000000000E+00  0.00000000000E+00  0.63635951531E+02  0.63635951531E+02  0.00000000000E+00 0. -1.
         21   -1    0    0  503  504 -0.00000000000E+00 -0.00000000000E+00 -0.28760214469E+03  0.28760214469E+03  0.00000000000E+00 0. -1.
         25    2    1    2    0    0  0.12398354571E+02 -0.50220044809E+02 -0.11298044612E+03  0.17625860581E+03  0.12500697108E+03 0.  0.
         25    2    1    2    0    0 -0.12398354571E+02  0.50220044809E+02 -0.11098574704E+03  0.17497949041E+03  0.12499685565E+03 0.  0.
          5    1    3    3  501    0  0.35340593682E+01 -0.64125266602E+02 -0.24867371248E+01  0.64442325020E+02  0.47000000000E+01 0. -1.
         -5    1    3    3    0  501  0.88642952030E+01  0.13905221793E+02 -0.11049370899E+03  0.11181628079E+03  0.47000000000E+01 0. -1.
          5    1    4    4  502    0  0.46422989365E+02  0.21877239909E+02 -0.94237869052E+02  0.10740844255E+03  0.47000000000E+01 0.  1.
         -5    1    4    4    0  502 -0.58821343937E+02  0.28342804900E+02 -0.16747877990E+02  0.67571047863E+02  0.47000000000E+01 0.  1.
<mgrwt>
<rscale>  0 0.27056856E+03</rscale>
<asrwt>0</asrwt>
<pdfrwt beam="1">  1       21 0.97901465E-02 0.27056856E+03</pdfrwt>
<pdfrwt beam="2">  1       21 0.44246483E-01 0.27056856E+03</pdfrwt>
<totfact> 0.40638189E+05</totfact>
</mgrwt>
</event>
<event>
 8    1  0.9478272E-006  0.3547419E+03  0.7546771E-02  0.1060685E+00
         21   -1    0    0  504  503  0.00000000000E+00  0.00000000000E+00  0.42293322322E+02  0.42293322322E+02  0.00000000000E+00 0.  1.
         21   -1    0    0  503  504 -0.00000000000E+00 -0.00000000000E+00 -0.74386321153E+03  0.74386321153E+03  0.00000000000E+00 0.  1.
         25    2    1    2    0    0  0.78361696442E+02  0.40035255178E+02 -0.55013873998E+03  0.57098280403E+03  0.12500140857E+03 0.  0.
         25    2    1    2    0    0 -0.78361696442E+02 -0.40035255178E+02 -0.15143114923E+03  0.21517372982E+03  0.12499985569E+03 0.  0.
          5    1    3    3  501    0 -0.30699911545E+02 -0.22676198076E+01 -0.67327022655E+02  0.74179812942E+02  0.47000000000E+01 0.  1.
         -5    1    3    3    0  501  0.10906160799E+03  0.42302874986E+02 -0.48281171732E+03  0.49680299109E+03  0.47000000000E+01 0.  1.
          5    1    4    4  502    0 -0.15309941178E+02 -0.41717905374E+02 -0.14484641227E+03  0.15158281919E+03  0.47000000000E+01 0.  1.
         -5    1    4    4    0  502 -0.63051755265E+02  0.16826501960E+01 -0.65847369603E+01  0.63590910628E+02  0.47000000000E+01 0.  1.
<mgrwt>
<rscale>  0 0.35474186E+03</rscale>
<asrwt>0</asrwt>
<pdfrwt beam="1">  1       21 0.65066654E-02 0.35474186E+03</pdfrwt>
<pdfrwt beam="2">  1       21 0.11444049E+00 0.35474186E+03</pdfrwt>
<totfact> 0.96281535E+04</totfact>
</mgrwt>
</event>
<event>
 8    1  0.9478272E-006  0.2530928E+03  0.7546771E-02  0.1111366E+00
         21   -1    0    0  504  503  0.00000000000E+00  0.00000000000E+00  0.46345683959E+02  0.46345683959E+02  0.00000000000E+00 0. -1.
         21   -1    0    0  503  504 -0.00000000000E+00 -0.00000000000E+00 -0.34553369816E+03  0.34553369816E+03  0.00000000000E+00 0. -1.
         25    2    1    2    0    0  0.49199986641E+01  0.16203779621E+02 -0.13423666601E+03  0.18421371397E+03  0.12501376345E+03 0.  0.
         25    2    1    2    0    0 -0.49199986641E+01 -0.16203779621E+02 -0.16495134819E+03  0.20766566815E+03  0.12501725320E+03 0.  0.
          5    1    3    3  501    0  0.31655720177E+02  0.40834685016E+02 -0.13793844278E+03  0.14737252158E+03  0.47000000000E+01 0. -1.
         -5    1    3    3    0  501 -0.26735721513E+02 -0.24630905395E+02  0.37017767683E+01  0.36841192389E+02  0.47000000000E+01 0. -1.
          5    1    4    4  502    0 -0.56433913006E+02 -0.28373327496E+01 -0.13498206018E+03  0.14640725243E+03  0.47000000000E+01 0. -1.
         -5    1    4    4    0  502  0.51513914341E+02 -0.13366446871E+02 -0.29969288015E+02  0.61258415723E+02  0.47000000000E+01 0. -1.
<mgrwt>
<rscale>  0 0.25309283E+03</rscale>
<asrwt>0</asrwt>
<pdfrwt beam="1">  1       21 0.71301052E-02 0.25309283E+03</pdfrwt>
<pdfrwt beam="2">  1       21 0.53159031E-01 0.25309283E+03</pdfrwt>
<totfact> 0.48495678E+05</totfact>
</mgrwt>
</event>
<event>
 8    1  0.9478272E-006  0.3092796E+03  0.7546771E-02  0.1080692E+00
         21   -1    0    0  504  503  0.00000000000E+00  0.00000000000E+00  0.19349429358E+02  0.19349429358E+02  0.00000000000E+00 0. -1.
         21   -1    0    0  503  504 -0.00000000000E+00 -0.00000000000E+00 -0.12358747577E+04  0.12358747577E+04  0.00000000000E+00 0. -1.
         25    2    1    2    0    0 -0.50791327641E+02  0.73186686498E+02 -0.53199068460E+03  0.55369189071E+03  0.12499828517E+03 0.  0.
         25    2    1    2    0    0  0.50791327641E+02 -0.73186686498E+02 -0.68453464371E+03  0.70153229631E+03  0.12499533706E+03 0.  0.
          5    1    3    3  501    0 -0.52085036794E+02  0.97365283247E+02 -0.50572412174E+03  0.51765995282E+03  0.47000000000E+01 0.  1.
         -5    1    3    3    0  501  0.12937091524E+01 -0.24178596749E+02 -0.26266562857E+02  0.36031937895E+02  0.47000000000E+01 0.  1.
          5    1    4    4  502    0  0.59492301440E+02 -0.94071120024E+02 -0.37660117475E+03  0.39273304468E+03  0.47000000000E+01 0.  1.
         -5    1    4    4    0  502 -0.87009737992E+01  0.20884433526E+02 -0.30793346895E+03  0.30879925163E+03  0.47000000000E+01 0.  1.
<mgrwt>
<rscale>  0 0.30927962E+03</rscale>
<asrwt>0</asrwt>
<pdfrwt beam="1">  1       21 0.29768345E-02 0.30927962E+03</pdfrwt>
<pdfrwt beam="2">  1       21 0.19013463E+00 0.30927962E+03</pdfrwt>
<totfact> 0.94537334E+04</totfact>
</mgrwt>
</event>
<event>
 8    1  0.9478272E-006  0.3164401E+03  0.7546771E-02  0.1077299E+00
         21   -1    0    0  504  503  0.00000000000E+00  0.00000000000E+00  0.45950872195E+03  0.45950872195E+03  0.00000000000E+00 0.  1.
         21   -1    0    0  503  504 -0.00000000000E+00 -0.00000000000E+00 -0.54479011642E+02  0.54479011642E+02  0.00000000000E+00 0.  1.
         25    2    1    2    0    0  0.23097171132E+02  0.55396983724E+02  0.32627333643E+03  0.35451658628E+03  0.12500165904E+03 0.  0.
         25    2    1    2    0    0 -0.23097171132E+02 -0.55396983724E+02  0.78756373885E+02  0.15947114732E+03  0.12500470103E+03 0.  0.
          5    1    3    3  501    0  0.63501977485E+01  0.84926410601E+02  0.29837179059E+03  0.31032343716E+03  0.47000000000E+01 0. -1.
         -5    1    3    3    0  501  0.16746973384E+02 -0.29529426877E+02  0.27901545834E+02  0.44193149119E+02  0.47000000000E+01 0. -1.
          5    1    4    4  502    0  0.30440590199E+02 -0.10293619939E+02 -0.20140448207E+02  0.38214078520E+02  0.47000000000E+01 0.  1.
         -5    1    4    4    0  502 -0.53537761331E+02 -0.45103363785E+02  0.98896822092E+02  0.12125706880E+03  0.47000000000E+01 0.  1.
<mgrwt>
<rscale>  0 0.31644008E+03</rscale>
<asrwt>0</asrwt>
<pdfrwt beam="1">  1       21 0.70693647E-01 0.31644008E+03</pdfrwt>
<pdfrwt beam="2">  1       21 0.83813867E-02 0.31644008E+03</pdfrwt>
<totfact> 0.19385811E+05</totfact>
</mgrwt>
</event>
<event>
 8    1  0.9478272E-006  0.3238165E+03  0.7546771E-02  0.1073906E+00
         21   -1    0    0  504  503  0.00000000000E+00  0.00000000000E+00  0.94213291073E+02  0.94213291073E+02  0.00000000000E+00 0.  1.
         21   -1    0    0  503  504 -0.00000000000E+00 -0.00000000000E+00 -0.27824401118E+03  0.27824401118E+03  0.00000000000E+00 0.  1.
         25    2    1    2    0    0  0.67425454003E+01  0.81206040643E+02 -0.19733078962E+02  0.15051437902E+03  0.12500120372E+03 0.  0.
         25    2    1    2    0    0 -0.67425454003E+01 -0.81206040643E+02 -0.16429764114E+03  0.22194292323E+03  0.12500025332E+03 0.  0.
          5    1    3    3  501    0 -0.13049812554E+02  0.99830614960E+02  0.19398846958E+02  0.10263943957E+03  0.47000000000E+01 0.  1.
         -5    1    3    3    0  501  0.19792357955E+02 -0.18624574317E+02 -0.39131925919E+02  0.47874939457E+02  0.47000000000E+01 0.  1.
          5    1    4    4  502    0 -0.49052729764E+02 -0.44248723566E+02 -0.23492517990E+02  0.70271674493E+02  0.47000000000E+01 0.  1.
         -5    1    4    4    0  502  0.42310184364E+02 -0.36957317077E+02 -0.14080512315E+03  0.15167124873E+03  0.47000000000E+01 0.  1.
<mgrwt>
<rscale>  0 0.32381652E+03</rscale>
<asrwt>0</asrwt>
<pdfrwt beam="1">  1       21 0.14494353E-01 0.32381652E+03</pdfrwt>
<pdfrwt beam="2">  1       21 0.42806770E-01 0.32381652E+03</pdfrwt>
<totfact> 0.21193729E+05</totfact>
</mgrwt>
</event>
<event>
 8    1  0.9478272E-006  0.3082545E+03  0.7546771E-02  0.1081186E+00
         21   -1    0    0  504  503  0.00000000000E+00  0.00000000000E+00  0.10225881584E+04  0.10225881584E+04  0.00000000000E+00 0.  1.
         21   -1    0    0  503  504 -0.00000000000E+00 -0.00000000000E+00 -0.23230470477E+02  0.23230470477E+02  0.00000000000E+00 0.  1.
         25    2    1    2    0    0  0.19783919470E+02 -0.87833073891E+02  0.51626092012E+03  0.53875369937E+03  0.12499663434E+03 0.  0.
         25    2    1    2    0    0 -0.19783919470E+02  0.87833073891E+02  0.48309676776E+03  0.50706492947E+03  0.12500521325E+03 0.  0.
          5    1    3    3  501    0  0.29216218787E+02 -0.37743293812E+02  0.48530494436E+02  0.68230803587E+02  0.47000000000E+01 0.  1.
         -5    1    3    3    0  501 -0.94322993172E+01 -0.50089780079E+02  0.46773042569E+03  0.47052289578E+03  0.47000000000E+01 0.  1.
          5    1    4    4  502    0  0.39484740999E+02  0.68963884278E+02  0.16868861299E+03  0.18652881884E+03  0.47000000000E+01 0. -1.
         -5    1    4    4    0  502 -0.59268660469E+02  0.18869189613E+02  0.31440815477E+03  0.32053611063E+03  0.47000000000E+01 0. -1.
<mgrwt>
<rscale>  0 0.30825447E+03</rscale>
<asrwt>0</asrwt>
<pdfrwt beam="1">  1       21 0.15732122E+00 0.30825447E+03</pdfrwt>
<pdfrwt beam="2">  1       21 0.35739193E-02 0.30825447E+03</pdfrwt>
<totfact> 0.11901278E+05</totfact>
</mgrwt>
</event>
<event>
 8    1  0.9478272E-006  0.3674576E+03  0.7546771E-02  0.1055669E+00
         21   -1    0    0  504  503  0.00000000000E+00  0.00000000000E+00  0.94118287837E+02  0.94118287837E+02  0.00000000000E+00 0.  1.
         21   -1    0    0  503  504 -0.00000000000E+00 -0.00000000000E+00 -0.35865787331E+03  0.35865787331E+03  0.00000000000E+00 0.  1.
         25    2    1    2    0    0 -0.82961013272E+02  0.10051863558E+03 -0.90577349905E+02  0.20202767953E+03  0.12499760461E+03 0.  0.
         25    2    1    2    0    0  0.82961013272E+02 -0.10051863558E+03 -0.17396223557E+03  0.25074848162E+03  0.12500166323E+03 0.  0.
          5    1    3    3  501    0 -0.46532061476E+02 -0.21691153709E+02 -0.37833572421E+02  0.63946916240E+02  0.47000000000E+01 0.  1.
         -5    1    3    3    0  501 -0.36428951796E+02  0.12220978929E+03 -0.52743777484E+02  0.13808076329E+03  0.47000000000E+01 0.  1.
          5    1    4    4  502    0  0.11424283456E+02 -0.10315155076E+03 -0.73325177782E+02  0.12715906721E+03  0.47000000000E+01 0.  1.
         -5    1    4    4    0  502  0.71536729816E+02  0.26329151807E+01 -0.10063705779E+03  0.12358941441E+03  0.47000000000E+01 0.  1.
<mgrwt>
<rscale>  0 0.36745756E+03</rscale>
<asrwt>0</asrwt>
<pdfrwt beam="1">  1       21 0.14479737E-01 0.36745756E+03</pdfrwt>
<pdfrwt beam="2">  1       21 0.55178135E-01 0.36745756E+03</pdfrwt>
<totfact> 0.12325168E+05</totfact>
</mgrwt>
</event>
<event>
 8    1  0.9478272E-006  0.4684882E+03  0.7546771E-02  0.1022348E+00
         21   -1    0    0  504  503  0.00000000000E+00  0.00000000000E+00  0.30869934869E+03  0.30869934869E+03  0.00000000000E+00 0. -1.
         21   -1    0    0  503  504 -0.00000000000E+00 -0.00000000000E+00 -0.17774675205E+03  0.17774675205E+03  0.00000000000E+00 0. -1.
         25    2    1    2    0    0  0.40977153543E+02 -0.16206704065E+03 -0.44901094426E+02  0.21350947988E+03  0.12500134776E+03 0.  0.
         25    2    1    2    0    0 -0.40977153543E+02  0.16206704065E+03  0.17585369106E+03  0.27293662085E+03  0.12500010226E+03 0.  0.
          5    1    3    3  501    0  0.61661682680E+01 -0.63715811490E+01  0.34009599998E+02  0.35459294543E+02  0.47000000000E+01 0. -1.
         -5    1    3    3    0  501  0.34810985275E+02 -0.15569545950E+03 -0.78910694425E+02  0.17805018534E+03  0.47000000000E+01 0. -1.
          5    1    4    4  502    0  0.44246850263E+02  0.52640126232E+02  0.71401308900E+02  0.99242146090E+02  0.47000000000E+01 0. -1.
         -5    1    4    4    0  502 -0.85224003806E+02  0.10942691442E+03  0.10445238216E+03  0.17369447476E+03  0.47000000000E+01 0. -1.
<mgrwt>
<rscale>  0 0.46848824E+03</rscale>
<asrwt>0</asrwt>
<pdfrwt beam="1">  1       21 0.47492207E-01 0.46848824E+03</pdfrwt>
<pdfrwt beam="2">  1       21 0.27345654E-01 0.46848824E+03</pdfrwt>
<totfact> 0.49601380E+04</totfact>
</mgrwt>
</event>
<event>
 8    1  0.9478272E-006  0.2545255E+03  0.7546771E-02  0.1110478E+00
         21   -1    0    0  504  503  0.00000000000E+00  0.00000000000E+00  0.47292186422E+02  0.47292186422E+02  0.00000000000E+00 0. -1.
         21   -1    0    0  503  504 -0.00000000000E+00 -0.00000000000E+00 -0.34246265733E+03  0.34246265733E+03  0.00000000000E+00 0. -1.
         25    2    1    2    0    0  0.95667241400E+01 -0.20624997451E+02 -0.15885668741E+03  0.20341762759E+03  0.12500548527E+03 0.  0.
         25    2    1    2    0    0 -0.95667241400E+01  0.20624997451E+02 -0.13631378350E+03  0.18633721616E+03  0.12499279109E+03 0.  0.
          5    1    3    3  501    0  0.26456731576E+02 -0.65220702538E+02 -0.12880600344E+03  0.14685630803E+03  0.47000000000E+01 0. -1.
         -5    1    3    3    0  501 -0.16890007436E+02  0.44595705087E+02 -0.30050683968E+02  0.56561319559E+02  0.47000000000E+01 0. -1.
          5    1    4    4  502    0 -0.62207814231E+02  0.30535581317E+02 -0.98805594995E+02  0.12077611304E+03  0.47000000000E+01 0. -1.
         -5    1    4    4    0  502  0.52641090091E+02 -0.99105838664E+01 -0.37508188505E+02  0.65561103128E+02  0.47000000000E+01 0. -1.
<mgrwt>
<rscale>  0 0.25452550E+03</rscale>
<asrwt>0</asrwt>
<pdfrwt beam="1">  1       21 0.72757212E-02 0.25452550E+03</pdfrwt>
<pdfrwt beam="2">  1       21 0.52686561E-01 0.25452550E+03</pdfrwt>
<totfact> 0.47699344E+05</totfact>
</mgrwt>
</event>
<event>
 8    1  0.9478272E-006  0.3003174E+03  0.7546771E-02  0.1085082E+00
         21   -1    0    0  504  503  0.00000000000E+00  0.00000000000E+00  0.93011280163E+03  0.93011280163E+03  0.00000000000E+00 0. -1.
         21   -1    0    0  503  504 -0.00000000000E+00 -0.00000000000E+00 -0.24241835176E+02  0.24241835176E+02  0.00000000000E+00 0. -1.
         25    2    1    2    0    0 -0.36081222979E+02  0.55532291073E+02  0.29286106894E+03  0.32523551421E+03  0.12499937599E+03 0.  0.
         25    2    1    2    0    0  0.36081222979E+02 -0.55532291073E+02  0.61300989751E+03  0.62911912260E+03  0.12499618379E+03 0.  0.
          5    1    3    3  501    0 -0.64493785691E+02  0.40833374523E+01  0.73007128023E+02  0.97612769553E+02  0.47000000000E+01 0. -1.
         -5    1    3    3    0  501  0.28412562712E+02  0.51448953620E+02  0.21985394091E+03  0.22762274465E+03  0.47000000000E+01 0. -1.
          5    1    4    4  502    0 -0.10903849342E+02  0.11489465506E+02  0.40784697858E+03  0.40818151561E+03  0.47000000000E+01 0. -1.
         -5    1    4    4    0  502  0.46985072321E+02 -0.67021756579E+02  0.20516291893E+03  0.22093760699E+03  0.47000000000E+01 0. -1.
<mgrwt>
<rscale>  0 0.30031744E+03</rscale>
<asrwt>0</asrwt>
<pdfrwt beam="1">  1       21 0.14309425E+00 0.30031744E+03</pdfrwt>
<pdfrwt beam="2">  1       21 0.37295138E-02 0.30031744E+03</pdfrwt>
<totfact> 0.14316191E+05</totfact>
</mgrwt>
</event>
<event>
 8    1  0.9478272E-006  0.2686305E+03  0.7546771E-02  0.1102066E+00
         21   -1    0    0  504  503  0.00000000000E+00  0.00000000000E+00  0.41118791246E+02  0.41118791246E+02  0.00000000000E+00 0. -1.
         21   -1    0    0  503  504 -0.00000000000E+00 -0.00000000000E+00 -0.43874300051E+03  0.43874300051E+03  0.00000000000E+00 0. -1.
         25    2    1    2    0    0  0.22229969502E+02 -0.15539140785E+02 -0.12561006508E+03  0.17927499159E+03  0.12500399082E+03 0.  0.
         25    2    1    2    0    0 -0.22229969502E+02  0.15539140785E+02 -0.27201414419E+03  0.30058680017E+03  0.12500037343E+03 0.  0.
          5    1    3    3  501    0  0.41306955123E+02  0.23116367633E+02 -0.12728250724E+03  0.13588067429E+03  0.47000000000E+01 0. -1.
         -5    1    3    3    0  501 -0.19076985621E+02 -0.38655508417E+02  0.16724421659E+01  0.43394317303E+02  0.47000000000E+01 0. -1.
          5    1    4    4  502    0  0.28645531875E+01  0.34387925139E+02 -0.26602113054E+03  0.26829101169E+03  0.47000000000E+01 0. -1.
         -5    1    4    4    0  502 -0.25094522690E+02 -0.18848784354E+02 -0.59930136453E+01  0.32295788475E+02  0.47000000000E+01 0. -1.
<mgrwt>
<rscale>  0 0.26863047E+03</rscale>
<asrwt>0</asrwt>
<pdfrwt beam="1">  1       21 0.63259677E-02 0.26863047E+03</pdfrwt>
<pdfrwt beam="2">  1       21 0.67498925E-01 0.26863047E+03</pdfrwt>
<totfact> 0.35492437E+05</totfact>
</mgrwt>
</event>
<event>
 8    1  0.9478272E-006  0.3462811E+03  0.7546771E-02  0.1064152E+00
         21   -1    0    0  504  503  0.00000000000E+00  0.00000000000E+00  0.40455518612E+04  0.40455518612E+04  0.00000000000E+00 0.  1.
         21   -1    0    0  503  504 -0.00000000000E+00 -0.00000000000E+00 -0.74100284063E+01  0.74100284063E+01  0.00000000000E+00 0.  1.
         25    2    1    2    0    0  0.71096048829E+02 -0.68198802016E+02  0.12211025565E+04  0.12314302919E+04  0.12499354146E+03 0.  0.
         25    2    1    2    0    0 -0.71096048829E+02  0.68198802016E+02  0.28170392762E+04  0.28215315977E+04  0.12499819309E+03 0.  0.
          5    1    3    3  501    0  0.61929064102E+02 -0.27756908509E+02  0.11198496893E+04  0.11219140214E+04  0.47000000000E+01 0.  1.
         -5    1    3    3    0  501  0.91669847273E+01 -0.40441893507E+02  0.10125286727E+03  0.10951627044E+03  0.47000000000E+01 0.  1.
          5    1    4    4  502    0  0.23539517437E+02 -0.13075830184E+02  0.91026663952E+03  0.91067696316E+03  0.47000000000E+01 0.  1.
         -5    1    4    4    0  502 -0.94635566266E+02  0.81274632201E+02  0.19067726367E+04  0.19108546345E+04  0.47000000000E+01 0.  1.
<mgrwt>
<rscale>  0 0.34628112E+03</rscale>
<asrwt>0</asrwt>
<pdfrwt beam="1">  1       21 0.62239083E+00 0.34628112E+03</pdfrwt>
<pdfrwt beam="2">  1       21 0.11400076E-02 0.34628112E+03</pdfrwt>
<totfact> 0.58451798E+02</totfact>
</mgrwt>
</event>
<event>
 8    1  0.9478272E-006  0.4076893E+03  0.7546771E-02  0.1041149E+00
         21   -1    0    0  504  503  0.00000000000E+00  0.00000000000E+00  0.73105765172E+02  0.73105765172E+02  0.00000000000E+00 0.  1.
         21   -1    0    0  503  504 -0.00000000000E+00 -0.00000000000E+00 -0.56839075311E+03  0.56839075311E+03  0.00000000000E+00 0.  1.
         25    2    1    2    0    0 -0.10261293348E+03 -0.11609989490E+03 -0.17872520628E+03  0.26753788627E+03  0.12500088605E+03 0.  0.
         25    2    1    2    0    0  0.10261293348E+03  0.11609989490E+03 -0.31655978166E+03  0.37395863202E+03  0.12500545341E+03 0.  0.
          5    1    3    3  501    0 -0.10956916986E+03 -0.39970461869E+02 -0.75555042416E+02  0.13904565883E+03  0.47000000000E+01 0. -1.
         -5    1    3    3    0  501  0.69562363811E+01 -0.76129433033E+02 -0.10317016387E+03  0.12849222743E+03  0.47000000000E+01 0. -1.
          5    1    4    4  502    0  0.85639074289E+02  0.65217777736E+02 -0.87925723512E+02  0.13906988327E+03  0.47000000000E+01 0.  1.
         -5    1    4    4    0  502  0.16973859192E+02  0.50882117166E+02 -0.22863405815E+03  0.23488874875E+03  0.47000000000E+01 0.  1.
<mgrwt>
<rscale>  0 0.40768930E+03</rscale>
<asrwt>0</asrwt>
<pdfrwt beam="1">  1       21 0.11247041E-01 0.40768930E+03</pdfrwt>
<pdfrwt beam="2">  1       21 0.87444731E-01 0.40768930E+03</pdfrwt>
<totfact> 0.68952170E+04</totfact>
</mgrwt>
</event>
<event>
 8    1  0.9478272E-006  0.2702594E+03  0.7546771E-02  0.1101131E+00
         21   -1    0    0  504  503  0.00000000000E+00  0.00000000000E+00  0.15126024320E+02  0.15126024320E+02  0.00000000000E+00 0.  1.
         21   -1    0    0  503  504 -0.00000000000E+00 -0.00000000000E+00 -0.12071934620E+04  0.12071934620E+04  0.00000000000E+00 0.  1.
         25    2    1    2    0    0 -0.21718176373E+02 -0.46144869731E+02 -0.62292261400E+03  0.63738363516E+03  0.12499714855E+03 0.  0.
         25    2    1    2    0    0  0.21718176373E+02  0.46144869731E+02 -0.56914482370E+03  0.58493585118E+03  0.12499236563E+03 0.  0.
          5    1    3    3  501    0 -0.20584054994E+02 -0.33595985566E+02 -0.47885385339E+02  0.62189176672E+02  0.47000000000E+01 0. -1.
         -5    1    3    3    0  501 -0.11341213790E+01 -0.12548884165E+02 -0.57503722866E+03  0.57519445848E+03  0.47000000000E+01 0. -1.
          5    1    4    4  502    0  0.26863735214E+02 -0.28725986245E+02 -0.72354463912E+02  0.82486974749E+02  0.47000000000E+01 0. -1.
         -5    1    4    4    0  502 -0.51455588409E+01  0.74870855976E+02 -0.49679035979E+03  0.50244887643E+03  0.47000000000E+01 0. -1.
<mgrwt>
<rscale>  0 0.27025941E+03</rscale>
<asrwt>0</asrwt>
<pdfrwt beam="1">  1       21 0.23270799E-02 0.27025941E+03</pdfrwt>
<pdfrwt beam="2">  1       21 0.18572213E+00 0.27025941E+03</pdfrwt>
<totfact> 0.15460823E+05</totfact>
</mgrwt>
</event>
<event>
 8    1  0.9478272E-006  0.2625594E+03  0.7546771E-02  0.1105615E+00
         21   -1    0    0  504  503  0.00000000000E+00  0.00000000000E+00  0.42246299875E+03  0.42246299875E+03  0.00000000000E+00 0. -1.
         21   -1    0    0  503  504 -0.00000000000E+00 -0.00000000000E+00 -0.40794971428E+02  0.40794971428E+02  0.00000000000E+00 0. -1.
         25    2    1    2    0    0 -0.26843467540E+02 -0.29444463601E+02  0.18298463573E+03  0.22516441822E+03  0.12501235992E+03 0.  0.
         25    2    1    2    0    0  0.26843467540E+02  0.29444463601E+02  0.19868339159E+03  0.23809355196E+03  0.12500360476E+03 0.  0.
          5    1    3    3  501    0 -0.40570041333E+02  0.41715891486E+02  0.87811801437E+02  0.10544736283E+03  0.47000000000E+01 0. -1.
         -5    1    3    3    0  501  0.13726573792E+02 -0.71160355086E+02  0.95172834296E+02  0.11971705539E+03  0.47000000000E+01 0. -1.
          5    1    4    4  502    0  0.16981446553E+02  0.28880252096E+02  0.21544119455E+03  0.21808126191E+03  0.47000000000E+01 0. -1.
         -5    1    4    4    0  502  0.98620209873E+01  0.56421150480E+00 -0.16757802962E+02  0.20012290041E+02  0.47000000000E+01 0. -1.
<mgrwt>
<rscale>  0 0.26255945E+03</rscale>
<asrwt>0</asrwt>
<pdfrwt beam="1">  1       21 0.64994304E-01 0.26255945E+03</pdfrwt>
<pdfrwt beam="2">  1       21 0.62761497E-02 0.26255945E+03</pdfrwt>
<totfact> 0.39153910E+05</totfact>
</mgrwt>
</event>
<event>
 8    1  0.9478272E-006  0.2859704E+03  0.7546771E-02  0.1092472E+00
         21   -1    0    0  504  503  0.00000000000E+00  0.00000000000E+00  0.11179952196E+02  0.11179952196E+02  0.00000000000E+00 0.  1.
         21   -1    0    0  503  504 -0.00000000000E+00 -0.00000000000E+00 -0.18286989326E+04  0.18286989326E+04  0.00000000000E+00 0.  1.
         25    2    1    2    0    0 -0.67236677054E+02  0.17299367473E+02 -0.91587608585E+03  0.92696927028E+03  0.12499193790E+03 0.  0.
         25    2    1    2    0    0  0.67236677054E+02 -0.17299367473E+02 -0.90164289460E+03  0.91290961457E+03  0.12499606449E+03 0.  0.
          5    1    3    3  501    0 -0.75980547370E+02 -0.39144461482E+02 -0.56257588902E+03  0.56905101120E+03  0.47000000000E+01 0. -1.
         -5    1    3    3    0  501  0.87438703163E+01  0.56443828956E+02 -0.35330019684E+03  0.35791825908E+03  0.47000000000E+01 0. -1.
          5    1    4    4  502    0 -0.26087546733E+02 -0.35906210439E+02 -0.38261834142E+03  0.38521254034E+03  0.47000000000E+01 0.  1.
         -5    1    4    4    0  502  0.93324223787E+02  0.18606842965E+02 -0.51902455318E+03  0.52769707423E+03  0.47000000000E+01 0.  1.
<mgrwt>
<rscale>  0 0.28597039E+03</rscale>
<asrwt>0</asrwt>
<pdfrwt beam="1">  1       21 0.17199932E-02 0.28597039E+03</pdfrwt>
<pdfrwt beam="2">  1       21 0.28133820E+00 0.28597039E+03</pdfrwt>
<totfact> 0.64480415E+04</totfact>
</mgrwt>
</event>
<event>
 8    1  0.9478272E-006  0.2788067E+03  0.7546771E-02  0.1096342E+00
         21   -1    0    0  504  503  0.00000000000E+00  0.00000000000E+00  0.11298319609E+03  0.11298319609E+03  0.00000000000E+00 0.  1.
         21   -1    0    0  503  504 -0.00000000000E+00 -0.00000000000E+00 -0.17200161815E+03  0.17200161815E+03  0.00000000000E+00 0.  1.
         25    2    1    2    0    0 -0.35952445721E+02  0.49251921366E+02 -0.20215652159E+02  0.14052472490E+03  0.12498078094E+03 0.  0.
         25    2    1    2    0    0  0.35952445721E+02 -0.49251921366E+02 -0.38802769901E+02  0.14446008934E+03  0.12507890449E+03 0.  0.
          5    1    3    3  501    0 -0.38530600556E+01 -0.41884635612E+02 -0.58744379931E+01  0.42729004129E+02  0.47000000000E+01 0. -1.
         -5    1    3    3    0  501 -0.32099385666E+02  0.91136556978E+02 -0.14341214166E+02  0.97795720774E+02  0.47000000000E+01 0. -1.
          5    1    4    4  502    0  0.25402041278E+02  0.27663916519E+02  0.23719117861E+02  0.44668137753E+02  0.47000000000E+01 0.  1.
         -5    1    4    4    0  502  0.10550404444E+02 -0.76915837886E+02 -0.62521887762E+02  0.99791951584E+02  0.47000000000E+01 0.  1.
<mgrwt>
<rscale>  0 0.27880669E+03</rscale>
<asrwt>0</asrwt>
<pdfrwt beam="1">  1       21 0.17382030E-01 0.27880669E+03</pdfrwt>
<pdfrwt beam="2">  1       21 0.26461787E-01 0.27880669E+03</pdfrwt>
<totfact> 0.39956305E+05</totfact>
</mgrwt>
</event>
<event>
 8    1  0.9478272E-006  0.3110911E+03  0.7546771E-02  0.1079824E+00
         21   -1    0    0  504  503  0.00000000000E+00  0.00000000000E+00  0.25682015098E+03  0.25682015098E+03  0.00000000000E+00 0. -1.
         21   -1    0    0  503  504 -0.00000000000E+00 -0.00000000000E+00 -0.94207661082E+02  0.94207661082E+02  0.00000000000E+00 0. -1.
         25    2    1    2    0    0  0.17341258800E+02  0.88681502935E+02  0.58574445395E+02  0.16498136949E+03  0.12499103330E+03 0.  0.
         25    2    1    2    0    0 -0.17341258800E+02 -0.88681502935E+02  0.10403804451E+03  0.18604644258E+03  0.12499694345E+03 0.  0.
          5    1    3    3  501    0  0.69047711293E+01  0.83376051373E+02  0.94857683655E+02  0.12656742059E+03  0.47000000000E+01 0. -1.
         -5    1    3    3    0  501  0.10436487670E+02  0.53054515619E+01 -0.36283238260E+02  0.38413948896E+02  0.47000000000E+01 0. -1.
          5    1    4    4  502    0  0.35317771900E+02 -0.93555654729E+02  0.78016610878E+02  0.12692000282E+03  0.47000000000E+01 0.  1.
         -5    1    4    4    0  502 -0.52659030700E+02  0.48741517938E+01  0.26021433629E+02  0.59126439755E+02  0.47000000000E+01 0.  1.
<mgrwt>
<rscale>  0 0.31109115E+03</rscale>
<asrwt>0</asrwt>
<pdfrwt beam="1">  1       21 0.39510792E-01 0.31109115E+03</pdfrwt>
<pdfrwt beam="2">  1       21 0.14493486E-01 0.31109115E+03</pdfrwt>
<totfact> 0.25049589E+05</totfact>
</mgrwt>
</event>
<event>
 8    1  0.9478272E-006  0.4203537E+03  0.7546771E-02  0.1036951E+00
         21   -1    0    0  504  503  0.00000000000E+00  0.00000000000E+00  0.16172608368E+03  0.16172608368E+03  0.00000000000E+00 0.  1.
         21   -1    0    0  503  504 -0.00000000000E+00 -0.00000000000E+00 -0.27314276699E+03  0.27314276699E+03  0.00000000000E+00 0.  1.
         25    2    1    2    0    0  0.10990650584E+02 -0.56651051002E+02  0.10858082583E+03  0.17534386968E+03  0.12500216365E+03 0.  0.
         25    2    1    2    0    0 -0.10990650584E+02  0.56651051002E+02 -0.21999750915E+03  0.25952498099E+03  0.12499670295E+03 0.  0.
          5    1    3    3  501    0 -0.15064804198E+02 -0.81818892795E+02  0.29781161442E+02  0.88488909591E+02  0.47000000000E+01 0. -1.
         -5    1    3    3    0  501  0.26055454782E+02  0.25167841793E+02  0.78799664391E+02  0.86854960092E+02  0.47000000000E+01 0. -1.
          5    1    4    4  502    0  0.30552284149E+02  0.52923233952E+02 -0.36600987006E+02  0.71386504387E+02  0.47000000000E+01 0.  1.
         -5    1    4    4    0  502 -0.41542934733E+02  0.37278170496E+01 -0.18339652214E+03  0.18813847660E+03  0.47000000000E+01 0.  1.
<mgrwt>
<rscale>  0 0.42035371E+03</rscale>
<asrwt>0</asrwt>
<pdfrwt beam="1">  1       21 0.24880936E-01 0.42035371E+03</pdfrwt>
<pdfrwt beam="2">  1       21 0.42021964E-01 0.42035371E+03</pdfrwt>
<totfact> 0.77841009E+04</totfact>
</mgrwt>
</event>
<event>
 8    1  0.9478272E-006  0.3439438E+03  0.7546771E-02  0.1065129E+00
         21   -1    0    0  504  503  0.00000000000E+00  0.00000000000E+00  0.53580678164E+02  0.53580678164E+02  0.00000000000E+00 0.  1.
         21   -1    0    0  503  504 -0.00000000000E+00 -0.00000000000E+00 -0.55195889612E+03  0.55195889612E+03  0.00000000000E+00 0.  1.
         25    2    1    2    0    0 -0.57467515108E+01  0.25350183906E+02 -0.46350387002E+02  0.13582699081E+03  0.12499982432E+03 0.  0.
         25    2    1    2    0    0  0.57467515108E+01 -0.25350183906E+02 -0.45202783095E+03  0.46971258347E+03  0.12500037656E+03 0.  0.
          5    1    3    3  501    0 -0.36124045527E+02  0.38035620584E+01  0.32199747840E+02  0.48768099313E+02  0.47000000000E+01 0. -1.
         -5    1    3    3    0  501  0.30377294016E+02  0.21546621847E+02 -0.78550134843E+02  0.87058891496E+02  0.47000000000E+01 0. -1.
          5    1    4    4  502    0  0.13012494529E+02 -0.61356640808E+02 -0.11870393802E+03  0.13433792199E+03  0.47000000000E+01 0. -1.
         -5    1    4    4    0  502 -0.72657430182E+01  0.36006456902E+02 -0.33332389294E+03  0.33537466148E+03  0.47000000000E+01 0. -1.
<mgrwt>
<rscale>  0 0.34394379E+03</rscale>
<asrwt>0</asrwt>
<pdfrwt beam="1">  1       21 0.82431814E-02 0.34394379E+03</pdfrwt>
<pdfrwt beam="2">  1       21 0.84916751E-01 0.34394379E+03</pdfrwt>
<totfact> 0.13063393E+05</totfact>
</mgrwt>
</event>
<event>
 8    1  0.9478272E-006  0.2624213E+03  0.7546771E-02  0.1105697E+00
         21   -1    0    0  504  503  0.00000000000E+00  0.00000000000E+00  0.16572476660E+03  0.16572476660E+03  0.00000000000E+00 0.  1.
         21   -1    0    0  503  504 -0.00000000000E+00 -0.00000000000E+00 -0.10388452929E+03  0.10388452929E+03  0.00000000000E+00 0.  1.
         25    2    1    2    0    0  0.26730355297E+02  0.20294404495E+02  0.86997018406E+01  0.12972022553E+03  0.12500110940E+03 0.  0.
         25    2    1    2    0    0 -0.26730355297E+02 -0.20294404495E+02  0.53140535474E+02  0.13988907035E+03  0.12497464041E+03 0.  0.
          5    1    3    3  501    0  0.66781245932E+02 -0.19372606343E+02 -0.94127032982E+01  0.70325825044E+02  0.47000000000E+01 0. -1.
         -5    1    3    3    0  501 -0.40050890635E+02  0.39667010839E+02  0.18112405139E+02  0.59394400489E+02  0.47000000000E+01 0. -1.
          5    1    4    4  502    0 -0.51795588653E+02 -0.15649032564E+02  0.83724603152E+02  0.99797667293E+02  0.47000000000E+01 0.  1.
         -5    1    4    4    0  502  0.25065233356E+02 -0.46453719313E+01 -0.30584067678E+02  0.40091403060E+02  0.47000000000E+01 0.  1.
<mgrwt>
<rscale>  0 0.26242134E+03</rscale>
<asrwt>0</asrwt>
<pdfrwt beam="1">  1       21 0.25496118E-01 0.26242134E+03</pdfrwt>
<pdfrwt beam="2">  1       21 0.15982235E-01 0.26242134E+03</pdfrwt>
<totfact> 0.50295208E+05</totfact>
</mgrwt>
</event>
<event>
 8    1  0.9478272E-006  0.4649499E+03  0.7546771E-02  0.1023355E+00
         21   -1    0    0  504  503  0.00000000000E+00  0.00000000000E+00  0.14439009258E+03  0.14439009258E+03  0.00000000000E+00 0.  1.
         21   -1    0    0  503  504 -0.00000000000E+00 -0.00000000000E+00 -0.37429580640E+03  0.37429580640E+03  0.00000000000E+00 0.  1.
         25    2    1    2    0    0 -0.31651582409E+02  0.18317037535E+03 -0.18431621020E+03  0.29008710218E+03  0.12499940974E+03 0.  0.
         25    2    1    2    0    0  0.31651582409E+02 -0.18317037535E+03 -0.45589503624E+02  0.22859879681E+03  0.12500319190E+03 0.  0.
          5    1    3    3  501    0 -0.74039925952E+02  0.79887885464E+02 -0.66478043537E+02  0.12769261980E+03  0.47000000000E+01 0.  1.
         -5    1    3    3    0  501  0.42388343543E+02  0.10328248989E+03 -0.11783816666E+03  0.16239448238E+03  0.47000000000E+01 0.  1.
          5    1    4    4  502    0  0.68392344295E+02 -0.16393719591E+03 -0.18077391358E+02  0.17861074727E+03  0.47000000000E+01 0. -1.
         -5    1    4    4    0  502 -0.36740761886E+02 -0.19233179439E+02 -0.27512112267E+02  0.49988049538E+02  0.47000000000E+01 0. -1.
<mgrwt>
<rscale>  0 0.46494992E+03</rscale>
<asrwt>0</asrwt>
<pdfrwt beam="1">  1       21 0.22213861E-01 0.46494992E+03</pdfrwt>
<pdfrwt beam="2">  1       21 0.57583970E-01 0.46494992E+03</pdfrwt>
<totfact> 0.49198387E+04</totfact>
</mgrwt>
</event>
<event>
 8    1  0.9478272E-006  0.2818622E+03  0.7546771E-02  0.1094676E+00
         21   -1    0    0  504  503  0.00000000000E+00  0.00000000000E+00  0.20273480078E+03  0.20273480078E+03  0.00000000000E+00 0. -1.
         21   -1    0    0  503  504 -0.00000000000E+00 -0.00000000000E+00 -0.97968263909E+02  0.97968263909E+02  0.00000000000E+00 0. -1.
         25    2    1    2    0    0  0.62678449385E+02 -0.12274633741E+02  0.65770661706E+02  0.15501780009E+03  0.12500193500E+03 0.  0.
         25    2    1    2    0    0 -0.62678449385E+02  0.12274633741E+02  0.38995875164E+02  0.14568526460E+03  0.12499705352E+03 0.  0.
          5    1    3    3  501    0  0.92147308731E+02 -0.38359391158E+02  0.54461041837E+02  0.11380098626E+03  0.47000000000E+01 0.  1.
         -5    1    3    3    0  501 -0.29468859346E+02  0.26084757417E+02  0.11309619869E+02  0.41216813829E+02  0.47000000000E+01 0.  1.
          5    1    4    4  502    0  0.34350698233E+02  0.49973043511E+00  0.32647996339E+02  0.47625642931E+02  0.47000000000E+01 0.  1.
         -5    1    4    4    0  502 -0.97029147619E+02  0.11774903306E+02  0.63478788254E+01  0.98059621665E+02  0.47000000000E+01 0.  1.
<mgrwt>
<rscale>  0 0.28186221E+03</rscale>
<asrwt>0</asrwt>
<pdfrwt beam="1">  1       21 0.31189969E-01 0.28186221E+03</pdfrwt>
<pdfrwt beam="2">  1       21 0.15072041E-01 0.28186221E+03</pdfrwt>
<totfact> 0.37679061E+05</totfact>
</mgrwt>
</event>
<event>
 8    1  0.9478272E-006  0.6059455E+03  0.7546771E-02  0.9893147E-01
         21   -1    0    0  504  503  0.00000000000E+00  0.00000000000E+00  0.79431831357E+03  0.79431831357E+03  0.00000000000E+00 0. -1.
         21   -1    0    0  503  504 -0.00000000000E+00 -0.00000000000E+00 -0.11556132677E+03  0.11556132677E+03  0.00000000000E+00 0. -1.
         25    2    1    2    0    0 -0.16270185468E+03 -0.13892688745E+02  0.52918119735E+01  0.20571628101E+03  0.12500513861E+03 0.  0.
         25    2    1    2    0    0  0.16270185468E+03  0.13892688745E+02  0.67346517483E+03  0.70416335933E+03  0.12500317835E+03 0.  0.
          5    1    3    3  501    0  0.16368669040E+02 -0.74284256264E+01  0.18193209423E+02  0.26003801694E+02  0.47000000000E+01 0. -1.
         -5    1    3    3    0  501 -0.17907052372E+03 -0.64642631182E+01 -0.12901397450E+02  0.17971247931E+03  0.47000000000E+01 0. -1.
          5    1    4    4  502    0  0.16099825897E+03  0.14061682915E+01  0.67152689083E+03  0.69057430579E+03  0.47000000000E+01 0.  1.
         -5    1    4    4    0  502  0.17035957154E+01  0.12486520453E+02  0.19382839976E+01  0.13589053545E+02  0.47000000000E+01 0.  1.
<mgrwt>
<rscale>  0 0.60594547E+03</rscale>
<asrwt>0</asrwt>
<pdfrwt beam="1">  1       21 0.12220281E+00 0.60594547E+03</pdfrwt>
<pdfrwt beam="2">  1       21 0.17778666E-01 0.60594547E+03</pdfrwt>
<totfact> 0.12422958E+04</totfact>
</mgrwt>
</event>
<event>
 8    1  0.9478272E-006  0.3107093E+03  0.7546771E-02  0.1080006E+00
         21   -1    0    0  504  503  0.00000000000E+00  0.00000000000E+00  0.25098981485E+03  0.25098981485E+03  0.00000000000E+00 0.  1.
         21   -1    0    0  503  504 -0.00000000000E+00 -0.00000000000E+00 -0.96159525093E+02  0.96159525093E+02  0.00000000000E+00 0.  1.
         25    2    1    2    0    0 -0.81715810783E+02  0.40404726989E+02  0.93332073737E+02  0.18066728992E+03  0.12497911012E+03 0.  0.
         25    2    1    2    0    0  0.81715810783E+02 -0.40404726989E+02  0.61498216017E+02  0.16648205002E+03  0.12499690680E+03 0.  0.
          5    1    3    3  501    0  0.97424561519E+01 -0.23270493828E+02  0.58392815503E+02  0.63782773829E+02  0.47000000000E+01 0. -1.
         -5    1    3    3    0  501 -0.91458266935E+02  0.63675220817E+02  0.34939258234E+02  0.11688451610E+03  0.47000000000E+01 0. -1.
          5    1    4    4  502    0  0.86056229371E+02 -0.37291556031E+02 -0.10175415987E+02  0.94456147790E+02  0.47000000000E+01 0.  1.
         -5    1    4    4    0  502 -0.43404185879E+01 -0.31131709577E+01  0.71673632004E+02  0.72025902227E+02  0.47000000000E+01 0.  1.
<mgrwt>
<rscale>  0 0.31070926E+03</rscale>
<asrwt>0</asrwt>
<pdfrwt beam="1">  1       21 0.38613817E-01 0.31070926E+03</pdfrwt>
<pdfrwt beam="2">  1       21 0.14793773E-01 0.31070926E+03</pdfrwt>
<totfact> 0.25279827E+05</totfact>
</mgrwt>
</event>
<event>
 8    1  0.9478272E-006  0.2641456E+03  0.7546771E-02  0.1104678E+00
         21   -1    0    0  504  503  0.00000000000E+00  0.00000000000E+00  0.79334900864E+03  0.79334900864E+03  0.00000000000E+00 0. -1.
         21   -1    0    0  503  504 -0.00000000000E+00 -0.00000000000E+00 -0.21986826949E+02  0.21986826949E+02  0.00000000000E+00 0. -1.
         25    2    1    2    0    0 -0.28415724063E+02  0.28523612099E+02  0.42906839953E+03  0.44871544191E+03  0.12499922605E+03 0.  0.
         25    2    1    2    0    0  0.28415724063E+02 -0.28523612099E+02  0.34229378216E+03  0.36662039368E+03  0.12499771971E+03 0.  0.
          5    1    3    3  501    0 -0.56478406606E+02  0.37568269719E+02  0.11777454974E+03  0.13599308758E+03  0.47000000000E+01 0. -1.
         -5    1    3    3    0  501  0.28062682543E+02 -0.90446576202E+01  0.31129384979E+03  0.31272235433E+03  0.47000000000E+01 0. -1.
          5    1    4    4  502    0  0.23222280216E+02  0.47806385989E+02  0.16656516330E+03  0.17490216827E+03  0.47000000000E+01 0. -1.
         -5    1    4    4    0  502  0.51934438465E+01 -0.76329998088E+02  0.17572861885E+03  0.19171822540E+03  0.47000000000E+01 0. -1.
<mgrwt>
<rscale>  0 0.26414562E+03</rscale>
<asrwt>0</asrwt>
<pdfrwt beam="1">  1       21 0.12205367E+00 0.26414562E+03</pdfrwt>
<pdfrwt beam="2">  1       21 0.33825894E-02 0.26414562E+03</pdfrwt>
<totfact> 0.25663938E+05</totfact>
</mgrwt>
</event>
<event>
 8    1  0.9478272E-006  0.3072961E+03  0.7546771E-02  0.1081649E+00
         21   -1    0    0  504  503  0.00000000000E+00  0.00000000000E+00  0.11004766140E+03  0.11004766140E+03  0.00000000000E+00 0. -1.
         21   -1    0    0  503  504 -0.00000000000E+00 -0.00000000000E+00 -0.21452276157E+03  0.21452276157E+03  0.00000000000E+00 0. -1.
         25    2    1    2    0    0 -0.62620192621E+02  0.63465756165E+02 -0.45452424519E+02  0.16012461566E+03  0.12499911567E+03 0.  0.
         25    2    1    2    0    0  0.62620192621E+02 -0.63465756165E+02 -0.59022675653E+02  0.16444580730E+03  0.12493821101E+03 0.  0.
          5    1    3    3  501    0 -0.14101758150E+02 -0.37660889229E+02 -0.49950510128E+01  0.40795130777E+02  0.47000000000E+01 0.  1.
         -5    1    3    3    0  501 -0.48518434471E+02  0.10112664539E+03 -0.40457373506E+02  0.11932948489E+03  0.47000000000E+01 0.  1.
          5    1    4    4  502    0  0.41377696015E+02  0.21584152126E+02 -0.60613965545E+02  0.76642887274E+02  0.47000000000E+01 0.  1.
         -5    1    4    4    0  502  0.21242496606E+02 -0.85049908291E+02  0.15912898918E+01  0.87802920031E+02  0.47000000000E+01 0.  1.
<mgrwt>
<rscale>  0 0.30729613E+03</rscale>
<asrwt>0</asrwt>
<pdfrwt beam="1">  1       21 0.16930410E-01 0.30729613E+03</pdfrwt>
<pdfrwt beam="2">  1       21 0.33003501E-01 0.30729613E+03</pdfrwt>
<totfact> 0.27036978E+05</totfact>
</mgrwt>
</event>
<event>
 8    1  0.9478272E-006  0.2576410E+03  0.7546771E-02  0.1108569E+00
         21   -1    0    0  504  503  0.00000000000E+00  0.00000000000E+00  0.37419735680E+02  0.37419735680E+02  0.00000000000E+00 0.  1.
         21   -1    0    0  503  504 -0.00000000000E+00 -0.00000000000E+00 -0.44347505646E+03  0.44347505646E+03  0.00000000000E+00 0.  1.
         25    2    1    2    0    0  0.27848999964E+02 -0.23631823047E+01 -0.17732120574E+03  0.21873844050E+03  0.12499017529E+03 0.  0.
         25    2    1    2    0    0 -0.27848999964E+02  0.23631823047E+01 -0.22873411504E+03  0.26215635163E+03  0.12500202354E+03 0.  0.
          5    1    3    3  501    0 -0.16099734701E+02 -0.51178168841E+02 -0.11961398926E+03  0.13117927752E+03  0.47000000000E+01 0.  1.
         -5    1    3    3    0  501  0.43948734664E+02  0.48814986537E+02 -0.57707216480E+02  0.87559162987E+02  0.47000000000E+01 0.  1.
          5    1    4    4  502    0 -0.21416426851E+02 -0.37067507885E+02 -0.16461578243E+02  0.46105715894E+02  0.47000000000E+01 0. -1.
         -5    1    4    4    0  502 -0.64325731127E+01  0.39430690190E+02 -0.21227253680E+03  0.21605063574E+03  0.47000000000E+01 0. -1.
<mgrwt>
<rscale>  0 0.25764099E+03</rscale>
<asrwt>0</asrwt>
<pdfrwt beam="1">  1       21 0.57568822E-02 0.25764099E+03</pdfrwt>
<pdfrwt beam="2">  1       21 0.68226935E-01 0.25764099E+03</pdfrwt>
<totfact> 0.40871173E+05</totfact>
</mgrwt>
</event>
<event>
 8    1  0.9478272E-006  0.2762934E+03  0.7546771E-02  0.1097731E+00
         21   -1    0    0  504  503  0.00000000000E+00  0.00000000000E+00  0.50511974016E+02  0.50511974016E+02  0.00000000000E+00 0.  1.
         21   -1    0    0  503  504 -0.00000000000E+00 -0.00000000000E+00 -0.37782143032E+03  0.37782143032E+03  0.00000000000E+00 0.  1.
         25    2    1    2    0    0 -0.17703106014E+02  0.50986951984E+02 -0.20006861058E+03  0.24197773880E+03  0.12495082194E+03 0.  0.
         25    2    1    2    0    0  0.17703106014E+02 -0.50986951984E+02 -0.12724084573E+03  0.18635566553E+03  0.12500052808E+03 0.  0.
          5    1    3    3  501    0 -0.46053182412E+02 -0.12769693107E+01 -0.16824676012E+02  0.49271553495E+02  0.47000000000E+01 0. -1.
         -5    1    3    3    0  501  0.28350076398E+02  0.52263921294E+02 -0.18324393456E+03  0.19270618531E+03  0.47000000000E+01 0. -1.
          5    1    4    4  502    0  0.31823751336E+02 -0.85926680238E+02 -0.61571197032E+02  0.11049546520E+03  0.47000000000E+01 0. -1.
         -5    1    4    4    0  502 -0.14120645322E+02  0.34939728255E+02 -0.65669648694E+02  0.75860200332E+02  0.47000000000E+01 0. -1.
<mgrwt>
<rscale>  0 0.27629337E+03</rscale>
<asrwt>0</asrwt>
<pdfrwt beam="1">  1       21 0.77710728E-02 0.27629337E+03</pdfrwt>
<pdfrwt beam="2">  1       21 0.58126375E-01 0.27629337E+03</pdfrwt>
<totfact> 0.34322955E+05</totfact>
</mgrwt>
</event>
<event>
 8    1  0.9478272E-006  0.2554183E+03  0.7546771E-02  0.1109928E+00
         21   -1    0    0  504  503  0.00000000000E+00  0.00000000000E+00  0.47060768765E+02  0.47060768765E+02  0.00000000000E+00 0. -1.
         21   -1    0    0  503  504 -0.00000000000E+00 -0.00000000000E+00 -0.34656522504E+03  0.34656522504E+03  0.00000000000E+00 0. -1.
         25    2    1    2    0    0  0.64109634381E+01 -0.14143935551E+02 -0.11731970245E+03  0.17213577839E+03  0.12500264899E+03 0.  0.
         25    2    1    2    0    0 -0.64109634381E+01  0.14143935551E+02 -0.18218475383E+03  0.22149021541E+03  0.12500191851E+03 0.  0.
          5    1    3    3  501    0 -0.24923482356E+02 -0.59682244541E+02 -0.88221291256E+02  0.10949080563E+03  0.47000000000E+01 0. -1.
         -5    1    3    3    0  501  0.31334445794E+02  0.45538308990E+02 -0.29098411196E+02  0.62644972767E+02  0.47000000000E+01 0. -1.
          5    1    4    4  502    0  0.34175018487E+02 -0.22092176553E+01 -0.17314645093E+03  0.17656329177E+03  0.47000000000E+01 0. -1.
         -5    1    4    4    0  502 -0.40585981925E+02  0.16353153206E+02 -0.90383028954E+01  0.44926923641E+02  0.47000000000E+01 0. -1.
<mgrwt>
<rscale>  0 0.25541829E+03</rscale>
<asrwt>0</asrwt>
<pdfrwt beam="1">  1       21 0.72401180E-02 0.25541829E+03</pdfrwt>
<pdfrwt beam="2">  1       21 0.53317729E-01 0.25541829E+03</pdfrwt>
<totfact> 0.46902314E+05</totfact>
</mgrwt>
</event>
<event>
 8    1  0.9478272E-006  0.2983824E+03  0.7546771E-02  0.1086052E+00
         21   -1    0    0  504  503  0.00000000000E+00  0.00000000000E+00  0.27004666377E+02  0.27004666377E+02  0.00000000000E+00 0.  1.
         21   -1    0    0  503  504 -0.00000000000E+00 -0.00000000000E+00 -0.82422842320E+03  0.82422842320E+03  0.00000000000E+00 0.  1.
         25    2    1    2    0    0 -0.69153111943E+02 -0.39943156217E+02 -0.44421893408E+03  0.46832739551E+03  0.12498991705E+03 0.  0.
         25    2    1    2    0    0  0.69153111943E+02  0.39943156217E+02 -0.35300482274E+03  0.38290569407E+03  0.12500702802E+03 0.  0.
          5    1    3    3  501    0 -0.22631634862E+02  0.45414609407E+02 -0.14752304341E+03  0.15607631461E+03  0.47000000000E+01 0. -1.
         -5    1    3    3    0  501 -0.46521477081E+02 -0.85357765623E+02 -0.29669589067E+03  0.31225108090E+03  0.47000000000E+01 0. -1.
          5    1    4    4  502    0 -0.49106674459E+01  0.68483129483E+02 -0.16184398244E+03  0.17586818453E+03  0.47000000000E+01 0. -1.
         -5    1    4    4    0  502  0.74063779389E+02 -0.28539973266E+02 -0.19116084030E+03  0.20703750954E+03  0.47000000000E+01 0. -1.
<mgrwt>
<rscale>  0 0.29838240E+03</rscale>
<asrwt>0</asrwt>
<pdfrwt beam="1">  1       21 0.41545642E-02 0.29838240E+03</pdfrwt>
<pdfrwt beam="2">  1       21 0.12680437E+00 0.29838240E+03</pdfrwt>
<totfact> 0.16321542E+05</totfact>
</mgrwt>
</event>
<event>
 8    1  0.9478272E-006  0.2592072E+03  0.7546771E-02  0.1107621E+00
         21   -1    0    0  504  503  0.00000000000E+00  0.00000000000E+00  0.35633562015E+03  0.35633562015E+03  0.00000000000E+00 0. -1.
         21   -1    0    0  503  504 -0.00000000000E+00 -0.00000000000E+00 -0.47138390847E+02  0.47138390847E+02  0.00000000000E+00 0. -1.
         25    2    1    2    0    0 -0.20191700571E+02  0.17030423630E+02  0.18848409273E+03  0.22770342518E+03  0.12499942610E+03 0.  0.
         25    2    1    2    0    0  0.20191700571E+02 -0.17030423630E+02  0.12071313657E+03  0.17577058581E+03  0.12500358953E+03 0.  0.
          5    1    3    3  501    0  0.24999106178E+01  0.23069520245E+02  0.19981361501E+03  0.20121138899E+03  0.47000000000E+01 0.  1.
         -5    1    3    3    0  501 -0.22691611188E+02 -0.60390966154E+01 -0.11329522280E+02  0.26492036187E+02  0.47000000000E+01 0.  1.
          5    1    4    4  502    0 -0.33764137305E+02 -0.49572217884E+02  0.36075635756E+02  0.70149577683E+02  0.47000000000E+01 0.  1.
         -5    1    4    4    0  502  0.53955837876E+02  0.32541794254E+02  0.84637500815E+02  0.10562100813E+03  0.47000000000E+01 0.  1.
<mgrwt>
<rscale>  0 0.25920716E+03</rscale>
<asrwt>0</asrwt>
<pdfrwt beam="1">  1       21 0.54820863E-01 0.25920716E+03</pdfrwt>
<pdfrwt beam="2">  1       21 0.72520604E-02 0.25920716E+03</pdfrwt>
<totfact> 0.44052638E+05</totfact>
</mgrwt>
</event>
<event>
 8    1  0.9478272E-006  0.2705961E+03  0.7546771E-02  0.1100939E+00
         21   -1    0    0  504  503  0.00000000000E+00  0.00000000000E+00  0.21191647791E+02  0.21191647791E+02  0.00000000000E+00 0. -1.
         21   -1    0    0  503  504 -0.00000000000E+00 -0.00000000000E+00 -0.86381026083E+03  0.86381026083E+03  0.00000000000E+00 0. -1.
         25    2    1    2    0    0 -0.30513109460E+02 -0.15658205489E+01 -0.28447595299E+03  0.31221886441E+03  0.12498219801E+03 0.  0.
         25    2    1    2    0    0  0.30513109460E+02  0.15658205489E+01 -0.55814266005E+03  0.57278304422E+03  0.12499474040E+03 0.  0.
          5    1    3    3  501    0  0.25789739765E+02  0.39279166827E+02 -0.18373765672E+03  0.18970919883E+03  0.47000000000E+01 0. -1.
         -5    1    3    3    0  501 -0.56302849225E+02 -0.40844987376E+02 -0.10073829627E+03  0.12250966558E+03  0.47000000000E+01 0. -1.
          5    1    4    4  502    0  0.70486453943E+02 -0.29253786600E+02 -0.29128121721E+03  0.30114940099E+03  0.47000000000E+01 0. -1.
         -5    1    4    4    0  502 -0.39973344482E+02  0.30819607149E+02 -0.26686144285E+03  0.27163364322E+03  0.47000000000E+01 0. -1.
<mgrwt>
<rscale>  0 0.27059610E+03</rscale>
<asrwt>0</asrwt>
<pdfrwt beam="1">  1       21 0.32602538E-02 0.27059610E+03</pdfrwt>
<pdfrwt beam="2">  1       21 0.13289387E+00 0.27059610E+03</pdfrwt>
<totfact> 0.21949419E+05</totfact>
</mgrwt>
</event>
<event>
 8    1  0.9478272E-006  0.5332281E+03  0.7546771E-02  0.1005452E+00
         21   -1    0    0  504  503  0.00000000000E+00  0.00000000000E+00  0.25946419058E+03  0.25946419058E+03  0.00000000000E+00 0.  1.
         21   -1    0    0  503  504 -0.00000000000E+00 -0.00000000000E+00 -0.27396089545E+03  0.27396089545E+03  0.00000000000E+00 0.  1.
         25    2    1    2    0    0 -0.23271783603E+03 -0.16378964208E+02 -0.39400315490E+02  0.26758631310E+03  0.12499675366E+03 0.  0.
         25    2    1    2    0    0  0.23271783603E+03  0.16378964208E+02  0.24903610624E+02  0.26583877293E+03  0.12499680674E+03 0.  0.
          5    1    3    3  501    0 -0.10034684643E+03  0.51374937249E+02 -0.37155543762E+02  0.11879182715E+03  0.47000000000E+01 0.  1.
         -5    1    3    3    0  501 -0.13237098959E+03 -0.67753901457E+02 -0.22447717284E+01  0.14879448595E+03  0.47000000000E+01 0.  1.
          5    1    4    4  502    0  0.13118128534E+03  0.13636259272E+02 -0.48315239606E+02  0.14053800044E+03  0.47000000000E+01 0.  1.
         -5    1    4    4    0  502  0.10153655069E+03  0.27427049365E+01  0.73218850231E+02  0.12530077248E+03  0.47000000000E+01 0.  1.
<mgrwt>
<rscale>  0 0.53322806E+03</rscale>
<asrwt>0</asrwt>
<pdfrwt beam="1">  1       21 0.39917568E-01 0.53322806E+03</pdfrwt>
<pdfrwt beam="2">  1       21 0.42147830E-01 0.53322806E+03</pdfrwt>
<totfact> 0.29341863E+04</totfact>
</mgrwt>
</event>
<event>
 8    1  0.9478272E-006  0.4169681E+03  0.7546771E-02  0.1038058E+00
         21   -1    0    0  504  503  0.00000000000E+00  0.00000000000E+00  0.27873725960E+03  0.27873725960E+03  0.00000000000E+00 0.  1.
         21   -1    0    0  503  504 -0.00000000000E+00 -0.00000000000E+00 -0.15593752637E+03  0.15593752637E+03  0.00000000000E+00 0.  1.
         25    2    1    2    0    0 -0.21947096821E+02  0.10353743600E+03 -0.73062007425E+02  0.17935606668E+03  0.12501546310E+03 0.  0.
         25    2    1    2    0    0  0.21947096821E+02 -0.10353743600E+03  0.19586174066E+03  0.25531871929E+03  0.12499660498E+03 0.  0.
          5    1    3    3  501    0 -0.11636991091E+02  0.39953432611E+02 -0.10073371408E+03  0.10909201388E+03  0.47000000000E+01 0. -1.
         -5    1    3    3    0  501 -0.10310105729E+02  0.63584003387E+02  0.27671706659E+02  0.70264052803E+02  0.47000000000E+01 0. -1.
          5    1    4    4  502    0  0.18072332400E+02 -0.12494958746E+03  0.19584295793E+03  0.23305699469E+03  0.47000000000E+01 0.  1.
         -5    1    4    4    0  502  0.38747644203E+01  0.21412151461E+02  0.18782731772E-01  0.22261724602E+02  0.47000000000E+01 0.  1.
<mgrwt>
<rscale>  0 0.41696810E+03</rscale>
<asrwt>0</asrwt>
<pdfrwt beam="1">  1       21 0.42882655E-01 0.41696810E+03</pdfrwt>
<pdfrwt beam="2">  1       21 0.23990389E-01 0.41696810E+03</pdfrwt>
<totfact> 0.80155217E+04</totfact>
</mgrwt>
</event>
<event>
 8    1  0.9478272E-006  0.3025097E+03  0.7546771E-02  0.1083993E+00
         21   -1    0    0  504  503  0.00000000000E+00  0.00000000000E+00  0.13181260646E+03  0.13181260646E+03  0.00000000000E+00 0. -1.
         21   -1    0    0  503  504 -0.00000000000E+00 -0.00000000000E+00 -0.17356483930E+03  0.17356483930E+03  0.00000000000E+00 0. -1.
         25    2    1    2    0    0 -0.42054871858E+00  0.77241997778E+02 -0.56937877540E+02  0.15765506125E+03  0.12508674333E+03 0.  0.
         25    2    1    2    0    0  0.42054871858E+00 -0.77241997778E+02  0.15185644697E+02  0.14772238450E+03  0.12499918398E+03 0.  0.
          5    1    3    3  501    0  0.71466366385E+01 -0.10090688381E+02  0.30812622669E+02  0.33532135676E+02  0.47000000000E+01 0. -1.
         -5    1    3    3    0  501 -0.75671853571E+01  0.87332686159E+02 -0.87750500209E+02  0.12412292557E+03  0.47000000000E+01 0. -1.
          5    1    4    4  502    0  0.38867107747E+02  0.18127646749E+01 -0.29446107890E+02  0.49021438680E+02  0.47000000000E+01 0.  1.
         -5    1    4    4    0  502 -0.38446559029E+02 -0.79054762453E+02  0.44631752587E+02  0.98700945824E+02  0.47000000000E+01 0.  1.
<mgrwt>
<rscale>  0 0.30250973E+03</rscale>
<asrwt>0</asrwt>
<pdfrwt beam="1">  1       21 0.20278863E-01 0.30250973E+03</pdfrwt>
<pdfrwt beam="2">  1       21 0.26702283E-01 0.30250973E+03</pdfrwt>
<totfact> 0.29278877E+05</totfact>
</mgrwt>
</event>
<event>
 8    1  0.9478272E-006  0.4401746E+03  0.7546771E-02  0.1030693E+00
         21   -1    0    0  504  503  0.00000000000E+00  0.00000000000E+00  0.61771399969E+02  0.61771399969E+02  0.00000000000E+00 0.  1.
         21   -1    0    0  503  504 -0.00000000000E+00 -0.00000000000E+00 -0.78415612014E+03  0.78415612014E+03  0.00000000000E+00 0.  1.
         25    2    1    2    0    0  0.11827074748E+03 -0.13650659291E+03 -0.38775655743E+03  0.44564911882E+03  0.12500387859E+03 0.  0.
         25    2    1    2    0    0 -0.11827074748E+03  0.13650659291E+03 -0.33462816275E+03  0.40027840129E+03  0.12499908647E+03 0.  0.
          5    1    3    3  501    0 -0.21412178597E+02 -0.21169572914E+02 -0.10893276626E+03  0.11311529417E+03  0.47000000000E+01 0. -1.
         -5    1    3    3    0  501  0.13968292608E+03 -0.11533702000E+03 -0.27882379117E+03  0.33253382466E+03  0.47000000000E+01 0. -1.
          5    1    4    4  502    0 -0.17933610661E+02  0.73514229040E+00  0.64773209329E+01  0.19651984937E+02  0.47000000000E+01 0. -1.
         -5    1    4    4    0  502 -0.10033713682E+03  0.13577145062E+03 -0.34110548368E+03  0.38062641635E+03  0.47000000000E+01 0. -1.
<mgrwt>
<rscale>  0 0.44017461E+03</rscale>
<asrwt>0</asrwt>
<pdfrwt beam="1">  1       21 0.95032924E-02 0.44017461E+03</pdfrwt>
<pdfrwt beam="2">  1       21 0.12063940E+00 0.44017461E+03</pdfrwt>
<totfact> 0.42261103E+04</totfact>
</mgrwt>
</event>
<event>
 8    1  0.9478272E-006  0.3013359E+03  0.7546771E-02  0.1084575E+00
         21   -1    0    0  504  503  0.00000000000E+00  0.00000000000E+00  0.34743479390E+02  0.34743479390E+02  0.00000000000E+00 0. -1.
         21   -1    0    0  503  504 -0.00000000000E+00 -0.00000000000E+00 -0.65338391820E+03  0.65338391820E+03  0.00000000000E+00 0. -1.
         25    2    1    2    0    0 -0.27123238306E+02 -0.68178609801E+02 -0.40312574333E+03  0.42839120099E+03  0.12499865304E+03 0.  0.
         25    2    1    2    0    0  0.27123238306E+02  0.68178609801E+02 -0.21551469549E+03  0.25973619661E+03  0.12502925644E+03 0.  0.
          5    1    3    3  501    0  0.28631141122E+02 -0.65770390065E+02 -0.12085461022E+03  0.14061796920E+03  0.47000000000E+01 0. -1.
         -5    1    3    3    0  501 -0.55754379428E+02 -0.24082197354E+01 -0.28227113310E+03  0.28777323178E+03  0.47000000000E+01 0. -1.
          5    1    4    4  502    0  0.10608869188E+02  0.39322751556E+02 -0.22181513583E+03  0.22557231962E+03  0.47000000000E+01 0.  1.
         -5    1    4    4    0  502  0.16514369118E+02  0.28855858245E+02  0.63004403396E+01  0.34163876989E+02  0.47000000000E+01 0.  1.
<mgrwt>
<rscale>  0 0.30133590E+03</rscale>
<asrwt>0</asrwt>
<pdfrwt beam="1">  1       21 0.53451508E-02 0.30133590E+03</pdfrwt>
<pdfrwt beam="2">  1       21 0.10052060E+00 0.30133590E+03</pdfrwt>
<totfact> 0.18840966E+05</totfact>
</mgrwt>
</event>
<event>
 8    1  0.9478272E-006  0.2656296E+03  0.7546771E-02  0.1103807E+00
         21   -1    0    0  504  503  0.00000000000E+00  0.00000000000E+00  0.19429224837E+03  0.19429224837E+03  0.00000000000E+00 0. -1.
         21   -1    0    0  503  504 -0.00000000000E+00 -0.00000000000E+00 -0.90789852939E+02  0.90789852939E+02  0.00000000000E+00 0. -1.
         25    2    1    2    0    0  0.31763506513E+02 -0.26136875857E+02  0.71053761310E+02  0.14954889812E+03  0.12499671718E+03 0.  0.
         25    2    1    2    0    0 -0.31763506513E+02  0.26136875857E+02  0.32448634122E+02  0.13553320319E+03  0.12499711471E+03 0.  0.
          5    1    3    3  501    0 -0.39640527269E+02 -0.39348960813E+01 -0.77052360710E+01  0.40845017716E+02  0.47000000000E+01 0. -1.
         -5    1    3    3    0  501  0.71404033782E+02 -0.22201979776E+02  0.78758997381E+02  0.10870388040E+03  0.47000000000E+01 0. -1.
          5    1    4    4  502    0 -0.69894863379E+02  0.26196225692E+02 -0.13116764539E+02  0.75932033288E+02  0.47000000000E+01 0. -1.
         -5    1    4    4    0  502  0.38131356866E+02 -0.59349834451E-01  0.45565398661E+02  0.59601169904E+02  0.47000000000E+01 0. -1.
<mgrwt>
<rscale>  0 0.26562955E+03</rscale>
<asrwt>0</asrwt>
<pdfrwt beam="1">  1       21 0.29891115E-01 0.26562955E+03</pdfrwt>
<pdfrwt beam="2">  1       21 0.13967670E-01 0.26562955E+03</pdfrwt>
<totfact> 0.47233191E+05</totfact>
</mgrwt>
</event>
<event>
 8    1  0.9478272E-006  0.3431576E+03  0.7546771E-02  0.1065459E+00
         21   -1    0    0  504  503  0.00000000000E+00  0.00000000000E+00  0.84532095084E+02  0.84532095084E+02  0.00000000000E+00 0. -1.
         21   -1    0    0  503  504 -0.00000000000E+00 -0.00000000000E+00 -0.34826152857E+03  0.34826152857E+03  0.00000000000E+00 0. -1.
         25    2    1    2    0    0  0.95476039025E+02  0.17919963250E+02 -0.21526325415E+03  0.26719866072E+03  0.12498022480E+03 0.  0.
         25    2    1    2    0    0 -0.95476039025E+02 -0.17919963250E+02 -0.48466179336E+02  0.16559496294E+03  0.12504368077E+03 0.  0.
          5    1    3    3  501    0  0.11958385358E+03  0.16647512069E+02 -0.12584871240E+03  0.17446325146E+03  0.47000000000E+01 0. -1.
         -5    1    3    3    0  501 -0.24107814558E+02  0.12724511803E+01 -0.89414541745E+02  0.92735409258E+02  0.47000000000E+01 0. -1.
          5    1    4    4  502    0 -0.12551483692E+03 -0.13537683974E+02 -0.30322436464E+02  0.12991837179E+03  0.47000000000E+01 0. -1.
         -5    1    4    4    0  502  0.30038797896E+02 -0.43822792753E+01 -0.18143742872E+02  0.35676591150E+02  0.47000000000E+01 0. -1.
<mgrwt>
<rscale>  0 0.34315755E+03</rscale>
<asrwt>0</asrwt>
<pdfrwt beam="1">  1       21 0.13004938E-01 0.34315755E+03</pdfrwt>
<pdfrwt beam="2">  1       21 0.53578696E-01 0.34315755E+03</pdfrwt>
<totfact> 0.16067690E+05</totfact>
</mgrwt>
</event>
<event>
 8    1  0.9478272E-006  0.5511019E+03  0.7546771E-02  0.1001239E+00
         21   -1    0    0  504  503  0.00000000000E+00  0.00000000000E+00  0.79451321298E+02  0.79451321298E+02  0.00000000000E+00 0.  1.
         21   -1    0    0  503  504 -0.00000000000E+00 -0.00000000000E+00 -0.95565844366E+03  0.95565844366E+03  0.00000000000E+00 0.  1.
         25    2    1    2    0    0 -0.13452276596E+03  0.20530427788E+03 -0.45236317365E+03  0.52962536674E+03  0.12499746855E+03 0.  0.
         25    2    1    2    0    0  0.13452276596E+03 -0.20530427788E+03 -0.42384394872E+03  0.50548439822E+03  0.12499825161E+03 0.  0.
          5    1    3    3  501    0 -0.11008639444E+03  0.11276993432E+03 -0.37388281605E+03  0.40576658619E+03  0.47000000000E+01 0. -1.
         -5    1    3    3    0  501 -0.24436371514E+02  0.92534343562E+02 -0.78480357594E+02  0.12385878055E+03  0.47000000000E+01 0. -1.
          5    1    4    4  502    0 -0.61365137430E+01 -0.14584576755E+02 -0.11495639446E+03  0.11613539214E+03  0.47000000000E+01 0.  1.
         -5    1    4    4    0  502  0.14065927970E+03 -0.19071970113E+03 -0.30888755426E+03  0.38934900608E+03  0.47000000000E+01 0.  1.
<mgrwt>
<rscale>  0 0.55110190E+03</rscale>
<asrwt>0</asrwt>
<pdfrwt beam="1">  1       21 0.12223280E-01 0.55110190E+03</pdfrwt>
<pdfrwt beam="2">  1       21 0.14702437E+00 0.55110190E+03</pdfrwt>
<totfact> 0.15503016E+04</totfact>
</mgrwt>
</event>
<event>
 8    1  0.9478272E-006  0.2875075E+03  0.7546771E-02  0.1091658E+00
         21   -1    0    0  504  503  0.00000000000E+00  0.00000000000E+00  0.10363522731E+03  0.10363522731E+03  0.00000000000E+00 0.  1.
         21   -1    0    0  503  504 -0.00000000000E+00 -0.00000000000E+00 -0.19940263116E+03  0.19940263116E+03  0.00000000000E+00 0.  1.
         25    2    1    2    0    0 -0.25265298832E+02 -0.50027873918E+02 -0.19520242640E+01  0.13700264477E+03  0.12499916312E+03 0.  0.
         25    2    1    2    0    0  0.25265298832E+02  0.50027873918E+02 -0.93815379582E+02  0.16603521370E+03  0.12500097299E+03 0.  0.
          5    1    3    3  501    0 -0.28691927242E+02  0.25873575861E+02  0.35037353297E+02  0.52367687965E+02  0.47000000000E+01 0.  1.
         -5    1    3    3    0  501  0.34266284102E+01 -0.75901449779E+02 -0.36989377561E+02  0.84634956804E+02  0.47000000000E+01 0.  1.
          5    1    4    4  502    0  0.73397070027E+02  0.13404215483E+02 -0.64137475833E+02  0.98501313125E+02  0.47000000000E+01 0.  1.
         -5    1    4    4    0  502 -0.48131771195E+02  0.36623658435E+02 -0.29677903749E+02  0.67533900572E+02  0.47000000000E+01 0.  1.
<mgrwt>
<rscale>  0 0.28750747E+03</rscale>
<asrwt>0</asrwt>
<pdfrwt beam="1">  1       21 0.15943881E-01 0.28750747E+03</pdfrwt>
<pdfrwt beam="2">  1       21 0.30677327E-01 0.28750747E+03</pdfrwt>
<totfact> 0.35063612E+05</totfact>
</mgrwt>
</event>
<event>
 8    1  0.9478272E-006  0.2709493E+03  0.7546771E-02  0.1100738E+00
         21   -1    0    0  504  503  0.00000000000E+00  0.00000000000E+00  0.17697671380E+02  0.17697671380E+02  0.00000000000E+00 0. -1.
         21   -1    0    0  503  504 -0.00000000000E+00 -0.00000000000E+00 -0.10370508887E+04  0.10370508887E+04  0.00000000000E+00 0. -1.
         25    2    1    2    0    0  0.31058018156E+02  0.82389896800E+01 -0.34936675685E+03  0.37244455854E+03  0.12500134780E+03 0.  0.
         25    2    1    2    0    0 -0.31058018156E+02 -0.82389896800E+01 -0.66998646048E+03  0.68230400155E+03  0.12499764742E+03 0.  0.
          5    1    3    3  501    0  0.25275102134E+02 -0.24764079402E+02 -0.33291431665E+03  0.33482252410E+03  0.47000000000E+01 0. -1.
         -5    1    3    3    0  501  0.57829160218E+01  0.33003069082E+02 -0.16452440199E+02  0.37622034435E+02  0.47000000000E+01 0. -1.
          5    1    4    4  502    0 -0.31756953967E+02  0.49963760586E+02 -0.19788409335E+03  0.20660369285E+03  0.47000000000E+01 0. -1.
         -5    1    4    4    0  502  0.69893581110E+00 -0.58202750266E+02 -0.47210236712E+03  0.47570030869E+03  0.47000000000E+01 0. -1.
<mgrwt>
<rscale>  0 0.27094934E+03</rscale>
<asrwt>0</asrwt>
<pdfrwt beam="1">  1       21 0.27227186E-02 0.27094934E+03</pdfrwt>
<pdfrwt beam="2">  1       21 0.15954629E+00 0.27094934E+03</pdfrwt>
<totfact> 0.18270748E+05</totfact>
</mgrwt>
</event>
<event>
 8    1  0.9478272E-006  0.3135328E+03  0.7546771E-02  0.1078665E+00
         21   -1    0    0  504  503  0.00000000000E+00  0.00000000000E+00  0.25874895650E+04  0.25874895650E+04  0.00000000000E+00 0. -1.
         21   -1    0    0  503  504 -0.00000000000E+00 -0.00000000000E+00 -0.94978960601E+01  0.94978960601E+01  0.00000000000E+00 0. -1.
         25    2    1    2    0    0  0.44267080055E+02 -0.22671605123E+02  0.19557447510E+04  0.19603661191E+04  0.12499685553E+03 0.  0.
         25    2    1    2    0    0 -0.44267080055E+02  0.22671605123E+02  0.62224691794E+03  0.63662134193E+03  0.12498771966E+03 0.  0.
          5    1    3    3  501    0 -0.28950872447E+01  0.80924065104E+01  0.10723134929E+02  0.14523918066E+02  0.47000000000E+01 0. -1.
         -5    1    3    3    0  501  0.47162167299E+02 -0.30764011634E+02  0.19450216161E+04  0.19458422010E+04  0.47000000000E+01 0. -1.
          5    1    4    4  502    0  0.15186206870E+02  0.15223003480E+01  0.48744459603E+03  0.48770612306E+03  0.47000000000E+01 0. -1.
         -5    1    4    4    0  502 -0.59453286924E+02  0.21149304775E+02  0.13480232191E+03  0.14891521887E+03  0.47000000000E+01 0. -1.
<mgrwt>
<rscale>  0 0.31353282E+03</rscale>
<asrwt>0</asrwt>
<pdfrwt beam="1">  1       21 0.39807476E+00 0.31353282E+03</pdfrwt>
<pdfrwt beam="2">  1       21 0.14612168E-02 0.31353282E+03</pdfrwt>
<totfact> 0.16348098E+04</totfact>
</mgrwt>
</event>
<event>
 8    1  0.9478272E-006  0.4085731E+03  0.7546771E-02  0.1040851E+00
         21   -1    0    0  504  503  0.00000000000E+00  0.00000000000E+00  0.40930107526E+03  0.40930107526E+03  0.00000000000E+00 0.  1.
         21   -1    0    0  503  504 -0.00000000000E+00 -0.00000000000E+00 -0.10196161043E+03  0.10196161043E+03  0.00000000000E+00 0.  1.
         25    2    1    2    0    0  0.21637094582E+02  0.15489310422E+03  0.10286884866E+03  0.22509287679E+03  0.12499906224E+03 0.  0.
         25    2    1    2    0    0 -0.21637094582E+02 -0.15489310422E+03  0.20447061617E+03  0.28616980889E+03  0.12499955620E+03 0.  0.
          5    1    3    3  501    0  0.43838774059E+02  0.52763250342E+02 -0.11914625005E+02  0.69784288968E+02  0.47000000000E+01 0. -1.
         -5    1    3    3    0  501 -0.22201679477E+02  0.10212985388E+03  0.11478347367E+03  0.15530858782E+03  0.47000000000E+01 0. -1.
          5    1    4    4  502    0  0.31214207237E+02 -0.51749098670E+02  0.14206385006E+03  0.15445557109E+03  0.47000000000E+01 0.  1.
         -5    1    4    4    0  502 -0.52851301820E+02 -0.10314400555E+03  0.62406766112E+02  0.13171423781E+03  0.47000000000E+01 0.  1.
<mgrwt>
<rscale>  0 0.40857311E+03</rscale>
<asrwt>0</asrwt>
<pdfrwt beam="1">  1       21 0.62969395E-01 0.40857311E+03</pdfrwt>
<pdfrwt beam="2">  1       21 0.15686402E-01 0.40857311E+03</pdfrwt>
<totfact> 0.79011074E+04</totfact>
</mgrwt>
</event>
<event>
 8    1  0.9478272E-006  0.3308491E+03  0.7546771E-02  0.1070762E+00
         21   -1    0    0  504  503  0.00000000000E+00  0.00000000000E+00  0.21018340441E+03  0.21018340441E+03  0.00000000000E+00 0. -1.
         21   -1    0    0  503  504 -0.00000000000E+00 -0.00000000000E+00 -0.13019716355E+03  0.13019716355E+03  0.00000000000E+00 0. -1.
         25    2    1    2    0    0 -0.21536677507E+02  0.12519540769E+02 -0.68494830770E+02  0.14469413627E+03  0.12499713536E+03 0.  0.
         25    2    1    2    0    0  0.21536677507E+02 -0.12519540769E+02  0.14848107163E+03  0.19568643169E+03  0.12500393408E+03 0.  0.
          5    1    3    3  501    0 -0.47762016154E+02  0.12757825321E+02  0.19047331685E+02  0.53187057996E+02  0.47000000000E+01 0. -1.
         -5    1    3    3    0  501  0.26225338647E+02 -0.23828455226E+00 -0.87542162455E+02  0.91507078272E+02  0.47000000000E+01 0. -1.
          5    1    4    4  502    0 -0.23445452527E+02  0.35391351758E+02  0.12369704415E+02  0.44467253241E+02  0.47000000000E+01 0.  1.
         -5    1    4    4    0  502  0.44982130034E+02 -0.47910892527E+02  0.13611136722E+03  0.15121917845E+03  0.47000000000E+01 0.  1.
<mgrwt>
<rscale>  0 0.33084911E+03</rscale>
<asrwt>0</asrwt>
<pdfrwt beam="1">  1       21 0.32335908E-01 0.33084911E+03</pdfrwt>
<pdfrwt beam="2">  1       21 0.20030333E-01 0.33084911E+03</pdfrwt>
<totfact> 0.20450841E+05</totfact>
</mgrwt>
</event>
<event>
 8    1  0.9478272E-006  0.3900278E+03  0.7546771E-02  0.1047288E+00
         21   -1    0    0  504  503  0.00000000000E+00  0.00000000000E+00  0.36699951379E+03  0.36699951379E+03  0.00000000000E+00 0. -1.
         21   -1    0    0  503  504 -0.00000000000E+00 -0.00000000000E+00 -0.10362527376E+03  0.10362527376E+03  0.00000000000E+00 0. -1.
         25    2    1    2    0    0  0.97197674161E+02  0.88586698773E+02  0.45435860794E+02  0.18704410528E+03  0.12500435517E+03 0.  0.
         25    2    1    2    0    0 -0.97197674161E+02 -0.88586698773E+02  0.21793837923E+03  0.28358068227E+03  0.12500350057E+03 0.  0.
          5    1    3    3  501    0  0.61563385003E+02  0.57379910115E+02  0.88956660476E+02  0.12254746795E+03  0.47000000000E+01 0.  1.
         -5    1    3    3    0  501  0.35634289158E+02  0.31206788658E+02 -0.43520799682E+02  0.64496637332E+02  0.47000000000E+01 0.  1.
          5    1    4    4  502    0 -0.10122704254E+03 -0.11552118420E+03  0.18066577055E+03  0.23717982374E+03  0.47000000000E+01 0.  1.
         -5    1    4    4    0  502  0.40293683752E+01  0.26934485428E+02  0.37272608687E+02  0.46400858538E+02  0.47000000000E+01 0.  1.
<mgrwt>
<rscale>  0 0.39002782E+03</rscale>
<asrwt>0</asrwt>
<pdfrwt beam="1">  1       21 0.56461463E-01 0.39002782E+03</pdfrwt>
<pdfrwt beam="2">  1       21 0.15942350E-01 0.39002782E+03</pdfrwt>
<totfact> 0.97683981E+04</totfact>
</mgrwt>
</event>
<event>
 8    1  0.9478272E-006  0.4457862E+03  0.7546771E-02  0.1028986E+00
         21   -1    0    0  504  503  0.00000000000E+00  0.00000000000E+00  0.75158373271E+02  0.75158373271E+02  0.00000000000E+00 0. -1.
         21   -1    0    0  503  504 -0.00000000000E+00 -0.00000000000E+00 -0.66102180406E+03  0.66102180406E+03  0.00000000000E+00 0. -1.
         25    2    1    2    0    0  0.15808128460E+03 -0.62180144751E+02 -0.17383228996E+03  0.27330983784E+03  0.12499815794E+03 0.  0.
         25    2    1    2    0    0 -0.15808128460E+03  0.62180144751E+02 -0.41203114083E+03  0.46287033949E+03  0.12499290870E+03 0.  0.
          5    1    3    3  501    0  0.12248232074E+03 -0.40249551403E+02 -0.43174377784E+02  0.13604433902E+03  0.47000000000E+01 0. -1.
         -5    1    3    3    0  501  0.35598963853E+02 -0.21930593348E+02 -0.13065791218E+03  0.13726549882E+03  0.47000000000E+01 0. -1.
          5    1    4    4  502    0 -0.17906850991E+03  0.50007563367E+02 -0.35675589894E+03  0.40232219559E+03  0.47000000000E+01 0. -1.
         -5    1    4    4    0  502  0.20987225313E+02  0.12172581384E+02 -0.55275241889E+02  0.60548143900E+02  0.47000000000E+01 0. -1.
<mgrwt>
<rscale>  0 0.44578615E+03</rscale>
<asrwt>0</asrwt>
<pdfrwt beam="1">  1       21 0.11562826E-01 0.44578615E+03</pdfrwt>
<pdfrwt beam="2">  1       21 0.10169566E+00 0.44578615E+03</pdfrwt>
<totfact> 0.45299010E+04</totfact>
</mgrwt>
</event>
<event>
 8    1  0.9478272E-006  0.2642222E+03  0.7546771E-02  0.1104633E+00
         21   -1    0    0  504  503  0.00000000000E+00  0.00000000000E+00  0.92892619999E+02  0.92892619999E+02  0.00000000000E+00 0. -1.
         21   -1    0    0  503  504 -0.00000000000E+00 -0.00000000000E+00 -0.18788735004E+03  0.18788735004E+03  0.00000000000E+00 0. -1.
         25    2    1    2    0    0 -0.28923251680E+02  0.27814252166E+02 -0.31841364234E+02  0.13509354964E+03  0.12500483017E+03 0.  0.
         25    2    1    2    0    0  0.28923251680E+02 -0.27814252166E+02 -0.63153365812E+02  0.14568642040E+03  0.12500399340E+03 0.  0.
          5    1    3    3  501    0 -0.35826994899E+02  0.28997794343E+02  0.40938594003E+02  0.61826403091E+02  0.47000000000E+01 0. -1.
         -5    1    3    3    0  501  0.69037432185E+01 -0.11835421777E+01 -0.72779958237E+02  0.73267146549E+02  0.47000000000E+01 0. -1.
          5    1    4    4  502    0  0.60017411971E+02 -0.48248241360E+02 -0.60732314492E+01  0.77388349732E+02  0.47000000000E+01 0. -1.
         -5    1    4    4    0  502 -0.31094160290E+02  0.20433989194E+02 -0.57080134363E+02  0.68298070671E+02  0.47000000000E+01 0. -1.
<mgrwt>
<rscale>  0 0.26422224E+03</rscale>
<asrwt>0</asrwt>
<pdfrwt beam="1">  1       21 0.14291172E-01 0.26422224E+03</pdfrwt>
<pdfrwt beam="2">  1       21 0.28905746E-01 0.26422224E+03</pdfrwt>
<totfact> 0.48386404E+05</totfact>
</mgrwt>
</event>
<event>
 8    1  0.9478272E-006  0.2962120E+03  0.7546771E-02  0.1087150E+00
         21   -1    0    0  504  503  0.00000000000E+00  0.00000000000E+00  0.25810390611E+03  0.25810390611E+03  0.00000000000E+00 0. -1.
         21   -1    0    0  503  504 -0.00000000000E+00 -0.00000000000E+00 -0.84986631015E+02  0.84986631015E+02  0.00000000000E+00 0. -1.
         25    2    1    2    0    0 -0.74351097349E+02 -0.23844440655E+02  0.69627683084E+02  0.16300200953E+03  0.12499999133E+03 0.  0.
         25    2    1    2    0    0  0.74351097349E+02  0.23844440655E+02  0.10348959201E+03  0.18008852760E+03  0.12500055636E+03 0.  0.
          5    1    3    3  501    0 -0.10436561410E+03 -0.35375313051E+02  0.69759136800E+02  0.13050678659E+03  0.47000000000E+01 0. -1.
         -5    1    3    3    0  501  0.30014516748E+02  0.11530872396E+02 -0.13145371563E+00  0.32495222940E+02  0.47000000000E+01 0. -1.
          5    1    4    4  502    0  0.49958002987E+02  0.70054832931E+02  0.92625505737E+02  0.12651109039E+03  0.47000000000E+01 0.  1.
         -5    1    4    4    0  502  0.24393094362E+02 -0.46210392275E+02  0.10864086278E+02  0.53577437205E+02  0.47000000000E+01 0.  1.
<mgrwt>
<rscale>  0 0.29621196E+03</rscale>
<asrwt>0</asrwt>
<pdfrwt beam="1">  1       21 0.39708293E-01 0.29621196E+03</pdfrwt>
<pdfrwt beam="2">  1       21 0.13074866E-01 0.29621196E+03</pdfrwt>
<totfact> 0.30020277E+05</totfact>
</mgrwt>
</event>
<event>
 8    1  0.9478272E-006  0.4709934E+03  0.7546771E-02  0.1021640E+00
         21   -1    0    0  504  503  0.00000000000E+00  0.00000000000E+00  0.10817725085E+03  0.10817725085E+03  0.00000000000E+00 0. -1.
         21   -1    0    0  503  504 -0.00000000000E+00 -0.00000000000E+00 -0.51266500316E+03  0.51266500316E+03  0.00000000000E+00 0. -1.
         25    2    1    2    0    0  0.12308755461E+03 -0.13248587044E+03 -0.31354131580E+03  0.38293135723E+03  0.12500086268E+03 0.  0.
         25    2    1    2    0    0 -0.12308755461E+03  0.13248587044E+03 -0.90946436500E+02  0.23791089678E+03  0.12500915378E+03 0.  0.
          5    1    3    3  501    0  0.11544594425E+03 -0.12060362783E+03 -0.16892823907E+03  0.23755386977E+03  0.47000000000E+01 0.  1.
         -5    1    3    3    0  501  0.76416103569E+01 -0.11882242612E+02 -0.14461307673E+03  0.14537748746E+03  0.47000000000E+01 0.  1.
          5    1    4    4  502    0  0.82523081449E+01  0.52932353420E+02 -0.61129854426E+02  0.81417957052E+02  0.47000000000E+01 0.  1.
         -5    1    4    4    0  502 -0.13133986275E+03  0.79553517021E+02 -0.29816582074E+02  0.15649293973E+03  0.47000000000E+01 0.  1.
<mgrwt>
<rscale>  0 0.47099338E+03</rscale>
<asrwt>0</asrwt>
<pdfrwt beam="1">  1       21 0.16642654E-01 0.47099338E+03</pdfrwt>
<pdfrwt beam="2">  1       21 0.78871538E-01 0.47099338E+03</pdfrwt>
<totfact> 0.42013287E+04</totfact>
</mgrwt>
</event>
<event>
 8    1  0.9478272E-006  0.3472579E+03  0.7546771E-02  0.1063746E+00
         21   -1    0    0  504  503  0.00000000000E+00  0.00000000000E+00  0.85134459042E+02  0.85134459042E+02  0.00000000000E+00 0. -1.
         21   -1    0    0  503  504 -0.00000000000E+00 -0.00000000000E+00 -0.35411058946E+03  0.35411058946E+03  0.00000000000E+00 0. -1.
         25    2    1    2    0    0 -0.78686960478E+02  0.26908045078E+02 -0.24168754281E+02  0.15206690519E+03  0.12499813731E+03 0.  0.
         25    2    1    2    0    0  0.78686960478E+02 -0.26908045078E+02 -0.24480737613E+03  0.28717814331E+03  0.12499981580E+03 0.  0.
          5    1    3    3  501    0 -0.10482312091E+03 -0.37942855360E+01 -0.34229850767E+00  0.10499757354E+03  0.47000000000E+01 0. -1.
         -5    1    3    3    0  501  0.26136160432E+02  0.30702330614E+02 -0.23826455773E+02  0.47069331650E+02  0.47000000000E+01 0. -1.
          5    1    4    4  502    0  0.71651786343E+02 -0.69869947750E+02 -0.20422513123E+03  0.22747699292E+03  0.47000000000E+01 0.  1.
         -5    1    4    4    0  502  0.70351741347E+01  0.42961902672E+02 -0.40582244905E+02  0.59701150390E+02  0.47000000000E+01 0.  1.
<mgrwt>
<rscale>  0 0.34725791E+03</rscale>
<asrwt>0</asrwt>
<pdfrwt beam="1">  1       21 0.13097609E-01 0.34725791E+03</pdfrwt>
<pdfrwt beam="2">  1       21 0.54478551E-01 0.34725791E+03</pdfrwt>
<totfact> 0.15292104E+05</totfact>
</mgrwt>
</event>
<event>
 8    1  0.9478272E-006  0.3666347E+03  0.7546771E-02  0.1055987E+00
         21   -1    0    0  504  503  0.00000000000E+00  0.00000000000E+00  0.11366651630E+03  0.11366651630E+03  0.00000000000E+00 0.  1.
         21   -1    0    0  503  504 -0.00000000000E+00 -0.00000000000E+00 -0.29564768917E+03  0.29564768917E+03  0.00000000000E+00 0.  1.
         25    2    1    2    0    0  0.10050315777E+03  0.50265743544E+01  0.79498109340E+01  0.16066944158E+03  0.12500127516E+03 0.  0.
         25    2    1    2    0    0 -0.10050315777E+03 -0.50265743544E+01 -0.18993098380E+03  0.24864476389E+03  0.12499715529E+03 0.  0.
          5    1    3    3  501    0 -0.19586462600E+02  0.20435128389E+01  0.32193712751E+02  0.38030653460E+02  0.47000000000E+01 0.  1.
         -5    1    3    3    0  501  0.12008962037E+03  0.29830615155E+01 -0.24243901817E+02  0.12263878812E+03  0.47000000000E+01 0.  1.
          5    1    4    4  502    0 -0.11077923909E+03 -0.43998015306E+02 -0.15075912192E+03  0.19224533286E+03  0.47000000000E+01 0. -1.
         -5    1    4    4    0  502  0.10276081325E+02  0.38971440952E+02 -0.39171861879E+02  0.56399431028E+02  0.47000000000E+01 0. -1.
<mgrwt>
<rscale>  0 0.36663466E+03</rscale>
<asrwt>0</asrwt>
<pdfrwt beam="1">  1       21 0.17487157E-01 0.36663466E+03</pdfrwt>
<pdfrwt beam="2">  1       21 0.45484259E-01 0.36663466E+03</pdfrwt>
<totfact> 0.13076224E+05</totfact>
</mgrwt>
</event>
<event>
 8    1  0.9478272E-006  0.4345775E+03  0.7546771E-02  0.1032424E+00
         21   -1    0    0  504  503  0.00000000000E+00  0.00000000000E+00  0.11742210712E+04  0.11742210712E+04  0.00000000000E+00 0.  1.
         21   -1    0    0  503  504 -0.00000000000E+00 -0.00000000000E+00 -0.40209124242E+02  0.40209124242E+02  0.00000000000E+00 0.  1.
         25    2    1    2    0    0  0.11834388106E+03  0.13067338431E+03  0.63004955573E+03  0.66608443315E+03  0.12500088744E+03 0.  0.
         25    2    1    2    0    0 -0.11834388106E+03 -0.13067338431E+03  0.50396239122E+03  0.54834576228E+03  0.12499670275E+03 0.  0.
          5    1    3    3  501    0  0.36306007377E+02  0.21525766152E+01  0.30297131452E+03  0.30518267838E+03  0.47000000000E+01 0. -1.
         -5    1    3    3    0  501  0.82037873686E+02  0.12852080769E+03  0.32707824121E+03  0.36090175478E+03  0.47000000000E+01 0. -1.
          5    1    4    4  502    0 -0.92750519778E+01 -0.86906894413E+01 -0.44224529703E+01  0.14254920639E+02  0.47000000000E+01 0.  1.
         -5    1    4    4    0  502 -0.10906882909E+03 -0.12198269486E+03  0.50838484419E+03  0.53409084164E+03  0.47000000000E+01 0.  1.
<mgrwt>
<rscale>  0 0.43457750E+03</rscale>
<asrwt>0</asrwt>
<pdfrwt beam="1">  1       21 0.18064937E+00 0.43457750E+03</pdfrwt>
<pdfrwt beam="2">  1       21 0.61860200E-02 0.43457750E+03</pdfrwt>
<totfact> 0.30248704E+04</totfact>
</mgrwt>
</event>
<event>
 8    1  0.9478272E-006  0.3552256E+03  0.7546771E-02  0.1060490E+00
         21   -1    0    0  504  503  0.00000000000E+00  0.00000000000E+00  0.21519865256E+03  0.21519865256E+03  0.00000000000E+00 0. -1.
         21   -1    0    0  503  504 -0.00000000000E+00 -0.00000000000E+00 -0.14659160064E+03  0.14659160064E+03  0.00000000000E+00 0. -1.
         25    2    1    2    0    0 -0.10312403113E+03  0.82605542149E+01  0.10788053587E+03  0.19484620477E+03  0.12499612370E+03 0.  0.
         25    2    1    2    0    0  0.10312403113E+03 -0.82605542149E+01 -0.39273483948E+02  0.16694404843E+03  0.12500042484E+03 0.  0.
          5    1    3    3  501    0 -0.97044699847E+02  0.53979962825E+02  0.96297206169E+02  0.14706036880E+03  0.47000000000E+01 0. -1.
         -5    1    3    3    0  501 -0.60793312882E+01 -0.45719408610E+02  0.11583329700E+02  0.47785835971E+02  0.47000000000E+01 0. -1.
          5    1    4    4  502    0  0.13020407068E+02 -0.83289732516E+01  0.42318280147E+02  0.45297126071E+02  0.47000000000E+01 0. -1.
         -5    1    4    4    0  502  0.90103624067E+02  0.68419036669E-01 -0.81591764095E+02  0.12164692236E+03  0.47000000000E+01 0. -1.
<mgrwt>
<rscale>  0 0.35522565E+03</rscale>
<asrwt>0</asrwt>
<pdfrwt beam="1">  1       21 0.33107485E-01 0.35522565E+03</pdfrwt>
<pdfrwt beam="2">  1       21 0.22552554E-01 0.35522565E+03</pdfrwt>
<totfact> 0.15490500E+05</totfact>
</mgrwt>
</event>
<event>
 8    1  0.9478272E-006  0.3020877E+03  0.7546771E-02  0.1084202E+00
         21   -1    0    0  504  503  0.00000000000E+00  0.00000000000E+00  0.14932889867E+03  0.14932889867E+03  0.00000000000E+00 0. -1.
         21   -1    0    0  503  504 -0.00000000000E+00 -0.00000000000E+00 -0.15277852208E+03  0.15277852208E+03  0.00000000000E+00 0. -1.
         25    2    1    2    0    0 -0.40150151979E+02 -0.59232171806E+02 -0.47256116911E+02  0.15156245742E+03  0.12497020858E+03 0.  0.
         25    2    1    2    0    0  0.40150151979E+02  0.59232171806E+02  0.43806493499E+02  0.15054496333E+03  0.12499716889E+03 0.  0.
          5    1    3    3  501    0  0.21402708095E+02  0.18324925138E+02 -0.43905439972E+02  0.52379924153E+02  0.47000000000E+01 0. -1.
         -5    1    3    3    0  501 -0.61552860074E+02 -0.77557096944E+02 -0.33506769398E+01  0.99182533269E+02  0.47000000000E+01 0. -1.
          5    1    4    4  502    0 -0.31204125181E+01 -0.23510627964E+02  0.51341370738E+02  0.56749563442E+02  0.47000000000E+01 0. -1.
         -5    1    4    4    0  502  0.43270564497E+02  0.82742799769E+02 -0.75348772395E+01  0.93795399890E+02  0.47000000000E+01 0. -1.
<mgrwt>
<rscale>  0 0.30208773E+03</rscale>
<asrwt>0</asrwt>
<pdfrwt beam="1">  1       21 0.22973677E-01 0.30208773E+03</pdfrwt>
<pdfrwt beam="2">  1       21 0.23504388E-01 0.30208773E+03</pdfrwt>
<totfact> 0.29544352E+05</totfact>
</mgrwt>
</event>
<event>
 8    1  0.9478272E-006  0.2803385E+03  0.7546771E-02  0.1095504E+00
         21   -1    0    0  504  503  0.00000000000E+00  0.00000000000E+00  0.99760882015E+02  0.99760882015E+02  0.00000000000E+00 0. -1.
         21   -1    0    0  503  504 -0.00000000000E+00 -0.00000000000E+00 -0.19694514490E+03  0.19694514490E+03  0.00000000000E+00 0. -1.
         25    2    1    2    0    0 -0.38492174047E+02 -0.43452156812E+01 -0.10173942914E+03  0.16576252502E+03  0.12500309954E+03 0.  0.
         25    2    1    2    0    0  0.38492174047E+02  0.43452156812E+01  0.45551662604E+01  0.13094350190E+03  0.12499969115E+03 0.  0.
          5    1    3    3  501    0 -0.16184968067E+02  0.51032013382E+02 -0.89866985691E+02  0.10471095787E+03  0.47000000000E+01 0. -1.
         -5    1    3    3    0  501 -0.22307205979E+02 -0.55377229063E+02 -0.11872443452E+02  0.61051567145E+02  0.47000000000E+01 0. -1.
          5    1    4    4  502    0  0.40131104178E+02 -0.35142483621E+02  0.48078432432E+02  0.71966140252E+02  0.47000000000E+01 0.  1.
         -5    1    4    4    0  502 -0.16389301318E+01  0.39487699303E+02 -0.43523266172E+02  0.58977361644E+02  0.47000000000E+01 0.  1.
<mgrwt>
<rscale>  0 0.28033852E+03</rscale>
<asrwt>0</asrwt>
<pdfrwt beam="1">  1       21 0.15347828E-01 0.28033852E+03</pdfrwt>
<pdfrwt beam="2">  1       21 0.30299253E-01 0.28033852E+03</pdfrwt>
<totfact> 0.38597311E+05</totfact>
</mgrwt>
</event>
<event>
 8    1  0.9478272E-006  0.3292618E+03  0.7546771E-02  0.1071464E+00
         21   -1    0    0  504  503  0.00000000000E+00  0.00000000000E+00  0.25825862192E+03  0.25825862192E+03  0.00000000000E+00 0.  1.
         21   -1    0    0  503  504 -0.00000000000E+00 -0.00000000000E+00 -0.10494646615E+03  0.10494646615E+03  0.00000000000E+00 0.  1.
         25    2    1    2    0    0 -0.10623906903E+03  0.76329241157E+01  0.64254902158E+02  0.17634942570E+03  0.12500170469E+03 0.  0.
         25    2    1    2    0    0  0.10623906903E+03 -0.76329241157E+01  0.89057253614E+02  0.18685566236E+03  0.12505535901E+03 0.  0.
          5    1    3    3  501    0 -0.94753031350E+02 -0.12187797690E+02 -0.12175871949E+02  0.96421062120E+02  0.47000000000E+01 0. -1.
         -5    1    3    3    0  501 -0.11486037676E+02  0.19820721806E+02  0.76430774107E+02  0.79928363582E+02  0.47000000000E+01 0. -1.
          5    1    4    4  502    0  0.40167624209E+02  0.13812145131E+02 -0.27691706663E+02  0.50922824015E+02  0.47000000000E+01 0. -1.
         -5    1    4    4    0  502  0.66071444817E+02 -0.21445069247E+02  0.11674896028E+03  0.13593283835E+03  0.47000000000E+01 0. -1.
<mgrwt>
<rscale>  0 0.32926178E+03</rscale>
<asrwt>0</asrwt>
<pdfrwt beam="1">  1       21 0.39732095E-01 0.32926178E+03</pdfrwt>
<pdfrwt beam="2">  1       21 0.16145610E-01 0.32926178E+03</pdfrwt>
<totfact> 0.20218986E+05</totfact>
</mgrwt>
</event>
<event>
 8    1  0.9478272E-006  0.3006457E+03  0.7546771E-02  0.1084918E+00
         21   -1    0    0  504  503  0.00000000000E+00  0.00000000000E+00  0.52954372158E+03  0.52954372158E+03  0.00000000000E+00 0. -1.
         21   -1    0    0  503  504 -0.00000000000E+00 -0.00000000000E+00 -0.42672508278E+02  0.42672508278E+02  0.00000000000E+00 0. -1.
         25    2    1    2    0    0 -0.78295457556E+02  0.15025677794E+02  0.29066765420E+03  0.32629600748E+03  0.12500179851E+03 0.  0.
         25    2    1    2    0    0  0.78295457556E+02 -0.15025677794E+02  0.19620355910E+03  0.24592022238E+03  0.12499987801E+03 0.  0.
          5    1    3    3  501    0  0.93187386045E+01  0.81058126111E+00  0.19659658643E+03  0.19687509677E+03  0.47000000000E+01 0. -1.
         -5    1    3    3    0  501 -0.87614196160E+02  0.14215096533E+02  0.94071067772E+02  0.12942091071E+03  0.47000000000E+01 0. -1.
          5    1    4    4  502    0  0.10146146647E+03  0.16005747430E+02  0.17082043689E+03  0.19937985051E+03  0.47000000000E+01 0.  1.
         -5    1    4    4    0  502 -0.23166008918E+02 -0.31031425224E+02  0.25383122215E+02  0.46540371872E+02  0.47000000000E+01 0.  1.
<mgrwt>
<rscale>  0 0.30064570E+03</rscale>
<asrwt>0</asrwt>
<pdfrwt beam="1">  1       21 0.81468260E-01 0.30064570E+03</pdfrwt>
<pdfrwt beam="2">  1       21 0.65650016E-02 0.30064570E+03</pdfrwt>
<totfact> 0.21637590E+05</totfact>
</mgrwt>
</event>
<event>
 8    1  0.9478272E-006  0.3528724E+03  0.7546771E-02  0.1061442E+00
         21   -1    0    0  504  503  0.00000000000E+00  0.00000000000E+00  0.37799300966E+02  0.37799300966E+02  0.00000000000E+00 0. -1.
         21   -1    0    0  503  504 -0.00000000000E+00 -0.00000000000E+00 -0.82355326710E+03  0.82355326710E+03  0.00000000000E+00 0. -1.
         25    2    1    2    0    0 -0.11772967991E+03  0.63639722111E+01 -0.29503771381E+03  0.34142730730E+03  0.12499830369E+03 0.  0.
         25    2    1    2    0    0  0.11772967991E+03 -0.63639722111E+01 -0.49071625232E+03  0.51992526076E+03  0.12497623299E+03 0.  0.
          5    1    3    3  501    0 -0.14290528794E+03  0.59551602811E+01 -0.22297402074E+03  0.26494695541E+03  0.47000000000E+01 0.  1.
         -5    1    3    3    0  501  0.25175608027E+02  0.40881192999E+00 -0.72063693070E+02  0.76480351893E+02  0.47000000000E+01 0.  1.
          5    1    4    4  502    0  0.56755137958E+02  0.29062450505E+02 -0.39924008128E+03  0.40432722418E+03  0.47000000000E+01 0.  1.
         -5    1    4    4    0  502  0.60974541955E+02 -0.35426422716E+02 -0.91476171043E+02  0.11559803658E+03  0.47000000000E+01 0.  1.
<mgrwt>
<rscale>  0 0.35287243E+03</rscale>
<asrwt>0</asrwt>
<pdfrwt beam="1">  1       21 0.58152772E-02 0.35287243E+03</pdfrwt>
<pdfrwt beam="2">  1       21 0.12670050E+00 0.35287243E+03</pdfrwt>
<totfact> 0.90559435E+04</totfact>
</mgrwt>
</event>
<event>
 8    1  0.9478272E-006  0.4190541E+03  0.7546771E-02  0.1037375E+00
         21   -1    0    0  504  503  0.00000000000E+00  0.00000000000E+00  0.18103709577E+03  0.18103709577E+03  0.00000000000E+00 0. -1.
         21   -1    0    0  503  504 -0.00000000000E+00 -0.00000000000E+00 -0.24250045664E+03  0.24250045664E+03  0.00000000000E+00 0. -1.
         25    2    1    2    0    0 -0.15594012153E+03  0.49018147324E+02  0.91157715357E+01  0.20598112608E+03  0.12500010696E+03 0.  0.
         25    2    1    2    0    0  0.15594012153E+03 -0.49018147324E+02 -0.70579132400E+02  0.21755642633E+03  0.12501713658E+03 0.  0.
          5    1    3    3  501    0 -0.12761767259E+03  0.86991633311E+02  0.23398104902E+02  0.15627980015E+03  0.47000000000E+01 0. -1.
         -5    1    3    3    0  501 -0.28322448940E+02 -0.37973485987E+02 -0.14282333366E+02  0.49701325921E+02  0.47000000000E+01 0. -1.
          5    1    4    4  502    0  0.19846037091E+02 -0.65008731019E+02 -0.16032344731E+02  0.69993759540E+02  0.47000000000E+01 0. -1.
         -5    1    4    4    0  502  0.13609408444E+03  0.15990583696E+02 -0.54546787669E+02  0.14756266679E+03  0.47000000000E+01 0. -1.
<mgrwt>
<rscale>  0 0.41905407E+03</rscale>
<asrwt>0</asrwt>
<pdfrwt beam="1">  1       21 0.27851861E-01 0.41905407E+03</pdfrwt>
<pdfrwt beam="2">  1       21 0.37307763E-01 0.41905407E+03</pdfrwt>
<totfact> 0.79754465E+04</totfact>
</mgrwt>
</event>
<event>
 8    1  0.9478272E-006  0.3126810E+03  0.7546771E-02  0.1079068E+00
         21   -1    0    0  504  503  0.00000000000E+00  0.00000000000E+00  0.84922170140E+03  0.84922170140E+03  0.00000000000E+00 0.  1.
         21   -1    0    0  503  504 -0.00000000000E+00 -0.00000000000E+00 -0.28782067808E+02  0.28782067808E+02  0.00000000000E+00 0.  1.
         25    2    1    2    0    0  0.88876871650E+02  0.29566122741E+02  0.42872644595E+03  0.45629637609E+03  0.12500705360E+03 0.  0.
         25    2    1    2    0    0 -0.88876871650E+02 -0.29566122741E+02  0.39171318765E+03  0.42170739312E+03  0.12499860043E+03 0.  0.
          5    1    3    3  501    0  0.11132555146E+03  0.56448585134E+01  0.38836556928E+03  0.40407319663E+03  0.47000000000E+01 0.  1.
         -5    1    3    3    0  501 -0.22448679806E+02  0.23921264228E+02  0.40360876673E+02  0.52223179462E+02  0.47000000000E+01 0.  1.
          5    1    4    4  502    0 -0.41792091613E+00 -0.39006166262E+02  0.25838939767E+03  0.26135957318E+03  0.47000000000E+01 0.  1.
         -5    1    4    4    0  502 -0.88458950734E+02  0.94400435204E+01  0.13332378998E+03  0.16034781994E+03  0.47000000000E+01 0.  1.
<mgrwt>
<rscale>  0 0.31268103E+03</rscale>
<asrwt>0</asrwt>
<pdfrwt beam="1">  1       21 0.13064947E+00 0.31268103E+03</pdfrwt>
<pdfrwt beam="2">  1       21 0.44280111E-02 0.31268103E+03</pdfrwt>
<totfact> 0.13514373E+05</totfact>
</mgrwt>
</event>
<event>
 8    1  0.9478272E-006  0.2588164E+03  0.7546771E-02  0.1107856E+00
         21   -1    0    0  504  503  0.00000000000E+00  0.00000000000E+00  0.10375866036E+04  0.10375866036E+04  0.00000000000E+00 0.  1.
         21   -1    0    0  503  504 -0.00000000000E+00 -0.00000000000E+00 -0.16139846505E+02  0.16139846505E+02  0.00000000000E+00 0.  1.
         25    2    1    2    0    0 -0.35972715028E+01 -0.28374375959E+02  0.43976462694E+03  0.45807808371E+03  0.12499823238E+03 0.  0.
         25    2    1    2    0    0  0.35972715028E+01  0.28374375959E+02  0.58168213015E+03  0.59564836639E+03  0.12499932107E+03 0.  0.
          5    1    3    3  501    0 -0.41353342610E+02  0.10490181764E+02  0.56399178391E+02  0.70873832841E+02  0.47000000000E+01 0.  1.
         -5    1    3    3    0  501  0.37756071107E+02 -0.38864557723E+02  0.38336544855E+03  0.38720425087E+03  0.47000000000E+01 0.  1.
          5    1    4    4  502    0  0.37102806588E+02 -0.38248535464E+02  0.24698830222E+03  0.25271501766E+03  0.47000000000E+01 0.  1.
         -5    1    4    4    0  502 -0.33505535086E+02  0.66622911423E+02  0.33469382794E+03  0.34293334873E+03  0.47000000000E+01 0.  1.
<mgrwt>
<rscale>  0 0.25881645E+03</rscale>
<asrwt>0</asrwt>
<pdfrwt beam="1">  1       21 0.15962866E+00 0.25881645E+03</pdfrwt>
<pdfrwt beam="2">  1       21 0.24830541E-02 0.25881645E+03</pdfrwt>
<totfact> 0.21339586E+05</totfact>
</mgrwt>
</event>
<event>
 8    1  0.9478272E-006  0.3774551E+03  0.7546771E-02  0.1051878E+00
         21   -1    0    0  504  503  0.00000000000E+00  0.00000000000E+00  0.47354327545E+03  0.47354327545E+03  0.00000000000E+00 0. -1.
         21   -1    0    0  503  504 -0.00000000000E+00 -0.00000000000E+00 -0.75216106816E+02  0.75216106816E+02  0.00000000000E+00 0. -1.
         25    2    1    2    0    0  0.90087776513E+02  0.10891104226E+03  0.20479202292E+03  0.27846350284E+03  0.12499890861E+03 0.  0.
         25    2    1    2    0    0 -0.90087776513E+02 -0.10891104226E+03  0.19353514571E+03  0.27029587943E+03  0.12500634868E+03 0.  0.
          5    1    3    3  501    0  0.68814635820E+01 -0.27547485809E+02  0.32291961761E+02  0.43255974267E+02  0.47000000000E+01 0. -1.
         -5    1    3    3    0  501  0.83206312931E+02  0.13645852807E+03  0.17250006116E+03  0.23520752857E+03  0.47000000000E+01 0. -1.
          5    1    4    4  502    0 -0.20946470104E+01  0.26502466679E+02  0.24254994829E+02  0.36292741152E+02  0.47000000000E+01 0. -1.
         -5    1    4    4    0  502 -0.87993129503E+02 -0.13541350894E+03  0.16928015088E+03  0.23400313828E+03  0.47000000000E+01 0. -1.
<mgrwt>
<rscale>  0 0.37745507E+03</rscale>
<asrwt>0</asrwt>
<pdfrwt beam="1">  1       21 0.72852809E-01 0.37745507E+03</pdfrwt>
<pdfrwt beam="2">  1       21 0.11571709E-01 0.37745507E+03</pdfrwt>
<totfact> 0.10039773E+05</totfact>
</mgrwt>
</event>
<event>
 8    1  0.9478272E-006  0.2689035E+03  0.7546771E-02  0.1101909E+00
         21   -1    0    0  504  503  0.00000000000E+00  0.00000000000E+00  0.30650809043E+02  0.30650809043E+02  0.00000000000E+00 0.  1.
         21   -1    0    0  503  504 -0.00000000000E+00 -0.00000000000E+00 -0.58978132021E+03  0.58978132021E+03  0.00000000000E+00 0.  1.
         25    2    1    2    0    0  0.72384079690E+01  0.30966205960E+02 -0.19195150607E+03  0.23125809199E+03  0.12499449575E+03 0.  0.
         25    2    1    2    0    0 -0.72384079690E+01 -0.30966205960E+02 -0.36717900510E+03  0.38917403726E+03  0.12499883612E+03 0.  0.
          5    1    3    3  501    0  0.23178312858E+02  0.74076495402E+02 -0.14950181539E+03  0.16851541224E+03  0.47000000000E+01 0.  1.
         -5    1    3    3    0  501 -0.15939904889E+02 -0.43110289442E+02 -0.42449690679E+02  0.62742679751E+02  0.47000000000E+01 0.  1.
          5    1    4    4  502    0 -0.44205901629E+02 -0.36917994115E+02 -0.75560924317E+02  0.95124357090E+02  0.47000000000E+01 0. -1.
         -5    1    4    4    0  502  0.36967493660E+02  0.59517881550E+01 -0.29161808078E+03  0.29404968017E+03  0.47000000000E+01 0. -1.
<mgrwt>
<rscale>  0 0.26890351E+03</rscale>
<asrwt>0</asrwt>
<pdfrwt beam="1">  1       21 0.47155094E-02 0.26890351E+03</pdfrwt>
<pdfrwt beam="2">  1       21 0.90735581E-01 0.26890351E+03</pdfrwt>
<totfact> 0.29997520E+05</totfact>
</mgrwt>
</event>
<event>
 8    1  0.9478272E-006  0.2953868E+03  0.7546771E-02  0.1087570E+00
         21   -1    0    0  504  503  0.00000000000E+00  0.00000000000E+00  0.38685549817E+02  0.38685549817E+02  0.00000000000E+00 0. -1.
         21   -1    0    0  503  504 -0.00000000000E+00 -0.00000000000E+00 -0.56386274426E+03  0.56386274426E+03  0.00000000000E+00 0. -1.
         25    2    1    2    0    0 -0.22545888530E+02  0.49724627789E+01 -0.41613004058E+03  0.43511463878E+03  0.12500998252E+03 0.  0.
         25    2    1    2    0    0  0.22545888530E+02 -0.49724627789E+01 -0.10904715387E+03  0.16743365530E+03  0.12493880376E+03 0.  0.
          5    1    3    3  501    0 -0.30777575424E+02 -0.37740247260E+02 -0.65446828961E+02  0.81712684653E+02  0.47000000000E+01 0. -1.
         -5    1    3    3    0  501  0.82316868932E+01  0.42712710039E+02 -0.35068321162E+03  0.35340195412E+03  0.47000000000E+01 0. -1.
          5    1    4    4  502    0  0.68959081602E+02 -0.27079703917E+02 -0.52858703628E+02  0.91130663603E+02  0.47000000000E+01 0. -1.
         -5    1    4    4    0  502 -0.46413193071E+02  0.22107241139E+02 -0.56188450239E+02  0.76302991698E+02  0.47000000000E+01 0. -1.
<mgrwt>
<rscale>  0 0.29538680E+03</rscale>
<asrwt>0</asrwt>
<pdfrwt beam="1">  1       21 0.59516234E-02 0.29538680E+03</pdfrwt>
<pdfrwt beam="2">  1       21 0.86748110E-01 0.29538680E+03</pdfrwt>
<totfact> 0.22209605E+05</totfact>
</mgrwt>
</event>
<event>
 8    1  0.9478272E-006  0.3086982E+03  0.7546771E-02  0.1080972E+00
         21   -1    0    0  504  503  0.00000000000E+00  0.00000000000E+00  0.11636433375E+03  0.11636433375E+03  0.00000000000E+00 0. -1.
         21   -1    0    0  503  504 -0.00000000000E+00 -0.00000000000E+00 -0.20473324747E+03  0.20473324747E+03  0.00000000000E+00 0. -1.
         25    2    1    2    0    0 -0.26770404460E+02  0.86436509067E+02 -0.40763797632E+02  0.15960523766E+03  0.12499688010E+03 0.  0.
         25    2    1    2    0    0  0.26770404460E+02 -0.86436509067E+02 -0.47605116083E+02  0.16149234357E+03  0.12500242117E+03 0.  0.
          5    1    3    3  501    0 -0.13822488183E+02  0.24624666690E+02  0.44793785851E+02  0.53160216704E+02  0.47000000000E+01 0.  1.
         -5    1    3    3    0  501 -0.12947916276E+02  0.61811842377E+02 -0.85557583483E+02  0.10644502095E+03  0.47000000000E+01 0.  1.
          5    1    4    4  502    0 -0.15592321996E+02 -0.63301207336E+02 -0.79898088022E+02  0.10322769892E+03  0.47000000000E+01 0.  1.
         -5    1    4    4    0  502  0.42362726456E+02 -0.23135301730E+02  0.32292971939E+02  0.58264644645E+02  0.47000000000E+01 0.  1.
<mgrwt>
<rscale>  0 0.30869822E+03</rscale>
<asrwt>0</asrwt>
<pdfrwt beam="1">  1       21 0.17902205E-01 0.30869822E+03</pdfrwt>
<pdfrwt beam="2">  1       21 0.31497423E-01 0.30869822E+03</pdfrwt>
<totfact> 0.26729017E+05</totfact>
</mgrwt>
</event>
<event>
 8    1  0.9478272E-006  0.4190909E+03  0.7546771E-02  0.1037363E+00
         21   -1    0    0  504  503  0.00000000000E+00  0.00000000000E+00  0.34120849414E+02  0.34120849414E+02  0.00000000000E+00 0. -1.
         21   -1    0    0  503  504 -0.00000000000E+00 -0.00000000000E+00 -0.12868758183E+04  0.12868758183E+04  0.00000000000E+00 0. -1.
         25    2    1    2    0    0  0.10145040656E+03  0.14987036153E+02 -0.20624087042E+03  0.26206654119E+03  0.12500711633E+03 0.  0.
         25    2    1    2    0    0 -0.10145040656E+03 -0.14987036153E+02 -0.10465140985E+04  0.10589301266E+04  0.12499783335E+03 0.  0.
          5    1    3    3  501    0  0.56838951255E+02  0.54591147448E+02 -0.46827144037E+02  0.91791781648E+02  0.47000000000E+01 0.  1.
         -5    1    3    3    0  501  0.44611455302E+02 -0.39604111295E+02 -0.15941372639E+03  0.17027475954E+03  0.47000000000E+01 0.  1.
          5    1    4    4  502    0 -0.30479487569E+02  0.47298833165E+02 -0.22428869125E+03  0.23128702039E+03  0.47000000000E+01 0.  1.
         -5    1    4    4    0  502 -0.70970918988E+02 -0.62285869318E+02 -0.82222540726E+03  0.82764310618E+03  0.47000000000E+01 0.  1.
<mgrwt>
<rscale>  0 0.41909090E+03</rscale>
<asrwt>0</asrwt>
<pdfrwt beam="1">  1       21 0.52493616E-02 0.41909090E+03</pdfrwt>
<pdfrwt beam="2">  1       21 0.19798089E+00 0.41909090E+03</pdfrwt>
<totfact> 0.30755164E+04</totfact>
</mgrwt>
</event>
<event>
 8    1  0.9478272E-006  0.2528532E+03  0.7546771E-02  0.1111515E+00
         21   -1    0    0  504  503  0.00000000000E+00  0.00000000000E+00  0.16653358289E+03  0.16653358289E+03  0.00000000000E+00 0.  1.
         21   -1    0    0  503  504 -0.00000000000E+00 -0.00000000000E+00 -0.95978755842E+02  0.95978755842E+02  0.00000000000E+00 0.  1.
         25    2    1    2    0    0 -0.15290457225E+02  0.33874983179E+01  0.24163644222E+02  0.12826343127E+03  0.12498941104E+03 0.  0.
         25    2    1    2    0    0  0.15290457225E+02 -0.33874983179E+01  0.46391182824E+02  0.13424890746E+03  0.12500141632E+03 0.  0.
          5    1    3    3  501    0  0.12117694729E+02  0.49994069422E+02 -0.22827079482E+02  0.56474871054E+02  0.47000000000E+01 0. -1.
         -5    1    3    3    0  501 -0.27408151955E+02 -0.46606571104E+02  0.46990723705E+02  0.71788560216E+02  0.47000000000E+01 0. -1.
          5    1    4    4  502    0 -0.42705210680E+02  0.30856185861E+02  0.40225969908E+02  0.66453426399E+02  0.47000000000E+01 0. -1.
         -5    1    4    4    0  502  0.57995667905E+02 -0.34243684179E+02  0.61652129168E+01  0.67795481061E+02  0.47000000000E+01 0. -1.
<mgrwt>
<rscale>  0 0.25285321E+03</rscale>
<asrwt>0</asrwt>
<pdfrwt beam="1">  1       21 0.25620551E-01 0.25285321E+03</pdfrwt>
<pdfrwt beam="2">  1       21 0.14765962E-01 0.25285321E+03</pdfrwt>
<totfact> 0.57714923E+05</totfact>
</mgrwt>
</event>
<event>
 8    1  0.9478272E-006  0.5188350E+03  0.7546771E-02  0.1008976E+00
         21   -1    0    0  504  503  0.00000000000E+00  0.00000000000E+00  0.67147463286E+02  0.67147463286E+02  0.00000000000E+00 0.  1.
         21   -1    0    0  503  504 -0.00000000000E+00 -0.00000000000E+00 -0.10022335511E+04  0.10022335511E+04  0.00000000000E+00 0.  1.
         25    2    1    2    0    0  0.98107045349E+00  0.10366835806E+02 -0.93557838552E+03  0.94394916321E+03  0.12499869391E+03 0.  0.
         25    2    1    2    0    0 -0.98107045349E+00 -0.10366835806E+02  0.49229768311E+00  0.12543185120E+03  0.12499789260E+03 0.  0.
          5    1    3    3  501    0  0.97899216759E+01 -0.46431320605E+02 -0.18118496562E+03  0.18735472203E+03  0.47000000000E+01 0. -1.
         -5    1    3    3    0  501 -0.88088512224E+01  0.56798156411E+02 -0.75439341990E+03  0.75659444118E+03  0.47000000000E+01 0. -1.
          5    1    4    4  502    0 -0.35500635113E+02 -0.29655394933E+02  0.45694670953E+02  0.65190724000E+02  0.47000000000E+01 0.  1.
         -5    1    4    4    0  502  0.34519564660E+02  0.19288559127E+02 -0.45202373270E+02  0.60241127204E+02  0.47000000000E+01 0.  1.
<mgrwt>
<rscale>  0 0.51883500E+03</rscale>
<asrwt>0</asrwt>
<pdfrwt beam="1">  1       21 0.10330379E-01 0.51883500E+03</pdfrwt>
<pdfrwt beam="2">  1       21 0.15418977E+00 0.51883500E+03</pdfrwt>
<totfact> 0.18637330E+04</totfact>
</mgrwt>
</event>
<event>
 8    1  0.9478272E-006  0.3205259E+03  0.7546771E-02  0.1075408E+00
         21   -1    0    0  504  503  0.00000000000E+00  0.00000000000E+00  0.24046803542E+02  0.24046803542E+02  0.00000000000E+00 0.  1.
         21   -1    0    0  503  504 -0.00000000000E+00 -0.00000000000E+00 -0.10680926475E+04  0.10680926475E+04  0.00000000000E+00 0.  1.
         25    2    1    2    0    0  0.82281939002E+02 -0.14393483141E+02 -0.33294492761E+03  0.36531988402E+03  0.12501521108E+03 0.  0.
         25    2    1    2    0    0 -0.82281939002E+02  0.14393483141E+02 -0.71110091632E+03  0.72681956699E+03  0.12499871969E+03 0.  0.
          5    1    3    3  501    0  0.11477147640E+03 -0.35263616368E+01 -0.23850589489E+03  0.26474908672E+03  0.47000000000E+01 0.  1.
         -5    1    3    3    0  501 -0.32489537396E+02 -0.10867121504E+02 -0.94439032719E+02  0.10057079731E+03  0.47000000000E+01 0.  1.
          5    1    4    4  502    0 -0.94570793874E+02 -0.30000099909E+02 -0.39255522433E+03  0.40492633305E+03  0.47000000000E+01 0. -1.
         -5    1    4    4    0  502  0.12288854873E+02  0.44393583050E+02 -0.31854569199E+03  0.32189323394E+03  0.47000000000E+01 0. -1.
<mgrwt>
<rscale>  0 0.32052591E+03</rscale>
<asrwt>0</asrwt>
<pdfrwt beam="1">  1       21 0.36995081E-02 0.32052591E+03</pdfrwt>
<pdfrwt beam="2">  1       21 0.16432195E+00 0.32052591E+03</pdfrwt>
<totfact> 0.99193624E+04</totfact>
</mgrwt>
</event>
<event>
 8    1  0.9478272E-006  0.3325779E+03  0.7546771E-02  0.1070002E+00
         21   -1    0    0  504  503  0.00000000000E+00  0.00000000000E+00  0.28233417033E+03  0.28233417033E+03  0.00000000000E+00 0. -1.
         21   -1    0    0  503  504 -0.00000000000E+00 -0.00000000000E+00 -0.97940736579E+02  0.97940736579E+02  0.00000000000E+00 0. -1.
         25    2    1    2    0    0 -0.56608355755E+02 -0.72309002461E+02  0.23642811926E+02  0.15689749274E+03  0.12499897157E+03 0.  0.
         25    2    1    2    0    0  0.56608355755E+02  0.72309002461E+02  0.16075062182E+03  0.22337741417E+03  0.12499443574E+03 0.  0.
          5    1    3    3  501    0 -0.39775941851E+02 -0.10667435831E+03  0.49555637177E+01  0.11405346064E+03  0.47000000000E+01 0. -1.
         -5    1    3    3    0  501 -0.16832413904E+02  0.34365355853E+02  0.18687248209E+02  0.42844032097E+02  0.47000000000E+01 0. -1.
          5    1    4    4  502    0  0.61692899342E+02  0.10432057511E+03  0.11522875760E+03  0.16729779676E+03  0.47000000000E+01 0.  1.
         -5    1    4    4    0  502 -0.50845435869E+01 -0.32011572652E+02  0.45521864222E+02  0.56079617415E+02  0.47000000000E+01 0.  1.
<mgrwt>
<rscale>  0 0.33257791E+03</rscale>
<asrwt>0</asrwt>
<pdfrwt beam="1">  1       21 0.43436026E-01 0.33257791E+03</pdfrwt>
<pdfrwt beam="2">  1       21 0.15067806E-01 0.33257791E+03</pdfrwt>
<totfact> 0.19111872E+05</totfact>
</mgrwt>
</event>
<event>
 8    1  0.9478272E-006  0.3396479E+03  0.7546771E-02  0.1066946E+00
         21   -1    0    0  504  503  0.00000000000E+00  0.00000000000E+00  0.32931417483E+03  0.32931417483E+03  0.00000000000E+00 0. -1.
         21   -1    0    0  503  504 -0.00000000000E+00 -0.00000000000E+00 -0.87576484147E+02  0.87576484147E+02  0.00000000000E+00 0. -1.
         25    2    1    2    0    0  0.80221909448E+02  0.53493133981E+01  0.22171646579E+03  0.26692236054E+03  0.12500074178E+03 0.  0.
         25    2    1    2    0    0 -0.80221909448E+02 -0.53493133981E+01  0.20021224886E+02  0.14996829843E+03  0.12500188470E+03 0.  0.
          5    1    3    3  501    0 -0.12700972329E+02 -0.18589885883E+02 -0.23584751496E+01  0.23120358135E+02  0.47000000000E+01 0. -1.
         -5    1    3    3    0  501  0.92922881777E+02  0.23939199281E+02  0.22407494094E+03  0.24380200241E+03  0.47000000000E+01 0. -1.
          5    1    4    4  502    0 -0.50478101123E+02 -0.63723546140E+02  0.45047766022E+00  0.81431087158E+02  0.47000000000E+01 0. -1.
         -5    1    4    4    0  502 -0.29743808325E+02  0.58374232742E+02  0.19570747226E+02  0.68537211271E+02  0.47000000000E+01 0. -1.
<mgrwt>
<rscale>  0 0.33964792E+03</rscale>
<asrwt>0</asrwt>
<pdfrwt beam="1">  1       21 0.50663718E-01 0.33964792E+03</pdfrwt>
<pdfrwt beam="2">  1       21 0.13473305E-01 0.33964792E+03</pdfrwt>
<totfact> 0.16978410E+05</totfact>
</mgrwt>
</event>
<event>
 8    1  0.9478272E-006  0.4453564E+03  0.7546771E-02  0.1029116E+00
         21   -1    0    0  504  503  0.00000000000E+00  0.00000000000E+00  0.50000708946E+03  0.50000708946E+03  0.00000000000E+00 0. -1.
         21   -1    0    0  503  504 -0.00000000000E+00 -0.00000000000E+00 -0.99169766488E+02  0.99169766488E+02  0.00000000000E+00 0. -1.
         25    2    1    2    0    0  0.57814045922E+02  0.15688041028E+03  0.30467932538E+03  0.36933598804E+03  0.12500261481E+03 0.  0.
         25    2    1    2    0    0 -0.57814045922E+02 -0.15688041028E+03  0.96157997586E+02  0.22984086791E+03  0.12500614795E+03 0.  0.
          5    1    3    3  501    0 -0.11618995507E+02 -0.14066496378E+02  0.92445104619E+01  0.20986146636E+02  0.47000000000E+01 0.  1.
         -5    1    3    3    0  501  0.69433041429E+02  0.17094690666E+03  0.29543481492E+03  0.34834984140E+03  0.47000000000E+01 0.  1.
          5    1    4    4  502    0 -0.63835537955E+02 -0.15958661353E+03  0.44579497423E+02  0.17762962792E+03  0.47000000000E+01 0. -1.
         -5    1    4    4    0  502  0.60214920334E+01  0.27062032450E+01  0.51578500163E+02  0.52211239991E+02  0.47000000000E+01 0. -1.
<mgrwt>
<rscale>  0 0.44535642E+03</rscale>
<asrwt>0</asrwt>
<pdfrwt beam="1">  1       21 0.76924166E-01 0.44535642E+03</pdfrwt>
<pdfrwt beam="2">  1       21 0.15256887E-01 0.44535642E+03</pdfrwt>
<totfact> 0.52628315E+04</totfact>
</mgrwt>
</event>
<event>
 8    1  0.9478272E-006  0.3281782E+03  0.7546771E-02  0.1071946E+00
         21   -1    0    0  504  503  0.00000000000E+00  0.00000000000E+00  0.89775717532E+03  0.89775717532E+03  0.00000000000E+00 0.  1.
         21   -1    0    0  503  504 -0.00000000000E+00 -0.00000000000E+00 -0.29991674253E+02  0.29991674253E+02  0.00000000000E+00 0.  1.
         25    2    1    2    0    0 -0.40690504202E+02  0.76848679811E+02  0.60672232054E+03  0.62554202684E+03  0.12501766426E+03 0.  0.
         25    2    1    2    0    0  0.40690504202E+02 -0.76848679811E+02  0.26104318053E+03  0.30220682274E+03  0.12499593949E+03 0.  0.
          5    1    3    3  501    0  0.72013750135E+01 -0.31463148183E+02  0.10188154547E+03  0.10697536540E+03  0.47000000000E+01 0. -1.
         -5    1    3    3    0  501 -0.47891879215E+02  0.10831182799E+03  0.50484077507E+03  0.51856666143E+03  0.47000000000E+01 0. -1.
          5    1    4    4  502    0  0.44887872574E+02 -0.10857689491E+03  0.22431143988E+03  0.25326187094E+03  0.47000000000E+01 0. -1.
         -5    1    4    4    0  502 -0.41973683725E+01  0.31728215104E+02  0.36731740647E+02  0.48944951791E+02  0.47000000000E+01 0. -1.
<mgrwt>
<rscale>  0 0.32817825E+03</rscale>
<asrwt>0</asrwt>
<pdfrwt beam="1">  1       21 0.13811647E+00 0.32817825E+03</pdfrwt>
<pdfrwt beam="2">  1       21 0.46141044E-02 0.32817825E+03</pdfrwt>
<totfact> 0.10860694E+05</totfact>
</mgrwt>
</event>
<event>
 8    1  0.9478272E-006  0.3017239E+03  0.7546771E-02  0.1084382E+00
         21   -1    0    0  504  503  0.00000000000E+00  0.00000000000E+00  0.26329733887E+02  0.26329733887E+02  0.00000000000E+00 0.  1.
         21   -1    0    0  503  504 -0.00000000000E+00 -0.00000000000E+00 -0.86439631038E+03  0.86439631038E+03  0.00000000000E+00 0.  1.
         25    2    1    2    0    0 -0.38995701310E-01 -0.84195531326E+02 -0.43871540333E+03  0.46388004270E+03  0.12499839951E+03 0.  0.
         25    2    1    2    0    0  0.38995701310E-01  0.84195531326E+02 -0.39935117316E+03  0.42684600157E+03  0.12500904180E+03 0.  0.
          5    1    3    3  501    0  0.58554077163E+02 -0.67603302751E+02 -0.26785364997E+03  0.28242955635E+03  0.47000000000E+01 0.  1.
         -5    1    3    3    0  501 -0.58593072864E+02 -0.16592228575E+02 -0.17086175336E+03  0.18145048635E+03  0.47000000000E+01 0.  1.
          5    1    4    4  502    0  0.30962062076E+02  0.57042858926E+02 -0.72662739772E+02  0.97542302586E+02  0.47000000000E+01 0. -1.
         -5    1    4    4    0  502 -0.30923066375E+02  0.27152672400E+02 -0.32668843339E+03  0.32930369898E+03  0.47000000000E+01 0. -1.
<mgrwt>
<rscale>  0 0.30172388E+03</rscale>
<asrwt>0</asrwt>
<pdfrwt beam="1">  1       21 0.40507296E-02 0.30172388E+03</pdfrwt>
<pdfrwt beam="2">  1       21 0.13298400E+00 0.30172388E+03</pdfrwt>
<totfact> 0.15067893E+05</totfact>
</mgrwt>
</event>
<event>
 8    1  0.9478272E-006  0.2809563E+03  0.7546771E-02  0.1095168E+00
         21   -1    0    0  504  503  0.00000000000E+00  0.00000000000E+00  0.27590885402E+02  0.27590885402E+02  0.00000000000E+00 0. -1.
         21   -1    0    0  503  504 -0.00000000000E+00 -0.00000000000E+00 -0.71524030277E+03  0.71524030277E+03  0.00000000000E+00 0. -1.
         25    2    1    2    0    0 -0.27942192875E+02  0.16307519876E+02 -0.49013846220E+03  0.50686042164E+03  0.12500029421E+03 0.  0.
         25    2    1    2    0    0  0.27942192875E+02 -0.16307519876E+02 -0.19751095517E+03  0.23597076653E+03  0.12499969559E+03 0.  0.
          5    1    3    3  501    0 -0.40611692255E+02  0.61326572991E+02 -0.20441682585E+03  0.21729838194E+03  0.47000000000E+01 0. -1.
         -5    1    3    3    0  501  0.12669499381E+02 -0.45019053115E+02 -0.28572163636E+03  0.28956203971E+03  0.47000000000E+01 0. -1.
          5    1    4    4  502    0  0.48385532806E+02 -0.28789830852E+02 -0.20319882396E+03  0.21090724550E+03  0.47000000000E+01 0. -1.
         -5    1    4    4    0  502 -0.20443339931E+02  0.12482310976E+02  0.56878687956E+01  0.25063521027E+02  0.47000000000E+01 0. -1.
<mgrwt>
<rscale>  0 0.28095632E+03</rscale>
<asrwt>0</asrwt>
<pdfrwt beam="1">  1       21 0.42447512E-02 0.28095632E+03</pdfrwt>
<pdfrwt beam="2">  1       21 0.11003698E+00 0.28095632E+03</pdfrwt>
<totfact> 0.22525224E+05</totfact>
</mgrwt>
</event>
<event>
 8    1  0.9478272E-006  0.3847179E+03  0.7546771E-02  0.1049204E+00
         21   -1    0    0  504  503  0.00000000000E+00  0.00000000000E+00  0.32240694013E+03  0.32240694013E+03  0.00000000000E+00 0. -1.
         21   -1    0    0  503  504 -0.00000000000E+00 -0.00000000000E+00 -0.11476788840E+03  0.11476788840E+03  0.00000000000E+00 0. -1.
         25    2    1    2    0    0 -0.11408343119E+03 -0.29719916281E+02  0.20208548640E+03  0.26525913509E+03  0.12500224894E+03 0.  0.
         25    2    1    2    0    0  0.11408343119E+03  0.29719916281E+02  0.55535653325E+01  0.17191569344E+03  0.12500344342E+03 0.  0.
          5    1    3    3  501    0 -0.13011785343E+03 -0.55121709543E+02  0.16820050618E+03  0.21973292635E+03  0.47000000000E+01 0.  1.
         -5    1    3    3    0  501  0.16034422242E+02  0.25401793262E+02  0.33884980225E+02  0.45526208741E+02  0.47000000000E+01 0.  1.
          5    1    4    4  502    0 -0.19821544653E+02  0.22036222474E+02 -0.18946563008E+02  0.35490153327E+02  0.47000000000E+01 0.  1.
         -5    1    4    4    0  502  0.13390497584E+03  0.76836938070E+01  0.24500128340E+02  0.13642554011E+03  0.47000000000E+01 0.  1.
<mgrwt>
<rscale>  0 0.38471789E+03</rscale>
<asrwt>0</asrwt>
<pdfrwt beam="1">  1       21 0.49601067E-01 0.38471789E+03</pdfrwt>
<pdfrwt beam="2">  1       21 0.17656598E-01 0.38471789E+03</pdfrwt>
<totfact> 0.10662265E+05</totfact>
</mgrwt>
</event>
<event>
 8    1  0.9478272E-006  0.3054227E+03  0.7546771E-02  0.1082561E+00
         21   -1    0    0  504  503  0.00000000000E+00  0.00000000000E+00  0.79739995186E+02  0.79739995186E+02  0.00000000000E+00 0.  1.
         21   -1    0    0  503  504 -0.00000000000E+00 -0.00000000000E+00 -0.29246004513E+03  0.29246004513E+03  0.00000000000E+00 0.  1.
         25    2    1    2    0    0 -0.19928736068E+02 -0.84769891588E+02 -0.93334117740E+02  0.17864416536E+03  0.12497756295E+03 0.  0.
         25    2    1    2    0    0  0.19928736068E+02  0.84769891588E+02 -0.11938593220E+03  0.19355587495E+03  0.12501114703E+03 0.  0.
          5    1    3    3  501    0  0.41776089594E+02 -0.65986912207E+01 -0.71397794307E+00  0.42560358929E+02  0.47000000000E+01 0. -1.
         -5    1    3    3    0  501 -0.61704825662E+02 -0.78171200367E+02 -0.92620139797E+02  0.13608380643E+03  0.47000000000E+01 0. -1.
          5    1    4    4  502    0 -0.51852366973E+02  0.28911467927E+02 -0.33286734650E+02  0.68224904853E+02  0.47000000000E+01 0. -1.
         -5    1    4    4    0  502  0.71781103041E+02  0.55858423660E+02 -0.86099197549E+02  0.12533097010E+03  0.47000000000E+01 0. -1.
<mgrwt>
<rscale>  0 0.30542274E+03</rscale>
<asrwt>0</asrwt>
<pdfrwt beam="1">  1       21 0.12267691E-01 0.30542274E+03</pdfrwt>
<pdfrwt beam="2">  1       21 0.44993853E-01 0.30542274E+03</pdfrwt>
<totfact> 0.26010092E+05</totfact>
</mgrwt>
</event>
<event>
 8    1  0.9478272E-006  0.3794932E+03  0.7546771E-02  0.1051121E+00
         21   -1    0    0  504  503  0.00000000000E+00  0.00000000000E+00  0.68539141022E+02  0.68539141022E+02  0.00000000000E+00 0.  1.
         21   -1    0    0  503  504 -0.00000000000E+00 -0.00000000000E+00 -0.52530248486E+03  0.52530248486E+03  0.00000000000E+00 0.  1.
         25    2    1    2    0    0  0.54858005352E+02 -0.12613835855E+03 -0.28805880252E+03  0.34281635534E+03  0.12499957412E+03 0.  0.
         25    2    1    2    0    0 -0.54858005352E+02  0.12613835855E+03 -0.16870454131E+03  0.25102527054E+03  0.12502870846E+03 0.  0.
          5    1    3    3  501    0  0.38436828052E+02 -0.14409125468E+03 -0.18949256084E+03  0.24118291822E+03  0.47000000000E+01 0.  1.
         -5    1    3    3    0  501  0.16421177300E+02  0.17952896126E+02 -0.98566241677E+02  0.10163343712E+03  0.47000000000E+01 0.  1.
          5    1    4    4  502    0 -0.12054726048E+02  0.13720172197E+03 -0.10459431472E+03  0.17300777325E+03  0.47000000000E+01 0.  1.
         -5    1    4    4    0  502 -0.42803279304E+02 -0.11063363421E+02 -0.64110226590E+02  0.78017497286E+02  0.47000000000E+01 0.  1.
<mgrwt>
<rscale>  0 0.37949325E+03</rscale>
<asrwt>0</asrwt>
<pdfrwt beam="1">  1       21 0.10544484E-01 0.37949325E+03</pdfrwt>
<pdfrwt beam="2">  1       21 0.80815764E-01 0.37949325E+03</pdfrwt>
<totfact> 0.93670472E+04</totfact>
</mgrwt>
</event>
<event>
 8    1  0.9478272E-006  0.2609057E+03  0.7546771E-02  0.1106600E+00
         21   -1    0    0  504  503  0.00000000000E+00  0.00000000000E+00  0.29041380379E+03  0.29041380379E+03  0.00000000000E+00 0. -1.
         21   -1    0    0  503  504 -0.00000000000E+00 -0.00000000000E+00 -0.58598945674E+02  0.58598945674E+02  0.00000000000E+00 0. -1.
         25    2    1    2    0    0 -0.15907429202E+02  0.33313270399E+02  0.10859339827E+03  0.16965433824E+03  0.12500899186E+03 0.  0.
         25    2    1    2    0    0  0.15907429202E+02 -0.33313270399E+02  0.12322145985E+03  0.17935841123E+03  0.12499236466E+03 0.  0.
          5    1    3    3  501    0 -0.61650475722E+02  0.67686306142E+01  0.97125460331E+02  0.11533447256E+03  0.47000000000E+01 0.  1.
         -5    1    3    3    0  501  0.45743046520E+02  0.26544639785E+02  0.11467937939E+02  0.54319865674E+02  0.47000000000E+01 0.  1.
          5    1    4    4  502    0  0.13458605908E+02 -0.25594756160E+02 -0.20229234437E+02  0.35602493477E+02  0.47000000000E+01 0.  1.
         -5    1    4    4    0  502  0.24488232935E+01 -0.77185142392E+01  0.14345069429E+03  0.14375591775E+03  0.47000000000E+01 0.  1.
<mgrwt>
<rscale>  0 0.26090567E+03</rscale>
<asrwt>0</asrwt>
<pdfrwt beam="1">  1       21 0.44679046E-01 0.26090567E+03</pdfrwt>
<pdfrwt beam="2">  1       21 0.90152226E-02 0.26090567E+03</pdfrwt>
<totfact> 0.46179603E+05</totfact>
</mgrwt>
</event>
<event>
 8    1  0.9478272E-006  0.3522338E+03  0.7546771E-02  0.1061702E+00
         21   -1    0    0  504  503  0.00000000000E+00  0.00000000000E+00  0.66191912472E+02  0.66191912472E+02  0.00000000000E+00 0. -1.
         21   -1    0    0  503  504 -0.00000000000E+00 -0.00000000000E+00 -0.46859452033E+03  0.46859452033E+03  0.00000000000E+00 0. -1.
         25    2    1    2    0    0 -0.38235047795E+02  0.11517647637E+03 -0.16201201596E+03  0.23792136578E+03  0.12502457116E+03 0.  0.
         25    2    1    2    0    0  0.38235047795E+02 -0.11517647637E+03 -0.24039059190E+03  0.29686506702E+03  0.12495475883E+03 0.  0.
          5    1    3    3  501    0  0.28998875187E+02 -0.64655397438E+01 -0.95439082252E+01  0.31558107524E+02  0.47000000000E+01 0. -1.
         -5    1    3    3    0  501 -0.67233922982E+02  0.12164201611E+03 -0.15246810773E+03  0.20636325826E+03  0.47000000000E+01 0. -1.
          5    1    4    4  502    0 -0.26830388479E+01 -0.39805673159E+02 -0.19620584513E+03  0.20027609437E+03  0.47000000000E+01 0.  1.
         -5    1    4    4    0  502  0.40918086643E+02 -0.75370803207E+02 -0.44184746771E+02  0.96588972651E+02  0.47000000000E+01 0.  1.
<mgrwt>
<rscale>  0 0.35223383E+03</rscale>
<asrwt>0</asrwt>
<pdfrwt beam="1">  1       21 0.10183371E-01 0.35223383E+03</pdfrwt>
<pdfrwt beam="2">  1       21 0.72091463E-01 0.35223383E+03</pdfrwt>
<totfact> 0.13016075E+05</totfact>
</mgrwt>
</event>
<event>
 8    1  0.9478272E-006  0.5273307E+03  0.7546771E-02  0.1006882E+00
         21   -1    0    0  504  503  0.00000000000E+00  0.00000000000E+00  0.62642000941E+03  0.62642000941E+03  0.00000000000E+00 0. -1.
         21   -1    0    0  503  504 -0.00000000000E+00 -0.00000000000E+00 -0.11097890860E+03  0.11097890860E+03  0.00000000000E+00 0. -1.
         25    2    1    2    0    0 -0.17790816567E+02 -0.20233359236E+03  0.10051203347E+03  0.25881137941E+03  0.12500106196E+03 0.  0.
         25    2    1    2    0    0  0.17790816567E+02  0.20233359236E+03  0.41492906733E+03  0.47858753860E+03  0.12499802170E+03 0.  0.
          5    1    3    3  501    0  0.28041749049E+02  0.24080934014E+01  0.14502035414E+02  0.32008399440E+02  0.47000000000E+01 0.  1.
         -5    1    3    3    0  501 -0.45832565616E+02 -0.20474168576E+03  0.86009998059E+02  0.22680297997E+03  0.47000000000E+01 0.  1.
          5    1    4    4  502    0  0.33374063110E+02  0.53946865264E+02  0.40270491424E+02  0.75285422492E+02  0.47000000000E+01 0.  1.
         -5    1    4    4    0  502 -0.15583246543E+02  0.14838672709E+03  0.37465857591E+03  0.40330211610E+03  0.47000000000E+01 0.  1.
<mgrwt>
<rscale>  0 0.52733067E+03</rscale>
<asrwt>0</asrwt>
<pdfrwt beam="1">  1       21 0.96372307E-01 0.52733067E+03</pdfrwt>
<pdfrwt beam="2">  1       21 0.17073679E-01 0.52733067E+03</pdfrwt>
<totfact> 0.24653390E+04</totfact>
</mgrwt>
</event>
<event>
 8    1  0.9478272E-006  0.2966750E+03  0.7546771E-02  0.1086915E+00
         21   -1    0    0  504  503  0.00000000000E+00  0.00000000000E+00  0.23799105354E+02  0.23799105354E+02  0.00000000000E+00 0. -1.
         21   -1    0    0  503  504 -0.00000000000E+00 -0.00000000000E+00 -0.92457330390E+03  0.92457330390E+03  0.00000000000E+00 0. -1.
         25    2    1    2    0    0  0.37027560336E+02 -0.46878531054E+02 -0.28094557074E+03  0.31325010900E+03  0.12500632054E+03 0.  0.
         25    2    1    2    0    0 -0.37027560336E+02  0.46878531054E+02 -0.61982862781E+03  0.63512230025E+03  0.12499668606E+03 0.  0.
          5    1    3    3  501    0  0.33182343091E+02  0.39261401218E+02 -0.91624109001E+02  0.10516459893E+03  0.47000000000E+01 0. -1.
         -5    1    3    3    0  501  0.38452172446E+01 -0.86139932271E+02 -0.18932146174E+03  0.20808551007E+03  0.47000000000E+01 0. -1.
          5    1    4    4  502    0 -0.35078416708E+02  0.85884040751E+02 -0.51165266186E+03  0.52001644220E+03  0.47000000000E+01 0.  1.
         -5    1    4    4    0  502 -0.19491436276E+01 -0.39005509698E+02 -0.10817596596E+03  0.11510585805E+03  0.47000000000E+01 0.  1.
<mgrwt>
<rscale>  0 0.29667502E+03</rscale>
<asrwt>0</asrwt>
<pdfrwt beam="1">  1       21 0.36614006E-02 0.29667502E+03</pdfrwt>
<pdfrwt beam="2">  1       21 0.14224206E+00 0.29667502E+03</pdfrwt>
<totfact> 0.15019139E+05</totfact>
</mgrwt>
</event>
<event>
 8    1  0.9478272E-006  0.2995103E+03  0.7546771E-02  0.1085486E+00
         21   -1    0    0  504  503  0.00000000000E+00  0.00000000000E+00  0.56114691044E+03  0.56114691044E+03  0.00000000000E+00 0. -1.
         21   -1    0    0  503  504 -0.00000000000E+00 -0.00000000000E+00 -0.39965644392E+02  0.39965644392E+02  0.00000000000E+00 0. -1.
         25    2    1    2    0    0 -0.46755067843E+02  0.38584988696E+02  0.14836717006E+03  0.20325483341E+03  0.12499948973E+03 0.  0.
         25    2    1    2    0    0  0.46755067843E+02 -0.38584988696E+02  0.37281409599E+03  0.39785772142E+03  0.12500231440E+03 0.  0.
          5    1    3    3  501    0 -0.11903844635E+02 -0.44284892350E+02  0.70472237457E+02  0.84209734946E+02  0.47000000000E+01 0. -1.
         -5    1    3    3    0  501 -0.34851223208E+02  0.82869881046E+02  0.77894932601E+02  0.11904509846E+03  0.47000000000E+01 0. -1.
          5    1    4    4  502    0  0.45668029574E+02 -0.83982084886E+01  0.36265244054E+03  0.36564324342E+03  0.47000000000E+01 0. -1.
         -5    1    4    4    0  502  0.10870382689E+01 -0.30186780207E+02  0.10161655455E+02  0.32214478004E+02  0.47000000000E+01 0. -1.
<mgrwt>
<rscale>  0 0.29951025E+03</rscale>
<asrwt>0</asrwt>
<pdfrwt beam="1">  1       21 0.86330288E-01 0.29951025E+03</pdfrwt>
<pdfrwt beam="2">  1       21 0.61485611E-02 0.29951025E+03</pdfrwt>
<totfact> 0.21210614E+05</totfact>
</mgrwt>
</event>
<event>
 8    1  0.9478272E-006  0.3269523E+03  0.7546771E-02  0.1072493E+00
         21   -1    0    0  504  503  0.00000000000E+00  0.00000000000E+00  0.84282546962E+02  0.84282546962E+02  0.00000000000E+00 0. -1.
         21   -1    0    0  503  504 -0.00000000000E+00 -0.00000000000E+00 -0.31708160345E+03  0.31708160345E+03  0.00000000000E+00 0. -1.
         25    2    1    2    0    0  0.10470861387E+03  0.80222477211E+01 -0.10602238876E+03  0.19466257291E+03  0.12499808036E+03 0.  0.
         25    2    1    2    0    0 -0.10470861387E+03 -0.80222477211E+01 -0.12677666772E+03  0.20670157750E+03  0.12499987354E+03 0.  0.
          5    1    3    3  501    0 -0.10068770115E+02 -0.72349906322E+01 -0.72961237295E+02  0.74156303635E+02  0.47000000000E+01 0. -1.
         -5    1    3    3    0  501  0.11477738399E+03  0.15257238353E+02 -0.33061151467E+02  0.12050626927E+03  0.47000000000E+01 0. -1.
          5    1    4    4  502    0 -0.29082218336E+02 -0.32579592758E+02  0.13013463435E+02  0.45810975957E+02  0.47000000000E+01 0. -1.
         -5    1    4    4    0  502 -0.75626395537E+02  0.24557345037E+02 -0.13979013116E+03  0.16089060154E+03  0.47000000000E+01 0. -1.
<mgrwt>
<rscale>  0 0.32695226E+03</rscale>
<asrwt>0</asrwt>
<pdfrwt beam="1">  1       21 0.12966546E-01 0.32695226E+03</pdfrwt>
<pdfrwt beam="2">  1       21 0.48781784E-01 0.32695226E+03</pdfrwt>
<totfact> 0.19776591E+05</totfact>
</mgrwt>
</event>
<event>
 8    1  0.9478272E-006  0.3525044E+03  0.7546771E-02  0.1061592E+00
         21   -1    0    0  504  503  0.00000000000E+00  0.00000000000E+00  0.27511859888E+02  0.27511859888E+02  0.00000000000E+00 0. -1.
         21   -1    0    0  503  504 -0.00000000000E+00 -0.00000000000E+00 -0.11291435405E+04  0.11291435405E+04  0.00000000000E+00 0. -1.
         25    2    1    2    0    0  0.36669909686E+02 -0.19824806511E+02 -0.16672243474E+03  0.21250531108E+03  0.12499772703E+03 0.  0.
         25    2    1    2    0    0 -0.36669909686E+02  0.19824806511E+02 -0.93490924585E+03  0.94415008928E+03  0.12500555143E+03 0.  0.
          5    1    3    3  501    0 -0.43593285364E+02  0.54714444592E+01 -0.81112827438E+02  0.92367158711E+02  0.47000000000E+01 0.  1.
         -5    1    3    3    0  501  0.80263195050E+02 -0.25296250971E+02 -0.85609607297E+02  0.12013815237E+03  0.47000000000E+01 0.  1.
          5    1    4    4  502    0 -0.41675389150E+02 -0.15932267160E+02 -0.11512702470E+03  0.12355969009E+03  0.47000000000E+01 0.  1.
         -5    1    4    4    0  502  0.50054794644E+01  0.35757073671E+02 -0.81978222115E+03  0.82059039919E+03  0.47000000000E+01 0.  1.
<mgrwt>
<rscale>  0 0.35250440E+03</rscale>
<asrwt>0</asrwt>
<pdfrwt beam="1">  1       21 0.42325942E-02 0.35250440E+03</pdfrwt>
<pdfrwt beam="2">  1       21 0.17371437E+00 0.35250440E+03</pdfrwt>
<totfact> 0.66834719E+04</totfact>
</mgrwt>
</event>
<event>
 8    1  0.9478272E-006  0.2627249E+03  0.7546771E-02  0.1105517E+00
         21   -1    0    0  504  503  0.00000000000E+00  0.00000000000E+00  0.20698197600E+04  0.20698197600E+04  0.00000000000E+00 0.  1.
         21   -1    0    0  503  504 -0.00000000000E+00 -0.00000000000E+00 -0.83370048714E+01  0.83370048714E+01  0.00000000000E+00 0.  1.
         25    2    1    2    0    0 -0.14400576208E+02  0.33962978544E+02  0.90060951349E+03  0.90999058747E+03  0.12499805193E+03 0.  0.
         25    2    1    2    0    0  0.14400576208E+02 -0.33962978544E+02  0.11608732416E+04  0.11681661774E+04  0.12499869747E+03 0.  0.
          5    1    3    3  501    0 -0.15102124927E+02 -0.64037174935E+01  0.81545030968E+03  0.81562882448E+03  0.47000000000E+01 0. -1.
         -5    1    3    3    0  501  0.70154871870E+00  0.40366696038E+02  0.85159203811E+02  0.94361762983E+02  0.47000000000E+01 0. -1.
          5    1    4    4  502    0  0.60318567404E+02  0.22943361807E+01  0.82370538580E+03  0.82592750660E+03  0.47000000000E+01 0. -1.
         -5    1    4    4    0  502 -0.45917991196E+02 -0.36257314725E+02  0.33716785584E+03  0.34223867081E+03  0.47000000000E+01 0. -1.
<mgrwt>
<rscale>  0 0.26272493E+03</rscale>
<asrwt>0</asrwt>
<pdfrwt beam="1">  1       21 0.31843340E+00 0.26272493E+03</pdfrwt>
<pdfrwt beam="2">  1       21 0.12826178E-02 0.26272493E+03</pdfrwt>
<totfact> 0.63756586E+04</totfact>
</mgrwt>
</event>
<event>
 8    1  0.9478272E-006  0.2542465E+03  0.7546771E-02  0.1110650E+00
         21   -1    0    0  504  503  0.00000000000E+00  0.00000000000E+00  0.48870721835E+03  0.48870721835E+03  0.00000000000E+00 0. -1.
         21   -1    0    0  503  504 -0.00000000000E+00 -0.00000000000E+00 -0.33067497744E+02  0.33067497744E+02  0.00000000000E+00 0. -1.
         25    2    1    2    0    0 -0.20154064491E+02  0.35103819717E+01  0.25036528083E+03  0.28056299317E+03  0.12495723347E+03 0.  0.
         25    2    1    2    0    0  0.20154064491E+02 -0.35103819717E+01  0.20527443978E+03  0.24121172292E+03  0.12500796195E+03 0.  0.
          5    1    3    3  501    0  0.51265608838E+02  0.27574235472E+01  0.13822079254E+03  0.14752234924E+03  0.47000000000E+01 0. -1.
         -5    1    3    3    0  501 -0.71419673329E+02  0.75295842452E+00  0.11214448829E+03  0.13304064393E+03  0.47000000000E+01 0. -1.
          5    1    4    4  502    0 -0.24035479805E+02  0.50858308718E+02  0.92381606867E+02  0.10826228864E+03  0.47000000000E+01 0.  1.
         -5    1    4    4    0  502  0.44189544296E+02 -0.54368690689E+02  0.11289283291E+03  0.13294943428E+03  0.47000000000E+01 0.  1.
<mgrwt>
<rscale>  0 0.25424653E+03</rscale>
<asrwt>0</asrwt>
<pdfrwt beam="1">  1       21 0.75185721E-01 0.25424653E+03</pdfrwt>
<pdfrwt beam="2">  1       21 0.50873077E-02 0.25424653E+03</pdfrwt>
<totfact> 0.40702596E+05</totfact>
</mgrwt>
</event>
<event>
 8    1  0.9478272E-006  0.3104515E+03  0.7546771E-02  0.1080130E+00
         21   -1    0    0  504  503  0.00000000000E+00  0.00000000000E+00  0.53144580388E+03  0.53144580388E+03  0.00000000000E+00 0.  1.
         21   -1    0    0  503  504 -0.00000000000E+00 -0.00000000000E+00 -0.45338634733E+02  0.45338634733E+02  0.00000000000E+00 0.  1.
         25    2    1    2    0    0  0.76958471528E+02 -0.50428256069E+02  0.23901081290E+03  0.28498394928E+03  0.12499626921E+03 0.  0.
         25    2    1    2    0    0 -0.76958471528E+02  0.50428256069E+02  0.24709635625E+03  0.29180048933E+03  0.12500120380E+03 0.  0.
          5    1    3    3  501    0  0.70139010935E+02 -0.27425648781E+02  0.24777677498E+03  0.25901171264E+03  0.47000000000E+01 0.  1.
         -5    1    3    3    0  501  0.68194605931E+01 -0.23002607288E+02 -0.87659620821E+01  0.25972236639E+02  0.47000000000E+01 0.  1.
          5    1    4    4  502    0 -0.98202785838E+02  0.61550856057E+02  0.13930495173E+03  0.18127397663E+03  0.47000000000E+01 0.  1.
         -5    1    4    4    0  502  0.21244314310E+02 -0.11122599988E+02  0.10779140452E+03  0.11052651270E+03  0.47000000000E+01 0.  1.
<mgrwt>
<rscale>  0 0.31045146E+03</rscale>
<asrwt>0</asrwt>
<pdfrwt beam="1">  1       21 0.81760888E-01 0.31045146E+03</pdfrwt>
<pdfrwt beam="2">  1       21 0.69751750E-02 0.31045146E+03</pdfrwt>
<totfact> 0.19267037E+05</totfact>
</mgrwt>
</event>
<event>
 8    1  0.9478272E-006  0.3048460E+03  0.7546771E-02  0.1082843E+00
         21   -1    0    0  504  503  0.00000000000E+00  0.00000000000E+00  0.26533416408E+04  0.26533416408E+04  0.00000000000E+00 0.  1.
         21   -1    0    0  503  504 -0.00000000000E+00 -0.00000000000E+00 -0.87560427602E+01  0.87560427602E+01  0.00000000000E+00 0.  1.
         25    2    1    2    0    0  0.37146728512E+02 -0.13182674999E+02  0.64258628541E+03  0.65581144946E+03  0.12497143949E+03 0.  0.
         25    2    1    2    0    0 -0.37146728512E+02  0.13182674999E+02  0.20019993126E+04  0.20062862341E+04  0.12501817071E+03 0.  0.
          5    1    3    3  501    0  0.42829354328E+02  0.50091601440E+02  0.37249017711E+03  0.37830482970E+03  0.47000000000E+01 0.  1.
         -5    1    3    3    0  501 -0.56826258157E+01 -0.63274276439E+02  0.27009610830E+03  0.27750661976E+03  0.47000000000E+01 0.  1.
          5    1    4    4  502    0 -0.59477438482E+02 -0.23015137304E+02  0.17072303619E+04  0.17084275990E+04  0.47000000000E+01 0.  1.
         -5    1    4    4    0  502  0.22330709970E+02  0.36197812303E+02  0.29476895069E+03  0.29785863512E+03  0.47000000000E+01 0.  1.
<mgrwt>
<rscale>  0 0.30484601E+03</rscale>
<asrwt>0</asrwt>
<pdfrwt beam="1">  1       21 0.40820577E+00 0.30484601E+03</pdfrwt>
<pdfrwt beam="2">  1       21 0.13470856E-02 0.30484601E+03</pdfrwt>
<totfact> 0.16187351E+04</totfact>
</mgrwt>
</event>
<event>
 8    1  0.9478272E-006  0.3486408E+03  0.7546771E-02  0.1063174E+00
         21   -1    0    0  504  503  0.00000000000E+00  0.00000000000E+00  0.36905068103E+03  0.36905068103E+03  0.00000000000E+00 0. -1.
         21   -1    0    0  503  504 -0.00000000000E+00 -0.00000000000E+00 -0.82339894893E+02  0.82339894893E+02  0.00000000000E+00 0. -1.
         25    2    1    2    0    0  0.36685239785E+02 -0.98924152996E+02  0.65354916617E+02  0.17615267078E+03  0.12500681355E+03 0.  0.
         25    2    1    2    0    0 -0.36685239785E+02  0.98924152996E+02  0.22135586952E+03  0.27523790514E+03  0.12500275433E+03 0.  0.
          5    1    3    3  501    0 -0.33955406861E+02 -0.35209053007E+02 -0.15170474878E+02  0.51428400488E+02  0.47000000000E+01 0. -1.
         -5    1    3    3    0  501  0.70640646646E+02 -0.63715099990E+02  0.80525391495E+02  0.12472427029E+03  0.47000000000E+01 0. -1.
          5    1    4    4  502    0 -0.66612108413E+02  0.64181406338E+02  0.20729530516E+03  0.22704594127E+03  0.47000000000E+01 0.  1.
         -5    1    4    4    0  502  0.29926868628E+02  0.34742746659E+02  0.14060564357E+02  0.48191963866E+02  0.47000000000E+01 0.  1.
<mgrwt>
<rscale>  0 0.34864076E+03</rscale>
<asrwt>0</asrwt>
<pdfrwt beam="1">  1       21 0.56777027E-01 0.34864076E+03</pdfrwt>
<pdfrwt beam="2">  1       21 0.12667676E-01 0.34864076E+03</pdfrwt>
<totfact> 0.14865218E+05</totfact>
</mgrwt>
</event>
<event>
 8    1  0.9478272E-006  0.2803846E+03  0.7546771E-02  0.1095479E+00
         21   -1    0    0  504  503  0.00000000000E+00  0.00000000000E+00  0.98712260136E+01  0.98712260136E+01  0.00000000000E+00 0. -1.
         21   -1    0    0  503  504 -0.00000000000E+00 -0.00000000000E+00 -0.19910277381E+04  0.19910277381E+04  0.00000000000E+00 0. -1.
         25    2    1    2    0    0  0.27923040403E+02 -0.55184274453E+02 -0.88870777707E+03  0.89958353851E+03  0.12499611759E+03 0.  0.
         25    2    1    2    0    0 -0.27923040403E+02  0.55184274453E+02 -0.10924487351E+04  0.11013154256E+04  0.12500571063E+03 0.  0.
          5    1    3    3  501    0  0.95538297704E+00 -0.89824063006E+02 -0.46806085385E+03  0.47662598330E+03  0.47000000000E+01 0. -1.
         -5    1    3    3    0  501  0.26967657426E+02  0.34639788553E+02 -0.42064692322E+03  0.42295755521E+03  0.47000000000E+01 0. -1.
          5    1    4    4  502    0  0.35500143158E+02  0.55760483373E+02 -0.35523358620E+03  0.36136198255E+03  0.47000000000E+01 0. -1.
         -5    1    4    4    0  502 -0.63423183561E+02 -0.57620891998E+00 -0.73721514885E+03  0.73995344308E+03  0.47000000000E+01 0. -1.
<mgrwt>
<rscale>  0 0.28038463E+03</rscale>
<asrwt>0</asrwt>
<pdfrwt beam="1">  1       21 0.15186494E-02 0.28038463E+03</pdfrwt>
<pdfrwt beam="2">  1       21 0.30631211E+00 0.28038463E+03</pdfrwt>
<totfact> 0.56489620E+04</totfact>
</mgrwt>
</event>
<event>
 8    1  0.9478272E-006  0.2569798E+03  0.7546771E-02  0.1108972E+00
         21   -1    0    0  504  503  0.00000000000E+00  0.00000000000E+00  0.88078536385E+03  0.88078536385E+03  0.00000000000E+00 0.  1.
         21   -1    0    0  503  504 -0.00000000000E+00 -0.00000000000E+00 -0.18744240233E+02  0.18744240233E+02  0.00000000000E+00 0.  1.
         25    2    1    2    0    0 -0.23187965454E+02 -0.31572506224E+01  0.49537592550E+03  0.51143684906E+03  0.12499077178E+03 0.  0.
         25    2    1    2    0    0  0.23187965454E+02  0.31572506224E+01  0.36666519811E+03  0.38809275503E+03  0.12499987610E+03 0.  0.
          5    1    3    3  501    0 -0.90518070661E+01 -0.62505893189E+02  0.30360774353E+03  0.31014298932E+03  0.47000000000E+01 0.  1.
         -5    1    3    3    0  501 -0.14136158388E+02  0.59348642567E+02  0.19176818198E+03  0.20129385974E+03  0.47000000000E+01 0.  1.
          5    1    4    4  502    0 -0.19897463983E+02  0.15314215087E+02  0.32729701058E+03  0.32829233526E+03  0.47000000000E+01 0.  1.
         -5    1    4    4    0  502  0.43085429437E+02 -0.12156964465E+02  0.39368187538E+02  0.59800419771E+02  0.47000000000E+01 0.  1.
<mgrwt>
<rscale>  0 0.25697978E+03</rscale>
<asrwt>0</asrwt>
<pdfrwt beam="1">  1       21 0.13550541E+00 0.25697978E+03</pdfrwt>
<pdfrwt beam="2">  1       21 0.28837299E-02 0.25697978E+03</pdfrwt>
<totfact> 0.25724493E+05</totfact>
</mgrwt>
</event>
<event>
 8    1  0.9478272E-006  0.3584768E+03  0.7546771E-02  0.1059189E+00
         21   -1    0    0  504  503  0.00000000000E+00  0.00000000000E+00  0.21063428296E+02  0.21063428296E+02  0.00000000000E+00 0.  1.
         21   -1    0    0  503  504 -0.00000000000E+00 -0.00000000000E+00 -0.15252224072E+04  0.15252224072E+04  0.00000000000E+00 0.  1.
         25    2    1    2    0    0  0.58037717155E+02 -0.68202113714E+02 -0.11493291176E+04  0.11595700418E+04  0.12500142585E+03 0.  0.
         25    2    1    2    0    0 -0.58037717155E+02  0.68202113714E+02 -0.35482986130E+03  0.38671579364E+03  0.12499987862E+03 0.  0.
          5    1    3    3  501    0  0.79459083278E+02 -0.40547881442E+02 -0.42036146478E+03  0.42974844697E+03  0.47000000000E+01 0.  1.
         -5    1    3    3    0  501 -0.21421366123E+02 -0.27654232272E+02 -0.72896765281E+03  0.72982159487E+03  0.47000000000E+01 0.  1.
          5    1    4    4  502    0  0.37660079820E+02  0.35789520800E+02 -0.10696262437E+03  0.11900531259E+03  0.47000000000E+01 0.  1.
         -5    1    4    4    0  502 -0.95697796975E+02  0.32412592914E+02 -0.24786723693E+03  0.26771048105E+03  0.47000000000E+01 0.  1.
<mgrwt>
<rscale>  0 0.35847685E+03</rscale>
<asrwt>0</asrwt>
<pdfrwt beam="1">  1       21 0.32405266E-02 0.35847685E+03</pdfrwt>
<pdfrwt beam="2">  1       21 0.23464966E+00 0.35847685E+03</pdfrwt>
<totfact> 0.41645404E+04</totfact>
</mgrwt>
</event>
<event>
 8    1  0.9478272E-006  0.3348528E+03  0.7546771E-02  0.1069010E+00
         21   -1    0    0  504  503  0.00000000000E+00  0.00000000000E+00  0.38784871494E+03  0.38784871494E+03  0.00000000000E+00 0. -1.
         21   -1    0    0  503  504 -0.00000000000E+00 -0.00000000000E+00 -0.72274586256E+02  0.72274586256E+02  0.00000000000E+00 0. -1.
         25    2    1    2    0    0  0.10212950149E+02 -0.58409875244E+02  0.28206100156E+02  0.14118187760E+03  0.12498288122E+03 0.  0.
         25    2    1    2    0    0 -0.10212950149E+02  0.58409875244E+02  0.28736802853E+03  0.31894142360E+03  0.12500891964E+03 0.  0.
          5    1    3    3  501    0 -0.43993732024E+02 -0.69876931728E+02  0.18156568547E+02  0.84675764104E+02  0.47000000000E+01 0.  1.
         -5    1    3    3    0  501  0.54206682173E+02  0.11467056484E+02  0.10049531609E+02  0.56506113494E+02  0.47000000000E+01 0.  1.
          5    1    4    4  502    0  0.15011261311E+02 -0.33881116705E+02  0.12459026526E+03  0.13006956690E+03  0.47000000000E+01 0.  1.
         -5    1    4    4    0  502 -0.25224211460E+02  0.92290991949E+02  0.16277776327E+03  0.18887185670E+03  0.47000000000E+01 0.  1.
<mgrwt>
<rscale>  0 0.33485284E+03</rscale>
<asrwt>0</asrwt>
<pdfrwt beam="1">  1       21 0.59669032E-01 0.33485284E+03</pdfrwt>
<pdfrwt beam="2">  1       21 0.11119167E-01 0.33485284E+03</pdfrwt>
<totfact> 0.16952630E+05</totfact>
</mgrwt>
</event>
<event>
 8    1  0.9478272E-006  0.2815893E+03  0.7546771E-02  0.1094824E+00
         21   -1    0    0  504  503  0.00000000000E+00  0.00000000000E+00  0.15345877830E+03  0.15345877830E+03  0.00000000000E+00 0. -1.
         21   -1    0    0  503  504 -0.00000000000E+00 -0.00000000000E+00 -0.12917561871E+03  0.12917561871E+03  0.00000000000E+00 0. -1.
         25    2    1    2    0    0 -0.37402362666E+02  0.19133163572E+02 -0.37372898004E+02  0.13706260565E+03  0.12499763870E+03 0.  0.
         25    2    1    2    0    0  0.37402362666E+02 -0.19133163572E+02  0.61656057589E+02  0.14557179136E+03  0.12499864928E+03 0.  0.
          5    1    3    3  501    0  0.22099518981E+02 -0.39480341542E+02 -0.26659200025E+02  0.52724653185E+02  0.47000000000E+01 0.  1.
         -5    1    3    3    0  501 -0.59501881648E+02  0.58613505115E+02 -0.10713697979E+02  0.84337952464E+02  0.47000000000E+01 0.  1.
          5    1    4    4  502    0  0.16932219170E+02  0.80115958882E+01  0.95462716790E+02  0.97396642713E+02  0.47000000000E+01 0. -1.
         -5    1    4    4    0  502  0.20470143496E+02 -0.27144759460E+02 -0.33806659202E+02  0.48175148648E+02  0.47000000000E+01 0. -1.
<mgrwt>
<rscale>  0 0.28158929E+03</rscale>
<asrwt>0</asrwt>
<pdfrwt beam="1">  1       21 0.23609043E-01 0.28158929E+03</pdfrwt>
<pdfrwt beam="2">  1       21 0.19873172E-01 0.28158929E+03</pdfrwt>
<totfact> 0.38721831E+05</totfact>
</mgrwt>
</event>
<event>
 8    1  0.9478272E-006  0.5188957E+03  0.7546771E-02  0.1008961E+00
         21   -1    0    0  504  503  0.00000000000E+00  0.00000000000E+00  0.58215532819E+02  0.58215532819E+02  0.00000000000E+00 0. -1.
         21   -1    0    0  503  504 -0.00000000000E+00 -0.00000000000E+00 -0.11562753882E+04  0.11562753882E+04  0.00000000000E+00 0. -1.
         25    2    1    2    0    0 -0.26191529688E+02  0.22473830655E+03 -0.49700572626E+03  0.56020942524E+03  0.12500642199E+03 0.  0.
         25    2    1    2    0    0  0.26191529688E+02 -0.22473830655E+03 -0.60105412911E+03  0.65428149577E+03  0.12499962767E+03 0.  0.
          5    1    3    3  501    0 -0.69948181522E+02  0.84756316087E+02 -0.24577124217E+03  0.26926190725E+03  0.47000000000E+01 0. -1.
         -5    1    3    3    0  501  0.43756651834E+02  0.13998199047E+03 -0.25123448408E+03  0.29094751800E+03  0.47000000000E+01 0. -1.
          5    1    4    4  502    0 -0.17447718422E+02 -0.67860967870E+02 -0.33528262583E+03  0.34255811627E+03  0.47000000000E+01 0. -1.
         -5    1    4    4    0  502  0.43639248111E+02 -0.15687733868E+03 -0.26577150329E+03  0.31172337950E+03  0.47000000000E+01 0. -1.
<mgrwt>
<rscale>  0 0.51889570E+03</rscale>
<asrwt>0</asrwt>
<pdfrwt beam="1">  1       21 0.89562368E-02 0.51889570E+03</pdfrwt>
<pdfrwt beam="2">  1       21 0.17788850E+00 0.51889570E+03</pdfrwt>
<totfact> 0.16059987E+04</totfact>
</mgrwt>
</event>
<event>
 8    1  0.9478272E-006  0.3374941E+03  0.7546771E-02  0.1067868E+00
         21   -1    0    0  504  503  0.00000000000E+00  0.00000000000E+00  0.78768654097E+02  0.78768654097E+02  0.00000000000E+00 0. -1.
         21   -1    0    0  503  504 -0.00000000000E+00 -0.00000000000E+00 -0.36150892002E+03  0.36150892002E+03  0.00000000000E+00 0. -1.
         25    2    1    2    0    0 -0.61840284482E+02  0.72637127625E+02 -0.61482528830E+02  0.16883590642E+03  0.12500035540E+03 0.  0.
         25    2    1    2    0    0  0.61840284482E+02 -0.72637127625E+02 -0.22125773710E+03  0.27144166770E+03  0.12500087857E+03 0.  0.
          5    1    3    3  501    0  0.94620522791E+01  0.64444107749E+02 -0.70789479859E+02  0.96311026968E+02  0.47000000000E+01 0. -1.
         -5    1    3    3    0  501 -0.71302336761E+02  0.81930198760E+01  0.93069510291E+01  0.72524879453E+02  0.47000000000E+01 0. -1.
          5    1    4    4  502    0  0.90040861551E+02 -0.82356978058E+02 -0.14590722906E+03  0.19026570388E+03  0.47000000000E+01 0. -1.
         -5    1    4    4    0  502 -0.28200577070E+02  0.97198504329E+01 -0.75350508039E+02  0.81175963814E+02  0.47000000000E+01 0. -1.
<mgrwt>
<rscale>  0 0.33749412E+03</rscale>
<asrwt>0</asrwt>
<pdfrwt beam="1">  1       21 0.12118254E-01 0.33749412E+03</pdfrwt>
<pdfrwt beam="2">  1       21 0.55616757E-01 0.33749412E+03</pdfrwt>
<totfact> 0.16884694E+05</totfact>
</mgrwt>
</event>
<event>
 8    1  0.9478272E-006  0.2563489E+03  0.7546771E-02  0.1109357E+00
         21   -1    0    0  504  503  0.00000000000E+00  0.00000000000E+00  0.13111013389E+03  0.13111013389E+03  0.00000000000E+00 0.  1.
         21   -1    0    0  503  504 -0.00000000000E+00 -0.00000000000E+00 -0.12530452642E+03  0.12530452642E+03  0.00000000000E+00 0.  1.
         25    2    1    2    0    0  0.18541098740E+02  0.15721462036E+02  0.17553973455E+02  0.12853693130E+03  0.12499065570E+03 0.  0.
         25    2    1    2    0    0 -0.18541098740E+02 -0.15721462036E+02 -0.11748365984E+02  0.12787772901E+03  0.12499501095E+03 0.  0.
          5    1    3    3  501    0 -0.13865591705E+02 -0.34034092273E+02 -0.33604193686E+02  0.50019055403E+02  0.47000000000E+01 0. -1.
         -5    1    3    3    0  501  0.32406690445E+02  0.49755554309E+02  0.51158167141E+02  0.78517875897E+02  0.47000000000E+01 0. -1.
          5    1    4    4  502    0  0.20111039602E+02 -0.62712932948E+02 -0.10368129709E+02  0.66835275016E+02  0.47000000000E+01 0. -1.
         -5    1    4    4    0  502 -0.38652138342E+02  0.46991470912E+02 -0.13802362753E+01  0.61042453990E+02  0.47000000000E+01 0. -1.
<mgrwt>
<rscale>  0 0.25634893E+03</rscale>
<asrwt>0</asrwt>
<pdfrwt beam="1">  1       21 0.20170790E-01 0.25634893E+03</pdfrwt>
<pdfrwt beam="2">  1       21 0.19277620E-01 0.25634893E+03</pdfrwt>
<totfact> 0.55518230E+05</totfact>
</mgrwt>
</event>
<event>
 8    1  0.9478272E-006  0.4175122E+03  0.7546771E-02  0.1037879E+00
         21   -1    0    0  504  503  0.00000000000E+00  0.00000000000E+00  0.12093075017E+04  0.12093075017E+04  0.00000000000E+00 0. -1.
         21   -1    0    0  503  504 -0.00000000000E+00 -0.00000000000E+00 -0.36036424452E+02  0.36036424452E+02  0.00000000000E+00 0. -1.
         25    2    1    2    0    0 -0.93648457444E+02  0.13840207318E+03  0.57003320998E+03  0.60703097797E+03  0.12499432105E+03 0.  0.
         25    2    1    2    0    0  0.93648457444E+02 -0.13840207318E+03  0.60323786728E+03  0.63831294819E+03  0.12498931100E+03 0.  0.
          5    1    3    3  501    0 -0.65000017994E+02  0.85295345898E+02  0.51216918831E+03  0.52329691937E+03  0.47000000000E+01 0. -1.
         -5    1    3    3    0  501 -0.28648439450E+02  0.53106727286E+02  0.57864021673E+02  0.83734058603E+02  0.47000000000E+01 0. -1.
          5    1    4    4  502    0  0.72939383854E+01  0.21422766666E+02  0.36966978163E+02  0.43597980954E+02  0.47000000000E+01 0. -1.
         -5    1    4    4    0  502  0.86354519058E+02 -0.15982483985E+03  0.56627088912E+03  0.59471496724E+03  0.47000000000E+01 0. -1.
<mgrwt>
<rscale>  0 0.41751224E+03</rscale>
<asrwt>0</asrwt>
<pdfrwt beam="1">  1       21 0.18604728E+00 0.41751224E+03</pdfrwt>
<pdfrwt beam="2">  1       21 0.55440662E-02 0.41751224E+03</pdfrwt>
<totfact> 0.33736786E+04</totfact>
</mgrwt>
</event>
<event>
 8    1  0.9478272E-006  0.2707199E+03  0.7546771E-02  0.1100868E+00
         21   -1    0    0  504  503  0.00000000000E+00  0.00000000000E+00  0.74429425626E+03  0.74429425626E+03  0.00000000000E+00 0. -1.
         21   -1    0    0  503  504 -0.00000000000E+00 -0.00000000000E+00 -0.24617028903E+02  0.24617028903E+02  0.00000000000E+00 0. -1.
         25    2    1    2    0    0 -0.32954561994E+01  0.32220927417E+02  0.24458485167E+03  0.27658331579E+03  0.12501013043E+03 0.  0.
         25    2    1    2    0    0  0.32954561994E+01 -0.32220927417E+02  0.47509237569E+03  0.49232796938E+03  0.12500006320E+03 0.  0.
          5    1    3    3  501    0  0.29576048026E+01 -0.10454794223E+02  0.23073666686E+03  0.23104014712E+03  0.47000000000E+01 0.  1.
         -5    1    3    3    0  501 -0.62530610021E+01  0.42675721640E+02  0.13848184811E+02  0.45543168664E+02  0.47000000000E+01 0.  1.
          5    1    4    4  502    0 -0.72181653226E+01 -0.36617400062E+02  0.47815000125E+03  0.47962740705E+03  0.47000000000E+01 0. -1.
         -5    1    4    4    0  502  0.10513621522E+02  0.43964726446E+01 -0.30576255677E+01  0.12700562324E+02  0.47000000000E+01 0. -1.
<mgrwt>
<rscale>  0 0.27071988E+03</rscale>
<asrwt>0</asrwt>
<pdfrwt beam="1">  1       21 0.11450679E+00 0.27071988E+03</pdfrwt>
<pdfrwt beam="2">  1       21 0.37872358E-02 0.27071988E+03</pdfrwt>
<totfact> 0.24835714E+05</totfact>
</mgrwt>
</event>
<event>
 8    1  0.9478272E-006  0.2794521E+03  0.7546771E-02  0.1095989E+00
         21   -1    0    0  504  503  0.00000000000E+00  0.00000000000E+00  0.10959739468E+04  0.10959739468E+04  0.00000000000E+00 0.  1.
         21   -1    0    0  503  504 -0.00000000000E+00 -0.00000000000E+00 -0.17813713672E+02  0.17813713672E+02  0.00000000000E+00 0.  1.
         25    2    1    2    0    0  0.19802043729E+02 -0.16794297158E+02  0.31281263581E+03  0.33786431490E+03  0.12500552310E+03 0.  0.
         25    2    1    2    0    0 -0.19802043729E+02  0.16794297158E+02  0.76534759736E+03  0.77592334562E+03  0.12500369649E+03 0.  0.
          5    1    3    3  501    0  0.43865336275E+02  0.28079753015E+02  0.25659365691E+03  0.26186835438E+03  0.47000000000E+01 0. -1.
         -5    1    3    3    0  501 -0.24063292546E+02 -0.44874050173E+02  0.56218978896E+02  0.75995960519E+02  0.47000000000E+01 0. -1.
          5    1    4    4  502    0  0.34076994238E+02 -0.15636746587E+02  0.55603231528E+03  0.55731478988E+03  0.47000000000E+01 0.  1.
         -5    1    4    4    0  502 -0.53879037967E+02  0.32431043744E+02  0.20931528208E+03  0.21860855574E+03  0.47000000000E+01 0.  1.
<mgrwt>
<rscale>  0 0.27945208E+03</rscale>
<asrwt>0</asrwt>
<pdfrwt beam="1">  1       21 0.16861132E+00 0.27945208E+03</pdfrwt>
<pdfrwt beam="2">  1       21 0.27405722E-02 0.27945208E+03</pdfrwt>
<totfact> 0.15472106E+05</totfact>
</mgrwt>
</event>
<event>
 8    1  0.9478272E-006  0.3062220E+03  0.7546771E-02  0.1082171E+00
         21   -1    0    0  504  503  0.00000000000E+00  0.00000000000E+00  0.12291863033E+04  0.12291863033E+04  0.00000000000E+00 0.  1.
         21   -1    0    0  503  504 -0.00000000000E+00 -0.00000000000E+00 -0.19071952305E+02  0.19071952305E+02  0.00000000000E+00 0.  1.
         25    2    1    2    0    0  0.10124014837E+02 -0.50852351541E+02  0.31310552238E+03  0.34109887156E+03  0.12499965881E+03 0.  0.
         25    2    1    2    0    0 -0.10124014837E+02  0.50852351541E+02  0.89700882862E+03  0.90715938405E+03  0.12499940843E+03 0.  0.
          5    1    3    3  501    0  0.18415984295E+02 -0.47619423609E+02  0.32296502915E+03  0.32700956873E+03  0.47000000000E+01 0. -1.
         -5    1    3    3    0  501 -0.82919694577E+01 -0.32329279320E+01 -0.98595067764E+01  0.14089302835E+02  0.47000000000E+01 0. -1.
          5    1    4    4  502    0 -0.51130202423E+02 -0.15128178770E+02  0.47764594950E+03  0.48063593547E+03  0.47000000000E+01 0.  1.
         -5    1    4    4    0  502  0.41006187586E+02  0.65980530311E+02  0.41936287912E+03  0.42652344858E+03  0.47000000000E+01 0.  1.
<mgrwt>
<rscale>  0 0.30622203E+03</rscale>
<asrwt>0</asrwt>
<pdfrwt beam="1">  1       21 0.18910552E+00 0.30622203E+03</pdfrwt>
<pdfrwt beam="2">  1       21 0.29341475E-02 0.30622203E+03</pdfrwt>
<totfact> 0.98514954E+04</totfact>
</mgrwt>
</event>
<event>
 8    1  0.9478272E-006  0.2565352E+03  0.7546771E-02  0.1109243E+00
         21   -1    0    0  504  503  0.00000000000E+00  0.00000000000E+00  0.24965559632E+02  0.24965559632E+02  0.00000000000E+00 0.  1.
         21   -1    0    0  503  504 -0.00000000000E+00 -0.00000000000E+00 -0.65901075594E+03  0.65901075594E+03  0.00000000000E+00 0.  1.
         25    2    1    2    0    0  0.18294729801E+02  0.16637482223E+02 -0.27789630735E+03  0.30571788512E+03  0.12500225873E+03 0.  0.
         25    2    1    2    0    0 -0.18294729801E+02 -0.16637482223E+02 -0.35614888896E+03  0.37825843046E+03  0.12500362456E+03 0.  0.
          5    1    3    3  501    0 -0.38034945922E+02  0.49064811849E+02 -0.13565595322E+03  0.14926031126E+03  0.47000000000E+01 0.  1.
         -5    1    3    3    0  501  0.56329675722E+02 -0.32427329626E+02 -0.14224035413E+03  0.15645757386E+03  0.47000000000E+01 0.  1.
          5    1    4    4  502    0  0.50484915145E+02  0.73336881781E+01 -0.10689133937E+03  0.11853420634E+03  0.47000000000E+01 0.  1.
         -5    1    4    4    0  502 -0.68779644945E+02 -0.23971170401E+02 -0.24925754958E+03  0.25972422412E+03  0.47000000000E+01 0.  1.
<mgrwt>
<rscale>  0 0.25653516E+03</rscale>
<asrwt>0</asrwt>
<pdfrwt beam="1">  1       21 0.38408546E-02 0.25653516E+03</pdfrwt>
<pdfrwt beam="2">  1       21 0.10138629E+00 0.25653516E+03</pdfrwt>
<totfact> 0.32738411E+05</totfact>
</mgrwt>
</event>
<event>
 8    1  0.9478272E-006  0.3459313E+03  0.7546771E-02  0.1064297E+00
         21   -1    0    0  504  503  0.00000000000E+00  0.00000000000E+00  0.33406144857E+03  0.33406144857E+03  0.00000000000E+00 0. -1.
         21   -1    0    0  503  504 -0.00000000000E+00 -0.00000000000E+00 -0.89555732421E+02  0.89555732421E+02  0.00000000000E+00 0. -1.
         25    2    1    2    0    0  0.20503049056E+02  0.11663572816E+03  0.10237008444E+03  0.20032423754E+03  0.12500359136E+03 0.  0.
         25    2    1    2    0    0 -0.20503049056E+02 -0.11663572816E+03  0.14213563170E+03  0.22329294344E+03  0.12503172673E+03 0.  0.
          5    1    3    3  501    0 -0.15431603914E+02  0.13185107647E+03  0.81061900427E+02  0.15561478872E+03  0.47000000000E+01 0. -1.
         -5    1    3    3    0  501  0.35934652971E+02 -0.15215348310E+02  0.21308184014E+02  0.44709448826E+02  0.47000000000E+01 0. -1.
          5    1    4    4  502    0 -0.16018815258E+02  0.22266825282E+02  0.47627483655E+02  0.55162316392E+02  0.47000000000E+01 0.  1.
         -5    1    4    4    0  502 -0.44842337981E+01 -0.13890255344E+03  0.94508148048E+02  0.16813062705E+03  0.47000000000E+01 0.  1.
<mgrwt>
<rscale>  0 0.34593131E+03</rscale>
<asrwt>0</asrwt>
<pdfrwt beam="1">  1       21 0.51394068E-01 0.34593131E+03</pdfrwt>
<pdfrwt beam="2">  1       21 0.13777805E-01 0.34593131E+03</pdfrwt>
<totfact> 0.15789469E+05</totfact>
</mgrwt>
</event>
<event>
 8    1  0.9478272E-006  0.3077992E+03  0.7546771E-02  0.1081406E+00
         21   -1    0    0  504  503  0.00000000000E+00  0.00000000000E+00  0.15647797883E+02  0.15647797883E+02  0.00000000000E+00 0.  1.
         21   -1    0    0  503  504 -0.00000000000E+00 -0.00000000000E+00 -0.15136374630E+04  0.15136374630E+04  0.00000000000E+00 0.  1.
         25    2    1    2    0    0  0.38985925409E+02  0.80864401085E+02 -0.74273724758E+03  0.75851312678E+03  0.12499836320E+03 0.  0.
         25    2    1    2    0    0 -0.38985925409E+02 -0.80864401085E+02 -0.75525241754E+03  0.77077213411E+03  0.12499805912E+03 0.  0.
          5    1    3    3  501    0  0.23202894488E+02 -0.19741562426E+02 -0.53237521157E+02  0.61517698743E+02  0.47000000000E+01 0.  1.
         -5    1    3    3    0  501  0.15783030921E+02  0.10060596351E+03 -0.68949972643E+03  0.69699542803E+03  0.47000000000E+01 0.  1.
          5    1    4    4  502    0 -0.42345342214E+01 -0.64151408194E+02 -0.70147919025E+03  0.70443486485E+03  0.47000000000E+01 0.  1.
         -5    1    4    4    0  502 -0.34751391188E+02 -0.16712992891E+02 -0.53773227284E+02  0.66337269264E+02  0.47000000000E+01 0.  1.
<mgrwt>
<rscale>  0 0.30779924E+03</rscale>
<asrwt>0</asrwt>
<pdfrwt beam="1">  1       21 0.24073530E-02 0.30779924E+03</pdfrwt>
<pdfrwt beam="2">  1       21 0.23286735E+00 0.30779924E+03</pdfrwt>
<totfact> 0.71670643E+04</totfact>
</mgrwt>
</event>
<event>
 8    1  0.9478272E-006  0.7310210E+03  0.7546771E-02  0.9665605E-01
         21   -1    0    0  504  503  0.00000000000E+00  0.00000000000E+00  0.49026960877E+03  0.49026960877E+03  0.00000000000E+00 0. -1.
         21   -1    0    0  503  504 -0.00000000000E+00 -0.00000000000E+00 -0.27249887239E+03  0.27249887239E+03  0.00000000000E+00 0. -1.
         25    2    1    2    0    0  0.92119570011E+02 -0.88228042833E+02 -0.22386438123E+03  0.28637644119E+03  0.12500400859E+03 0.  0.
         25    2    1    2    0    0 -0.92119570011E+02  0.88228042833E+02  0.44163511761E+03  0.47639203997E+03  0.12505037353E+03 0.  0.
          5    1    3    3  501    0  0.53506637541E+02 -0.21573489764E+02 -0.96470687404E+01  0.58681612596E+02  0.47000000000E+01 0.  1.
         -5    1    3    3    0  501  0.38612932469E+02 -0.66654553069E+02 -0.21421731249E+03  0.22769482859E+03  0.47000000000E+01 0.  1.
          5    1    4    4  502    0 -0.16549917445E+01  0.48292044902E+02  0.29809786286E+03  0.30202530761E+03  0.47000000000E+01 0. -1.
         -5    1    4    4    0  502 -0.90464578266E+02  0.39935997931E+02  0.14353725475E+03  0.17436673236E+03  0.47000000000E+01 0. -1.
<mgrwt>
<rscale>  0 0.73102097E+03</rscale>
<asrwt>0</asrwt>
<pdfrwt beam="1">  1       21 0.75426093E-01 0.73102097E+03</pdfrwt>
<pdfrwt beam="2">  1       21 0.41922904E-01 0.73102097E+03</pdfrwt>
<totfact> 0.71372854E+03</totfact>
</mgrwt>
</event>
<event>
 8    1  0.9478272E-006  0.3382180E+03  0.7546771E-02  0.1067557E+00
         21   -1    0    0  504  503  0.00000000000E+00  0.00000000000E+00  0.40339258620E+03  0.40339258620E+03  0.00000000000E+00 0.  1.
         21   -1    0    0  503  504 -0.00000000000E+00 -0.00000000000E+00 -0.70893349520E+02  0.70893349520E+02  0.00000000000E+00 0.  1.
         25    2    1    2    0    0 -0.18584415563E+02 -0.90743413525E+02  0.25919526233E+03  0.30230389837E+03  0.12500286140E+03 0.  0.
         25    2    1    2    0    0  0.18584415563E+02  0.90743413525E+02  0.73303974351E+02  0.17198203735E+03  0.12499840365E+03 0.  0.
          5    1    3    3  501    0  0.21951641170E+02  0.24113409469E+02  0.67980273428E+02  0.75542958915E+02  0.47000000000E+01 0. -1.
         -5    1    3    3    0  501 -0.40536056733E+02 -0.11485682299E+03  0.19121498890E+03  0.22676093946E+03  0.47000000000E+01 0. -1.
          5    1    4    4  502    0  0.11483188859E+02  0.12345017469E+02  0.89737418720E+02  0.91428427752E+02  0.47000000000E+01 0. -1.
         -5    1    4    4    0  502  0.71012267045E+01  0.78398396056E+02 -0.16433444369E+02  0.80553609594E+02  0.47000000000E+01 0. -1.
<mgrwt>
<rscale>  0 0.33821799E+03</rscale>
<asrwt>0</asrwt>
<pdfrwt beam="1">  1       21 0.62060396E-01 0.33821799E+03</pdfrwt>
<pdfrwt beam="2">  1       21 0.10906669E-01 0.33821799E+03</pdfrwt>
<totfact> 0.16097629E+05</totfact>
</mgrwt>
</event>
<event>
 8    1  0.9478272E-006  0.4715544E+03  0.7546771E-02  0.1021482E+00
         21   -1    0    0  504  503  0.00000000000E+00  0.00000000000E+00  0.51889687170E+03  0.51889687170E+03  0.00000000000E+00 0.  1.
         21   -1    0    0  503  504 -0.00000000000E+00 -0.00000000000E+00 -0.10713284190E+03  0.10713284190E+03  0.00000000000E+00 0.  1.
         25    2    1    2    0    0  0.13493441308E+03 -0.14734258554E+03  0.19661977528E+03  0.30692068114E+03  0.12499534045E+03 0.  0.
         25    2    1    2    0    0 -0.13493441308E+03  0.14734258554E+03  0.21514425451E+03  0.31910903245E+03  0.12500556387E+03 0.  0.
          5    1    3    3  501    0  0.76688148679E+01 -0.76032063412E+02  0.22671544702E+02  0.79848445992E+02  0.47000000000E+01 0.  1.
         -5    1    3    3    0  501  0.12726559821E+03 -0.71310522125E+02  0.17394823058E+03  0.22707223515E+03  0.47000000000E+01 0.  1.
          5    1    4    4  502    0 -0.50565277735E+02 -0.14701635561E+02  0.51191155422E+02  0.73590826833E+02  0.47000000000E+01 0. -1.
         -5    1    4    4    0  502 -0.84369135346E+02  0.16204422110E+03  0.16395309909E+03  0.24551820562E+03  0.47000000000E+01 0. -1.
<mgrwt>
<rscale>  0 0.47155444E+03</rscale>
<asrwt>0</asrwt>
<pdfrwt beam="1">  1       21 0.79830287E-01 0.47155444E+03</pdfrwt>
<pdfrwt beam="2">  1       21 0.16481976E-01 0.47155444E+03</pdfrwt>
<totfact> 0.41601096E+04</totfact>
</mgrwt>
</event>
<event>
 8    1  0.9478272E-006  0.2990791E+03  0.7546771E-02  0.1085702E+00
         21   -1    0    0  504  503  0.00000000000E+00  0.00000000000E+00  0.98918045349E+03  0.98918045349E+03  0.00000000000E+00 0.  1.
         21   -1    0    0  503  504 -0.00000000000E+00 -0.00000000000E+00 -0.22606669359E+02  0.22606669359E+02  0.00000000000E+00 0.  1.
         25    2    1    2    0    0 -0.57986387727E+01 -0.77904738330E+02  0.39803515919E+03  0.42445207552E+03  0.12499921598E+03 0.  0.
         25    2    1    2    0    0  0.57986387727E+01  0.77904738330E+02  0.56853862494E+03  0.58733504732E+03  0.12499406908E+03 0.  0.
          5    1    3    3  501    0  0.38903906303E+02 -0.30183084627E+02  0.31399143409E+03  0.31786356067E+03  0.47000000000E+01 0. -1.
         -5    1    3    3    0  501 -0.44702545075E+02 -0.47721653703E+02  0.84043725108E+02  0.10658851485E+03  0.47000000000E+01 0. -1.
          5    1    4    4  502    0  0.16108424446E+01 -0.32834365060E+02  0.85437482282E+02  0.91664299053E+02  0.47000000000E+01 0. -1.
         -5    1    4    4    0  502  0.41877963281E+01  0.11073910339E+03  0.48310114265E+03  0.49567074827E+03  0.47000000000E+01 0. -1.
<mgrwt>
<rscale>  0 0.29907909E+03</rscale>
<asrwt>0</asrwt>
<pdfrwt beam="1">  1       21 0.15218157E+00 0.29907909E+03</pdfrwt>
<pdfrwt beam="2">  1       21 0.34779499E-02 0.29907909E+03</pdfrwt>
<totfact> 0.13671696E+05</totfact>
</mgrwt>
</event>
<event>
 8    1  0.9478272E-006  0.2786810E+03  0.7546771E-02  0.1096412E+00
         21   -1    0    0  504  503  0.00000000000E+00  0.00000000000E+00  0.42923920106E+02  0.42923920106E+02  0.00000000000E+00 0.  1.
         21   -1    0    0  503  504 -0.00000000000E+00 -0.00000000000E+00 -0.45232992429E+03  0.45232992429E+03  0.00000000000E+00 0.  1.
         25    2    1    2    0    0  0.55085150707E+02 -0.22422820343E+02 -0.23356173899E+03  0.27150781123E+03  0.12501299508E+03 0.  0.
         25    2    1    2    0    0 -0.55085150707E+02  0.22422820343E+02 -0.17584426520E+03  0.22374603317E+03  0.12491567178E+03 0.  0.
          5    1    3    3  501    0  0.61049921254E+02  0.23646556217E+01 -0.33621899590E+02  0.69894253078E+02  0.47000000000E+01 0. -1.
         -5    1    3    3    0  501 -0.59647705469E+01 -0.24787475965E+02 -0.19993983940E+03  0.20161355815E+03  0.47000000000E+01 0. -1.
          5    1    4    4  502    0  0.76616355241E+00  0.61486675501E+02 -0.45693766066E+02  0.76754208536E+02  0.47000000000E+01 0. -1.
         -5    1    4    4    0  502 -0.55851314259E+02 -0.39063855158E+02 -0.13015049913E+03  0.14699182463E+03  0.47000000000E+01 0. -1.
<mgrwt>
<rscale>  0 0.27868099E+03</rscale>
<asrwt>0</asrwt>
<pdfrwt beam="1">  1       21 0.66036802E-02 0.27868099E+03</pdfrwt>
<pdfrwt beam="2">  1       21 0.69589217E-01 0.27868099E+03</pdfrwt>
<totfact> 0.30726727E+05</totfact>
</mgrwt>
</event>
<event>
 8    1  0.9478272E-006  0.3247521E+03  0.7546771E-02  0.1073483E+00
         21   -1    0    0  504  503  0.00000000000E+00  0.00000000000E+00  0.30327468768E+02  0.30327468768E+02  0.00000000000E+00 0. -1.
         21   -1    0    0  503  504 -0.00000000000E+00 -0.00000000000E+00 -0.86937628574E+03  0.86937628574E+03  0.00000000000E+00 0. -1.
         25    2    1    2    0    0 -0.44349826503E+02  0.11056775820E+02 -0.67718847480E+03  0.69014836984E+03  0.12502552778E+03 0.  0.
         25    2    1    2    0    0  0.44349826503E+02 -0.11056775820E+02 -0.16186034218E+03  0.20955538467E+03  0.12500211786E+03 0.  0.
          5    1    3    3  501    0 -0.30868648200E+02  0.41688400715E+02 -0.10745047746E+03  0.11940892472E+03  0.47000000000E+01 0. -1.
         -5    1    3    3    0  501 -0.13481178303E+02 -0.30631624895E+02 -0.56973799733E+03  0.57073944512E+03  0.47000000000E+01 0. -1.
          5    1    4    4  502    0  0.36260196756E+01  0.96003671267E+01 -0.16324023666E+03  0.16363000926E+03  0.47000000000E+01 0. -1.
         -5    1    4    4    0  502  0.40723806827E+02 -0.20657142947E+02  0.13798944786E+01  0.45925375404E+02  0.47000000000E+01 0. -1.
<mgrwt>
<rscale>  0 0.32475210E+03</rscale>
<asrwt>0</asrwt>
<pdfrwt beam="1">  1       21 0.46657653E-02 0.32475210E+03</pdfrwt>
<pdfrwt beam="2">  1       21 0.13375017E+00 0.32475210E+03</pdfrwt>
<totfact> 0.11596166E+05</totfact>
</mgrwt>
</event>
<event>
 8    1  0.9478272E-006  0.3490897E+03  0.7546771E-02  0.1062989E+00
         21   -1    0    0  504  503  0.00000000000E+00  0.00000000000E+00  0.72950834832E+02  0.72950834832E+02  0.00000000000E+00 0. -1.
         21   -1    0    0  503  504 -0.00000000000E+00 -0.00000000000E+00 -0.41762233524E+03  0.41762233524E+03  0.00000000000E+00 0. -1.
         25    2    1    2    0    0  0.31758914191E+02 -0.58567357859E+02 -0.29009023684E+02  0.14458468210E+03  0.12499777120E+03 0.  0.
         25    2    1    2    0    0 -0.31758914191E+02  0.58567357859E+02 -0.31566247673E+03  0.34598848798E+03  0.12500588211E+03 0.  0.
          5    1    3    3  501    0 -0.38959763185E+01 -0.15388388717E+01  0.44439724881E+02  0.44883469162E+02  0.47000000000E+01 0.  1.
         -5    1    3    3    0  501  0.35654890509E+02 -0.57028518987E+02 -0.73448748565E+02  0.99701212936E+02  0.47000000000E+01 0.  1.
          5    1    4    4  502    0 -0.42155194074E+01  0.86000193892E+02 -0.28016821158E+03  0.29313839860E+03  0.47000000000E+01 0.  1.
         -5    1    4    4    0  502 -0.27543394783E+02 -0.27432836034E+02 -0.35494265152E+02  0.52850089382E+02  0.47000000000E+01 0.  1.
<mgrwt>
<rscale>  0 0.34908966E+03</rscale>
<asrwt>0</asrwt>
<pdfrwt beam="1">  1       21 0.11223206E-01 0.34908966E+03</pdfrwt>
<pdfrwt beam="2">  1       21 0.64249589E-01 0.34908966E+03</pdfrwt>
<totfact> 0.14133815E+05</totfact>
</mgrwt>
</event>
<event>
 8    1  0.9478272E-006  0.3081813E+03  0.7546771E-02  0.1081221E+00
         21   -1    0    0  504  503  0.00000000000E+00  0.00000000000E+00  0.84420245428E+03  0.84420245428E+03  0.00000000000E+00 0.  1.
         21   -1    0    0  503  504 -0.00000000000E+00 -0.00000000000E+00 -0.28125876548E+02  0.28125876548E+02  0.00000000000E+00 0.  1.
         25    2    1    2    0    0 -0.15235627986E+02  0.27701363505E+02  0.16923024542E+03  0.21275569749E+03  0.12500648363E+03 0.  0.
         25    2    1    2    0    0  0.15235627986E+02 -0.27701363505E+02  0.64684633231E+03  0.65957263334E+03  0.12500556436E+03 0.  0.
          5    1    3    3  501    0  0.33080106006E+02  0.59868030889E+02  0.72006435394E+02  0.99425807887E+02  0.47000000000E+01 0.  1.
         -5    1    3    3    0  501 -0.48315733992E+02 -0.32166667384E+02  0.97223810025E+02  0.11332988960E+03  0.47000000000E+01 0.  1.
          5    1    4    4  502    0 -0.19029795725E+02 -0.52879649038E+02  0.55926630569E+03  0.56210255389E+03  0.47000000000E+01 0.  1.
         -5    1    4    4    0  502  0.34265423711E+02  0.25178285533E+02  0.87580026618E+02  0.97470079445E+02  0.47000000000E+01 0.  1.
<mgrwt>
<rscale>  0 0.30818134E+03</rscale>
<asrwt>0</asrwt>
<pdfrwt beam="1">  1       21 0.12987728E+00 0.30818134E+03</pdfrwt>
<pdfrwt beam="2">  1       21 0.43270586E-02 0.30818134E+03</pdfrwt>
<totfact> 0.14288856E+05</totfact>
</mgrwt>
</event>
<event>
 8    1  0.9478272E-006  0.2822539E+03  0.7546771E-02  0.1094464E+00
         21   -1    0    0  504  503  0.00000000000E+00  0.00000000000E+00  0.91840311594E+03  0.91840311594E+03  0.00000000000E+00 0. -1.
         21   -1    0    0  503  504 -0.00000000000E+00 -0.00000000000E+00 -0.21686362150E+02  0.21686362150E+02  0.00000000000E+00 0. -1.
         25    2    1    2    0    0  0.41093216437E+02 -0.11179143193E+02  0.28254786868E+03  0.31188366352E+03  0.12499798315E+03 0.  0.
         25    2    1    2    0    0 -0.41093216437E+02  0.11179143193E+02  0.61416888511E+03  0.62820581458E+03  0.12500200139E+03 0.  0.
          5    1    3    3  501    0 -0.26030361989E+02 -0.41852652295E+02  0.62451237104E+02  0.79696118257E+02  0.47000000000E+01 0. -1.
         -5    1    3    3    0  501  0.67123578426E+02  0.30673509102E+02  0.22009663158E+03  0.23218754526E+03  0.47000000000E+01 0. -1.
          5    1    4    4  502    0 -0.50855404860E+02  0.22943177828E+02  0.60875028358E+03  0.61131960493E+03  0.47000000000E+01 0. -1.
         -5    1    4    4    0  502  0.97621884232E+01 -0.11764034635E+02  0.54186015286E+01  0.16886209646E+02  0.47000000000E+01 0. -1.
<mgrwt>
<rscale>  0 0.28225395E+03</rscale>
<asrwt>0</asrwt>
<pdfrwt beam="1">  1       21 0.14129276E+00 0.28225395E+03</pdfrwt>
<pdfrwt beam="2">  1       21 0.33363641E-02 0.28225395E+03</pdfrwt>
<totfact> 0.17948428E+05</totfact>
</mgrwt>
</event>
<event>
 8    1  0.9478272E-006  0.3070366E+03  0.7546771E-02  0.1081775E+00
         21   -1    0    0  504  503  0.00000000000E+00  0.00000000000E+00  0.24238429127E+03  0.24238429127E+03  0.00000000000E+00 0. -1.
         21   -1    0    0  503  504 -0.00000000000E+00 -0.00000000000E+00 -0.97233458682E+02  0.97233458682E+02  0.00000000000E+00 0. -1.
         25    2    1    2    0    0  0.73262195310E+02  0.50117147880E+02  0.63705496081E+02  0.16601963566E+03  0.12500020568E+03 0.  0.
         25    2    1    2    0    0 -0.73262195310E+02 -0.50117147880E+02  0.81445336503E+02  0.17359811429E+03  0.12499553862E+03 0.  0.
          5    1    3    3  501    0 -0.78117844230E+01 -0.70635456588E+01 -0.28345203252E+02  0.30601604542E+02  0.47000000000E+01 0.  1.
         -5    1    3    3    0  501  0.81073979733E+02  0.57180693539E+02  0.92050699333E+02  0.13541803111E+03  0.47000000000E+01 0.  1.
          5    1    4    4  502    0  0.12924609292E+02  0.21505302632E+02  0.51546135336E+02  0.57520584444E+02  0.47000000000E+01 0.  1.
         -5    1    4    4    0  502 -0.86186804602E+02 -0.71622450512E+02  0.29899201167E+02  0.11607752985E+03  0.47000000000E+01 0.  1.
<mgrwt>
<rscale>  0 0.30703656E+03</rscale>
<asrwt>0</asrwt>
<pdfrwt beam="1">  1       21 0.37289891E-01 0.30703656E+03</pdfrwt>
<pdfrwt beam="2">  1       21 0.14958994E-01 0.30703656E+03</pdfrwt>
<totfact> 0.26603725E+05</totfact>
</mgrwt>
</event>
<event>
 8    1  0.9478272E-006  0.2967849E+03  0.7546771E-02  0.1086859E+00
         21   -1    0    0  504  503  0.00000000000E+00  0.00000000000E+00  0.43958138848E+03  0.43958138848E+03  0.00000000000E+00 0.  1.
         21   -1    0    0  503  504 -0.00000000000E+00 -0.00000000000E+00 -0.50093845570E+02  0.50093845570E+02  0.00000000000E+00 0.  1.
         25    2    1    2    0    0 -0.75304478343E+02 -0.11550370787E+02  0.23494063206E+03  0.27680432768E+03  0.12497743678E+03 0.  0.
         25    2    1    2    0    0  0.75304478343E+02  0.11550370787E+02  0.15454691085E+03  0.21287090637E+03  0.12500039841E+03 0.  0.
          5    1    3    3  501    0 -0.60400129171E+02 -0.63749277969E+02  0.17463263368E+03  0.19552696180E+03  0.47000000000E+01 0. -1.
         -5    1    3    3    0  501 -0.14904349172E+02  0.52198907182E+02  0.60307998389E+02  0.81277365883E+02  0.47000000000E+01 0. -1.
          5    1    4    4  502    0  0.10252800974E+02  0.25605024047E+02 -0.14226811665E+02  0.31388363359E+02  0.47000000000E+01 0.  1.
         -5    1    4    4    0  502  0.65051677370E+02 -0.14054653260E+02  0.16877372251E+03  0.18148254301E+03  0.47000000000E+01 0.  1.
<mgrwt>
<rscale>  0 0.29678492E+03</rscale>
<asrwt>0</asrwt>
<pdfrwt beam="1">  1       21 0.67627904E-01 0.29678492E+03</pdfrwt>
<pdfrwt beam="2">  1       21 0.77067457E-02 0.29678492E+03</pdfrwt>
<totfact> 0.24908491E+05</totfact>
</mgrwt>
</event>
<event>
 8    1  0.9478272E-006  0.3306982E+03  0.7546771E-02  0.1070828E+00
         21   -1    0    0  504  503  0.00000000000E+00  0.00000000000E+00  0.44724191834E+02  0.44724191834E+02  0.00000000000E+00 0. -1.
         21   -1    0    0  503  504 -0.00000000000E+00 -0.00000000000E+00 -0.61130953258E+03  0.61130953258E+03  0.00000000000E+00 0. -1.
         25    2    1    2    0    0 -0.91175800636E+02 -0.55594037842E+02 -0.31829477142E+03  0.35824581256E+03  0.12499910815E+03 0.  0.
         25    2    1    2    0    0  0.91175800636E+02  0.55594037842E+02 -0.24829056932E+03  0.29778791185E+03  0.12500283983E+03 0.  0.
          5    1    3    3  501    0 -0.52557030249E+00  0.11956771126E+02  0.64273440775E+01  0.14375025280E+02  0.47000000000E+01 0.  1.
         -5    1    3    3    0  501 -0.90650230334E+02 -0.67550808968E+02 -0.32472211550E+03  0.34387078728E+03  0.47000000000E+01 0.  1.
          5    1    4    4  502    0  0.91475360284E+01 -0.24041814584E+02 -0.13229181616E+03  0.13485140299E+03  0.47000000000E+01 0. -1.
         -5    1    4    4    0  502  0.82028264608E+02  0.79635852426E+02 -0.11599875316E+03  0.16293650887E+03  0.47000000000E+01 0. -1.
<mgrwt>
<rscale>  0 0.33069820E+03</rscale>
<asrwt>0</asrwt>
<pdfrwt beam="1">  1       21 0.68806448E-02 0.33069820E+03</pdfrwt>
<pdfrwt beam="2">  1       21 0.94047621E-01 0.33069820E+03</pdfrwt>
<totfact> 0.14160666E+05</totfact>
</mgrwt>
</event>
<event>
 8    1  0.9478272E-006  0.3334197E+03  0.7546771E-02  0.1069634E+00
         21   -1    0    0  504  503  0.00000000000E+00  0.00000000000E+00  0.57338355175E+03  0.57338355175E+03  0.00000000000E+00 0. -1.
         21   -1    0    0  503  504 -0.00000000000E+00 -0.00000000000E+00 -0.48470467585E+02  0.48470467585E+02  0.00000000000E+00 0. -1.
         25    2    1    2    0    0 -0.65234007373E+02 -0.32822919416E+02  0.41664018591E+03  0.44107684361E+03  0.12500767054E+03 0.  0.
         25    2    1    2    0    0  0.65234007373E+02  0.32822919416E+02  0.10827289825E+03  0.18077717573E+03  0.12499818803E+03 0.  0.
          5    1    3    3  501    0 -0.58598900933E+02 -0.41650098183E+02  0.42187556030E+03  0.42798322426E+03  0.47000000000E+01 0. -1.
         -5    1    3    3    0  501 -0.66351064409E+01  0.88271787670E+01 -0.52353743933E+01  0.13093619343E+02  0.47000000000E+01 0. -1.
          5    1    4    4  502    0  0.46434724510E+02  0.76947492475E+01  0.13260554502E+03  0.14078960677E+03  0.47000000000E+01 0. -1.
         -5    1    4    4    0  502  0.18799282863E+02  0.25128170168E+02 -0.24332646765E+02  0.39987568953E+02  0.47000000000E+01 0. -1.
<mgrwt>
<rscale>  0 0.33341967E+03</rscale>
<asrwt>0</asrwt>
<pdfrwt beam="1">  1       21 0.88212849E-01 0.33341967E+03</pdfrwt>
<pdfrwt beam="2">  1       21 0.74569954E-02 0.33341967E+03</pdfrwt>
<totfact> 0.14295341E+05</totfact>
</mgrwt>
</event>
<event>
 8    1  0.9478272E-006  0.3194214E+03  0.7546771E-02  0.1075916E+00
         21   -1    0    0  504  503  0.00000000000E+00  0.00000000000E+00  0.17375392393E+04  0.17375392393E+04  0.00000000000E+00 0.  1.
         21   -1    0    0  503  504 -0.00000000000E+00 -0.00000000000E+00 -0.14680245924E+02  0.14680245924E+02  0.00000000000E+00 0.  1.
         25    2    1    2    0    0  0.78331756168E+01  0.97412237022E+02  0.76146728858E+03  0.77782229919E+03  0.12499837988E+03 0.  0.
         25    2    1    2    0    0 -0.78331756168E+01 -0.97412237022E+02  0.96139170478E+03  0.97439718603E+03  0.12500145417E+03 0.  0.
          5    1    3    3  501    0  0.50658069290E+02  0.22719207632E+02  0.14470021890E+03  0.15505691125E+03  0.47000000000E+01 0. -1.
         -5    1    3    3    0  501 -0.42824893673E+02  0.74693029390E+02  0.61676706969E+03  0.62276538793E+03  0.47000000000E+01 0. -1.
          5    1    4    4  502    0  0.49142745674E+02 -0.62909629393E+02  0.70234526315E+03  0.70688300983E+03  0.47000000000E+01 0.  1.
         -5    1    4    4    0  502 -0.56975921291E+02 -0.34502607629E+02  0.25904644164E+03  0.26751417620E+03  0.47000000000E+01 0.  1.
<mgrwt>
<rscale>  0 0.31942137E+03</rscale>
<asrwt>0</asrwt>
<pdfrwt beam="1">  1       21 0.26731357E+00 0.31942137E+03</pdfrwt>
<pdfrwt beam="2">  1       21 0.22585007E-02 0.31942137E+03</pdfrwt>
<totfact> 0.49054434E+04</totfact>
</mgrwt>
</event>
<event>
 8    1  0.9478272E-006  0.2576815E+03  0.7546771E-02  0.1108544E+00
         21   -1    0    0  504  503  0.00000000000E+00  0.00000000000E+00  0.29368931855E+02  0.29368931855E+02  0.00000000000E+00 0. -1.
         21   -1    0    0  503  504 -0.00000000000E+00 -0.00000000000E+00 -0.56522122159E+03  0.56522122159E+03  0.00000000000E+00 0. -1.
         25    2    1    2    0    0  0.26781395183E+02  0.15804833796E+02 -0.26237601810E+03  0.29229759234E+03  0.12501868547E+03 0.  0.
         25    2    1    2    0    0 -0.26781395183E+02 -0.15804833796E+02 -0.27347627164E+03  0.30229256111E+03  0.12499794179E+03 0.  0.
          5    1    3    3  501    0 -0.45204020499E+01 -0.30904873763E+01 -0.25449964136E+03  0.25460192969E+03  0.47000000000E+01 0.  1.
         -5    1    3    3    0  501  0.31301797233E+02  0.18895321172E+02 -0.78763767311E+01  0.37695662650E+02  0.47000000000E+01 0.  1.
          5    1    4    4  502    0  0.44708158189E+02  0.18449575528E+02 -0.87862355894E+02  0.10040463052E+03  0.47000000000E+01 0. -1.
         -5    1    4    4    0  502 -0.71489553372E+02 -0.34254409323E+02 -0.18561391575E+03  0.20188793059E+03  0.47000000000E+01 0. -1.
<mgrwt>
<rscale>  0 0.25768154E+03</rscale>
<asrwt>0</asrwt>
<pdfrwt beam="1">  1       21 0.45182972E-02 0.25768154E+03</pdfrwt>
<pdfrwt beam="2">  1       21 0.86957110E-01 0.25768154E+03</pdfrwt>
<totfact> 0.35709224E+05</totfact>
</mgrwt>
</event>
<event>
 8    1  0.9478272E-006  0.4681598E+03  0.7546771E-02  0.1022441E+00
         21   -1    0    0  504  503  0.00000000000E+00  0.00000000000E+00  0.89183209144E+02  0.89183209144E+02  0.00000000000E+00 0. -1.
         21   -1    0    0  503  504 -0.00000000000E+00 -0.00000000000E+00 -0.61439146761E+03  0.61439146761E+03  0.00000000000E+00 0. -1.
         25    2    1    2    0    0 -0.69681387776E+02 -0.15978553814E+03 -0.40344380101E+03  0.45692359001E+03  0.12500141011E+03 0.  0.
         25    2    1    2    0    0  0.69681387776E+02  0.15978553814E+03 -0.12176445745E+03  0.24665108674E+03  0.12499304577E+03 0.  0.
          5    1    3    3  501    0 -0.78315436642E+01 -0.70710711765E+02 -0.29498592215E+03  0.30348001928E+03  0.47000000000E+01 0.  1.
         -5    1    3    3    0  501 -0.61849844112E+02 -0.89074826375E+02 -0.10845787886E+03  0.15344357073E+03  0.47000000000E+01 0.  1.
          5    1    4    4  502    0 -0.54905657197E+01  0.17232966544E+02 -0.77127547185E+02  0.79359120349E+02  0.47000000000E+01 0. -1.
         -5    1    4    4    0  502  0.75171953496E+02  0.14255257160E+03 -0.44636910264E+02  0.16729196639E+03  0.47000000000E+01 0. -1.
<mgrwt>
<rscale>  0 0.46815981E+03</rscale>
<asrwt>0</asrwt>
<pdfrwt beam="1">  1       21 0.13720493E-01 0.46815981E+03</pdfrwt>
<pdfrwt beam="2">  1       21 0.94521769E-01 0.46815981E+03</pdfrwt>
<totfact> 0.39326427E+04</totfact>
</mgrwt>
</event>
<event>
 8    1  0.9478272E-006  0.2766354E+03  0.7546771E-02  0.1097541E+00
         21   -1    0    0  504  503  0.00000000000E+00  0.00000000000E+00  0.31370206989E+02  0.31370206989E+02  0.00000000000E+00 0.  1.
         21   -1    0    0  503  504 -0.00000000000E+00 -0.00000000000E+00 -0.60987128641E+03  0.60987128641E+03  0.00000000000E+00 0.  1.
         25    2    1    2    0    0 -0.11142137993E+02 -0.16171099200E+02 -0.15973368363E+03  0.20377483806E+03  0.12499473290E+03 0.  0.
         25    2    1    2    0    0  0.11142137993E+02  0.16171099200E+02 -0.41876739579E+03  0.43746665534E+03  0.12500116425E+03 0.  0.
          5    1    3    3  501    0  0.21099933088E+02 -0.59688017766E+02 -0.12222418364E+03  0.13772693167E+03  0.47000000000E+01 0. -1.
         -5    1    3    3    0  501 -0.32242071080E+02  0.43516918566E+02 -0.37509499984E+02  0.66047906387E+02  0.47000000000E+01 0. -1.
          5    1    4    4  502    0 -0.19641170086E+02  0.60042642710E+01 -0.39826501234E+03  0.39882193621E+03  0.47000000000E+01 0.  1.
         -5    1    4    4    0  502  0.30783308079E+02  0.10166834929E+02 -0.20502383453E+02  0.38644719122E+02  0.47000000000E+01 0.  1.
<mgrwt>
<rscale>  0 0.27663542E+03</rscale>
<asrwt>0</asrwt>
<pdfrwt beam="1">  1       21 0.48261860E-02 0.27663542E+03</pdfrwt>
<pdfrwt beam="2">  1       21 0.93826346E-01 0.27663542E+03</pdfrwt>
<totfact> 0.26602768E+05</totfact>
</mgrwt>
</event>
<event>
 8    1  0.9478272E-006  0.2825966E+03  0.7546771E-02  0.1094279E+00
         21   -1    0    0  504  503  0.00000000000E+00  0.00000000000E+00  0.99203977344E+02  0.99203977344E+02  0.00000000000E+00 0. -1.
         21   -1    0    0  503  504 -0.00000000000E+00 -0.00000000000E+00 -0.20125419477E+03  0.20125419477E+03  0.00000000000E+00 0. -1.
         25    2    1    2    0    0  0.22407484661E+02  0.19181069729E+02  0.11636497550E+02  0.12894350245E+03  0.12498403875E+03 0.  0.
         25    2    1    2    0    0 -0.22407484661E+02 -0.19181069729E+02 -0.11368671498E+03  0.17151466967E+03  0.12499041541E+03 0.  0.
          5    1    3    3  501    0  0.13659634643E+02  0.48251257479E+02 -0.43024482491E+02  0.66241720694E+02  0.47000000000E+01 0.  1.
         -5    1    3    3    0  501  0.87478500179E+01 -0.29070187750E+02  0.54660980041E+02  0.62701781751E+02  0.47000000000E+01 0.  1.
          5    1    4    4  502    0 -0.53130446716E+02  0.11388483763E+02 -0.54299140776E+01  0.54809815705E+02  0.47000000000E+01 0.  1.
         -5    1    4    4    0  502  0.30722962055E+02 -0.30569553492E+02 -0.10825680090E+03  0.11670485397E+03  0.47000000000E+01 0.  1.
<mgrwt>
<rscale>  0 0.28259665E+03</rscale>
<asrwt>0</asrwt>
<pdfrwt beam="1">  1       21 0.15262150E-01 0.28259665E+03</pdfrwt>
<pdfrwt beam="2">  1       21 0.30962184E-01 0.28259665E+03</pdfrwt>
<totfact> 0.37352366E+05</totfact>
</mgrwt>
</event>
<event>
 8    1  0.9478272E-006  0.4382670E+03  0.7546771E-02  0.1031280E+00
         21   -1    0    0  504  503  0.00000000000E+00  0.00000000000E+00  0.67040940518E+02  0.67040940518E+02  0.00000000000E+00 0. -1.
         21   -1    0    0  503  504 -0.00000000000E+00 -0.00000000000E+00 -0.71627122240E+03  0.71627122240E+03  0.00000000000E+00 0. -1.
         25    2    1    2    0    0 -0.17018348597E+03 -0.53077192741E+02 -0.36889355986E+03  0.42835604656E+03  0.12500734710E+03 0.  0.
         25    2    1    2    0    0  0.17018348597E+03  0.53077192741E+02 -0.28033672202E+03  0.35495611636E+03  0.12500223815E+03 0.  0.
          5    1    3    3  501    0 -0.17054772701E+02  0.17734515769E+02 -0.27670068670E+01  0.25201679476E+02  0.47000000000E+01 0.  1.
         -5    1    3    3    0  501 -0.15312871327E+03 -0.70811708510E+02 -0.36612655300E+03  0.40315436708E+03  0.47000000000E+01 0.  1.
          5    1    4    4  502    0  0.75029199583E+02 -0.20136055827E+01 -0.29035582003E+02  0.80613835164E+02  0.47000000000E+01 0.  1.
         -5    1    4    4    0  502  0.95154286388E+02  0.55090798324E+02 -0.25130114002E+03  0.27434228120E+03  0.47000000000E+01 0.  1.
<mgrwt>
<rscale>  0 0.43826703E+03</rscale>
<asrwt>0</asrwt>
<pdfrwt beam="1">  1       21 0.10313991E-01 0.43826703E+03</pdfrwt>
<pdfrwt beam="2">  1       21 0.11019557E+00 0.43826703E+03</pdfrwt>
<totfact> 0.45793853E+04</totfact>
</mgrwt>
</event>
<event>
 8    1  0.9478272E-006  0.4787979E+03  0.7546771E-02  0.1019466E+00
         21   -1    0    0  504  503  0.00000000000E+00  0.00000000000E+00  0.29394806994E+03  0.29394806994E+03  0.00000000000E+00 0. -1.
         21   -1    0    0  503  504 -0.00000000000E+00 -0.00000000000E+00 -0.19497269459E+03  0.19497269459E+03  0.00000000000E+00 0. -1.
         25    2    1    2    0    0 -0.24324478723E+02  0.19786372122E+03  0.44506465163E+01  0.23534658163E+03  0.12500589102E+03 0.  0.
         25    2    1    2    0    0  0.24324478723E+02 -0.19786372122E+03  0.94524728833E+02  0.25357418291E+03  0.12499283754E+03 0.  0.
          5    1    3    3  501    0 -0.59245047877E+02  0.18976915946E+03  0.80066728347E+01  0.19901885939E+03  0.47000000000E+01 0.  1.
         -5    1    3    3    0  501  0.34920569154E+02  0.80945617572E+01 -0.35560263184E+01  0.36327722241E+02  0.47000000000E+01 0.  1.
          5    1    4    4  502    0  0.24137846176E+01  0.13928242895E+02 -0.83260789586E+01  0.17065634977E+02  0.47000000000E+01 0. -1.
         -5    1    4    4    0  502  0.21910694106E+02 -0.21179196412E+03  0.10285080779E+03  0.23650854793E+03  0.47000000000E+01 0. -1.
<mgrwt>
<rscale>  0 0.47879786E+03</rscale>
<asrwt>0</asrwt>
<pdfrwt beam="1">  1       21 0.45222780E-01 0.47879786E+03</pdfrwt>
<pdfrwt beam="2">  1       21 0.29995799E-01 0.47879786E+03</pdfrwt>
<totfact> 0.45694034E+04</totfact>
</mgrwt>
</event>
<event>
 8    1  0.9478272E-006  0.2768385E+03  0.7546771E-02  0.1097428E+00
         21   -1    0    0  504  503  0.00000000000E+00  0.00000000000E+00  0.14286980632E+04  0.14286980632E+04  0.00000000000E+00 0.  1.
         21   -1    0    0  503  504 -0.00000000000E+00 -0.00000000000E+00 -0.13410737558E+02  0.13410737558E+02  0.00000000000E+00 0.  1.
         25    2    1    2    0    0  0.44138127128E+02 -0.72014307778E+01  0.91171041777E+03  0.92132616527E+03  0.12500392818E+03 0.  0.
         25    2    1    2    0    0 -0.44138127128E+02  0.72014307778E+01  0.50357690786E+03  0.52078263548E+03  0.12499926566E+03 0.  0.
          5    1    3    3  501    0 -0.38301933152E+02  0.18932226705E+02  0.21513777325E+03  0.21938965055E+03  0.47000000000E+01 0.  1.
         -5    1    3    3    0  501  0.82440060279E+02 -0.26133657483E+02  0.69657264453E+03  0.70193651472E+03  0.47000000000E+01 0.  1.
          5    1    4    4  502    0 -0.50540967408E+02  0.37758486594E+02  0.47167594843E+03  0.47589955140E+03  0.47000000000E+01 0. -1.
         -5    1    4    4    0  502  0.64028402801E+01 -0.30557055816E+02  0.31900959427E+02  0.44883084076E+02  0.47000000000E+01 0. -1.
<mgrwt>
<rscale>  0 0.27683854E+03</rscale>
<asrwt>0</asrwt>
<pdfrwt beam="1">  1       21 0.21979958E+00 0.27683854E+03</pdfrwt>
<pdfrwt beam="2">  1       21 0.20631915E-02 0.27683854E+03</pdfrwt>
<totfact> 0.11291862E+05</totfact>
</mgrwt>
</event>
<event>
 8    1  0.9478272E-006  0.3017314E+03  0.7546771E-02  0.1084378E+00
         21   -1    0    0  504  503  0.00000000000E+00  0.00000000000E+00  0.58903507420E+03  0.58903507420E+03  0.00000000000E+00 0.  1.
         21   -1    0    0  503  504 -0.00000000000E+00 -0.00000000000E+00 -0.38640241766E+02  0.38640241766E+02  0.00000000000E+00 0.  1.
         25    2    1    2    0    0 -0.73519888530E+02 -0.40512599807E+02  0.25563108963E+03  0.29668058044E+03  0.12500267225E+03 0.  0.
         25    2    1    2    0    0  0.73519888530E+02  0.40512599807E+02  0.29476374280E+03  0.33099473553E+03  0.12500162449E+03 0.  0.
          5    1    3    3  501    0 -0.71196298034E+02 -0.38538470135E+02  0.59773006050E+02  0.10074238823E+03  0.47000000000E+01 0. -1.
         -5    1    3    3    0  501 -0.23235904966E+01 -0.19741296721E+01  0.19585808358E+03  0.19593819221E+03  0.47000000000E+01 0. -1.
          5    1    4    4  502    0  0.52026244887E+02  0.81868937057E+02  0.24014805997E+03  0.25904137453E+03  0.47000000000E+01 0.  1.
         -5    1    4    4    0  502  0.21493643643E+02 -0.41356337250E+02  0.54615682830E+02  0.71953360997E+02  0.47000000000E+01 0.  1.
<mgrwt>
<rscale>  0 0.30173139E+03</rscale>
<asrwt>0</asrwt>
<pdfrwt beam="1">  1       21 0.90620774E-01 0.30173139E+03</pdfrwt>
<pdfrwt beam="2">  1       21 0.59446530E-02 0.30173139E+03</pdfrwt>
<totfact> 0.20065990E+05</totfact>
</mgrwt>
</event>
<event>
 8    1  0.9478272E-006  0.2983955E+03  0.7546771E-02  0.1086045E+00
         21   -1    0    0  504  503  0.00000000000E+00  0.00000000000E+00  0.47692163112E+03  0.47692163112E+03  0.00000000000E+00 0.  1.
         21   -1    0    0  503  504 -0.00000000000E+00 -0.00000000000E+00 -0.46674272485E+02  0.46674272485E+02  0.00000000000E+00 0.  1.
         25    2    1    2    0    0 -0.76272211885E+02 -0.26536390777E+02  0.23398793781E+03  0.27729489011E+03  0.12498188150E+03 0.  0.
         25    2    1    2    0    0  0.76272211885E+02  0.26536390777E+02  0.19625942083E+03  0.24630101349E+03  0.12499919456E+03 0.  0.
          5    1    3    3  501    0  0.83240920765E+01  0.38292031945E+02  0.88335335845E+02  0.96751184894E+02  0.47000000000E+01 0. -1.
         -5    1    3    3    0  501 -0.84596303962E+02 -0.64828422723E+02  0.14565260196E+03  0.18054370522E+03  0.47000000000E+01 0. -1.
          5    1    4    4  502    0  0.46485037512E+02 -0.23298973947E+02  0.12714481241E+02  0.53734987976E+02  0.47000000000E+01 0.  1.
         -5    1    4    4    0  502  0.29787174373E+02  0.49835364724E+02  0.18354493959E+03  0.19256602551E+03  0.47000000000E+01 0.  1.
<mgrwt>
<rscale>  0 0.29839551E+03</rscale>
<asrwt>0</asrwt>
<pdfrwt beam="1">  1       21 0.73372556E-01 0.29839551E+03</pdfrwt>
<pdfrwt beam="2">  1       21 0.71806576E-02 0.29839551E+03</pdfrwt>
<totfact> 0.23490138E+05</totfact>
</mgrwt>
</event>
<event>
 8    1  0.9478272E-006  0.2890839E+03  0.7546771E-02  0.1090828E+00
         21   -1    0    0  504  503  0.00000000000E+00  0.00000000000E+00  0.14801432072E+03  0.14801432072E+03  0.00000000000E+00 0. -1.
         21   -1    0    0  503  504 -0.00000000000E+00 -0.00000000000E+00 -0.14115101745E+03  0.14115101745E+03  0.00000000000E+00 0. -1.
         25    2    1    2    0    0 -0.11154125481E+02  0.29819791530E+02  0.68676516997E+02  0.14613968004E+03  0.12500683026E+03 0.  0.
         25    2    1    2    0    0  0.11154125481E+02 -0.29819791530E+02 -0.61813213720E+02  0.14302565813E+03  0.12498732341E+03 0.  0.
          5    1    3    3  501    0  0.62769556293E+01 -0.37480181929E+02 -0.11437205632E+02  0.39963281673E+02  0.47000000000E+01 0. -1.
         -5    1    3    3    0  501 -0.17431081110E+02  0.67299973459E+02  0.80113722629E+02  0.10617639837E+03  0.47000000000E+01 0. -1.
          5    1    4    4  502    0 -0.87838287644E+01 -0.43911447917E+02  0.25839551182E+02  0.51914769683E+02  0.47000000000E+01 0.  1.
         -5    1    4    4    0  502  0.19937954245E+02  0.14091656387E+02 -0.87652764902E+02  0.91110888450E+02  0.47000000000E+01 0.  1.
<mgrwt>
<rscale>  0 0.28908388E+03</rscale>
<asrwt>0</asrwt>
<pdfrwt beam="1">  1       21 0.22771434E-01 0.28908388E+03</pdfrwt>
<pdfrwt beam="2">  1       21 0.21715541E-01 0.28908388E+03</pdfrwt>
<totfact> 0.35035168E+05</totfact>
</mgrwt>
</event>
<event>
 8    1  0.9478272E-006  0.2888289E+03  0.7546771E-02  0.1090962E+00
         21   -1    0    0  504  503  0.00000000000E+00  0.00000000000E+00  0.35874337390E+02  0.35874337390E+02  0.00000000000E+00 0. -1.
         21   -1    0    0  503  504 -0.00000000000E+00 -0.00000000000E+00 -0.58134954564E+03  0.58134954564E+03  0.00000000000E+00 0. -1.
         25    2    1    2    0    0  0.28789598100E+02  0.64845539408E+02 -0.24277439652E+03  0.28213189637E+03  0.12500085761E+03 0.  0.
         25    2    1    2    0    0 -0.28789598100E+02 -0.64845539408E+02 -0.30270081172E+03  0.33509198666E+03  0.12500029266E+03 0.  0.
          5    1    3    3  501    0 -0.36716809912E+02  0.16351558627E+02 -0.16314690522E+03  0.16809075014E+03  0.47000000000E+01 0. -1.
         -5    1    3    3    0  501  0.65506408012E+02  0.48493980781E+02 -0.79627491308E+02  0.11404114624E+03  0.47000000000E+01 0. -1.
          5    1    4    4  502    0 -0.53986494343E+02 -0.43900468802E+01 -0.49539031132E+02  0.73552836033E+02  0.47000000000E+01 0. -1.
         -5    1    4    4    0  502  0.25196896243E+02 -0.60455492528E+02 -0.25316178059E+03  0.26153915063E+03  0.47000000000E+01 0. -1.
<mgrwt>
<rscale>  0 0.28882887E+03</rscale>
<asrwt>0</asrwt>
<pdfrwt beam="1">  1       21 0.55191291E-02 0.28882887E+03</pdfrwt>
<pdfrwt beam="2">  1       21 0.89438388E-01 0.28882887E+03</pdfrwt>
<totfact> 0.23590743E+05</totfact>
</mgrwt>
</event>
<event>
 8    1  0.9478272E-006  0.4851100E+03  0.7546771E-02  0.1017740E+00
         21   -1    0    0  504  503  0.00000000000E+00  0.00000000000E+00  0.66063346751E+03  0.66063346751E+03  0.00000000000E+00 0. -1.
         21   -1    0    0  503  504 -0.00000000000E+00 -0.00000000000E+00 -0.89055315109E+02  0.89055315109E+02  0.00000000000E+00 0. -1.
         25    2    1    2    0    0 -0.97163638173E+02 -0.14686015947E+03  0.11507826181E+03  0.24468833022E+03  0.12498277315E+03 0.  0.
         25    2    1    2    0    0  0.97163638173E+02  0.14686015947E+03  0.45649989060E+03  0.50500045240E+03  0.12499851112E+03 0.  0.
          5    1    3    3  501    0 -0.68270514897E+02 -0.14501869473E+03  0.13468139710E+03  0.20940977472E+03  0.47000000000E+01 0. -1.
         -5    1    3    3    0  501 -0.28893123276E+02 -0.18414647360E+01 -0.19603135288E+02  0.35278555500E+02  0.47000000000E+01 0. -1.
          5    1    4    4  502    0 -0.31354090860E+01 -0.12027324740E+02  0.23516030019E+01  0.13494716270E+02  0.47000000000E+01 0.  1.
         -5    1    4    4    0  502  0.10029904726E+03  0.15888748421E+03  0.45414828759E+03  0.49150573613E+03  0.47000000000E+01 0.  1.
<mgrwt>
<rscale>  0 0.48510997E+03</rscale>
<asrwt>0</asrwt>
<pdfrwt beam="1">  1       21 0.10163591E+00 0.48510997E+03</pdfrwt>
<pdfrwt beam="2">  1       21 0.13700818E-01 0.48510997E+03</pdfrwt>
<totfact> 0.32950955E+04</totfact>
</mgrwt>
</event>
<event>
 8    1  0.9478272E-006  0.2893221E+03  0.7546771E-02  0.1090704E+00
         21   -1    0    0  504  503  0.00000000000E+00  0.00000000000E+00  0.95438048861E+02  0.95438048861E+02  0.00000000000E+00 0. -1.
         21   -1    0    0  503  504 -0.00000000000E+00 -0.00000000000E+00 -0.21927130970E+03  0.21927130970E+03  0.00000000000E+00 0. -1.
         25    2    1    2    0    0 -0.39844083943E+02  0.15433359833E+02 -0.12606615924E+03  0.18260127732E+03  0.12499924140E+03 0.  0.
         25    2    1    2    0    0  0.39844083943E+02 -0.15433359833E+02  0.22328984053E+01  0.13210808124E+03  0.12498727805E+03 0.  0.
          5    1    3    3  501    0 -0.44501924336E+02 -0.77187801798E+00  0.96303428748E+01  0.45780460561E+02  0.47000000000E+01 0.  1.
         -5    1    3    3    0  501  0.46578403936E+01  0.16205237851E+02 -0.13569650212E+03  0.13682081676E+03  0.47000000000E+01 0.  1.
          5    1    4    4  502    0 -0.14143810622E+02 -0.57221177160E+02 -0.16060534564E+02  0.61272679597E+02  0.47000000000E+01 0. -1.
         -5    1    4    4    0  502  0.53987894565E+02  0.41787817327E+02  0.18293432969E+02  0.70835401646E+02  0.47000000000E+01 0. -1.
<mgrwt>
<rscale>  0 0.28932215E+03</rscale>
<asrwt>0</asrwt>
<pdfrwt beam="1">  1       21 0.14682777E-01 0.28932215E+03</pdfrwt>
<pdfrwt beam="2">  1       21 0.33734047E-01 0.28932215E+03</pdfrwt>
<totfact> 0.33786675E+05</totfact>
</mgrwt>
</event>
<event>
 8    1  0.9478272E-006  0.2645827E+03  0.7546771E-02  0.1104421E+00
         21   -1    0    0  504  503  0.00000000000E+00  0.00000000000E+00  0.19734766676E+02  0.19734766676E+02  0.00000000000E+00 0.  1.
         21   -1    0    0  503  504 -0.00000000000E+00 -0.00000000000E+00 -0.88681062449E+03  0.88681062449E+03  0.00000000000E+00 0.  1.
         25    2    1    2    0    0  0.39869956113E+02 -0.11945657074E+02 -0.47437450168E+03  0.49233350442E+03  0.12501519749E+03 0.  0.
         25    2    1    2    0    0 -0.39869956113E+02  0.11945657074E+02 -0.39270135613E+03  0.41421188675E+03  0.12499927956E+03 0.  0.
          5    1    3    3  501    0  0.10416639943E+02  0.50352882840E+02 -0.30627877887E+03  0.31060054666E+03  0.47000000000E+01 0. -1.
         -5    1    3    3    0  501  0.29453316169E+02 -0.62298539914E+02 -0.16809572281E+03  0.18173295776E+03  0.47000000000E+01 0. -1.
          5    1    4    4  502    0 -0.66445389486E+02  0.13299833425E+02 -0.10380278911E+03  0.12405234533E+03  0.47000000000E+01 0. -1.
         -5    1    4    4    0  502  0.26575433373E+02 -0.13541763513E+01 -0.28889856702E+03  0.29015954142E+03  0.47000000000E+01 0. -1.
<mgrwt>
<rscale>  0 0.26458270E+03</rscale>
<asrwt>0</asrwt>
<pdfrwt beam="1">  1       21 0.30361175E-02 0.26458270E+03</pdfrwt>
<pdfrwt beam="2">  1       21 0.13643242E+00 0.26458270E+03</pdfrwt>
<totfact> 0.23147602E+05</totfact>
</mgrwt>
</event>
<event>
 8    1  0.9478272E-006  0.2889551E+03  0.7546771E-02  0.1090896E+00
         21   -1    0    0  504  503  0.00000000000E+00  0.00000000000E+00  0.79933868217E+03  0.79933868217E+03  0.00000000000E+00 0.  1.
         21   -1    0    0  503  504 -0.00000000000E+00 -0.00000000000E+00 -0.26113787778E+02  0.26113787778E+02  0.00000000000E+00 0.  1.
         25    2    1    2    0    0 -0.17822342842E+00 -0.30035745620E+02  0.57497194308E+03  0.58916873176E+03  0.12499952547E+03 0.  0.
         25    2    1    2    0    0  0.17822342842E+00  0.30035745620E+02  0.19825295131E+03  0.23628373820E+03  0.12499437769E+03 0.  0.
          5    1    3    3  501    0  0.26241872971E+02  0.39520143904E+02  0.31963694257E+03  0.32317231120E+03  0.47000000000E+01 0. -1.
         -5    1    3    3    0  501 -0.26420096400E+02 -0.69555889525E+02  0.25533500051E+03  0.26599642055E+03  0.47000000000E+01 0. -1.
          5    1    4    4  502    0 -0.43522866555E+02  0.10830926623E+02  0.17900871728E+03  0.18460162444E+03  0.47000000000E+01 0.  1.
         -5    1    4    4    0  502  0.43701089984E+02  0.19204818998E+02  0.19244234033E+02  0.51682113753E+02  0.47000000000E+01 0.  1.
<mgrwt>
<rscale>  0 0.28895509E+03</rscale>
<asrwt>0</asrwt>
<pdfrwt beam="1">  1       21 0.12297516E+00 0.28895509E+03</pdfrwt>
<pdfrwt beam="2">  1       21 0.40175064E-02 0.28895509E+03</pdfrwt>
<totfact> 0.18722123E+05</totfact>
</mgrwt>
</event>
<event>
 8    1  0.9478272E-006  0.3679474E+03  0.7546771E-02  0.1055481E+00
         21   -1    0    0  504  503  0.00000000000E+00  0.00000000000E+00  0.12852008551E+03  0.12852008551E+03  0.00000000000E+00 0. -1.
         21   -1    0    0  503  504 -0.00000000000E+00 -0.00000000000E+00 -0.26335439908E+03  0.26335439908E+03  0.00000000000E+00 0. -1.
         25    2    1    2    0    0 -0.75635015245E+02  0.71880719164E+02 -0.15863264076E+03  0.22732149101E+03  0.12499300877E+03 0.  0.
         25    2    1    2    0    0  0.75635015245E+02 -0.71880719164E+02  0.23798327192E+02  0.16455299358E+03  0.12499533592E+03 0.  0.
          5    1    3    3  501    0 -0.42579085251E+02  0.92683489778E+02 -0.53928430092E+02  0.11547109314E+03  0.47000000000E+01 0. -1.
         -5    1    3    3    0  501 -0.33055929994E+02 -0.20802770614E+02 -0.10470421067E+03  0.11185039787E+03  0.47000000000E+01 0. -1.
          5    1    4    4  502    0  0.55857045965E+02 -0.31316963331E+02 -0.47619941358E+02  0.79940669194E+02  0.47000000000E+01 0.  1.
         -5    1    4    4    0  502  0.19777969281E+02 -0.40563755833E+02  0.71418268549E+02  0.84612324390E+02  0.47000000000E+01 0.  1.
<mgrwt>
<rscale>  0 0.36794744E+03</rscale>
<asrwt>0</asrwt>
<pdfrwt beam="1">  1       21 0.19772321E-01 0.36794744E+03</pdfrwt>
<pdfrwt beam="2">  1       21 0.40516061E-01 0.36794744E+03</pdfrwt>
<totfact> 0.13184055E+05</totfact>
</mgrwt>
</event>
<event>
 8    1  0.9478272E-006  0.3186326E+03  0.7546771E-02  0.1076280E+00
         21   -1    0    0  504  503  0.00000000000E+00  0.00000000000E+00  0.17270245970E+03  0.17270245970E+03  0.00000000000E+00 0.  1.
         21   -1    0    0  503  504 -0.00000000000E+00 -0.00000000000E+00 -0.14696766243E+03  0.14696766243E+03  0.00000000000E+00 0.  1.
         25    2    1    2    0    0  0.90914181367E+02  0.12843257353E+02  0.49386386537E+02  0.16277845237E+03  0.12500988660E+03 0.  0.
         25    2    1    2    0    0 -0.90914181367E+02 -0.12843257353E+02 -0.23651589261E+02  0.15689166976E+03  0.12500104292E+03 0.  0.
          5    1    3    3  501    0  0.11963076004E+03  0.25929479991E+02  0.32775775986E+02  0.12680772126E+03  0.47000000000E+01 0.  1.
         -5    1    3    3    0  501 -0.28716578670E+02 -0.13086222638E+02  0.16610610551E+02  0.35970731106E+02  0.47000000000E+01 0.  1.
          5    1    4    4  502    0 -0.95004024897E+02 -0.52844885620E+02 -0.35920755592E+02  0.11458942955E+03  0.47000000000E+01 0.  1.
         -5    1    4    4    0  502  0.40898435296E+01  0.40001628266E+02  0.12269166331E+02  0.42302240207E+02  0.47000000000E+01 0.  1.
<mgrwt>
<rscale>  0 0.31863256E+03</rscale>
<asrwt>0</asrwt>
<pdfrwt beam="1">  1       21 0.26569609E-01 0.31863256E+03</pdfrwt>
<pdfrwt beam="2">  1       21 0.22610409E-01 0.31863256E+03</pdfrwt>
<totfact> 0.23963430E+05</totfact>
</mgrwt>
</event>
<event>
 8    1  0.9478272E-006  0.3247487E+03  0.7546771E-02  0.1073484E+00
         21   -1    0    0  504  503  0.00000000000E+00  0.00000000000E+00  0.16055151631E+03  0.16055151631E+03  0.00000000000E+00 0.  1.
         21   -1    0    0  503  504 -0.00000000000E+00 -0.00000000000E+00 -0.16421790859E+03  0.16421790859E+03  0.00000000000E+00 0.  1.
         25    2    1    2    0    0 -0.71044955195E+02 -0.74187807962E+02 -0.15599434852E+02  0.16253745353E+03  0.12499545961E+03 0.  0.
         25    2    1    2    0    0  0.71044955195E+02  0.74187807962E+02  0.11933042568E+02  0.16223197136E+03  0.12500239405E+03 0.  0.
          5    1    3    3  501    0 -0.86168452339E+02 -0.49573226683E+01 -0.27113270348E+02  0.90591371860E+02  0.47000000000E+01 0.  1.
         -5    1    3    3    0  501  0.15123497144E+02 -0.69230485294E+02  0.11513835495E+02  0.71946081671E+02  0.47000000000E+01 0.  1.
          5    1    4    4  502    0  0.14270723151E+02  0.80914554980E+02  0.47221206642E+02  0.94882828287E+02  0.47000000000E+01 0. -1.
         -5    1    4    4    0  502  0.56774232043E+02 -0.67267470180E+01 -0.35288164074E+02  0.67349143078E+02  0.47000000000E+01 0. -1.
<mgrwt>
<rscale>  0 0.32474873E+03</rscale>
<asrwt>0</asrwt>
<pdfrwt beam="1">  1       21 0.24700233E-01 0.32474873E+03</pdfrwt>
<pdfrwt beam="2">  1       21 0.25264294E-01 0.32474873E+03</pdfrwt>
<totfact> 0.22269020E+05</totfact>
</mgrwt>
</event>
<event>
 8    1  0.9478272E-006  0.3402389E+03  0.7546771E-02  0.1066694E+00
         21   -1    0    0  504  503  0.00000000000E+00  0.00000000000E+00  0.17831834070E+02  0.17831834070E+02  0.00000000000E+00 0.  1.
         21   -1    0    0  503  504 -0.00000000000E+00 -0.00000000000E+00 -0.16229751288E+04  0.16229751288E+04  0.00000000000E+00 0.  1.
         25    2    1    2    0    0 -0.34761462110E+02  0.57814014811E+01 -0.27267132884E+03  0.30202092059E+03  0.12500079620E+03 0.  0.
         25    2    1    2    0    0  0.34761462110E+02 -0.57814014811E+01 -0.13324719659E+04  0.13387860423E+04  0.12499897309E+03 0.  0.
          5    1    3    3  501    0 -0.60526572449E+02  0.45999399988E+02 -0.20784606021E+03  0.22136279163E+03  0.47000000000E+01 0. -1.
         -5    1    3    3    0  501  0.25765110339E+02 -0.40217998507E+02 -0.64825268629E+02  0.80658128961E+02  0.47000000000E+01 0. -1.
          5    1    4    4  502    0  0.69935846983E+02 -0.36483992546E+02 -0.66763125501E+03  0.67229137066E+03  0.47000000000E+01 0. -1.
         -5    1    4    4    0  502 -0.35174384873E+02  0.30702591064E+02 -0.66484071086E+03  0.66649467159E+03  0.47000000000E+01 0. -1.
<mgrwt>
<rscale>  0 0.34023888E+03</rscale>
<asrwt>0</asrwt>
<pdfrwt beam="1">  1       21 0.27433582E-02 0.34023888E+03</pdfrwt>
<pdfrwt beam="2">  1       21 0.24968856E+00 0.34023888E+03</pdfrwt>
<totfact> 0.44875505E+04</totfact>
</mgrwt>
</event>
<event>
 8    1  0.9478272E-006  0.3332683E+03  0.7546771E-02  0.1069700E+00
         21   -1    0    0  504  503  0.00000000000E+00  0.00000000000E+00  0.79563120183E+02  0.79563120183E+02  0.00000000000E+00 0. -1.
         21   -1    0    0  503  504 -0.00000000000E+00 -0.00000000000E+00 -0.34899268724E+03  0.34899268724E+03  0.00000000000E+00 0. -1.
         25    2    1    2    0    0  0.92919628420E+02  0.59024454031E+02 -0.14223250863E+03  0.21898107211E+03  0.12491869320E+03 0.  0.
         25    2    1    2    0    0 -0.92919628420E+02 -0.59024454031E+02 -0.12719705843E+03  0.20957473532E+03  0.12499813795E+03 0.  0.
          5    1    3    3  501    0  0.10702008116E+03  0.33110424611E+01 -0.10679857874E+03  0.15130197353E+03  0.47000000000E+01 0. -1.
         -5    1    3    3    0  501 -0.14100452742E+02  0.55713411570E+02 -0.35433929894E+02  0.67679098575E+02  0.47000000000E+01 0. -1.
          5    1    4    4  502    0  0.13234141487E+00  0.19153367174E+02  0.13269118689E+02  0.23770328124E+02  0.47000000000E+01 0.  1.
         -5    1    4    4    0  502 -0.93051969835E+02 -0.78177821205E+02 -0.14046617712E+03  0.18580440719E+03  0.47000000000E+01 0.  1.
<mgrwt>
<rscale>  0 0.33326834E+03</rscale>
<asrwt>0</asrwt>
<pdfrwt beam="1">  1       21 0.12240480E-01 0.33326834E+03</pdfrwt>
<pdfrwt beam="2">  1       21 0.53691184E-01 0.33326834E+03</pdfrwt>
<totfact> 0.17896331E+05</totfact>
</mgrwt>
</event>
<event>
 8    1  0.9478272E-006  0.2915339E+03  0.7546771E-02  0.1089551E+00
         21   -1    0    0  504  503  0.00000000000E+00  0.00000000000E+00  0.59617555623E+03  0.59617555623E+03  0.00000000000E+00 0.  1.
         21   -1    0    0  503  504 -0.00000000000E+00 -0.00000000000E+00 -0.35640520639E+02  0.35640520639E+02  0.00000000000E+00 0.  1.
         25    2    1    2    0    0 -0.30767721591E+02 -0.62845673394E+02  0.22184055355E+03  0.26407365009E+03  0.12500172046E+03 0.  0.
         25    2    1    2    0    0  0.30767721591E+02  0.62845673394E+02  0.33869448204E+03  0.36774242678E+03  0.12499723569E+03 0.  0.
          5    1    3    3  501    0 -0.11370495419E+02 -0.75756543600E+02  0.22710865609E+03  0.23972645606E+03  0.47000000000E+01 0. -1.
         -5    1    3    3    0  501 -0.19397226172E+02  0.12910870206E+02 -0.52681025450E+01  0.24347194029E+02  0.47000000000E+01 0. -1.
          5    1    4    4  502    0 -0.15841548823E+02  0.88250831750E+02  0.20366587276E+03  0.22257816986E+03  0.47000000000E+01 0. -1.
         -5    1    4    4    0  502  0.46609270415E+02 -0.25405158356E+02  0.13502860929E+03  0.14516425691E+03  0.47000000000E+01 0. -1.
<mgrwt>
<rscale>  0 0.29153392E+03</rscale>
<asrwt>0</asrwt>
<pdfrwt beam="1">  1       21 0.91719309E-01 0.29153392E+03</pdfrwt>
<pdfrwt beam="2">  1       21 0.54831574E-02 0.29153392E+03</pdfrwt>
<totfact> 0.22475079E+05</totfact>
</mgrwt>
</event>
<event>
 8    1  0.9478272E-006  0.2595625E+03  0.7546771E-02  0.1107406E+00
         21   -1    0    0  504  503  0.00000000000E+00  0.00000000000E+00  0.22302742034E+03  0.22302742034E+03  0.00000000000E+00 0. -1.
         21   -1    0    0  503  504 -0.00000000000E+00 -0.00000000000E+00 -0.75520653733E+02  0.75520653733E+02  0.00000000000E+00 0. -1.
         25    2    1    2    0    0 -0.11441001615E+02 -0.24225100125E+02  0.48000349070E+02  0.13655232374E+03  0.12499900645E+03 0.  0.
         25    2    1    2    0    0  0.11441001615E+02  0.24225100125E+02  0.99506417542E+02  0.16199575034E+03  0.12499337583E+03 0.  0.
          5    1    3    3  501    0 -0.66139726958E+02 -0.27230858911E+02  0.17949755308E+02  0.73893618633E+02  0.47000000000E+01 0. -1.
         -5    1    3    3    0  501  0.54698725343E+02  0.30057587861E+01  0.30050593762E+02  0.62658705105E+02  0.47000000000E+01 0. -1.
          5    1    4    4  502    0 -0.59656310321E+01  0.11968384262E+02 -0.28667761555E+02  0.31980643021E+02  0.47000000000E+01 0. -1.
         -5    1    4    4    0  502  0.17406632647E+02  0.12256715863E+02  0.12817417910E+03  0.13001510732E+03  0.47000000000E+01 0. -1.
<mgrwt>
<rscale>  0 0.25956253E+03</rscale>
<asrwt>0</asrwt>
<pdfrwt beam="1">  1       21 0.34311911E-01 0.25956253E+03</pdfrwt>
<pdfrwt beam="2">  1       21 0.11618562E-01 0.25956253E+03</pdfrwt>
<totfact> 0.50229245E+05</totfact>
</mgrwt>
</event>
<event>
 8    1  0.9478272E-006  0.3161878E+03  0.7546771E-02  0.1077417E+00
         21   -1    0    0  504  503  0.00000000000E+00  0.00000000000E+00  0.80594787441E+02  0.80594787441E+02  0.00000000000E+00 0.  1.
         21   -1    0    0  503  504 -0.00000000000E+00 -0.00000000000E+00 -0.31011535166E+03  0.31011535166E+03  0.00000000000E+00 0.  1.
         25    2    1    2    0    0  0.62212494934E+02  0.65609243638E+02 -0.15741694777E+03  0.22041368100E+03  0.12500851151E+03 0.  0.
         25    2    1    2    0    0 -0.62212494934E+02 -0.65609243638E+02 -0.72103616444E+02  0.17029645810E+03  0.12500793879E+03 0.  0.
          5    1    3    3  501    0 -0.48208525835E+01  0.47309954821E+02 -0.14097526072E+03  0.14885424610E+03  0.47000000000E+01 0. -1.
         -5    1    3    3    0  501  0.67033347517E+02  0.18299288817E+02 -0.16441687047E+02  0.71559434902E+02  0.47000000000E+01 0. -1.
          5    1    4    4  502    0 -0.99770247870E+02 -0.55534074983E+02 -0.45810843631E+02  0.12312131919E+03  0.47000000000E+01 0. -1.
         -5    1    4    4    0  502  0.37557752936E+02 -0.10075168654E+02 -0.26292772814E+02  0.47175138911E+02  0.47000000000E+01 0. -1.
<mgrwt>
<rscale>  0 0.31618780E+03</rscale>
<asrwt>0</asrwt>
<pdfrwt beam="1">  1       21 0.12399198E-01 0.31618780E+03</pdfrwt>
<pdfrwt beam="2">  1       21 0.47710053E-01 0.31618780E+03</pdfrwt>
<totfact> 0.22526263E+05</totfact>
</mgrwt>
</event>
<event>
 8    1  0.9478272E-006  0.3208046E+03  0.7546771E-02  0.1075280E+00
         21   -1    0    0  504  503  0.00000000000E+00  0.00000000000E+00  0.15098908332E+03  0.15098908332E+03  0.00000000000E+00 0. -1.
         21   -1    0    0  503  504 -0.00000000000E+00 -0.00000000000E+00 -0.17040239736E+03  0.17040239736E+03  0.00000000000E+00 0. -1.
         25    2    1    2    0    0  0.88133999064E+02 -0.23739033889E+02 -0.51913350093E+02  0.16324326216E+03  0.12498889232E+03 0.  0.
         25    2    1    2    0    0 -0.88133999064E+02  0.23739033889E+02  0.32500036051E+02  0.15814821852E+03  0.12499385248E+03 0.  0.
          5    1    3    3  501    0 -0.28918676100E+02  0.12854859375E+02 -0.12339318423E+02  0.34291194439E+02  0.47000000000E+01 0. -1.
         -5    1    3    3    0  501  0.11705267516E+03 -0.36593893264E+02 -0.39574031670E+02  0.12895206772E+03  0.47000000000E+01 0. -1.
          5    1    4    4  502    0 -0.79175603519E+02  0.26253314862E+02  0.76287778401E+02  0.11313676620E+03  0.47000000000E+01 0.  1.
         -5    1    4    4    0  502 -0.89583955451E+01 -0.25142809727E+01 -0.43787742350E+02  0.45011452316E+02  0.47000000000E+01 0.  1.
<mgrwt>
<rscale>  0 0.32080462E+03</rscale>
<asrwt>0</asrwt>
<pdfrwt beam="1">  1       21 0.23229090E-01 0.32080462E+03</pdfrwt>
<pdfrwt beam="2">  1       21 0.26215753E-01 0.32080462E+03</pdfrwt>
<totfact> 0.23346795E+05</totfact>
</mgrwt>
</event>
<event>
 8    1  0.9478272E-006  0.2903323E+03  0.7546771E-02  0.1090176E+00
         21   -1    0    0  504  503  0.00000000000E+00  0.00000000000E+00  0.59109151762E+02  0.59109151762E+02  0.00000000000E+00 0.  1.
         21   -1    0    0  503  504 -0.00000000000E+00 -0.00000000000E+00 -0.35651358267E+03  0.35651358267E+03  0.00000000000E+00 0.  1.
         25    2    1    2    0    0 -0.57371771129E+02 -0.43966858796E+02 -0.12727171678E+03  0.19247281765E+03  0.12499236315E+03 0.  0.
         25    2    1    2    0    0  0.57371771129E+02  0.43966858796E+02 -0.17013271413E+03  0.22314991679E+03  0.12500456052E+03 0.  0.
          5    1    3    3  501    0  0.67180937658E+01 -0.49420968599E+02 -0.11685938740E+03  0.12714468665E+03  0.47000000000E+01 0. -1.
         -5    1    3    3    0  501 -0.64089864895E+02  0.54541098031E+01 -0.10412329386E+02  0.65328130994E+02  0.47000000000E+01 0. -1.
          5    1    4    4  502    0 -0.85486123385E+01  0.41652753745E+01  0.17394489351E+02  0.20373673003E+02  0.47000000000E+01 0. -1.
         -5    1    4    4    0  502  0.65920383468E+02  0.39801583422E+02 -0.18752720348E+03  0.20277624378E+03  0.47000000000E+01 0. -1.
<mgrwt>
<rscale>  0 0.29033233E+03</rscale>
<asrwt>0</asrwt>
<pdfrwt beam="1">  1       21 0.90937156E-02 0.29033233E+03</pdfrwt>
<pdfrwt beam="2">  1       21 0.54848244E-01 0.29033233E+03</pdfrwt>
<totfact> 0.29389922E+05</totfact>
</mgrwt>
</event>
<event>
 8    1  0.9478272E-006  0.2740943E+03  0.7546771E-02  0.1098959E+00
         21   -1    0    0  504  503  0.00000000000E+00  0.00000000000E+00  0.64631008110E+03  0.64631008110E+03  0.00000000000E+00 0. -1.
         21   -1    0    0  503  504 -0.00000000000E+00 -0.00000000000E+00 -0.29060235790E+02  0.29060235790E+02  0.00000000000E+00 0. -1.
         25    2    1    2    0    0  0.11709365914E+02 -0.43146640486E+02  0.22460668684E+03  0.26090754524E+03  0.12500336618E+03 0.  0.
         25    2    1    2    0    0 -0.11709365914E+02  0.43146640486E+02  0.39264315847E+03  0.41446277164E+03  0.12494797859E+03 0.  0.
          5    1    3    3  501    0 -0.40728452388E+01 -0.10719631168E+02  0.22419427801E+03  0.22453655126E+03  0.47000000000E+01 0. -1.
         -5    1    3    3    0  501  0.15782211153E+02 -0.32427009318E+02  0.41240883294E+00  0.36370993982E+02  0.47000000000E+01 0. -1.
          5    1    4    4  502    0  0.51113897248E+02  0.45666054099E+02  0.22939695967E+03  0.23946413948E+03  0.47000000000E+01 0.  1.
         -5    1    4    4    0  502 -0.62823263162E+02 -0.25194136137E+01  0.16324619879E+03  0.17499863217E+03  0.47000000000E+01 0.  1.
<mgrwt>
<rscale>  0 0.27409431E+03</rscale>
<asrwt>0</asrwt>
<pdfrwt beam="1">  1       21 0.99432309E-01 0.27409431E+03</pdfrwt>
<pdfrwt beam="2">  1       21 0.44708060E-02 0.27409431E+03</pdfrwt>
<totfact> 0.26418595E+05</totfact>
</mgrwt>
</event>
<event>
 8    1  0.9478272E-006  0.2816709E+03  0.7546771E-02  0.1094780E+00
         21   -1    0    0  504  503  0.00000000000E+00  0.00000000000E+00  0.16339390164E+04  0.16339390164E+04  0.00000000000E+00 0. -1.
         21   -1    0    0  503  504 -0.00000000000E+00 -0.00000000000E+00 -0.12139142393E+02  0.12139142393E+02  0.00000000000E+00 0. -1.
         25    2    1    2    0    0 -0.11679209873E+02  0.28600756475E+02  0.11443090059E+04  0.11515303225E+04  0.12499830115E+03 0.  0.
         25    2    1    2    0    0  0.11679209873E+02 -0.28600756475E+02  0.47749086812E+03  0.49454783637E+03  0.12500250441E+03 0.  0.
          5    1    3    3  501    0 -0.30753230207E+02  0.73415869920E+02  0.73010470383E+03  0.73444579084E+03  0.47000000000E+01 0. -1.
         -5    1    3    3    0  501  0.19074020334E+02 -0.44815113445E+02  0.41420430210E+03  0.41708453163E+03  0.47000000000E+01 0. -1.
          5    1    4    4  502    0  0.62081516599E+02 -0.17595058329E+01  0.15569638253E+03  0.16769217065E+03  0.47000000000E+01 0.  1.
         -5    1    4    4    0  502 -0.50402306726E+02 -0.26841250642E+02  0.32179448559E+03  0.32685566572E+03  0.47000000000E+01 0.  1.
<mgrwt>
<rscale>  0 0.28167086E+03</rscale>
<asrwt>0</asrwt>
<pdfrwt beam="1">  1       21 0.25137506E+00 0.28167086E+03</pdfrwt>
<pdfrwt beam="2">  1       21 0.18675617E-02 0.28167086E+03</pdfrwt>
<totfact> 0.85069019E+04</totfact>
</mgrwt>
</event>
<event>
 8    1  0.9478272E-006  0.2597480E+03  0.7546771E-02  0.1107295E+00
         21   -1    0    0  504  503  0.00000000000E+00  0.00000000000E+00  0.91056936409E+02  0.91056936409E+02  0.00000000000E+00 0. -1.
         21   -1    0    0  503  504 -0.00000000000E+00 -0.00000000000E+00 -0.18523861938E+03  0.18523861938E+03  0.00000000000E+00 0. -1.
         25    2    1    2    0    0  0.27405448268E+02 -0.25556073295E+01 -0.70467120040E+02  0.14611056636E+03  0.12500037149E+03 0.  0.
         25    2    1    2    0    0 -0.27405448268E+02  0.25556073295E+01 -0.23714562933E+02  0.13018498943E+03  0.12501264438E+03 0.  0.
          5    1    3    3  501    0 -0.21224342943E+02  0.25638182567E+02  0.20282345503E+02  0.39258791090E+02  0.47000000000E+01 0. -1.
         -5    1    3    3    0  501  0.48629791211E+02 -0.28193789897E+02 -0.90749465543E+02  0.10685177527E+03  0.47000000000E+01 0. -1.
          5    1    4    4  502    0 -0.61591476873E+02  0.18814783716E+02 -0.51827091801E+02  0.82798813725E+02  0.47000000000E+01 0. -1.
         -5    1    4    4    0  502  0.34186028605E+02 -0.16259176387E+02  0.28112528868E+02  0.47386175705E+02  0.47000000000E+01 0. -1.
<mgrwt>
<rscale>  0 0.25974804E+03</rscale>
<asrwt>0</asrwt>
<pdfrwt beam="1">  1       21 0.14008760E-01 0.25974804E+03</pdfrwt>
<pdfrwt beam="2">  1       21 0.28498249E-01 0.25974804E+03</pdfrwt>
<totfact> 0.51632763E+05</totfact>
</mgrwt>
</event>
<event>
 8    1  0.9478272E-006  0.3172564E+03  0.7546771E-02  0.1076919E+00
         21   -1    0    0  504  503  0.00000000000E+00  0.00000000000E+00  0.29172163882E+02  0.29172163882E+02  0.00000000000E+00 0. -1.
         21   -1    0    0  503  504 -0.00000000000E+00 -0.00000000000E+00 -0.86256569121E+03  0.86256569121E+03  0.00000000000E+00 0. -1.
         25    2    1    2    0    0  0.67650435941E+02  0.56301501196E+02 -0.53568468569E+03  0.55707230593E+03  0.12500012412E+03 0.  0.
         25    2    1    2    0    0 -0.67650435941E+02 -0.56301501196E+02 -0.29770884164E+03  0.33466554916E+03  0.12499613949E+03 0.  0.
          5    1    3    3  501    0 -0.84616581548E+01  0.73456592302E+02 -0.28584677042E+03  0.29529296769E+03  0.47000000000E+01 0. -1.
         -5    1    3    3    0  501  0.76112094096E+02 -0.17155091106E+02 -0.24983791528E+03  0.26177933824E+03  0.47000000000E+01 0. -1.
          5    1    4    4  502    0 -0.38800291898E+02 -0.21009165949E+01 -0.25897582822E+03  0.26191686869E+03  0.47000000000E+01 0.  1.
         -5    1    4    4    0  502 -0.28850144043E+02 -0.54200584601E+02 -0.38733013417E+02  0.72748680474E+02  0.47000000000E+01 0.  1.
<mgrwt>
<rscale>  0 0.31725641E+03</rscale>
<asrwt>0</asrwt>
<pdfrwt beam="1">  1       21 0.44880257E-02 0.31725641E+03</pdfrwt>
<pdfrwt beam="2">  1       21 0.13270240E+00 0.31725641E+03</pdfrwt>
<totfact> 0.12672091E+05</totfact>
</mgrwt>
</event>
<event>
 8    1  0.9478272E-006  0.2937863E+03  0.7546771E-02  0.1088389E+00
         21   -1    0    0  504  503  0.00000000000E+00  0.00000000000E+00  0.26090608515E+03  0.26090608515E+03  0.00000000000E+00 0.  1.
         21   -1    0    0  503  504 -0.00000000000E+00 -0.00000000000E+00 -0.82702541838E+02  0.82702541838E+02  0.00000000000E+00 0.  1.
         25    2    1    2    0    0 -0.20474213797E+02 -0.36868549942E+02  0.16466794973E+03  0.21099318956E+03  0.12499643581E+03 0.  0.
         25    2    1    2    0    0  0.20474213797E+02  0.36868549942E+02  0.13535593580E+02  0.13261543743E+03  0.12500063418E+03 0.  0.
          5    1    3    3  501    0 -0.55586874333E+02 -0.38875246806E+02  0.16166706223E+03  0.17538390582E+03  0.47000000000E+01 0.  1.
         -5    1    3    3    0  501  0.35112660535E+02  0.20066968638E+01  0.30008875023E+01  0.35609283733E+02  0.47000000000E+01 0.  1.
          5    1    4    4  502    0  0.43938033819E+02 -0.27808706799E+02 -0.20026631159E+02  0.55919861815E+02  0.47000000000E+01 0.  1.
         -5    1    4    4    0  502 -0.23463820022E+02  0.64677256741E+02  0.33562224739E+02  0.76695575616E+02  0.47000000000E+01 0.  1.
<mgrwt>
<rscale>  0 0.29378629E+03</rscale>
<asrwt>0</asrwt>
<pdfrwt beam="1">  1       21 0.40139397E-01 0.29378629E+03</pdfrwt>
<pdfrwt beam="2">  1       21 0.12723468E-01 0.29378629E+03</pdfrwt>
<totfact> 0.30870394E+05</totfact>
</mgrwt>
</event>
<event>
 8    1  0.9478272E-006  0.3684518E+03  0.7546771E-02  0.1055287E+00
         21   -1    0    0  504  503  0.00000000000E+00  0.00000000000E+00  0.77307758708E+02  0.77307758708E+02  0.00000000000E+00 0. -1.
         21   -1    0    0  503  504 -0.00000000000E+00 -0.00000000000E+00 -0.43901382322E+03  0.43901382322E+03  0.00000000000E+00 0. -1.
         25    2    1    2    0    0 -0.50078876603E+02  0.12568102875E+03 -0.18456680525E+03  0.26075579832E+03  0.12500026356E+03 0.  0.
         25    2    1    2    0    0  0.50078876603E+02 -0.12568102875E+03 -0.17713925926E+03  0.25556578361E+03  0.12502774776E+03 0.  0.
          5    1    3    3  501    0 -0.37465667391E+02  0.42804221102E+02 -0.16492963664E+03  0.17452722601E+03  0.47000000000E+01 0. -1.
         -5    1    3    3    0  501 -0.12613209212E+02  0.82876807646E+02 -0.19637168615E+02  0.86228572314E+02  0.47000000000E+01 0. -1.
          5    1    4    4  502    0  0.47937146556E+02 -0.13981897621E+03 -0.10374624101E+03  0.18064520102E+03  0.47000000000E+01 0.  1.
         -5    1    4    4    0  502  0.21417300468E+01  0.14137947467E+02 -0.73393018256E+02  0.74920582586E+02  0.47000000000E+01 0.  1.
<mgrwt>
<rscale>  0 0.36845176E+03</rscale>
<asrwt>0</asrwt>
<pdfrwt beam="1">  1       21 0.11893501E-01 0.36845176E+03</pdfrwt>
<pdfrwt beam="2">  1       21 0.67540587E-01 0.36845176E+03</pdfrwt>
<totfact> 0.11343854E+05</totfact>
</mgrwt>
</event>
<event>
 8    1  0.9478272E-006  0.3720157E+03  0.7546771E-02  0.1053925E+00
         21   -1    0    0  504  503  0.00000000000E+00  0.00000000000E+00  0.87215260324E+02  0.87215260324E+02  0.00000000000E+00 0. -1.
         21   -1    0    0  503  504 -0.00000000000E+00 -0.00000000000E+00 -0.39670718190E+03  0.39670718190E+03  0.00000000000E+00 0. -1.
         25    2    1    2    0    0  0.68794676544E+02  0.99560050039E+02 -0.69178954034E+02  0.18723249558E+03  0.12500147453E+03 0.  0.
         25    2    1    2    0    0 -0.68794676544E+02 -0.99560050039E+02 -0.24031296754E+03  0.29668994665E+03  0.12501876254E+03 0.  0.
          5    1    3    3  501    0  0.44491840068E+02  0.10240383140E+03 -0.98352622213E+02  0.14886704408E+03  0.47000000000E+01 0. -1.
         -5    1    3    3    0  501  0.24302836477E+02 -0.28437813612E+01  0.29173668179E+02  0.38365451493E+02  0.47000000000E+01 0. -1.
          5    1    4    4  502    0 -0.95526870111E+01  0.28923741784E+02 -0.59935438624E+02  0.67395722943E+02  0.47000000000E+01 0.  1.
         -5    1    4    4    0  502 -0.59241989533E+02 -0.12848379182E+03 -0.18037752892E+03  0.22929422370E+03  0.47000000000E+01 0.  1.
<mgrwt>
<rscale>  0 0.37201570E+03</rscale>
<asrwt>0</asrwt>
<pdfrwt beam="1">  1       21 0.13417732E-01 0.37201570E+03</pdfrwt>
<pdfrwt beam="2">  1       21 0.61031875E-01 0.37201570E+03</pdfrwt>
<totfact> 0.11379866E+05</totfact>
</mgrwt>
</event>
<event>
 8    1  0.9478272E-006  0.2956580E+03  0.7546771E-02  0.1087432E+00
         21   -1    0    0  504  503  0.00000000000E+00  0.00000000000E+00  0.14810311350E+04  0.14810311350E+04  0.00000000000E+00 0.  1.
         21   -1    0    0  503  504 -0.00000000000E+00 -0.00000000000E+00 -0.14755537878E+02  0.14755537878E+02  0.00000000000E+00 0.  1.
         25    2    1    2    0    0  0.84208780789E+01 -0.52003908006E+02  0.10304908702E+04  0.10393802384E+04  0.12499811537E+03 0.  0.
         25    2    1    2    0    0 -0.84208780789E+01  0.52003908006E+02  0.43578472692E+03  0.45640643444E+03  0.12499274998E+03 0.  0.
          5    1    3    3  501    0  0.14463594802E+02 -0.57584631642E+02  0.10278105933E+04  0.10295347935E+04  0.47000000000E+01 0. -1.
         -5    1    3    3    0  501 -0.60427167232E+01  0.55807236368E+01  0.26802769338E+01  0.98454449442E+01  0.47000000000E+01 0. -1.
          5    1    4    4  502    0  0.13247057823E+02  0.75257583490E+02  0.40407622561E+03  0.41126496875E+03  0.47000000000E+01 0. -1.
         -5    1    4    4    0  502 -0.21667935902E+02 -0.23253675485E+02  0.31708501303E+02  0.45141465691E+02  0.47000000000E+01 0. -1.
<mgrwt>
<rscale>  0 0.29565798E+03</rscale>
<asrwt>0</asrwt>
<pdfrwt beam="1">  1       21 0.22785083E+00 0.29565798E+03</pdfrwt>
<pdfrwt beam="2">  1       21 0.22700839E-02 0.29565798E+03</pdfrwt>
<totfact> 0.85268335E+04</totfact>
</mgrwt>
</event>
<event>
 8    1  0.9478272E-006  0.3952617E+03  0.7546771E-02  0.1045433E+00
         21   -1    0    0  504  503  0.00000000000E+00  0.00000000000E+00  0.42068103495E+02  0.42068103495E+02  0.00000000000E+00 0. -1.
         21   -1    0    0  503  504 -0.00000000000E+00 -0.00000000000E+00 -0.92844580363E+03  0.92844580363E+03  0.00000000000E+00 0. -1.
         25    2    1    2    0    0  0.62955310184E+01 -0.12899613592E+02 -0.81740284047E+03  0.82702766262E+03  0.12498526867E+03 0.  0.
         25    2    1    2    0    0 -0.62955310184E+01  0.12899613592E+02 -0.68974859664E+02  0.14348624451E+03  0.12499894942E+03 0.  0.
          5    1    3    3  501    0  0.14700166421E+02 -0.65917955663E+02 -0.55764239224E+03  0.56173694858E+03  0.47000000000E+01 0.  1.
         -5    1    3    3    0  501 -0.84046354027E+01  0.53018342071E+02 -0.25976044823E+03  0.26529071404E+03  0.47000000000E+01 0.  1.
          5    1    4    4  502    0  0.49776005936E+02 -0.17569855687E+02 -0.57997835344E+02  0.78563283411E+02  0.47000000000E+01 0. -1.
         -5    1    4    4    0  502 -0.56071536955E+02  0.30469469279E+02 -0.10977024321E+02  0.64922961097E+02  0.47000000000E+01 0. -1.
<mgrwt>
<rscale>  0 0.39526171E+03</rscale>
<asrwt>0</asrwt>
<pdfrwt beam="1">  1       21 0.64720163E-02 0.39526171E+03</pdfrwt>
<pdfrwt beam="2">  1       21 0.14283781E+00 0.39526171E+03</pdfrwt>
<totfact> 0.54360817E+04</totfact>
</mgrwt>
</event>
<event>
 8    1  0.9478272E-006  0.3046169E+03  0.7546771E-02  0.1082955E+00
         21   -1    0    0  504  503  0.00000000000E+00  0.00000000000E+00  0.52987259248E+03  0.52987259248E+03  0.00000000000E+00 0. -1.
         21   -1    0    0  503  504 -0.00000000000E+00 -0.00000000000E+00 -0.43780092097E+02  0.43780092097E+02  0.00000000000E+00 0. -1.
         25    2    1    2    0    0  0.18169129945E+02  0.71921959832E+02  0.15747595067E+03  0.21430346768E+03  0.12499766250E+03 0.  0.
         25    2    1    2    0    0 -0.18169129945E+02 -0.71921959832E+02  0.32861654971E+03  0.35934921690E+03  0.12506053475E+03 0.  0.
          5    1    3    3  501    0  0.14413196071E+02 -0.33958979114E+02  0.25951583900E+02  0.45348949165E+02  0.47000000000E+01 0.  1.
         -5    1    3    3    0  501  0.37559338743E+01  0.10588093895E+03  0.13152436677E+03  0.16895451851E+03  0.47000000000E+01 0.  1.
          5    1    4    4  502    0  0.14380958428E+02  0.30446804698E+02  0.11904465212E+03  0.12380443885E+03  0.47000000000E+01 0.  1.
         -5    1    4    4    0  502 -0.32550088373E+02 -0.10236876453E+03  0.20957189759E+03  0.23554477805E+03  0.47000000000E+01 0.  1.
<mgrwt>
<rscale>  0 0.30461695E+03</rscale>
<asrwt>0</asrwt>
<pdfrwt beam="1">  1       21 0.81518856E-01 0.30461695E+03</pdfrwt>
<pdfrwt beam="2">  1       21 0.67353991E-02 0.30461695E+03</pdfrwt>
<totfact> 0.20646035E+05</totfact>
</mgrwt>
</event>
<event>
 8    1  0.9478272E-006  0.3206749E+03  0.7546771E-02  0.1075339E+00
         21   -1    0    0  504  503  0.00000000000E+00  0.00000000000E+00  0.56765988647E+03  0.56765988647E+03  0.00000000000E+00 0. -1.
         21   -1    0    0  503  504 -0.00000000000E+00 -0.00000000000E+00 -0.45287863477E+02  0.45287863477E+02  0.00000000000E+00 0. -1.
         25    2    1    2    0    0  0.80464309766E+01 -0.97776421762E+02  0.22023113357E+03  0.27156942468E+03  0.12499290590E+03 0.  0.
         25    2    1    2    0    0 -0.80464309766E+01  0.97776421762E+02  0.30214088942E+03  0.34137832526E+03  0.12500028078E+03 0.  0.
          5    1    3    3  501    0 -0.27147664551E+02  0.37388296266E+01  0.15182862915E+01  0.27845461584E+02  0.47000000000E+01 0.  1.
         -5    1    3    3    0  501  0.35194095528E+02 -0.10151525139E+03  0.21871284727E+03  0.24372396310E+03  0.47000000000E+01 0.  1.
          5    1    4    4  502    0  0.28455952968E+02  0.87553514260E+02  0.28495278826E+03  0.29949213789E+03  0.47000000000E+01 0. -1.
         -5    1    4    4    0  502 -0.36502383944E+02  0.10222907502E+02  0.17188101163E+02  0.41886187377E+02  0.47000000000E+01 0. -1.
<mgrwt>
<rscale>  0 0.32067493E+03</rscale>
<asrwt>0</asrwt>
<pdfrwt beam="1">  1       21 0.87332285E-01 0.32067493E+03</pdfrwt>
<pdfrwt beam="2">  1       21 0.69673640E-02 0.32067493E+03</pdfrwt>
<totfact> 0.16531684E+05</totfact>
</mgrwt>
</event>
<event>
 8    1  0.9478272E-006  0.2887324E+03  0.7546771E-02  0.1091013E+00
         21   -1    0    0  504  503  0.00000000000E+00  0.00000000000E+00  0.15674328487E+03  0.15674328487E+03  0.00000000000E+00 0. -1.
         21   -1    0    0  503  504 -0.00000000000E+00 -0.00000000000E+00 -0.13296642899E+03  0.13296642899E+03  0.00000000000E+00 0. -1.
         25    2    1    2    0    0 -0.63703939203E+01  0.69469046208E+02 -0.69005174382E+01  0.14331476715E+03  0.12499990017E+03 0.  0.
         25    2    1    2    0    0  0.63703939203E+01 -0.69469046208E+02  0.30677373321E+02  0.14639494671E+03  0.12499539547E+03 0.  0.
          5    1    3    3  501    0  0.72936879255E+01  0.63657776076E+02  0.51834760769E+02  0.82549638173E+02  0.47000000000E+01 0.  1.
         -5    1    3    3    0  501 -0.13664081846E+02  0.58112701322E+01 -0.58735278208E+02  0.60765128975E+02  0.47000000000E+01 0.  1.
          5    1    4    4  502    0 -0.53395809839E+02 -0.62844740216E+02  0.13629058874E+02  0.83716277551E+02  0.47000000000E+01 0. -1.
         -5    1    4    4    0  502  0.59766203759E+02 -0.66243059929E+01  0.17048314446E+02  0.62678669156E+02  0.47000000000E+01 0. -1.
<mgrwt>
<rscale>  0 0.28873237E+03</rscale>
<asrwt>0</asrwt>
<pdfrwt beam="1">  1       21 0.24114351E-01 0.28873237E+03</pdfrwt>
<pdfrwt beam="2">  1       21 0.20456374E-01 0.28873237E+03</pdfrwt>
<totfact> 0.35159674E+05</totfact>
</mgrwt>
</event>
<event>
 8    1  0.9478272E-006  0.3247382E+03  0.7546771E-02  0.1073489E+00
         21   -1    0    0  504  503  0.00000000000E+00  0.00000000000E+00  0.50649367458E+02  0.50649367458E+02  0.00000000000E+00 0. -1.
         21   -1    0    0  503  504 -0.00000000000E+00 -0.00000000000E+00 -0.52051452235E+03  0.52051452235E+03  0.00000000000E+00 0. -1.
         25    2    1    2    0    0  0.51989782096E+02  0.25154876164E+02 -0.83592510837E+02  0.16108530204E+03  0.12500024571E+03 0.  0.
         25    2    1    2    0    0 -0.51989782096E+02 -0.25154876164E+02 -0.38627264406E+03  0.41007858778E+03  0.12498874896E+03 0.  0.
          5    1    3    3  501    0 -0.21130677255E+02  0.25312515118E+02  0.16396424333E+02  0.37123599957E+02  0.47000000000E+01 0.  1.
         -5    1    3    3    0  501  0.73120459351E+02 -0.15763895429E+00 -0.99988935170E+02  0.12396170208E+03  0.47000000000E+01 0.  1.
          5    1    4    4  502    0 -0.78001627466E+02 -0.56382550224E+02 -0.25613240681E+03  0.27365881253E+03  0.47000000000E+01 0.  1.
         -5    1    4    4    0  502  0.26011845370E+02  0.31227674060E+02 -0.13014023725E+03  0.13641977525E+03  0.47000000000E+01 0.  1.
<mgrwt>
<rscale>  0 0.32473824E+03</rscale>
<asrwt>0</asrwt>
<pdfrwt beam="1">  1       21 0.77922106E-02 0.32473824E+03</pdfrwt>
<pdfrwt beam="2">  1       21 0.80079155E-01 0.32473824E+03</pdfrwt>
<totfact> 0.16589898E+05</totfact>
</mgrwt>
</event>
<event>
 8    1  0.9478272E-006  0.3509551E+03  0.7546771E-02  0.1062224E+00
         21   -1    0    0  504  503  0.00000000000E+00  0.00000000000E+00  0.30746481100E+02  0.30746481100E+02  0.00000000000E+00 0.  1.
         21   -1    0    0  503  504 -0.00000000000E+00 -0.00000000000E+00 -0.10014925804E+04  0.10014925804E+04  0.00000000000E+00 0.  1.
         25    2    1    2    0    0 -0.11625310482E+03 -0.27892217478E+02 -0.57232384080E+03  0.59789114655E+03  0.12500593668E+03 0.  0.
         25    2    1    2    0    0  0.11625310482E+03  0.27892217478E+02 -0.39842225847E+03  0.43434791491E+03  0.12500021989E+03 0.  0.
          5    1    3    3  501    0 -0.99159492118E+02 -0.73327953783E+02 -0.43472966192E+03  0.45190879902E+03  0.47000000000E+01 0.  1.
         -5    1    3    3    0  501 -0.17093612698E+02  0.45435736305E+02 -0.13759417888E+03  0.14598234753E+03  0.47000000000E+01 0.  1.
          5    1    4    4  502    0  0.54971044664E+02  0.93361301963E+01 -0.36574860696E+02  0.66849005329E+02  0.47000000000E+01 0. -1.
         -5    1    4    4    0  502  0.61282060152E+02  0.18556087282E+02 -0.36184739777E+03  0.36749890958E+03  0.47000000000E+01 0. -1.
<mgrwt>
<rscale>  0 0.35095511E+03</rscale>
<asrwt>0</asrwt>
<pdfrwt beam="1">  1       21 0.47302273E-02 0.35095511E+03</pdfrwt>
<pdfrwt beam="2">  1       21 0.15407580E+00 0.35095511E+03</pdfrwt>
<totfact> 0.77226044E+04</totfact>
</mgrwt>
</event>
<event>
 8    1  0.9478272E-006  0.2878199E+03  0.7546771E-02  0.1091493E+00
         21   -1    0    0  504  503  0.00000000000E+00  0.00000000000E+00  0.14020391273E+03  0.14020391273E+03  0.00000000000E+00 0.  1.
         21   -1    0    0  503  504 -0.00000000000E+00 -0.00000000000E+00 -0.14771397442E+03  0.14771397442E+03  0.00000000000E+00 0.  1.
         25    2    1    2    0    0  0.25402148435E+01 -0.32831260151E+02 -0.66978453021E+02  0.14562791583E+03  0.12504812020E+03 0.  0.
         25    2    1    2    0    0 -0.25402148435E+01  0.32831260151E+02  0.59468391334E+02  0.14228997132E+03  0.12500240812E+03 0.  0.
          5    1    3    3  501    0  0.12263495384E+02 -0.78324108655E+02 -0.57165447128E+02  0.97852121392E+02  0.47000000000E+01 0.  1.
         -5    1    3    3    0  501 -0.97232805407E+01  0.45492848504E+02 -0.98130058927E+01  0.47775794438E+02  0.47000000000E+01 0.  1.
          5    1    4    4  502    0 -0.44341010117E+02  0.45282775657E+02  0.72612063410E+02  0.96494853241E+02  0.47000000000E+01 0. -1.
         -5    1    4    4    0  502  0.41800795274E+02 -0.12451515506E+02 -0.13143672076E+02  0.45795118075E+02  0.47000000000E+01 0. -1.
<mgrwt>
<rscale>  0 0.28781992E+03</rscale>
<asrwt>0</asrwt>
<pdfrwt beam="1">  1       21 0.21569833E-01 0.28781992E+03</pdfrwt>
<pdfrwt beam="2">  1       21 0.22725227E-01 0.28781992E+03</pdfrwt>
<totfact> 0.35632442E+05</totfact>
</mgrwt>
</event>
<event>
 8    1  0.9478272E-006  0.3128757E+03  0.7546771E-02  0.1078976E+00
         21   -1    0    0  504  503  0.00000000000E+00  0.00000000000E+00  0.58651279937E+03  0.58651279937E+03  0.00000000000E+00 0. -1.
         21   -1    0    0  503  504 -0.00000000000E+00 -0.00000000000E+00 -0.41725948026E+02  0.41725948026E+02  0.00000000000E+00 0. -1.
         25    2    1    2    0    0  0.68979215469E+01  0.93774540616E+02  0.27736584235E+03  0.31842969169E+03  0.12499764901E+03 0.  0.
         25    2    1    2    0    0 -0.68979215469E+01 -0.93774540616E+02  0.26742100900E+03  0.30980905571E+03  0.12500563650E+03 0.  0.
          5    1    3    3  501    0 -0.23204847632E+01  0.67215193559E+02  0.28164905709E+03  0.28960584983E+03  0.47000000000E+01 0.  1.
         -5    1    3    3    0  501  0.92184063101E+01  0.26559347057E+02 -0.42832147431E+01  0.28823841859E+02  0.47000000000E+01 0.  1.
          5    1    4    4  502    0 -0.53280799988E+02 -0.88367028344E+02  0.22024211289E+03  0.24326169784E+03  0.47000000000E+01 0. -1.
         -5    1    4    4    0  502  0.46382878441E+02 -0.54075122716E+01  0.47178896104E+02  0.66547357866E+02  0.47000000000E+01 0. -1.
<mgrwt>
<rscale>  0 0.31287571E+03</rscale>
<asrwt>0</asrwt>
<pdfrwt beam="1">  1       21 0.90232733E-01 0.31287571E+03</pdfrwt>
<pdfrwt beam="2">  1       21 0.64193770E-02 0.31287571E+03</pdfrwt>
<totfact> 0.17696024E+05</totfact>
</mgrwt>
</event>
<event>
 8    1  0.9478272E-006  0.2541685E+03  0.7546771E-02  0.1110698E+00
         21   -1    0    0  504  503  0.00000000000E+00  0.00000000000E+00  0.92604964131E+03  0.92604964131E+03  0.00000000000E+00 0.  1.
         21   -1    0    0  503  504 -0.00000000000E+00 -0.00000000000E+00 -0.17440107386E+02  0.17440107386E+02  0.00000000000E+00 0.  1.
         25    2    1    2    0    0  0.23011940143E+01 -0.15827532023E+00  0.53866082724E+03  0.55297920193E+03  0.12500076167E+03 0.  0.
         25    2    1    2    0    0 -0.23011940143E+01  0.15827532023E+00  0.36994870668E+03  0.39051054676E+03  0.12502448165E+03 0.  0.
          5    1    3    3  501    0  0.37309077578E+02 -0.43934550112E+02  0.15932497734E+03  0.16949557625E+03  0.47000000000E+01 0. -1.
         -5    1    3    3    0  501 -0.35007883564E+02  0.43776274792E+02  0.37933584990E+03  0.38348362568E+03  0.47000000000E+01 0. -1.
          5    1    4    4  502    0 -0.47387687638E+01  0.47148361589E+02  0.31248148602E+03  0.31608890052E+03  0.47000000000E+01 0. -1.
         -5    1    4    4    0  502  0.24375747495E+01 -0.46990086269E+02  0.57467220662E+02  0.74421646239E+02  0.47000000000E+01 0. -1.
<mgrwt>
<rscale>  0 0.25416849E+03</rscale>
<asrwt>0</asrwt>
<pdfrwt beam="1">  1       21 0.14246914E+00 0.25416849E+03</pdfrwt>
<pdfrwt beam="2">  1       21 0.26830942E-02 0.25416849E+03</pdfrwt>
<totfact> 0.25470008E+05</totfact>
</mgrwt>
</event>
<event>
 8    1  0.9478272E-006  0.3099986E+03  0.7546771E-02  0.1080347E+00
         21   -1    0    0  504  503  0.00000000000E+00  0.00000000000E+00  0.85001134086E+03  0.85001134086E+03  0.00000000000E+00 0.  1.
         21   -1    0    0  503  504 -0.00000000000E+00 -0.00000000000E+00 -0.28264079752E+02  0.28264079752E+02  0.00000000000E+00 0.  1.
         25    2    1    2    0    0  0.52589422919E+02 -0.71488172835E+02  0.34620476781E+03  0.37861741536E+03  0.12496879493E+03 0.  0.
         25    2    1    2    0    0 -0.52589422919E+02  0.71488172835E+02  0.47554249330E+03  0.49965800525E+03  0.12506499517E+03 0.  0.
          5    1    3    3  501    0  0.30010233483E+02  0.73993985609E+01  0.25058989094E+03  0.25253266849E+03  0.47000000000E+01 0. -1.
         -5    1    3    3    0  501  0.22579189436E+02 -0.78887571396E+02  0.95614876871E+02  0.12608474688E+03  0.47000000000E+01 0. -1.
          5    1    4    4  502    0  0.91062933764E+01  0.11410758572E+02 -0.10048312458E+01  0.15369764997E+02  0.47000000000E+01 0.  1.
         -5    1    4    4    0  502 -0.61695716295E+02  0.60077414263E+02  0.47654732455E+03  0.48428824025E+03  0.47000000000E+01 0.  1.
<mgrwt>
<rscale>  0 0.30999863E+03</rscale>
<asrwt>0</asrwt>
<pdfrwt beam="1">  1       21 0.13077096E+00 0.30999863E+03</pdfrwt>
<pdfrwt beam="2">  1       21 0.43483206E-02 0.30999863E+03</pdfrwt>
<totfact> 0.13915967E+05</totfact>
</mgrwt>
</event>
<event>
 8    1  0.9478272E-006  0.2589891E+03  0.7546771E-02  0.1107752E+00
         21   -1    0    0  504  503  0.00000000000E+00  0.00000000000E+00  0.95517520767E+02  0.95517520767E+02  0.00000000000E+00 0.  1.
         21   -1    0    0  503  504 -0.00000000000E+00 -0.00000000000E+00 -0.17555766783E+03  0.17555766783E+03  0.00000000000E+00 0.  1.
         25    2    1    2    0    0  0.30335209280E+02 -0.97699891020E+01 -0.51884425509E+02  0.13904295599E+03  0.12500108955E+03 0.  0.
         25    2    1    2    0    0 -0.30335209280E+02  0.97699891020E+01 -0.28155721558E+02  0.13203223262E+03  0.12499635268E+03 0.  0.
          5    1    3    3  501    0  0.72254351213E+02 -0.12605987660E+02 -0.61329679670E+02  0.95723674201E+02  0.47000000000E+01 0.  1.
         -5    1    3    3    0  501 -0.41919141933E+02  0.28359985576E+01  0.94452541609E+01  0.43319281785E+02  0.47000000000E+01 0.  1.
          5    1    4    4  502    0 -0.72831390559E+02 -0.11280238501E+01  0.10033714891E+02  0.73678011123E+02  0.47000000000E+01 0.  1.
         -5    1    4    4    0  502  0.42496181279E+02  0.10898012952E+02 -0.38189436449E+02  0.58354221492E+02  0.47000000000E+01 0.  1.
<mgrwt>
<rscale>  0 0.25898906E+03</rscale>
<asrwt>0</asrwt>
<pdfrwt beam="1">  1       21 0.14695003E-01 0.25898906E+03</pdfrwt>
<pdfrwt beam="2">  1       21 0.27008872E-01 0.25898906E+03</pdfrwt>
<totfact> 0.52527642E+05</totfact>
</mgrwt>
</event>
<event>
 8    1  0.9478272E-006  0.3298341E+03  0.7546771E-02  0.1071210E+00
         21   -1    0    0  504  503  0.00000000000E+00  0.00000000000E+00  0.56332572233E+02  0.56332572233E+02  0.00000000000E+00 0.  1.
         21   -1    0    0  503  504 -0.00000000000E+00 -0.00000000000E+00 -0.48280465339E+03  0.48280465339E+03  0.00000000000E+00 0.  1.
         25    2    1    2    0    0  0.25578600333E+02 -0.94422625134E+02 -0.14006228160E+03  0.21169141646E+03  0.12500366452E+03 0.  0.
         25    2    1    2    0    0 -0.25578600333E+02  0.94422625134E+02 -0.28640979955E+03  0.32744580915E+03  0.12498114947E+03 0.  0.
          5    1    3    3  501    0 -0.25018125778E+02 -0.99606945052E+02 -0.67621791148E+02  0.12305383683E+03  0.47000000000E+01 0.  1.
         -5    1    3    3    0  501  0.50596726111E+02  0.51843199183E+01 -0.72440490456E+02  0.88637579636E+02  0.47000000000E+01 0.  1.
          5    1    4    4  502    0  0.32798961160E+02  0.48677783170E+02 -0.42915917262E+02  0.72864012941E+02  0.47000000000E+01 0.  1.
         -5    1    4    4    0  502 -0.58377561493E+02  0.45744841964E+02 -0.24349388229E+03  0.25458179621E+03  0.47000000000E+01 0.  1.
<mgrwt>
<rscale>  0 0.32983407E+03</rscale>
<asrwt>0</asrwt>
<pdfrwt beam="1">  1       21 0.86665497E-02 0.32983407E+03</pdfrwt>
<pdfrwt beam="2">  1       21 0.74277638E-01 0.32983407E+03</pdfrwt>
<totfact> 0.16300449E+05</totfact>
</mgrwt>
</event>
<event>
 8    1  0.9478272E-006  0.3216938E+03  0.7546771E-02  0.1074872E+00
         21   -1    0    0  504  503  0.00000000000E+00  0.00000000000E+00  0.12970679888E+03  0.12970679888E+03  0.00000000000E+00 0. -1.
         21   -1    0    0  503  504 -0.00000000000E+00 -0.00000000000E+00 -0.19946311748E+03  0.19946311748E+03  0.00000000000E+00 0. -1.
         25    2    1    2    0    0  0.48208841340E+02 -0.66119410979E+02  0.26109505556E+02  0.15166598815E+03  0.12499998716E+03 0.  0.
         25    2    1    2    0    0 -0.48208841340E+02  0.66119410979E+02 -0.95865824154E+02  0.17750392820E+03  0.12498607680E+03 0.  0.
          5    1    3    3  501    0 -0.34157920879E+02  0.74605921784E+01 -0.76152681337E+01  0.36090252190E+02  0.47000000000E+01 0. -1.
         -5    1    3    3    0  501  0.82366762219E+02 -0.73580003157E+02  0.33724773690E+02  0.11557573596E+03  0.47000000000E+01 0. -1.
          5    1    4    4  502    0 -0.34747359744E+02 -0.55082223152E+01 -0.98216417769E+02  0.10443310893E+03  0.47000000000E+01 0.  1.
         -5    1    4    4    0  502 -0.13461481596E+02  0.71627633294E+02  0.23505936153E+01  0.73070819268E+02  0.47000000000E+01 0.  1.
<mgrwt>
<rscale>  0 0.32169378E+03</rscale>
<asrwt>0</asrwt>
<pdfrwt beam="1">  1       21 0.19954892E-01 0.32169378E+03</pdfrwt>
<pdfrwt beam="2">  1       21 0.30686633E-01 0.32169378E+03</pdfrwt>
<totfact> 0.22893912E+05</totfact>
</mgrwt>
</event>
<event>
 8    1  0.9478272E-006  0.2966245E+03  0.7546771E-02  0.1086940E+00
         21   -1    0    0  504  503  0.00000000000E+00  0.00000000000E+00  0.74108176179E+03  0.74108176179E+03  0.00000000000E+00 0. -1.
         21   -1    0    0  503  504 -0.00000000000E+00 -0.00000000000E+00 -0.29681649010E+02  0.29681649010E+02  0.00000000000E+00 0. -1.
         25    2    1    2    0    0 -0.51217574550E+02 -0.39455679590E+02  0.23405108887E+03  0.27310199324E+03  0.12499918367E+03 0.  0.
         25    2    1    2    0    0  0.51217574550E+02  0.39455679590E+02  0.47734902391E+03  0.49766141756E+03  0.12499922120E+03 0.  0.
          5    1    3    3  501    0 -0.42912584679E+01  0.91682113434E+01  0.19418056460E+03  0.19450103513E+03  0.47000000000E+01 0. -1.
         -5    1    3    3    0  501 -0.46926316082E+02 -0.48623890934E+02  0.39870524267E+02  0.78600958110E+02  0.47000000000E+01 0. -1.
          5    1    4    4  502    0  0.79491016655E+02 -0.13163092201E+02  0.28321905770E+03  0.29449484439E+03  0.47000000000E+01 0.  1.
         -5    1    4    4    0  502 -0.28273442105E+02  0.52618771791E+02  0.19412996621E+03  0.20316657317E+03  0.47000000000E+01 0.  1.
<mgrwt>
<rscale>  0 0.29662454E+03</rscale>
<asrwt>0</asrwt>
<pdfrwt beam="1">  1       21 0.11401256E+00 0.29662454E+03</pdfrwt>
<pdfrwt beam="2">  1       21 0.45664081E-02 0.29662454E+03</pdfrwt>
<totfact> 0.18159005E+05</totfact>
</mgrwt>
</event>
<event>
 8    1  0.9478272E-006  0.2959206E+03  0.7546771E-02  0.1087298E+00
         21   -1    0    0  504  503  0.00000000000E+00  0.00000000000E+00  0.11910549466E+02  0.11910549466E+02  0.00000000000E+00 0. -1.
         21   -1    0    0  503  504 -0.00000000000E+00 -0.00000000000E+00 -0.18380559620E+04  0.18380559620E+04  0.00000000000E+00 0. -1.
         25    2    1    2    0    0  0.42651676993E+02  0.65069179591E+02 -0.82161701162E+03  0.83470513534E+03  0.12499994200E+03 0.  0.
         25    2    1    2    0    0 -0.42651676993E+02 -0.65069179591E+02 -0.10045284009E+04  0.10152613761E+04  0.12500075969E+03 0.  0.
          5    1    3    3  501    0 -0.81095112636E+01  0.68230202028E+02 -0.69151857114E+03  0.69493967283E+03  0.47000000000E+01 0.  1.
         -5    1    3    3    0  501  0.50761188256E+02 -0.31610224369E+01 -0.13009844049E+03  0.13976546252E+03  0.47000000000E+01 0.  1.
          5    1    4    4  502    0 -0.70731305394E+02 -0.81933562592E+02 -0.62756798191E+03  0.63685138624E+03  0.47000000000E+01 0. -1.
         -5    1    4    4    0  502  0.28079628401E+02  0.16864383001E+02 -0.37696041900E+03  0.37840998988E+03  0.47000000000E+01 0. -1.
<mgrwt>
<rscale>  0 0.29592064E+03</rscale>
<asrwt>0</asrwt>
<pdfrwt beam="1">  1       21 0.18323918E-02 0.29592064E+03</pdfrwt>
<pdfrwt beam="2">  1       21 0.28277791E+00 0.29592064E+03</pdfrwt>
<totfact> 0.56711017E+04</totfact>
</mgrwt>
</event>
<event>
 8    1  0.9478272E-006  0.3184939E+03  0.7546771E-02  0.1076345E+00
         21   -1    0    0  504  503  0.00000000000E+00  0.00000000000E+00  0.62008860539E+02  0.62008860539E+02  0.00000000000E+00 0.  1.
         21   -1    0    0  503  504 -0.00000000000E+00 -0.00000000000E+00 -0.40896730723E+03  0.40896730723E+03  0.00000000000E+00 0.  1.
         25    2    1    2    0    0 -0.66646866151E+02  0.48185655333E+02 -0.92831325272E+02  0.17607041369E+03  0.12497789195E+03 0.  0.
         25    2    1    2    0    0  0.66646866151E+02 -0.48185655333E+02 -0.25412712142E+03  0.29490575408E+03  0.12500059121E+03 0.  0.
          5    1    3    3  501    0 -0.62815302511E+01 -0.37913235523E+02 -0.51108503262E+01  0.39052296235E+02  0.47000000000E+01 0.  1.
         -5    1    3    3    0  501 -0.60365335900E+02  0.86098890856E+02 -0.87720474946E+02  0.13701811745E+03  0.47000000000E+01 0.  1.
          5    1    4    4  502    0 -0.84433492568E+01 -0.24776930143E+02 -0.19393728897E+03  0.19575226299E+03  0.47000000000E+01 0. -1.
         -5    1    4    4    0  502  0.75090215408E+02 -0.23408725189E+02 -0.60189832448E+02  0.99153491089E+02  0.47000000000E+01 0. -1.
<mgrwt>
<rscale>  0 0.31849394E+03</rscale>
<asrwt>0</asrwt>
<pdfrwt beam="1">  1       21 0.95398249E-02 0.31849394E+03</pdfrwt>
<pdfrwt beam="2">  1       21 0.62918046E-01 0.31849394E+03</pdfrwt>
<totfact> 0.19937145E+05</totfact>
</mgrwt>
</event>
<event>
 8    1  0.9478272E-006  0.5357614E+03  0.7546771E-02  0.1004844E+00
         21   -1    0    0  504  503  0.00000000000E+00  0.00000000000E+00  0.65434134327E+02  0.65434134327E+02  0.00000000000E+00 0.  1.
         21   -1    0    0  503  504 -0.00000000000E+00 -0.00000000000E+00 -0.10966763606E+04  0.10966763606E+04  0.00000000000E+00 0.  1.
         25    2    1    2    0    0  0.22535476077E+02 -0.18515958701E+03 -0.83251941073E+03  0.86226672004E+03  0.12499362745E+03 0.  0.
         25    2    1    2    0    0 -0.22535476077E+02  0.18515958701E+03 -0.19872281558E+03  0.29984377493E+03  0.12499444621E+03 0.  0.
          5    1    3    3  501    0  0.67760441373E+02 -0.14682267056E+03 -0.66856444957E+03  0.68785818832E+03  0.47000000000E+01 0. -1.
         -5    1    3    3    0  501 -0.45224965296E+02 -0.38336916449E+02 -0.16395496116E+03  0.17440853172E+03  0.47000000000E+01 0. -1.
          5    1    4    4  502    0 -0.49676635900E+02  0.29742040300E+02 -0.93737879807E+02  0.11027799974E+03  0.47000000000E+01 0. -1.
         -5    1    4    4    0  502  0.27141159824E+02  0.15541754671E+03 -0.10498493577E+03  0.18956577519E+03  0.47000000000E+01 0. -1.
<mgrwt>
<rscale>  0 0.53576140E+03</rscale>
<asrwt>0</asrwt>
<pdfrwt beam="1">  1       21 0.10066790E-01 0.53576140E+03</pdfrwt>
<pdfrwt beam="2">  1       21 0.16871944E+00 0.53576140E+03</pdfrwt>
<totfact> 0.15097331E+04</totfact>
</mgrwt>
</event>
<event>
 8    1  0.9478272E-006  0.2691403E+03  0.7546771E-02  0.1101773E+00
         21   -1    0    0  504  503  0.00000000000E+00  0.00000000000E+00  0.20509482198E+03  0.20509482198E+03  0.00000000000E+00 0. -1.
         21   -1    0    0  503  504 -0.00000000000E+00 -0.00000000000E+00 -0.88296358624E+02  0.88296358624E+02  0.00000000000E+00 0. -1.
         25    2    1    2    0    0  0.95826132653E+01 -0.42235699393E+02  0.85317414084E+02  0.15740743207E+03  0.12498943054E+03 0.  0.
         25    2    1    2    0    0 -0.95826132653E+01  0.42235699393E+02  0.31481049272E+02  0.13598374853E+03  0.12499937048E+03 0.  0.
          5    1    3    3  501    0 -0.51235618433E+02  0.67483126779E+01  0.20434412011E+02  0.55769915855E+02  0.47000000000E+01 0.  1.
         -5    1    3    3    0  501  0.60818231698E+02 -0.48984012071E+02  0.64883002072E+02  0.10163751622E+03  0.47000000000E+01 0.  1.
          5    1    4    4  502    0  0.34822823669E+02  0.22279874624E+02 -0.34362639010E+02  0.53962049825E+02  0.47000000000E+01 0. -1.
         -5    1    4    4    0  502 -0.44405436935E+02  0.19955824769E+02  0.65843688282E+02  0.82021698703E+02  0.47000000000E+01 0. -1.
<mgrwt>
<rscale>  0 0.26914031E+03</rscale>
<asrwt>0</asrwt>
<pdfrwt beam="1">  1       21 0.31553050E-01 0.26914031E+03</pdfrwt>
<pdfrwt beam="2">  1       21 0.13584055E-01 0.26914031E+03</pdfrwt>
<totfact> 0.44641143E+05</totfact>
</mgrwt>
</event>
<event>
 8    1  0.9478272E-006  0.3324919E+03  0.7546771E-02  0.1070040E+00
         21   -1    0    0  504  503  0.00000000000E+00  0.00000000000E+00  0.26764394663E+02  0.26764394663E+02  0.00000000000E+00 0.  1.
         21   -1    0    0  503  504 -0.00000000000E+00 -0.00000000000E+00 -0.10326300424E+04  0.10326300424E+04  0.00000000000E+00 0.  1.
         25    2    1    2    0    0 -0.68475888050E+01  0.55275564516E+02 -0.80380229334E+03  0.81536884225E+03  0.12500377848E+03 0.  0.
         25    2    1    2    0    0  0.68475888050E+01 -0.55275564516E+02 -0.20206335438E+03  0.24402559480E+03  0.12496645240E+03 0.  0.
          5    1    3    3  501    0 -0.58879842338E+02  0.23524323653E+02 -0.57625764698E+03  0.57975442676E+03  0.47000000000E+01 0.  1.
         -5    1    3    3    0  501  0.52032253533E+02  0.31751240863E+02 -0.22754464635E+03  0.23561441549E+03  0.47000000000E+01 0.  1.
          5    1    4    4  502    0 -0.17265054308E+02  0.18869637959E+02 -0.14494758850E+03  0.14726180342E+03  0.47000000000E+01 0.  1.
         -5    1    4    4    0  502  0.24112643113E+02 -0.74145202475E+02 -0.57115765888E+02  0.96763791373E+02  0.47000000000E+01 0.  1.
<mgrwt>
<rscale>  0 0.33249191E+03</rscale>
<asrwt>0</asrwt>
<pdfrwt beam="1">  1       21 0.41175986E-02 0.33249191E+03</pdfrwt>
<pdfrwt beam="2">  1       21 0.15886618E+00 0.33249191E+03</pdfrwt>
<totfact> 0.90487707E+04</totfact>
</mgrwt>
</event>
<event>
 8    1  0.9478272E-006  0.4638981E+03  0.7546771E-02  0.1023657E+00
         21   -1    0    0  504  503  0.00000000000E+00  0.00000000000E+00  0.16947477861E+04  0.16947477861E+04  0.00000000000E+00 0. -1.
         21   -1    0    0  503  504 -0.00000000000E+00 -0.00000000000E+00 -0.31745349252E+02  0.31745349252E+02  0.00000000000E+00 0. -1.
         25    2    1    2    0    0  0.42985739769E+02 -0.19034482746E+03  0.79494351562E+03  0.82803263271E+03  0.12499568249E+03 0.  0.
         25    2    1    2    0    0 -0.42985739769E+02  0.19034482746E+03  0.86805892126E+03  0.89846050267E+03  0.12500422760E+03 0.  0.
          5    1    3    3  501    0 -0.53162540619E+01 -0.17799226073E+03  0.55378836133E+03  0.58173288250E+03  0.47000000000E+01 0.  1.
         -5    1    3    3    0  501  0.48301993830E+02 -0.12352566730E+02  0.24115515429E+03  0.24629975021E+03  0.47000000000E+01 0.  1.
          5    1    4    4  502    0  0.10511246727E+02  0.11726366827E+03  0.28509198026E+03  0.30848141178E+03  0.47000000000E+01 0. -1.
         -5    1    4    4    0  502 -0.53496986495E+02  0.73081159189E+02  0.58296694100E+03  0.58997909089E+03  0.47000000000E+01 0. -1.
<mgrwt>
<rscale>  0 0.46389809E+03</rscale>
<asrwt>0</asrwt>
<pdfrwt beam="1">  1       21 0.26073036E+00 0.46389809E+03</pdfrwt>
<pdfrwt beam="2">  1       21 0.48839012E-02 0.46389809E+03</pdfrwt>
<totfact> 0.13748554E+04</totfact>
</mgrwt>
</event>
<event>
 8    1  0.9478272E-006  0.3192739E+03  0.7546771E-02  0.1075984E+00
         21   -1    0    0  504  503  0.00000000000E+00  0.00000000000E+00  0.15856608868E+03  0.15856608868E+03  0.00000000000E+00 0. -1.
         21   -1    0    0  503  504 -0.00000000000E+00 -0.00000000000E+00 -0.16071501499E+03  0.16071501499E+03  0.00000000000E+00 0. -1.
         25    2    1    2    0    0 -0.36116805350E+02 -0.92277597669E+02 -0.74047044348E+01  0.15968397078E+03  0.12499824886E+03 0.  0.
         25    2    1    2    0    0  0.36116805350E+02  0.92277597669E+02  0.52557781308E+01  0.15959713289E+03  0.12499617179E+03 0.  0.
          5    1    3    3  501    0 -0.25659809206E+02  0.25987312160E+02 -0.16841230235E+02  0.40490532691E+02  0.47000000000E+01 0.  1.
         -5    1    3    3    0  501 -0.10456996144E+02 -0.11826490983E+03  0.94365257998E+01  0.11919343809E+03  0.47000000000E+01 0.  1.
          5    1    4    4  502    0 -0.38201646549E+02 -0.17518040214E+01  0.91029382516E+01  0.39590252603E+02  0.47000000000E+01 0. -1.
         -5    1    4    4    0  502  0.74318451899E+02  0.94029401691E+02 -0.38471601208E+01  0.12000688029E+03  0.47000000000E+01 0. -1.
<mgrwt>
<rscale>  0 0.31927387E+03</rscale>
<asrwt>0</asrwt>
<pdfrwt beam="1">  1       21 0.24394783E-01 0.31927387E+03</pdfrwt>
<pdfrwt beam="2">  1       21 0.24725387E-01 0.31927387E+03</pdfrwt>
<totfact> 0.23805761E+05</totfact>
</mgrwt>
</event>
<event>
 8    1  0.9478272E-006  0.2748467E+03  0.7546771E-02  0.1098537E+00
         21   -1    0    0  504  503  0.00000000000E+00  0.00000000000E+00  0.20192511642E+03  0.20192511642E+03  0.00000000000E+00 0.  1.
         21   -1    0    0  503  504 -0.00000000000E+00 -0.00000000000E+00 -0.93525628671E+02  0.93525628671E+02  0.00000000000E+00 0.  1.
         25    2    1    2    0    0 -0.40389908952E+02  0.82423875620E+01  0.96633195262E+02  0.16330217609E+03  0.12502137653E+03 0.  0.
         25    2    1    2    0    0  0.40389908952E+02 -0.82423875620E+01  0.11766292488E+02  0.13214856900E+03  0.12500206779E+03 0.  0.
          5    1    3    3  501    0  0.71526994529E+01  0.42733494381E+02 -0.69493166275E+01  0.44132705028E+02  0.47000000000E+01 0.  1.
         -5    1    3    3    0  501 -0.47542608405E+02 -0.34491106819E+02  0.10358251189E+03  0.11916947106E+03  0.47000000000E+01 0.  1.
          5    1    4    4  502    0  0.84716930066E+02 -0.15556586832E+02  0.11093625092E+02  0.86971973367E+02  0.47000000000E+01 0. -1.
         -5    1    4    4    0  502 -0.44327021115E+02  0.73141992700E+01  0.67266739555E+00  0.45176595636E+02  0.47000000000E+01 0. -1.
<mgrwt>
<rscale>  0 0.27484667E+03</rscale>
<asrwt>0</asrwt>
<pdfrwt beam="1">  1       21 0.31065403E-01 0.27484667E+03</pdfrwt>
<pdfrwt beam="2">  1       21 0.14388558E-01 0.27484667E+03</pdfrwt>
<totfact> 0.41404073E+05</totfact>
</mgrwt>
</event>
<event>
 8    1  0.9478272E-006  0.2887812E+03  0.7546771E-02  0.1090987E+00
         21   -1    0    0  504  503  0.00000000000E+00  0.00000000000E+00  0.89081217022E+03  0.89081217022E+03  0.00000000000E+00 0. -1.
         21   -1    0    0  503  504 -0.00000000000E+00 -0.00000000000E+00 -0.23404082626E+02  0.23404082626E+02  0.00000000000E+00 0. -1.
         25    2    1    2    0    0  0.25154320746E+02  0.44694906249E+02  0.27250453277E+03  0.30416297899E+03  0.12500409157E+03 0.  0.
         25    2    1    2    0    0 -0.25154320746E+02 -0.44694906249E+02  0.59490355482E+03  0.61005327386E+03  0.12499753161E+03 0.  0.
          5    1    3    3  501    0 -0.39988958625E+02  0.67959341044E+01  0.18087917927E+03  0.18543103576E+03  0.47000000000E+01 0.  1.
         -5    1    3    3    0  501  0.65143279371E+02  0.37898972145E+02  0.91625353506E+02  0.11873194322E+03  0.47000000000E+01 0.  1.
          5    1    4    4  502    0  0.25614800674E+01 -0.31850915693E+02  0.29305117995E+02  0.43611030157E+02  0.47000000000E+01 0. -1.
         -5    1    4    4    0  502 -0.27715800814E+02 -0.12843990556E+02  0.56559843683E+03  0.56644224370E+03  0.47000000000E+01 0. -1.
<mgrwt>
<rscale>  0 0.28878117E+03</rscale>
<asrwt>0</asrwt>
<pdfrwt beam="1">  1       21 0.13704800E+00 0.28878117E+03</pdfrwt>
<pdfrwt beam="2">  1       21 0.36006288E-02 0.28878117E+03</pdfrwt>
<totfact> 0.17071031E+05</totfact>
</mgrwt>
</event>
<event>
 8    1  0.9478272E-006  0.3248416E+03  0.7546771E-02  0.1073442E+00
         21   -1    0    0  504  503  0.00000000000E+00  0.00000000000E+00  0.12201672815E+04  0.12201672815E+04  0.00000000000E+00 0. -1.
         21   -1    0    0  503  504 -0.00000000000E+00 -0.00000000000E+00 -0.21620414790E+02  0.21620414790E+02  0.00000000000E+00 0. -1.
         25    2    1    2    0    0  0.43541291415E+02  0.52787490234E+02  0.89717351350E+03  0.90842121097E+03  0.12500568000E+03 0.  0.
         25    2    1    2    0    0 -0.43541291415E+02 -0.52787490234E+02  0.30137335324E+03  0.33336648535E+03  0.12499980931E+03 0.  0.
          5    1    3    3  501    0  0.79285301007E+02  0.57877176377E+02  0.76635302614E+03  0.77262861530E+03  0.47000000000E+01 0. -1.
         -5    1    3    3    0  501 -0.35744009592E+02 -0.50896861428E+01  0.13082048736E+03  0.13579259567E+03  0.47000000000E+01 0. -1.
          5    1    4    4  502    0 -0.36877035930E+02 -0.68918835879E+02  0.82491059213E+02  0.11373911626E+03  0.47000000000E+01 0.  1.
         -5    1    4    4    0  502 -0.66642554849E+01  0.16131345645E+02  0.21888229403E+03  0.21962736909E+03  0.47000000000E+01 0.  1.
<mgrwt>
<rscale>  0 0.32484164E+03</rscale>
<asrwt>0</asrwt>
<pdfrwt beam="1">  1       21 0.18771799E+00 0.32484164E+03</pdfrwt>
<pdfrwt beam="2">  1       21 0.33262186E-02 0.32484164E+03</pdfrwt>
<totfact> 0.81038438E+04</totfact>
</mgrwt>
</event>
<event>
 8    1  0.9478272E-006  0.2657166E+03  0.7546771E-02  0.1103756E+00
         21   -1    0    0  504  503  0.00000000000E+00  0.00000000000E+00  0.36925714628E+03  0.36925714628E+03  0.00000000000E+00 0. -1.
         21   -1    0    0  503  504 -0.00000000000E+00 -0.00000000000E+00 -0.47802253885E+02  0.47802253885E+02  0.00000000000E+00 0. -1.
         25    2    1    2    0    0 -0.17848140122E+02  0.35127636176E+02  0.19491967684E+03  0.23488815995E+03  0.12500504124E+03 0.  0.
         25    2    1    2    0    0  0.17848140122E+02 -0.35127636176E+02  0.12653521556E+03  0.18217124022E+03  0.12499077189E+03 0.  0.
          5    1    3    3  501    0  0.27675177243E-01  0.43826571950E+02  0.20667244823E+03  0.21132051493E+03  0.47000000000E+01 0. -1.
         -5    1    3    3    0  501 -0.17875815299E+02 -0.86989357736E+01 -0.11752771391E+02  0.23567645015E+02  0.47000000000E+01 0. -1.
          5    1    4    4  502    0 -0.27655702828E+01 -0.64892412654E+02  0.13009988387E+03  0.14548794926E+03  0.47000000000E+01 0.  1.
         -5    1    4    4    0  502  0.20613710404E+02  0.29764776478E+02 -0.35646683028E+01  0.36683290958E+02  0.47000000000E+01 0.  1.
<mgrwt>
<rscale>  0 0.26571657E+03</rscale>
<asrwt>0</asrwt>
<pdfrwt beam="1">  1       21 0.56808790E-01 0.26571657E+03</pdfrwt>
<pdfrwt beam="2">  1       21 0.73541931E-02 0.26571657E+03</pdfrwt>
<totfact> 0.39790000E+05</totfact>
</mgrwt>
</event>
<event>
 8    1  0.9478272E-006  0.3235288E+03  0.7546771E-02  0.1074037E+00
         21   -1    0    0  504  503  0.00000000000E+00  0.00000000000E+00  0.40210906560E+03  0.40210906560E+03  0.00000000000E+00 0. -1.
         21   -1    0    0  503  504 -0.00000000000E+00 -0.00000000000E+00 -0.65076181080E+02  0.65076181080E+02  0.00000000000E+00 0. -1.
         25    2    1    2    0    0 -0.23609847327E+02  0.84622905669E+02  0.91769291878E+02  0.17822810173E+03  0.12500076903E+03 0.  0.
         25    2    1    2    0    0  0.23609847327E+02 -0.84622905669E+02  0.24526359264E+03  0.28895714495E+03  0.12499416262E+03 0.  0.
          5    1    3    3  501    0 -0.53330529920E+01  0.13518544834E+02 -0.31311207657E+02  0.34837827624E+02  0.47000000000E+01 0. -1.
         -5    1    3    3    0  501 -0.18276794335E+02  0.71104360835E+02  0.12308049954E+03  0.14339027410E+03  0.47000000000E+01 0. -1.
          5    1    4    4  502    0 -0.11577875338E+01  0.25696325885E+02  0.10190107540E+02  0.28063676303E+02  0.47000000000E+01 0. -1.
         -5    1    4    4    0  502  0.24767634861E+02 -0.11031923155E+03  0.23507348510E+03  0.26089346865E+03  0.47000000000E+01 0. -1.
<mgrwt>
<rscale>  0 0.32352881E+03</rscale>
<asrwt>0</asrwt>
<pdfrwt beam="1">  1       21 0.61862932E-01 0.32352881E+03</pdfrwt>
<pdfrwt beam="2">  1       21 0.10011720E-01 0.32352881E+03</pdfrwt>
<totfact> 0.18960911E+05</totfact>
</mgrwt>
</event>
<event>
 8    1  0.9478272E-006  0.2948660E+03  0.7546771E-02  0.1087836E+00
         21   -1    0    0  504  503  0.00000000000E+00  0.00000000000E+00  0.91134197024E+02  0.91134197024E+02  0.00000000000E+00 0. -1.
         21   -1    0    0  503  504 -0.00000000000E+00 -0.00000000000E+00 -0.23851082594E+03  0.23851082594E+03  0.00000000000E+00 0. -1.
         25    2    1    2    0    0  0.57595254085E+02  0.87845891838E+01 -0.13196300557E+03  0.19087577810E+03  0.12499978211E+03 0.  0.
         25    2    1    2    0    0 -0.57595254085E+02 -0.87845891838E+01 -0.15413623351E+02  0.13876924486E+03  0.12499976494E+03 0.  0.
          5    1    3    3  501    0 -0.37066926680E+02  0.10382103256E+02 -0.61730159516E+02  0.72900258679E+02  0.47000000000E+01 0.  1.
         -5    1    3    3    0  501  0.94662180765E+02 -0.15975140723E+01 -0.70232846050E+02  0.11797551942E+03  0.47000000000E+01 0.  1.
          5    1    4    4  502    0 -0.36298379166E+02 -0.26796819794E+02 -0.66427391094E+02  0.80438362544E+02  0.47000000000E+01 0. -1.
         -5    1    4    4    0  502 -0.21296874919E+02  0.18012230611E+02  0.51013767744E+02  0.58330882320E+02  0.47000000000E+01 0. -1.
<mgrwt>
<rscale>  0 0.29486602E+03</rscale>
<asrwt>0</asrwt>
<pdfrwt beam="1">  1       21 0.14020646E-01 0.29486602E+03</pdfrwt>
<pdfrwt beam="2">  1       21 0.36693974E-01 0.29486602E+03</pdfrwt>
<totfact> 0.31025609E+05</totfact>
</mgrwt>
</event>
<event>
 8    1  0.9478272E-006  0.3058906E+03  0.7546771E-02  0.1082332E+00
         21   -1    0    0  504  503  0.00000000000E+00  0.00000000000E+00  0.40973496157E+02  0.40973496157E+02  0.00000000000E+00 0.  1.
         21   -1    0    0  503  504 -0.00000000000E+00 -0.00000000000E+00 -0.57091204505E+03  0.57091204505E+03  0.00000000000E+00 0.  1.
         25    2    1    2    0    0  0.86647466410E+02  0.15654743215E+02 -0.27302337031E+03  0.31291883685E+03  0.12499433305E+03 0.  0.
         25    2    1    2    0    0 -0.86647466410E+02 -0.15654743215E+02 -0.25691517858E+03  0.29896670436E+03  0.12499130734E+03 0.  0.
          5    1    3    3  501    0  0.11328821363E+03  0.30633993580E+02 -0.24261825565E+03  0.26955216356E+03  0.47000000000E+01 0. -1.
         -5    1    3    3    0  501 -0.26640747215E+02 -0.14979250365E+02 -0.30405114667E+02  0.43366673283E+02  0.47000000000E+01 0. -1.
          5    1    4    4  502    0  0.20973746045E+02  0.10592872252E+02 -0.60836190495E+01  0.24722608811E+02  0.47000000000E+01 0.  1.
         -5    1    4    4    0  502 -0.10762121245E+03 -0.26247615467E+02 -0.25083155953E+03  0.27424409555E+03  0.47000000000E+01 0.  1.
<mgrwt>
<rscale>  0 0.30589058E+03</rscale>
<asrwt>0</asrwt>
<pdfrwt beam="1">  1       21 0.63036143E-02 0.30589058E+03</pdfrwt>
<pdfrwt beam="2">  1       21 0.87832629E-01 0.30589058E+03</pdfrwt>
<totfact> 0.19485649E+05</totfact>
</mgrwt>
</event>
<event>
 8    1  0.9478272E-006  0.3362944E+03  0.7546771E-02  0.1068385E+00
         21   -1    0    0  504  503  0.00000000000E+00  0.00000000000E+00  0.38488695903E+02  0.38488695903E+02  0.00000000000E+00 0. -1.
         21   -1    0    0  503  504 -0.00000000000E+00 -0.00000000000E+00 -0.73459161316E+03  0.73459161316E+03  0.00000000000E+00 0. -1.
         25    2    1    2    0    0 -0.55016030745E+02 -0.74816685075E+02 -0.49387245929E+03  0.51784130299E+03  0.12500123612E+03 0.  0.
         25    2    1    2    0    0  0.55016030745E+02  0.74816685075E+02 -0.20223045796E+03  0.25523900607E+03  0.12500196833E+03 0.  0.
          5    1    3    3  501    0 -0.92510921507E+02 -0.51108604278E+02 -0.27894929086E+03  0.29833732066E+03  0.47000000000E+01 0. -1.
         -5    1    3    3    0  501  0.37494890762E+02 -0.23708080797E+02 -0.21492316843E+03  0.21950398233E+03  0.47000000000E+01 0. -1.
          5    1    4    4  502    0  0.25677232118E+02  0.20340350932E+02 -0.18889208401E+03  0.19176902650E+03  0.47000000000E+01 0. -1.
         -5    1    4    4    0  502  0.29338798627E+02  0.54476334144E+02 -0.13338373956E+02  0.63469979568E+02  0.47000000000E+01 0. -1.
<mgrwt>
<rscale>  0 0.33629435E+03</rscale>
<asrwt>0</asrwt>
<pdfrwt beam="1">  1       21 0.59213381E-02 0.33629435E+03</pdfrwt>
<pdfrwt beam="2">  1       21 0.11301409E+00 0.33629435E+03</pdfrwt>
<totfact> 0.11754926E+05</totfact>
</mgrwt>
</event>
<event>
 8    1  0.9478272E-006  0.2514556E+03  0.7546771E-02  0.1112388E+00
         21   -1    0    0  504  503  0.00000000000E+00  0.00000000000E+00  0.10078190267E+03  0.10078190267E+03  0.00000000000E+00 0.  1.
         21   -1    0    0  503  504 -0.00000000000E+00 -0.00000000000E+00 -0.15684839590E+03  0.15684839590E+03  0.00000000000E+00 0.  1.
         25    2    1    2    0    0 -0.11533155964E+02 -0.31772613030E+01 -0.21580281671E+02  0.12741040078E+03  0.12499837196E+03 0.  0.
         25    2    1    2    0    0  0.11533155964E+02  0.31772613030E+01 -0.34486211560E+02  0.13021989780E+03  0.12499925728E+03 0.  0.
          5    1    3    3  501    0  0.40020670823E+02 -0.70228936525E+01  0.32652583296E+02  0.52337905234E+02  0.47000000000E+01 0.  1.
         -5    1    3    3    0  501 -0.51553826788E+02  0.38456323495E+01 -0.54232864966E+02  0.75072495543E+02  0.47000000000E+01 0.  1.
          5    1    4    4  502    0  0.11740933685E+02  0.57673919461E+02 -0.45352345588E+02  0.74451700854E+02  0.47000000000E+01 0.  1.
         -5    1    4    4    0  502 -0.20777772042E+00 -0.54496658158E+02  0.10866134028E+02  0.55768196946E+02  0.47000000000E+01 0.  1.
<mgrwt>
<rscale>  0 0.25145560E+03</rscale>
<asrwt>0</asrwt>
<pdfrwt beam="1">  1       21 0.15504908E-01 0.25145560E+03</pdfrwt>
<pdfrwt beam="2">  1       21 0.24130522E-01 0.25145560E+03</pdfrwt>
<totfact> 0.59220335E+05</totfact>
</mgrwt>
</event>
<event>
 8    1  0.9478272E-006  0.4361628E+03  0.7546771E-02  0.1031931E+00
         21   -1    0    0  504  503  0.00000000000E+00  0.00000000000E+00  0.11853385233E+03  0.11853385233E+03  0.00000000000E+00 0. -1.
         21   -1    0    0  503  504 -0.00000000000E+00 -0.00000000000E+00 -0.40123136936E+03  0.40123136936E+03  0.00000000000E+00 0. -1.
         25    2    1    2    0    0 -0.12125510771E+03 -0.11697387711E+03 -0.70357377231E+02  0.22127037496E+03  0.12499891692E+03 0.  0.
         25    2    1    2    0    0  0.12125510771E+03  0.11697387711E+03 -0.21234013980E+03  0.29849484673E+03  0.12500059793E+03 0.  0.
          5    1    3    3  501    0 -0.10970303721E+03 -0.19831966678E+02 -0.31893680562E+02  0.11604895577E+03  0.47000000000E+01 0. -1.
         -5    1    3    3    0  501 -0.11552070506E+02 -0.97141910435E+02 -0.38463696670E+02  0.10522141919E+03  0.47000000000E+01 0. -1.
          5    1    4    4  502    0  0.14623091917E+03  0.93140986968E+02 -0.16239591012E+03  0.23759892003E+03  0.47000000000E+01 0. -1.
         -5    1    4    4    0  502 -0.24975811459E+02  0.23832890145E+02 -0.49944229683E+02  0.60895926706E+02  0.47000000000E+01 0. -1.
<mgrwt>
<rscale>  0 0.43616281E+03</rscale>
<asrwt>0</asrwt>
<pdfrwt beam="1">  1       21 0.18235977E-01 0.43616281E+03</pdfrwt>
<pdfrwt beam="2">  1       21 0.61727903E-01 0.43616281E+03</pdfrwt>
<totfact> 0.61909325E+04</totfact>
</mgrwt>
</event>
<event>
 8    1  0.9478272E-006  0.3571585E+03  0.7546771E-02  0.1059715E+00
         21   -1    0    0  504  503  0.00000000000E+00  0.00000000000E+00  0.12745541594E+03  0.12745541594E+03  0.00000000000E+00 0. -1.
         21   -1    0    0  503  504 -0.00000000000E+00 -0.00000000000E+00 -0.25020944082E+03  0.25020944082E+03  0.00000000000E+00 0. -1.
         25    2    1    2    0    0 -0.72999085817E+02 -0.69236390533E+02  0.21497645206E+02  0.16189454224E+03  0.12500059902E+03 0.  0.
         25    2    1    2    0    0  0.72999085817E+02  0.69236390533E+02 -0.14425167008E+03  0.21577031451E+03  0.12500295996E+03 0.  0.
          5    1    3    3  501    0 -0.95017236820E+02 -0.83923921715E+02 -0.96374673694E+00  0.12686417436E+03  0.47000000000E+01 0.  1.
         -5    1    3    3    0  501  0.22018151003E+02  0.14687531182E+02  0.22461391943E+02  0.35030367880E+02  0.47000000000E+01 0.  1.
          5    1    4    4  502    0  0.10629784315E+03  0.35925532576E+02 -0.91183837300E+02  0.14465979930E+03  0.47000000000E+01 0.  1.
         -5    1    4    4    0  502 -0.33298757330E+02  0.33310857957E+02 -0.53067832783E+02  0.71110515212E+02  0.47000000000E+01 0.  1.
<mgrwt>
<rscale>  0 0.35715850E+03</rscale>
<asrwt>0</asrwt>
<pdfrwt beam="1">  1       21 0.19608526E-01 0.35715850E+03</pdfrwt>
<pdfrwt beam="2">  1       21 0.38493760E-01 0.35715850E+03</pdfrwt>
<totfact> 0.14906340E+05</totfact>
</mgrwt>
</event>
<event>
 8    1  0.9478272E-006  0.2788614E+03  0.7546771E-02  0.1096312E+00
         21   -1    0    0  504  503  0.00000000000E+00  0.00000000000E+00  0.80417390571E+02  0.80417390571E+02  0.00000000000E+00 0.  1.
         21   -1    0    0  503  504 -0.00000000000E+00 -0.00000000000E+00 -0.24175024201E+03  0.24175024201E+03  0.00000000000E+00 0.  1.
         25    2    1    2    0    0 -0.10576546860E+02  0.57784798012E+02 -0.58595748363E+02  0.15002861448E+03  0.12499670880E+03 0.  0.
         25    2    1    2    0    0  0.10576546860E+02 -0.57784798012E+02 -0.10273710307E+03  0.17213901810E+03  0.12500393186E+03 0.  0.
          5    1    3    3  501    0  0.52205375625E+02  0.53401643684E+02 -0.35539128724E+02  0.82838737694E+02  0.47000000000E+01 0.  1.
         -5    1    3    3    0  501 -0.62781922485E+02  0.43831543288E+01 -0.23056619639E+02  0.67189876782E+02  0.47000000000E+01 0.  1.
          5    1    4    4  502    0 -0.23420037905E+02  0.18952871908E+02 -0.79164158745E+02  0.84833740686E+02  0.47000000000E+01 0.  1.
         -5    1    4    4    0  502  0.33996584765E+02 -0.76737669920E+02 -0.23572944330E+02  0.87305277417E+02  0.47000000000E+01 0.  1.
<mgrwt>
<rscale>  0 0.27886143E+03</rscale>
<asrwt>0</asrwt>
<pdfrwt beam="1">  1       21 0.12371906E-01 0.27886143E+03</pdfrwt>
<pdfrwt beam="2">  1       21 0.37192345E-01 0.27886143E+03</pdfrwt>
<totfact> 0.38022250E+05</totfact>
</mgrwt>
</event>
<event>
 8    1  0.9478272E-006  0.2611201E+03  0.7546771E-02  0.1106472E+00
         21   -1    0    0  504  503  0.00000000000E+00  0.00000000000E+00  0.55396386432E+03  0.55396386432E+03  0.00000000000E+00 0. -1.
         21   -1    0    0  503  504 -0.00000000000E+00 -0.00000000000E+00 -0.30770825927E+02  0.30770825927E+02  0.00000000000E+00 0. -1.
         25    2    1    2    0    0 -0.20028652628E+02 -0.40774558460E+01  0.19069512057E+03  0.22892909972E+03  0.12500452439E+03 0.  0.
         25    2    1    2    0    0  0.20028652628E+02  0.40774558460E+01  0.33249791782E+03  0.35580559052E+03  0.12499992128E+03 0.  0.
          5    1    3    3  501    0  0.12132284104E+02 -0.14751804423E+02 -0.12215879110E+02  0.23154389513E+02  0.47000000000E+01 0.  1.
         -5    1    3    3    0  501 -0.32160936732E+02  0.10674348577E+02  0.20291099968E+03  0.20577471021E+03  0.47000000000E+01 0.  1.
          5    1    4    4  502    0  0.67128159475E+02  0.38619223920E+01  0.26451234230E+03  0.27296515065E+03  0.47000000000E+01 0.  1.
         -5    1    4    4    0  502 -0.47099506847E+02  0.21553345404E+00  0.67985575513E+02  0.82840439869E+02  0.47000000000E+01 0.  1.
<mgrwt>
<rscale>  0 0.26112009E+03</rscale>
<asrwt>0</asrwt>
<pdfrwt beam="1">  1       21 0.85225203E-01 0.26112009E+03</pdfrwt>
<pdfrwt beam="2">  1       21 0.47339736E-02 0.26112009E+03</pdfrwt>
<totfact> 0.34532107E+05</totfact>
</mgrwt>
</event>
<event>
 8    1  0.9478272E-006  0.3656493E+03  0.7546771E-02  0.1056369E+00
         21   -1    0    0  504  503  0.00000000000E+00  0.00000000000E+00  0.75206558051E+03  0.75206558051E+03  0.00000000000E+00 0.  1.
         21   -1    0    0  503  504 -0.00000000000E+00 -0.00000000000E+00 -0.44444076232E+02  0.44444076232E+02  0.00000000000E+00 0.  1.
         25    2    1    2    0    0 -0.90183380568E+02 -0.73705908388E+02  0.49557256908E+03  0.52419482881E+03  0.12498977667E+03 0.  0.
         25    2    1    2    0    0  0.90183380568E+02  0.73705908388E+02  0.21204893520E+03  0.27231482792E+03  0.12500004611E+03 0.  0.
          5    1    3    3  501    0 -0.11114066421E+03 -0.22476266649E+02  0.36669845978E+03  0.38385841167E+03  0.47000000000E+01 0.  1.
         -5    1    3    3    0  501  0.20957283640E+02 -0.51229641739E+02  0.12887410930E+03  0.14033641715E+03  0.47000000000E+01 0.  1.
          5    1    4    4  502    0  0.67250868349E+02 -0.26425167638E+01  0.30622366625E+02  0.74091035397E+02  0.47000000000E+01 0.  1.
         -5    1    4    4    0  502  0.22932512219E+02  0.76348425152E+02  0.18142656857E+03  0.19822379253E+03  0.47000000000E+01 0.  1.
<mgrwt>
<rscale>  0 0.36564934E+03</rscale>
<asrwt>0</asrwt>
<pdfrwt beam="1">  1       21 0.11570239E+00 0.36564934E+03</pdfrwt>
<pdfrwt beam="2">  1       21 0.68375507E-02 0.36564934E+03</pdfrwt>
<totfact> 0.85678865E+04</totfact>
</mgrwt>
</event>
<event>
 8    1  0.9478272E-006  0.4451616E+03  0.7546771E-02  0.1029175E+00
         21   -1    0    0  504  503  0.00000000000E+00  0.00000000000E+00  0.40910955723E+03  0.40910955723E+03  0.00000000000E+00 0. -1.
         21   -1    0    0  503  504 -0.00000000000E+00 -0.00000000000E+00 -0.12109766415E+03  0.12109766415E+03  0.00000000000E+00 0. -1.
         25    2    1    2    0    0 -0.55160846086E+02 -0.16943141010E+03  0.88554323663E+02  0.23498150533E+03  0.12499887176E+03 0.  0.
         25    2    1    2    0    0  0.55160846086E+02  0.16943141010E+03  0.19945756941E+03  0.29522571605E+03  0.12500071900E+03 0.  0.
          5    1    3    3  501    0 -0.38722559828E+02  0.45264119408E+01  0.33796143171E+02  0.51809210937E+02  0.47000000000E+01 0.  1.
         -5    1    3    3    0  501 -0.16438286259E+02 -0.17395782204E+03  0.54758180492E+02  0.18317229440E+03  0.47000000000E+01 0.  1.
          5    1    4    4  502    0  0.26855200050E+02  0.15702698723E+03  0.93555378267E+02  0.18480631832E+03  0.47000000000E+01 0.  1.
         -5    1    4    4    0  502  0.28305646036E+02  0.12404422864E+02  0.10590219115E+03  0.11041939772E+03  0.47000000000E+01 0.  1.
<mgrwt>
<rscale>  0 0.44516160E+03</rscale>
<asrwt>0</asrwt>
<pdfrwt beam="1">  1       21 0.62939931E-01 0.44516160E+03</pdfrwt>
<pdfrwt beam="2">  1       21 0.18630410E-01 0.44516160E+03</pdfrwt>
<totfact> 0.56853688E+04</totfact>
</mgrwt>
</event>
<event>
 8    1  0.9478272E-006  0.3983355E+03  0.7546771E-02  0.1044358E+00
         21   -1    0    0  504  503  0.00000000000E+00  0.00000000000E+00  0.29376559866E+03  0.29376559866E+03  0.00000000000E+00 0. -1.
         21   -1    0    0  503  504 -0.00000000000E+00 -0.00000000000E+00 -0.13503209427E+03  0.13503209427E+03  0.00000000000E+00 0. -1.
         25    2    1    2    0    0  0.11714963082E+03 -0.11932763380E+02 -0.29232278608E+02  0.17418828765E+03  0.12498242516E+03 0.  0.
         25    2    1    2    0    0 -0.11714963082E+03  0.11932763380E+02  0.18796578299E+03  0.25460940528E+03  0.12501354661E+03 0.  0.
          5    1    3    3  501    0 -0.20541391893E+02  0.35909516037E+01  0.17766889712E+02  0.27795612682E+02  0.47000000000E+01 0.  1.
         -5    1    3    3    0  501  0.13769102271E+03 -0.15523714984E+02 -0.46999168321E+02  0.14639267497E+03  0.47000000000E+01 0.  1.
          5    1    4    4  502    0 -0.10040582160E+03  0.59292202077E+02  0.15623656593E+03  0.19500986839E+03  0.47000000000E+01 0. -1.
         -5    1    4    4    0  502 -0.16743809217E+02 -0.47359438697E+02  0.31729217069E+02  0.59599536882E+02  0.47000000000E+01 0. -1.
<mgrwt>
<rscale>  0 0.39833546E+03</rscale>
<asrwt>0</asrwt>
<pdfrwt beam="1">  1       21 0.45194708E-01 0.39833546E+03</pdfrwt>
<pdfrwt beam="2">  1       21 0.20774168E-01 0.39833546E+03</pdfrwt>
<totfact> 0.95088837E+04</totfact>
</mgrwt>
</event>
<event>
 8    1  0.9478272E-006  0.2627727E+03  0.7546771E-02  0.1105489E+00
         21   -1    0    0  504  503  0.00000000000E+00  0.00000000000E+00  0.82466623581E+03  0.82466623581E+03  0.00000000000E+00 0.  1.
         21   -1    0    0  503  504 -0.00000000000E+00 -0.00000000000E+00 -0.20932560436E+02  0.20932560436E+02  0.00000000000E+00 0.  1.
         25    2    1    2    0    0  0.30275792880E+02 -0.51483235872E+01  0.48663812955E+03  0.50337427848E+03  0.12500346487E+03 0.  0.
         25    2    1    2    0    0 -0.30275792880E+02  0.51483235872E+01  0.31709554582E+03  0.34222451776E+03  0.12499962604E+03 0.  0.
          5    1    3    3  501    0 -0.42039572620E+02  0.25909592309E+02  0.17224092233E+03  0.17924189790E+03  0.47000000000E+01 0. -1.
         -5    1    3    3    0  501  0.72315365500E+02 -0.31057915896E+02  0.31439720723E+03  0.32413238058E+03  0.47000000000E+01 0. -1.
          5    1    4    4  502    0 -0.42888433039E+02 -0.53393901117E+02  0.16941859461E+03  0.18279791182E+03  0.47000000000E+01 0.  1.
         -5    1    4    4    0  502  0.12612640159E+02  0.58542224704E+02  0.14767695120E+03  0.15942660594E+03  0.47000000000E+01 0.  1.
<mgrwt>
<rscale>  0 0.26277272E+03</rscale>
<asrwt>0</asrwt>
<pdfrwt beam="1">  1       21 0.12687170E+00 0.26277272E+03</pdfrwt>
<pdfrwt beam="2">  1       21 0.32203946E-02 0.26277272E+03</pdfrwt>
<totfact> 0.25276370E+05</totfact>
</mgrwt>
</event>
<event>
 8    1  0.9478272E-006  0.3579985E+03  0.7546771E-02  0.1059379E+00
         21   -1    0    0  504  503  0.00000000000E+00  0.00000000000E+00  0.19585837434E+03  0.19585837434E+03  0.00000000000E+00 0.  1.
         21   -1    0    0  503  504 -0.00000000000E+00 -0.00000000000E+00 -0.16359128678E+03  0.16359128678E+03  0.00000000000E+00 0.  1.
         25    2    1    2    0    0  0.54973688542E+02 -0.26638980888E+02 -0.96939014300E+02  0.16958008255E+03  0.12501395990E+03 0.  0.
         25    2    1    2    0    0 -0.54973688542E+02  0.26638980888E+02  0.12920610185E+03  0.18986957857E+03  0.12499799349E+03 0.  0.
          5    1    3    3  501    0 -0.13874402417E+02 -0.50176226836E+02 -0.53954754523E+01  0.52548586444E+02  0.47000000000E+01 0.  1.
         -5    1    3    3    0  501  0.68848090960E+02  0.23537245947E+02 -0.91543538848E+02  0.11703149610E+03  0.47000000000E+01 0.  1.
          5    1    4    4  502    0  0.55545692020E+01 -0.25238479160E+02  0.10227548063E+03  0.10559449800E+03  0.47000000000E+01 0.  1.
         -5    1    4    4    0  502 -0.60528257744E+02  0.51877460048E+02  0.26930621226E+02  0.84275080577E+02  0.47000000000E+01 0.  1.
<mgrwt>
<rscale>  0 0.35799846E+03</rscale>
<asrwt>0</asrwt>
<pdfrwt beam="1">  1       21 0.30132057E-01 0.35799846E+03</pdfrwt>
<pdfrwt beam="2">  1       21 0.25167890E-01 0.35799846E+03</pdfrwt>
<totfact> 0.15112876E+05</totfact>
</mgrwt>
</event>
<event>
 8    1  0.9478272E-006  0.3191551E+03  0.7546771E-02  0.1076039E+00
         21   -1    0    0  504  503  0.00000000000E+00  0.00000000000E+00  0.17557438063E+03  0.17557438063E+03  0.00000000000E+00 0.  1.
         21   -1    0    0  503  504 -0.00000000000E+00 -0.00000000000E+00 -0.14503817252E+03  0.14503817252E+03  0.00000000000E+00 0.  1.
         25    2    1    2    0    0 -0.43926271150E+02 -0.58832665372E+01 -0.73886496053E+02  0.15181357463E+03  0.12499606802E+03 0.  0.
         25    2    1    2    0    0  0.43926271150E+02  0.58832665372E+01  0.10442270416E+03  0.16879897852E+03  0.12499945554E+03 0.  0.
          5    1    3    3  501    0  0.10985622699E+02 -0.30820090896E+02  0.21089142461E+02  0.39209741630E+02  0.47000000000E+01 0.  1.
         -5    1    3    3    0  501 -0.54911893849E+02  0.24936824359E+02 -0.94975638514E+02  0.11260383300E+03  0.47000000000E+01 0.  1.
          5    1    4    4  502    0  0.48962817239E+02 -0.38570415048E+02  0.87997622192E+01  0.63123372882E+02  0.47000000000E+01 0. -1.
         -5    1    4    4    0  502 -0.50365460885E+01  0.44453681585E+02  0.95622941938E+02  0.10567560564E+03  0.47000000000E+01 0. -1.
<mgrwt>
<rscale>  0 0.31915506E+03</rscale>
<asrwt>0</asrwt>
<pdfrwt beam="1">  1       21 0.27011443E-01 0.31915506E+03</pdfrwt>
<pdfrwt beam="2">  1       21 0.22313565E-01 0.31915506E+03</pdfrwt>
<totfact> 0.23797704E+05</totfact>
</mgrwt>
</event>
<event>
 8    1  0.9478272E-006  0.3670421E+03  0.7546771E-02  0.1055830E+00
         21   -1    0    0  504  503  0.00000000000E+00  0.00000000000E+00  0.20578440051E+04  0.20578440051E+04  0.00000000000E+00 0. -1.
         21   -1    0    0  503  504 -0.00000000000E+00 -0.00000000000E+00 -0.16366628990E+02  0.16366628990E+02  0.00000000000E+00 0. -1.
         25    2    1    2    0    0 -0.11465731141E+03 -0.63931151136E+02  0.85878399176E+03  0.87770633970E+03  0.12499993238E+03 0.  0.
         25    2    1    2    0    0  0.11465731141E+03  0.63931151136E+02  0.11826933844E+04  0.11965042944E+04  0.12500157588E+03 0.  0.
          5    1    3    3  501    0 -0.11610981239E+03 -0.37268314766E+02  0.82688487933E+03  0.83584155765E+03  0.47000000000E+01 0. -1.
         -5    1    3    3    0  501  0.14525009872E+01 -0.26662836370E+02  0.31899112430E+02  0.41864782051E+02  0.47000000000E+01 0. -1.
          5    1    4    4  502    0  0.60918659665E+02 -0.28884539591E+02  0.31319715920E+03  0.32040591482E+03  0.47000000000E+01 0.  1.
         -5    1    4    4    0  502  0.53738651741E+02  0.92815690727E+02  0.86949622517E+03  0.87609837959E+03  0.47000000000E+01 0.  1.
<mgrwt>
<rscale>  0 0.36704206E+03</rscale>
<asrwt>0</asrwt>
<pdfrwt beam="1">  1       21 0.31659118E+00 0.36704206E+03</pdfrwt>
<pdfrwt beam="2">  1       21 0.25179446E-02 0.36704206E+03</pdfrwt>
<totfact> 0.20356371E+04</totfact>
</mgrwt>
</event>
<event>
 8    1  0.9478272E-006  0.2589644E+03  0.7546771E-02  0.1107767E+00
         21   -1    0    0  504  503  0.00000000000E+00  0.00000000000E+00  0.23016531498E+02  0.23016531498E+02  0.00000000000E+00 0.  1.
         21   -1    0    0  503  504 -0.00000000000E+00 -0.00000000000E+00 -0.72841747588E+03  0.72841747588E+03  0.00000000000E+00 0.  1.
         25    2    1    2    0    0 -0.28887963861E+02  0.14642470483E+02 -0.38025721006E+03  0.40158390416E+03  0.12500067952E+03 0.  0.
         25    2    1    2    0    0  0.28887963861E+02 -0.14642470483E+02 -0.32514373432E+03  0.34985010322E+03  0.12501092094E+03 0.  0.
          5    1    3    3  501    0 -0.29887360113E+02  0.64760342471E+02 -0.15381797686E+03  0.16961490576E+03  0.47000000000E+01 0. -1.
         -5    1    3    3    0  501  0.99939625269E+00 -0.50117871987E+02 -0.22643923320E+03  0.23196899840E+03  0.47000000000E+01 0. -1.
          5    1    4    4  502    0  0.54772244514E+02 -0.31569575721E+02 -0.76981908896E+02  0.99724325906E+02  0.47000000000E+01 0.  1.
         -5    1    4    4    0  502 -0.25884280653E+02  0.16927105237E+02 -0.24816182543E+03  0.25012577731E+03  0.47000000000E+01 0.  1.
<mgrwt>
<rscale>  0 0.25896443E+03</rscale>
<asrwt>0</asrwt>
<pdfrwt beam="1">  1       21 0.35410057E-02 0.25896443E+03</pdfrwt>
<pdfrwt beam="2">  1       21 0.11206420E+00 0.25896443E+03</pdfrwt>
<totfact> 0.29410982E+05</totfact>
</mgrwt>
</event>
<event>
 8    1  0.9478272E-006  0.2567063E+03  0.7546771E-02  0.1109138E+00
         21   -1    0    0  504  503  0.00000000000E+00  0.00000000000E+00  0.11477022154E+03  0.11477022154E+03  0.00000000000E+00 0.  1.
         21   -1    0    0  503  504 -0.00000000000E+00 -0.00000000000E+00 -0.14354363522E+03  0.14354363522E+03  0.00000000000E+00 0.  1.
         25    2    1    2    0    0  0.26327066916E+02  0.29697179879E+01 -0.26598839615E+02  0.13052032363E+03  0.12500449165E+03 0.  0.
         25    2    1    2    0    0 -0.26327066916E+02 -0.29697179879E+01 -0.21745740601E+01  0.12779353313E+03  0.12499809863E+03 0.  0.
          5    1    3    3  501    0 -0.18780779277E+02 -0.50963227761E+02  0.17998150910E+01  0.54546288494E+02  0.47000000000E+01 0. -1.
         -5    1    3    3    0  501  0.45107846193E+02  0.53932945749E+02 -0.28398654706E+02  0.75974035133E+02  0.47000000000E+01 0. -1.
          5    1    4    4  502    0  0.31347709683E+02  0.13442595809E+02  0.41158774585E+02  0.53661131276E+02  0.47000000000E+01 0.  1.
         -5    1    4    4    0  502 -0.57674776599E+02 -0.16412313797E+02 -0.43333348645E+02  0.74132401855E+02  0.47000000000E+01 0.  1.
<mgrwt>
<rscale>  0 0.25670633E+03</rscale>
<asrwt>0</asrwt>
<pdfrwt beam="1">  1       21 0.17656957E-01 0.25670633E+03</pdfrwt>
<pdfrwt beam="2">  1       21 0.22083636E-01 0.25670633E+03</pdfrwt>
<totfact> 0.55105467E+05</totfact>
</mgrwt>
</event>
<event>
 8    1  0.9478272E-006  0.2861328E+03  0.7546771E-02  0.1092386E+00
         21   -1    0    0  504  503  0.00000000000E+00  0.00000000000E+00  0.78539940479E+02  0.78539940479E+02  0.00000000000E+00 0. -1.
         21   -1    0    0  503  504 -0.00000000000E+00 -0.00000000000E+00 -0.26060617495E+03  0.26060617495E+03  0.00000000000E+00 0. -1.
         25    2    1    2    0    0  0.30646495497E+02  0.61039054624E+02 -0.10684571058E+03  0.17806023592E+03  0.12499787146E+03 0.  0.
         25    2    1    2    0    0 -0.30646495497E+02 -0.61039054624E+02 -0.75220523887E+02  0.16108587951E+03  0.12500223793E+03 0.  0.
          5    1    3    3  501    0  0.43017251109E+02  0.34556055230E+02 -0.12945937758E+03  0.14080633966E+03  0.47000000000E+01 0.  1.
         -5    1    3    3    0  501 -0.12370755611E+02  0.26482999395E+02  0.22613666995E+02  0.37253896257E+02  0.47000000000E+01 0.  1.
          5    1    4    4  502    0 -0.68221138825E+02 -0.50695465368E+02 -0.11019804214E+02  0.85835191363E+02  0.47000000000E+01 0. -1.
         -5    1    4    4    0  502  0.37574643327E+02 -0.10343589257E+02 -0.64200719672E+02  0.75250688145E+02  0.47000000000E+01 0. -1.
<mgrwt>
<rscale>  0 0.28613279E+03</rscale>
<asrwt>0</asrwt>
<pdfrwt beam="1">  1       21 0.12083067E-01 0.28613279E+03</pdfrwt>
<pdfrwt beam="2">  1       21 0.40093259E-01 0.28613279E+03</pdfrwt>
<totfact> 0.34025551E+05</totfact>
</mgrwt>
</event>
<event>
 8    1  0.9478272E-006  0.3019639E+03  0.7546771E-02  0.1084263E+00
         21   -1    0    0  504  503  0.00000000000E+00  0.00000000000E+00  0.21007834287E+04  0.21007834287E+04  0.00000000000E+00 0.  1.
         21   -1    0    0  503  504 -0.00000000000E+00 -0.00000000000E+00 -0.10850972002E+02  0.10850972002E+02  0.00000000000E+00 0.  1.
         25    2    1    2    0    0 -0.43927116836E+02 -0.55732757284E+02  0.72177253518E+03  0.73594486889E+03  0.12499410254E+03 0.  0.
         25    2    1    2    0    0  0.43927116836E+02  0.55732757284E+02  0.13681599215E+04  0.13756895318E+04  0.12499754106E+03 0.  0.
          5    1    3    3  501    0 -0.81406520147E+02 -0.47157331064E+02  0.36055343899E+03  0.37265494463E+03  0.47000000000E+01 0.  1.
         -5    1    3    3    0  501  0.37479403311E+02 -0.85754262203E+01  0.36121909619E+03  0.36328992425E+03  0.47000000000E+01 0.  1.
          5    1    4    4  502    0  0.22401956856E+01  0.77414519511E+02  0.47612737034E+03  0.48240790737E+03  0.47000000000E+01 0. -1.
         -5    1    4    4    0  502  0.41686921151E+02 -0.21681762227E+02  0.89203255118E+03  0.89328162445E+03  0.47000000000E+01 0. -1.
<mgrwt>
<rscale>  0 0.30196385E+03</rscale>
<asrwt>0</asrwt>
<pdfrwt beam="1">  1       21 0.32319713E+00 0.30196385E+03</pdfrwt>
<pdfrwt beam="2">  1       21 0.16693820E-02 0.30196385E+03</pdfrwt>
<totfact> 0.37989823E+04</totfact>
</mgrwt>
</event>
<event>
 8    1  0.9478272E-006  0.2682969E+03  0.7546771E-02  0.1102258E+00
         21   -1    0    0  504  503  0.00000000000E+00  0.00000000000E+00  0.10175882369E+03  0.10175882369E+03  0.00000000000E+00 0. -1.
         21   -1    0    0  503  504 -0.00000000000E+00 -0.00000000000E+00 -0.17684764152E+03  0.17684764152E+03  0.00000000000E+00 0. -1.
         25    2    1    2    0    0 -0.18604718819E+02 -0.42253310272E+02 -0.53581058090E+02  0.14362409920E+03  0.12500189716E+03 0.  0.
         25    2    1    2    0    0  0.18604718819E+02  0.42253310272E+02 -0.21507759740E+02  0.13498236602E+03  0.12500471037E+03 0.  0.
          5    1    3    3  501    0 -0.50107172660E+02  0.20160024617E+01  0.18130019074E+02  0.53531118142E+02  0.47000000000E+01 0. -1.
         -5    1    3    3    0  501  0.31502453841E+02 -0.44269312734E+02 -0.71711077165E+02  0.90092981059E+02  0.47000000000E+01 0. -1.
          5    1    4    4  502    0 -0.25293195514E+02 -0.28612028879E+02  0.18158129678E+02  0.42546464122E+02  0.47000000000E+01 0. -1.
         -5    1    4    4    0  502  0.43897914333E+02  0.70865339151E+02 -0.39665889419E+02  0.92435901895E+02  0.47000000000E+01 0. -1.
<mgrwt>
<rscale>  0 0.26829691E+03</rscale>
<asrwt>0</asrwt>
<pdfrwt beam="1">  1       21 0.15655204E-01 0.26829691E+03</pdfrwt>
<pdfrwt beam="2">  1       21 0.27207329E-01 0.26829691E+03</pdfrwt>
<totfact> 0.46032138E+05</totfact>
</mgrwt>
</event>
<event>
 8    1  0.9478272E-006  0.2646619E+03  0.7546771E-02  0.1104374E+00
         21   -1    0    0  504  503  0.00000000000E+00  0.00000000000E+00  0.14353320591E+03  0.14353320591E+03  0.00000000000E+00 0. -1.
         21   -1    0    0  503  504 -0.00000000000E+00 -0.00000000000E+00 -0.12200298214E+03  0.12200298214E+03  0.00000000000E+00 0. -1.
         25    2    1    2    0    0  0.17188492855E+02  0.17641224900E+02  0.46648437071E+02  0.13567792312E+03  0.12500306012E+03 0.  0.
         25    2    1    2    0    0 -0.17188492855E+02 -0.17641224900E+02 -0.25118213296E+02  0.12985826493E+03  0.12500234889E+03 0.  0.
          5    1    3    3  501    0 -0.10182931777E+02  0.10783441315E+02  0.85794388657E+02  0.87193702933E+02  0.47000000000E+01 0. -1.
         -5    1    3    3    0  501  0.27371424631E+02  0.68577835854E+01 -0.39145951586E+02  0.48484220192E+02  0.47000000000E+01 0. -1.
          5    1    4    4  502    0 -0.25175112327E+02  0.49436248519E+02 -0.27509540236E+02  0.62101479469E+02  0.47000000000E+01 0. -1.
         -5    1    4    4    0  502  0.79866194725E+01 -0.67077473420E+02  0.23913269393E+01  0.67756785457E+02  0.47000000000E+01 0. -1.
<mgrwt>
<rscale>  0 0.26466189E+03</rscale>
<asrwt>0</asrwt>
<pdfrwt beam="1">  1       21 0.22082032E-01 0.26466189E+03</pdfrwt>
<pdfrwt beam="2">  1       21 0.18769689E-01 0.26466189E+03</pdfrwt>
<totfact> 0.49113941E+05</totfact>
</mgrwt>
</event>
<event>
 8    1  0.9478272E-006  0.3872988E+03  0.7546771E-02  0.1048269E+00
         21   -1    0    0  504  503  0.00000000000E+00  0.00000000000E+00  0.32168887140E+02  0.32168887140E+02  0.00000000000E+00 0. -1.
         21   -1    0    0  503  504 -0.00000000000E+00 -0.00000000000E+00 -0.11657254331E+04  0.11657254331E+04  0.00000000000E+00 0. -1.
         25    2    1    2    0    0 -0.14538536215E+03  0.20100993666E+02 -0.51006393561E+03  0.54527960253E+03  0.12499469212E+03 0.  0.
         25    2    1    2    0    0  0.14538536215E+03 -0.20100993666E+02 -0.62349261037E+03  0.65261471773E+03  0.12498792394E+03 0.  0.
          5    1    3    3  501    0 -0.12364600217E+03 -0.37340383577E+02 -0.37973092110E+03  0.40112379702E+03  0.47000000000E+01 0. -1.
         -5    1    3    3    0  501 -0.21739359976E+02  0.57441377243E+02 -0.13033301451E+03  0.14415580551E+03  0.47000000000E+01 0. -1.
          5    1    4    4  502    0  0.84086060135E+02  0.36644100715E+02 -0.45865486324E+03  0.46776022618E+03  0.47000000000E+01 0. -1.
         -5    1    4    4    0  502  0.61299302014E+02 -0.56745094381E+02 -0.16483774714E+03  0.18485449155E+03  0.47000000000E+01 0. -1.
<mgrwt>
<rscale>  0 0.38729880E+03</rscale>
<asrwt>0</asrwt>
<pdfrwt beam="1">  1       21 0.49490598E-02 0.38729880E+03</pdfrwt>
<pdfrwt beam="2">  1       21 0.17934237E+00 0.38729880E+03</pdfrwt>
<totfact> 0.46138131E+04</totfact>
</mgrwt>
</event>
<event>
 8    1  0.9478272E-006  0.4511307E+03  0.7546771E-02  0.1027385E+00
         21   -1    0    0  504  503  0.00000000000E+00  0.00000000000E+00  0.67602316970E+02  0.67602316970E+02  0.00000000000E+00 0. -1.
         21   -1    0    0  503  504 -0.00000000000E+00 -0.00000000000E+00 -0.75263296872E+03  0.75263296872E+03  0.00000000000E+00 0. -1.
         25    2    1    2    0    0 -0.75513097635E+02 -0.11356984648E+03 -0.10787542483E+03  0.21415647226E+03  0.12500219752E+03 0.  0.
         25    2    1    2    0    0  0.75513097635E+02  0.11356984648E+03 -0.57715522692E+03  0.60607881343E+03  0.12499213649E+03 0.  0.
          5    1    3    3  501    0 -0.63374713018E+02 -0.45136856978E+02  0.86201130260E+01  0.78422486932E+02  0.47000000000E+01 0.  1.
         -5    1    3    3    0  501 -0.12138384617E+02 -0.68432989498E+02 -0.11649553785E+03  0.13573398533E+03  0.47000000000E+01 0.  1.
          5    1    4    4  502    0  0.25049881291E+02  0.21433651671E+02 -0.38988713488E+03  0.39130674147E+03  0.47000000000E+01 0.  1.
         -5    1    4    4    0  502  0.50463216344E+02  0.92136194806E+02 -0.18726809205E+03  0.21477207197E+03  0.47000000000E+01 0.  1.
<mgrwt>
<rscale>  0 0.45113072E+03</rscale>
<asrwt>0</asrwt>
<pdfrwt beam="1">  1       21 0.10400357E-01 0.45113072E+03</pdfrwt>
<pdfrwt beam="2">  1       21 0.11578968E+00 0.45113072E+03</pdfrwt>
<totfact> 0.39749079E+04</totfact>
</mgrwt>
</event>
<event>
 8    1  0.9478272E-006  0.3048833E+03  0.7546771E-02  0.1082825E+00
         21   -1    0    0  504  503  0.00000000000E+00  0.00000000000E+00  0.19148603854E+03  0.19148603854E+03  0.00000000000E+00 0.  1.
         21   -1    0    0  503  504 -0.00000000000E+00 -0.00000000000E+00 -0.12135851571E+03  0.12135851571E+03  0.00000000000E+00 0.  1.
         25    2    1    2    0    0  0.81362081848E+02  0.98277951300E+01  0.43249574870E+01  0.14953374526E+03  0.12500104717E+03 0.  0.
         25    2    1    2    0    0 -0.81362081848E+02 -0.98277951300E+01  0.65802565346E+02  0.16331080899E+03  0.12499627518E+03 0.  0.
          5    1    3    3  501    0  0.90666959040E+02 -0.31816253750E+02 -0.22650772985E+02  0.98832782926E+02  0.47000000000E+01 0.  1.
         -5    1    3    3    0  501 -0.93048771920E+01  0.41644048880E+02  0.26975730472E+02  0.50700962330E+02  0.47000000000E+01 0.  1.
          5    1    4    4  502    0 -0.16725126010E+02  0.47682628591E+02 -0.55708728603E+01  0.51053771005E+02  0.47000000000E+01 0.  1.
         -5    1    4    4    0  502 -0.64636955838E+02 -0.57510423721E+02  0.71373438206E+02  0.11225703799E+03  0.47000000000E+01 0.  1.
<mgrwt>
<rscale>  0 0.30488333E+03</rscale>
<asrwt>0</asrwt>
<pdfrwt beam="1">  1       21 0.29459391E-01 0.30488333E+03</pdfrwt>
<pdfrwt beam="2">  1       21 0.18670541E-01 0.30488333E+03</pdfrwt>
<totfact> 0.28216323E+05</totfact>
</mgrwt>
</event>
<event>
 8    1  0.9478272E-006  0.4786693E+03  0.7546771E-02  0.1019502E+00
         21   -1    0    0  504  503  0.00000000000E+00  0.00000000000E+00  0.78584499911E+03  0.78584499911E+03  0.00000000000E+00 0.  1.
         21   -1    0    0  503  504 -0.00000000000E+00 -0.00000000000E+00 -0.72891066808E+02  0.72891066808E+02  0.00000000000E+00 0.  1.
         25    2    1    2    0    0 -0.16720294165E+03 -0.89798120210E+02  0.49117046716E+03  0.54119577711E+03  0.12499566097E+03 0.  0.
         25    2    1    2    0    0  0.16720294165E+03  0.89798120210E+02  0.22178346514E+03  0.31754028880E+03  0.12499361390E+03 0.  0.
          5    1    3    3  501    0  0.32496275594E+01  0.11163562322E+02  0.11807459541E+03  0.11873872698E+03  0.47000000000E+01 0.  1.
         -5    1    3    3    0  501 -0.17045256921E+03 -0.10096168253E+03  0.37309587175E+03  0.42245705013E+03  0.47000000000E+01 0.  1.
          5    1    4    4  502    0  0.80946347197E+02  0.10822335005E+03  0.10549725715E+03  0.17151199925E+03  0.47000000000E+01 0.  1.
         -5    1    4    4    0  502  0.86256594450E+02 -0.18425229845E+02  0.11628620799E+03  0.14602828955E+03  0.47000000000E+01 0.  1.
<mgrwt>
<rscale>  0 0.47866932E+03</rscale>
<asrwt>0</asrwt>
<pdfrwt beam="1">  1       21 0.12089922E+00 0.47866932E+03</pdfrwt>
<pdfrwt beam="2">  1       21 0.11214011E-01 0.47866932E+03</pdfrwt>
<totfact> 0.30886685E+04</totfact>
</mgrwt>
</event>
<event>
 8    1  0.9478272E-006  0.2759214E+03  0.7546771E-02  0.1097938E+00
         21   -1    0    0  504  503  0.00000000000E+00  0.00000000000E+00  0.43229828214E+03  0.43229828214E+03  0.00000000000E+00 0.  1.
         21   -1    0    0  503  504 -0.00000000000E+00 -0.00000000000E+00 -0.44027821995E+02  0.44027821995E+02  0.00000000000E+00 0.  1.
         25    2    1    2    0    0 -0.94530721463E+01 -0.30589501070E+02  0.27841742777E+03  0.30686645617E+03  0.12500271872E+03 0.  0.
         25    2    1    2    0    0  0.94530721463E+01  0.30589501070E+02  0.10985303238E+03  0.16945964797E+03  0.12499522158E+03 0.  0.
          5    1    3    3  501    0  0.18526682343E+02  0.44659562142E+02  0.10856862505E+03  0.11894095507E+03  0.47000000000E+01 0. -1.
         -5    1    3    3    0  501 -0.27979754489E+02 -0.75249063212E+02  0.16984880272E+03  0.18792550110E+03  0.47000000000E+01 0. -1.
          5    1    4    4  502    0 -0.37032935115E+02  0.61690117055E+02  0.52351689263E+02  0.89106106379E+02  0.47000000000E+01 0.  1.
         -5    1    4    4    0  502  0.46486007261E+02 -0.31100615985E+02  0.57501343114E+02  0.80353541587E+02  0.47000000000E+01 0.  1.
<mgrwt>
<rscale>  0 0.27592138E+03</rscale>
<asrwt>0</asrwt>
<pdfrwt beam="1">  1       21 0.66507425E-01 0.27592138E+03</pdfrwt>
<pdfrwt beam="2">  1       21 0.67735113E-02 0.27592138E+03</pdfrwt>
<totfact> 0.32522557E+05</totfact>
</mgrwt>
</event>
<event>
 8    1  0.9478272E-006  0.3083052E+03  0.7546771E-02  0.1081161E+00
         21   -1    0    0  504  503  0.00000000000E+00  0.00000000000E+00  0.21782203416E+03  0.21782203416E+03  0.00000000000E+00 0. -1.
         21   -1    0    0  503  504 -0.00000000000E+00 -0.00000000000E+00 -0.10909373040E+03  0.10909373040E+03  0.00000000000E+00 0. -1.
         25    2    1    2    0    0  0.41271847821E+02 -0.38117204034E+02 -0.20477470785E+02  0.13856764030E+03  0.12500150984E+03 0.  0.
         25    2    1    2    0    0 -0.41271847821E+02  0.38117204034E+02  0.12920577455E+03  0.18834812427E+03  0.12499838828E+03 0.  0.
          5    1    3    3  501    0 -0.74003500616E+01 -0.34276638990E+02  0.44692884204E+02  0.57001728570E+02  0.47000000000E+01 0. -1.
         -5    1    3    3    0  501  0.48672197882E+02 -0.38405650449E+01 -0.65170354989E+02  0.81565911728E+02  0.47000000000E+01 0. -1.
          5    1    4    4  502    0 -0.37288995206E+01  0.75772271621E+02  0.10527981165E+03  0.12985095525E+03  0.47000000000E+01 0.  1.
         -5    1    4    4    0  502 -0.37542948300E+02 -0.37655067587E+02  0.23925962897E+02  0.58497169013E+02  0.47000000000E+01 0.  1.
<mgrwt>
<rscale>  0 0.30830516E+03</rscale>
<asrwt>0</asrwt>
<pdfrwt beam="1">  1       21 0.33511082E-01 0.30830516E+03</pdfrwt>
<pdfrwt beam="2">  1       21 0.16783651E-01 0.30830516E+03</pdfrwt>
<totfact> 0.26648781E+05</totfact>
</mgrwt>
</event>
<event>
 8    1  0.9478272E-006  0.2848342E+03  0.7546771E-02  0.1093078E+00
         21   -1    0    0  504  503  0.00000000000E+00  0.00000000000E+00  0.33336269594E+02  0.33336269594E+02  0.00000000000E+00 0.  1.
         21   -1    0    0  503  504 -0.00000000000E+00 -0.00000000000E+00 -0.60842515986E+03  0.60842515986E+03  0.00000000000E+00 0.  1.
         25    2    1    2    0    0  0.48775384591E+02  0.80159261456E+01 -0.39365631446E+03  0.41596798681E+03  0.12498311455E+03 0.  0.
         25    2    1    2    0    0 -0.48775384591E+02 -0.80159261456E+01 -0.18143257581E+03  0.22579344265E+03  0.12498642312E+03 0.  0.
          5    1    3    3  501    0  0.27793819229E+02 -0.56228429476E+02 -0.14112491997E+03  0.15450717040E+03  0.47000000000E+01 0. -1.
         -5    1    3    3    0  501  0.20981565362E+02  0.64244355621E+02 -0.25253139448E+03  0.26146081640E+03  0.47000000000E+01 0. -1.
          5    1    4    4  502    0  0.16880683427E+02 -0.10208439900E+02 -0.15252630521E+03  0.15386855917E+03  0.47000000000E+01 0.  1.
         -5    1    4    4    0  502 -0.65656068019E+02  0.21925137548E+01 -0.28906270601E+02  0.71924883485E+02  0.47000000000E+01 0.  1.
<mgrwt>
<rscale>  0 0.28483416E+03</rscale>
<asrwt>0</asrwt>
<pdfrwt beam="1">  1       21 0.51286570E-02 0.28483416E+03</pdfrwt>
<pdfrwt beam="2">  1       21 0.93603868E-01 0.28483416E+03</pdfrwt>
<totfact> 0.24065001E+05</totfact>
</mgrwt>
</event>
<event>
 8    1  0.9478272E-006  0.3743190E+03  0.7546771E-02  0.1053054E+00
         21   -1    0    0  504  503  0.00000000000E+00  0.00000000000E+00  0.71756918754E+02  0.71756918754E+02  0.00000000000E+00 0. -1.
         21   -1    0    0  503  504 -0.00000000000E+00 -0.00000000000E+00 -0.48815746884E+03  0.48815746884E+03  0.00000000000E+00 0. -1.
         25    2    1    2    0    0  0.10599597831E+03  0.51367263961E+02 -0.96955839739E+02  0.19722665768E+03  0.12499670562E+03 0.  0.
         25    2    1    2    0    0 -0.10599597831E+03 -0.51367263961E+02 -0.31944471034E+03  0.36268772991E+03  0.12499489283E+03 0.  0.
          5    1    3    3  501    0  0.26973150790E+02 -0.37924088679E+02 -0.59444747680E+01  0.47150971845E+02  0.47000000000E+01 0.  1.
         -5    1    3    3    0  501  0.79022827522E+02  0.89291352640E+02 -0.91011364971E+02  0.15007568584E+03  0.47000000000E+01 0.  1.
          5    1    4    4  502    0 -0.14207113318E+02 -0.12467814159E+02 -0.22316904810E+03  0.22401741559E+03  0.47000000000E+01 0. -1.
         -5    1    4    4    0  502 -0.91788864994E+02 -0.38899449802E+02 -0.96275662241E+02  0.13867031431E+03  0.47000000000E+01 0. -1.
<mgrwt>
<rscale>  0 0.37431899E+03</rscale>
<asrwt>0</asrwt>
<pdfrwt beam="1">  1       21 0.11039526E-01 0.37431899E+03</pdfrwt>
<pdfrwt beam="2">  1       21 0.75101148E-01 0.37431899E+03</pdfrwt>
<totfact> 0.10211549E+05</totfact>
</mgrwt>
</event>
<event>
 8    1  0.9478272E-006  0.3144116E+03  0.7546771E-02  0.1078250E+00
         21   -1    0    0  504  503  0.00000000000E+00  0.00000000000E+00  0.17035091863E+02  0.17035091863E+02  0.00000000000E+00 0.  1.
         21   -1    0    0  503  504 -0.00000000000E+00 -0.00000000000E+00 -0.14507506364E+04  0.14507506364E+04  0.00000000000E+00 0.  1.
         25    2    1    2    0    0 -0.49772644945E+02 -0.22247759715E+02 -0.10819278450E+04  0.10904887857E+04  0.12500260326E+03 0.  0.
         25    2    1    2    0    0  0.49772644945E+02  0.22247759715E+02 -0.35178769952E+03  0.37729694261E+03  0.12500447340E+03 0.  0.
          5    1    3    3  501    0 -0.30751719264E+02 -0.45823837261E+02 -0.10188725793E+04  0.10203768496E+04  0.47000000000E+01 0. -1.
         -5    1    3    3    0  501 -0.19020925681E+02  0.23576077546E+02 -0.63055265703E+02  0.70111936067E+02  0.47000000000E+01 0. -1.
          5    1    4    4  502    0 -0.60839841684E+01 -0.40379861730E+01 -0.28896140072E+03  0.28909185617E+03  0.47000000000E+01 0.  1.
         -5    1    4    4    0  502  0.55856629114E+02  0.26285745888E+02 -0.62826298799E+02  0.88205086438E+02  0.47000000000E+01 0.  1.
<mgrwt>
<rscale>  0 0.31441164E+03</rscale>
<asrwt>0</asrwt>
<pdfrwt beam="1">  1       21 0.26207822E-02 0.31441164E+03</pdfrwt>
<pdfrwt beam="2">  1       21 0.22319250E+00 0.31441164E+03</pdfrwt>
<totfact> 0.71269921E+04</totfact>
</mgrwt>
</event>
<event>
 8    1  0.9478272E-006  0.2833634E+03  0.7546771E-02  0.1093866E+00
         21   -1    0    0  504  503  0.00000000000E+00  0.00000000000E+00  0.37110323301E+02  0.37110323301E+02  0.00000000000E+00 0.  1.
         21   -1    0    0  503  504 -0.00000000000E+00 -0.00000000000E+00 -0.54091985483E+03  0.54091985483E+03  0.00000000000E+00 0.  1.
         25    2    1    2    0    0 -0.56989664650E+02  0.20137915958E+02 -0.30943146857E+03  0.33915533943E+03  0.12500061193E+03 0.  0.
         25    2    1    2    0    0  0.56989664650E+02 -0.20137915958E+02 -0.19437806295E+03  0.23887483870E+03  0.12499999868E+03 0.  0.
          5    1    3    3  501    0  0.38311091669E+02  0.19245264847E+02 -0.86318129067E+02  0.96493675282E+02  0.47000000000E+01 0. -1.
         -5    1    3    3    0  501 -0.95300756319E+02  0.89265111111E+00 -0.22311333950E+03  0.24266166415E+03  0.47000000000E+01 0. -1.
          5    1    4    4  502    0 -0.21376988053E+02 -0.45644963397E+02 -0.10865620143E+03  0.11986950576E+03  0.47000000000E+01 0. -1.
         -5    1    4    4    0  502  0.78366652704E+02  0.25507047439E+02 -0.85721861521E+02  0.11900533294E+03  0.47000000000E+01 0. -1.
<mgrwt>
<rscale>  0 0.28336345E+03</rscale>
<asrwt>0</asrwt>
<pdfrwt beam="1">  1       21 0.57092810E-02 0.28336345E+03</pdfrwt>
<pdfrwt beam="2">  1       21 0.83218432E-01 0.28336345E+03</pdfrwt>
<totfact> 0.26340000E+05</totfact>
</mgrwt>
</event>
<event>
 8    1  0.9478272E-006  0.2817331E+03  0.7546771E-02  0.1094746E+00
         21   -1    0    0  504  503  0.00000000000E+00  0.00000000000E+00  0.28896632962E+03  0.28896632962E+03  0.00000000000E+00 0.  1.
         21   -1    0    0  503  504 -0.00000000000E+00 -0.00000000000E+00 -0.68670221736E+02  0.68670221736E+02  0.00000000000E+00 0.  1.
         25    2    1    2    0    0  0.21770232703E+02 -0.40881080138E+02  0.16794950713E+03  0.21442131414E+03  0.12499702904E+03 0.  0.
         25    2    1    2    0    0 -0.21770232703E+02  0.40881080138E+02  0.52346600763E+02  0.14321523722E+03  0.12500092726E+03 0.  0.
          5    1    3    3  501    0 -0.28995181853E+02  0.30755611848E+02  0.76708330019E+02  0.87709099444E+02  0.47000000000E+01 0. -1.
         -5    1    3    3    0  501  0.50765414556E+02 -0.71636691987E+02  0.91241177107E+02  0.12671221470E+03  0.47000000000E+01 0. -1.
          5    1    4    4  502    0 -0.30765935159E+02 -0.40191608944E+02  0.12683614937E+02  0.52391528738E+02  0.47000000000E+01 0. -1.
         -5    1    4    4    0  502  0.89957024557E+01  0.81072689082E+02  0.39662985825E+02  0.90823708481E+02  0.47000000000E+01 0. -1.
<mgrwt>
<rscale>  0 0.28173308E+03</rscale>
<asrwt>0</asrwt>
<pdfrwt beam="1">  1       21 0.44456358E-01 0.28173308E+03</pdfrwt>
<pdfrwt beam="2">  1       21 0.10564650E-01 0.28173308E+03</pdfrwt>
<totfact> 0.35059337E+05</totfact>
</mgrwt>
</event>
<event>
 8    1  0.9478272E-006  0.2994693E+03  0.7546771E-02  0.1085506E+00
         21   -1    0    0  504  503  0.00000000000E+00  0.00000000000E+00  0.33604949700E+03  0.33604949700E+03  0.00000000000E+00 0. -1.
         21   -1    0    0  503  504 -0.00000000000E+00 -0.00000000000E+00 -0.66717762389E+02  0.66717762389E+02  0.00000000000E+00 0. -1.
         25    2    1    2    0    0  0.42216137410E+02  0.70119667290E+02  0.12144161533E+03  0.19253951613E+03  0.12499771734E+03 0.  0.
         25    2    1    2    0    0 -0.42216137410E+02 -0.70119667290E+02  0.14789011928E+03  0.21022774326E+03  0.12500098662E+03 0.  0.
          5    1    3    3  501    0  0.58537894397E+00 -0.35192948074E+02  0.36316879994E+02  0.50792637608E+02  0.47000000000E+01 0. -1.
         -5    1    3    3    0  501  0.41630758466E+02  0.10531261536E+03  0.85124735335E+02  0.14174687852E+03  0.47000000000E+01 0. -1.
          5    1    4    4  502    0 -0.64727971962E+02  0.51627822188E+00  0.31473340005E+02  0.72129314627E+02  0.47000000000E+01 0.  1.
         -5    1    4    4    0  502  0.22511834552E+02 -0.70635945511E+02  0.11641677928E+03  0.13809842863E+03  0.47000000000E+01 0.  1.
<mgrwt>
<rscale>  0 0.29946933E+03</rscale>
<asrwt>0</asrwt>
<pdfrwt beam="1">  1       21 0.51699922E-01 0.29946933E+03</pdfrwt>
<pdfrwt beam="2">  1       21 0.10264271E-01 0.29946933E+03</pdfrwt>
<totfact> 0.26817449E+05</totfact>
</mgrwt>
</event>
<event>
 8    1  0.9478272E-006  0.3000837E+03  0.7546771E-02  0.1085199E+00
         21   -1    0    0  504  503  0.00000000000E+00  0.00000000000E+00  0.43990590338E+03  0.43990590338E+03  0.00000000000E+00 0.  1.
         21   -1    0    0  503  504 -0.00000000000E+00 -0.00000000000E+00 -0.51175857030E+02  0.51175857030E+02  0.00000000000E+00 0.  1.
         25    2    1    2    0    0 -0.51383691107E+02 -0.89142386655E+01  0.88725863027E+02  0.16191890373E+03  0.12500282098E+03 0.  0.
         25    2    1    2    0    0  0.51383691107E+02  0.89142386655E+01  0.30000418333E+03  0.32916285668E+03  0.12500371531E+03 0.  0.
          5    1    3    3  501    0 -0.71935742367E+02  0.37630792033E+02  0.70635525939E+02  0.10771395018E+03  0.47000000000E+01 0.  1.
         -5    1    3    3    0  501  0.20552051260E+02 -0.46545030698E+02  0.18090337088E+02  0.54204953553E+02  0.47000000000E+01 0.  1.
          5    1    4    4  502    0  0.75840654555E+02 -0.35006532681E+02  0.16438514336E+03  0.18445006796E+03  0.47000000000E+01 0.  1.
         -5    1    4    4    0  502 -0.24456963448E+02  0.43920771346E+02  0.13561903997E+03  0.14471278872E+03  0.47000000000E+01 0.  1.
<mgrwt>
<rscale>  0 0.30008373E+03</rscale>
<asrwt>0</asrwt>
<pdfrwt beam="1">  1       21 0.67677829E-01 0.30008373E+03</pdfrwt>
<pdfrwt beam="2">  1       21 0.78732090E-02 0.30008373E+03</pdfrwt>
<totfact> 0.23935278E+05</totfact>
</mgrwt>
</event>
<event>
 8    1  0.9478272E-006  0.2802354E+03  0.7546771E-02  0.1095560E+00
         21   -1    0    0  504  503  0.00000000000E+00  0.00000000000E+00  0.12558969274E+04  0.12558969274E+04  0.00000000000E+00 0. -1.
         21   -1    0    0  503  504 -0.00000000000E+00 -0.00000000000E+00 -0.15632631304E+02  0.15632631304E+02  0.00000000000E+00 0. -1.
         25    2    1    2    0    0 -0.24862977687E+02 -0.46765995422E+02  0.77800174792E+03  0.78974250377E+03  0.12490506998E+03 0.  0.
         25    2    1    2    0    0  0.24862977687E+02  0.46765995422E+02  0.46226254815E+03  0.48178705491E+03  0.12500750724E+03 0.  0.
          5    1    3    3  501    0 -0.41456328180E+02 -0.78713175391E+02  0.38998333049E+03  0.40002934791E+03  0.47000000000E+01 0.  1.
         -5    1    3    3    0  501  0.16593350493E+02  0.31947179968E+02  0.38801841743E+03  0.38971315586E+03  0.47000000000E+01 0.  1.
          5    1    4    4  502    0  0.60369755080E+02  0.70389354536E+02  0.31867865127E+03  0.33192972349E+03  0.47000000000E+01 0. -1.
         -5    1    4    4    0  502 -0.35506777393E+02 -0.23623359113E+02  0.14358389688E+03  0.14985733141E+03  0.47000000000E+01 0. -1.
<mgrwt>
<rscale>  0 0.28023543E+03</rscale>
<asrwt>0</asrwt>
<pdfrwt beam="1">  1       21 0.19321483E+00 0.28023543E+03</pdfrwt>
<pdfrwt beam="2">  1       21 0.24050212E-02 0.28023543E+03</pdfrwt>
<totfact> 0.12990739E+05</totfact>
</mgrwt>
</event>
<event>
 8    1  0.9478272E-006  0.5251607E+03  0.7546771E-02  0.1007413E+00
         21   -1    0    0  504  503  0.00000000000E+00  0.00000000000E+00  0.30377663698E+02  0.30377663698E+02  0.00000000000E+00 0. -1.
         21   -1    0    0  503  504 -0.00000000000E+00 -0.00000000000E+00 -0.22697085072E+04  0.22697085072E+04  0.00000000000E+00 0. -1.
         25    2    1    2    0    0  0.21943529324E+03 -0.70420761491E+02 -0.11835977777E+04  0.12122873208E+04  0.12500366906E+03 0.  0.
         25    2    1    2    0    0 -0.21943529324E+03  0.70420761491E+02 -0.10557330658E+04  0.10877988501E+04  0.12499240151E+03 0.  0.
          5    1    3    3  501    0  0.19078563087E+03 -0.10042813227E+03 -0.89107350655E+03  0.91679826068E+03  0.47000000000E+01 0.  1.
         -5    1    3    3    0  501  0.28649662364E+02  0.30007370780E+02 -0.29252427115E+03  0.29548906015E+03  0.47000000000E+01 0.  1.
          5    1    4    4  502    0 -0.11146745484E+03 -0.22621421362E+02 -0.58362650190E+03  0.59462484469E+03  0.47000000000E+01 0. -1.
         -5    1    4    4    0  502 -0.10796783840E+03  0.93042182853E+02 -0.47210656392E+03  0.49317400542E+03  0.47000000000E+01 0. -1.
<mgrwt>
<rscale>  0 0.52516071E+03</rscale>
<asrwt>0</asrwt>
<pdfrwt beam="1">  1       21 0.46734871E-02 0.52516071E+03</pdfrwt>
<pdfrwt beam="2">  1       21 0.34918589E+00 0.52516071E+03</pdfrwt>
<totfact> 0.42009202E+03</totfact>
</mgrwt>
</event>
<event>
 8    1  0.9478272E-006  0.2948521E+03  0.7546771E-02  0.1087843E+00
         21   -1    0    0  504  503  0.00000000000E+00  0.00000000000E+00  0.22927774250E+02  0.22927774250E+02  0.00000000000E+00 0.  1.
         21   -1    0    0  503  504 -0.00000000000E+00 -0.00000000000E+00 -0.94795235139E+03  0.94795235139E+03  0.00000000000E+00 0.  1.
         25    2    1    2    0    0  0.51496623333E+02  0.41462841583E+02 -0.32523180997E+03  0.35464378572E+03  0.12500166033E+03 0.  0.
         25    2    1    2    0    0 -0.51496623333E+02 -0.41462841583E+02 -0.59979276717E+03  0.61623633992E+03  0.12499917457E+03 0.  0.
          5    1    3    3  501    0  0.79918836244E+01  0.69388310436E+02 -0.91451623026E+02  0.11516986230E+03  0.47000000000E+01 0.  1.
         -5    1    3    3    0  501  0.43504739709E+02 -0.27925468854E+02 -0.23378018694E+03  0.23947392341E+03  0.47000000000E+01 0.  1.
          5    1    4    4  502    0 -0.69339008042E+02  0.14080456394E+02 -0.20035040211E+03  0.21252889430E+03  0.47000000000E+01 0.  1.
         -5    1    4    4    0  502  0.17842384709E+02 -0.55543297976E+02 -0.39944236506E+03  0.40370744562E+03  0.47000000000E+01 0.  1.
<mgrwt>
<rscale>  0 0.29485208E+03</rscale>
<asrwt>0</asrwt>
<pdfrwt beam="1">  1       21 0.35273501E-02 0.29485208E+03</pdfrwt>
<pdfrwt beam="2">  1       21 0.14583882E+00 0.29485208E+03</pdfrwt>
<totfact> 0.14978370E+05</totfact>
</mgrwt>
</event>
<event>
 8    1  0.9478272E-006  0.3344387E+03  0.7546771E-02  0.1069190E+00
         21   -1    0    0  504  503  0.00000000000E+00  0.00000000000E+00  0.31399868804E+03  0.31399868804E+03  0.00000000000E+00 0.  1.
         21   -1    0    0  503  504 -0.00000000000E+00 -0.00000000000E+00 -0.89052333538E+02  0.89052333538E+02  0.00000000000E+00 0.  1.
         25    2    1    2    0    0 -0.10854192759E+03  0.23432541797E+02  0.10915382527E+03  0.19967594180E+03  0.12500196039E+03 0.  0.
         25    2    1    2    0    0  0.10854192759E+03 -0.23432541797E+02  0.11579252923E+03  0.20337507978E+03  0.12499231651E+03 0.  0.
          5    1    3    3  501    0  0.11521226102E+02 -0.21897407571E+02 -0.73986658063E+01  0.26250054570E+02  0.47000000000E+01 0. -1.
         -5    1    3    3    0  501 -0.12006315370E+03  0.45329949368E+02  0.11655249108E+03  0.17342588723E+03  0.47000000000E+01 0. -1.
          5    1    4    4  502    0  0.33267094653E+02  0.43770261481E+02  0.81863894792E+01  0.55782097034E+02  0.47000000000E+01 0.  1.
         -5    1    4    4    0  502  0.75274832941E+02 -0.67202803279E+02  0.10760613975E+03  0.14759298274E+03  0.47000000000E+01 0.  1.
<mgrwt>
<rscale>  0 0.33443873E+03</rscale>
<asrwt>0</asrwt>
<pdfrwt beam="1">  1       21 0.48307490E-01 0.33443873E+03</pdfrwt>
<pdfrwt beam="2">  1       21 0.13700359E-01 0.33443873E+03</pdfrwt>
<totfact> 0.18227964E+05</totfact>
</mgrwt>
</event>
<event>
 8    1  0.9478272E-006  0.2743439E+03  0.7546771E-02  0.1098819E+00
         21   -1    0    0  504  503  0.00000000000E+00  0.00000000000E+00  0.44162524323E+03  0.44162524323E+03  0.00000000000E+00 0. -1.
         21   -1    0    0  503  504 -0.00000000000E+00 -0.00000000000E+00 -0.42606598564E+02  0.42606598564E+02  0.00000000000E+00 0. -1.
         25    2    1    2    0    0  0.50546282457E+02  0.15953761729E+02  0.23400035251E+03  0.27053901682E+03  0.12500298181E+03 0.  0.
         25    2    1    2    0    0 -0.50546282457E+02 -0.15953761729E+02  0.16501829215E+03  0.21369282498E+03  0.12499655002E+03 0.  0.
          5    1    3    3  501    0  0.34688596739E+02  0.58828892257E+02  0.61506685188E+02  0.92028797834E+02  0.47000000000E+01 0. -1.
         -5    1    3    3    0  501  0.15857685718E+02 -0.42875130528E+02  0.17249366732E+03  0.17851021898E+03  0.47000000000E+01 0. -1.
          5    1    4    4  502    0 -0.26709665281E+01 -0.31559071871E+02  0.15965715212E+03  0.16283613021E+03  0.47000000000E+01 0.  1.
         -5    1    4    4    0  502 -0.47875315929E+02  0.15605310142E+02  0.53611400332E+01  0.50856694764E+02  0.47000000000E+01 0.  1.
<mgrwt>
<rscale>  0 0.27434394E+03</rscale>
<asrwt>0</asrwt>
<pdfrwt beam="1">  1       21 0.67942342E-01 0.27434394E+03</pdfrwt>
<pdfrwt beam="2">  1       21 0.65548616E-02 0.27434394E+03</pdfrwt>
<totfact> 0.32853814E+05</totfact>
</mgrwt>
</event>
<event>
 8    1  0.9478272E-006  0.5183318E+03  0.7546771E-02  0.1009102E+00
         21   -1    0    0  504  503  0.00000000000E+00  0.00000000000E+00  0.10774236975E+03  0.10774236975E+03  0.00000000000E+00 0.  1.
         21   -1    0    0  503  504 -0.00000000000E+00 -0.00000000000E+00 -0.62340346249E+03  0.62340346249E+03  0.00000000000E+00 0.  1.
         25    2    1    2    0    0 -0.18368822265E+03 -0.73708101439E+02 -0.10094833062E+03  0.25492672723E+03  0.12499129348E+03 0.  0.
         25    2    1    2    0    0  0.18368822265E+03  0.73708101439E+02 -0.41471276212E+03  0.47621910501E+03  0.12499485411E+03 0.  0.
          5    1    3    3  501    0 -0.16391220528E+03 -0.73612556048E+02 -0.31397319157E+02  0.18246616425E+03  0.47000000000E+01 0.  1.
         -5    1    3    3    0  501 -0.19776017369E+02 -0.95545390993E-01 -0.69551011460E+02  0.72460562977E+02  0.47000000000E+01 0.  1.
          5    1    4    4  502    0  0.65427015002E+02  0.92293049813E+02 -0.22413858788E+03  0.25111530800E+03  0.47000000000E+01 0.  1.
         -5    1    4    4    0  502  0.11826120765E+03 -0.18584948374E+02 -0.19057417424E+03  0.22510379700E+03  0.47000000000E+01 0.  1.
<mgrwt>
<rscale>  0 0.51833181E+03</rscale>
<asrwt>0</asrwt>
<pdfrwt beam="1">  1       21 0.16575749E-01 0.51833181E+03</pdfrwt>
<pdfrwt beam="2">  1       21 0.95908227E-01 0.51833181E+03</pdfrwt>
<totfact> 0.26420184E+04</totfact>
</mgrwt>
</event>
<event>
 8    1  0.9478272E-006  0.4101539E+03  0.7546771E-02  0.1040319E+00
         21   -1    0    0  504  503  0.00000000000E+00  0.00000000000E+00  0.38051557518E+02  0.38051557518E+02  0.00000000000E+00 0. -1.
         21   -1    0    0  503  504 -0.00000000000E+00 -0.00000000000E+00 -0.11052518074E+04  0.11052518074E+04  0.00000000000E+00 0. -1.
         25    2    1    2    0    0  0.15354844922E+03 -0.49547692516E+02 -0.47790387794E+03  0.51966222583E+03  0.12499844926E+03 0.  0.
         25    2    1    2    0    0 -0.15354844922E+03  0.49547692516E+02 -0.58929637199E+03  0.62364113913E+03  0.12500382508E+03 0.  0.
          5    1    3    3  501    0  0.67812815641E+02  0.35037191836E+02 -0.12284796414E+03  0.14470623715E+03  0.47000000000E+01 0.  1.
         -5    1    3    3    0  501  0.85735633579E+02 -0.84584884352E+02 -0.35505591380E+03  0.37495598868E+03  0.47000000000E+01 0.  1.
          5    1    4    4  502    0 -0.16396119548E+03  0.63551811181E+02 -0.44972508955E+03  0.48290459979E+03  0.47000000000E+01 0. -1.
         -5    1    4    4    0  502  0.10412746256E+02 -0.14004118665E+02 -0.13957128244E+03  0.14073653934E+03  0.47000000000E+01 0. -1.
<mgrwt>
<rscale>  0 0.41015389E+03</rscale>
<asrwt>0</asrwt>
<pdfrwt beam="1">  1       21 0.58540859E-02 0.41015389E+03</pdfrwt>
<pdfrwt beam="2">  1       21 0.17003874E+00 0.41015389E+03</pdfrwt>
<totfact> 0.39930210E+04</totfact>
</mgrwt>
</event>
<event>
 8    1  0.9478272E-006  0.3444037E+03  0.7546771E-02  0.1064936E+00
         21   -1    0    0  504  503  0.00000000000E+00  0.00000000000E+00  0.17361500460E+03  0.17361500460E+03  0.00000000000E+00 0. -1.
         21   -1    0    0  503  504 -0.00000000000E+00 -0.00000000000E+00 -0.17080018740E+03  0.17080018740E+03  0.00000000000E+00 0. -1.
         25    2    1    2    0    0 -0.61473446519E+02  0.28820072961E+02  0.98461705888E+02  0.17300149926E+03  0.12500091994E+03 0.  0.
         25    2    1    2    0    0  0.61473446519E+02 -0.28820072961E+02 -0.95646888691E+02  0.17141369274E+03  0.12499898204E+03 0.  0.
          5    1    3    3  501    0 -0.93373310945E+02  0.37930377501E+02  0.46309544809E+02  0.11101329954E+03  0.47000000000E+01 0.  1.
         -5    1    3    3    0  501  0.31899864426E+02 -0.91103045405E+01  0.52152161079E+02  0.61988199719E+02  0.47000000000E+01 0.  1.
          5    1    4    4  502    0  0.31412587501E+02 -0.45177747052E+02  0.13566256338E+02  0.56867502084E+02  0.47000000000E+01 0.  1.
         -5    1    4    4    0  502  0.30060859018E+02  0.16357674091E+02 -0.10921314503E+03  0.11454619066E+03  0.47000000000E+01 0.  1.
<mgrwt>
<rscale>  0 0.34440369E+03</rscale>
<asrwt>0</asrwt>
<pdfrwt beam="1">  1       21 0.26710001E-01 0.34440369E+03</pdfrwt>
<pdfrwt beam="2">  1       21 0.26276952E-01 0.34440369E+03</pdfrwt>
<totfact> 0.17660645E+05</totfact>
</mgrwt>
</event>
<event>
 8    1  0.9478272E-006  0.2984610E+03  0.7546771E-02  0.1086012E+00
         21   -1    0    0  504  503  0.00000000000E+00  0.00000000000E+00  0.72175270822E+02  0.72175270822E+02  0.00000000000E+00 0. -1.
         21   -1    0    0  503  504 -0.00000000000E+00 -0.00000000000E+00 -0.30855095608E+03  0.30855095608E+03  0.00000000000E+00 0. -1.
         25    2    1    2    0    0  0.14816018465E+01  0.78214450651E+02 -0.14737337668E+03  0.20848398303E+03  0.12500785411E+03 0.  0.
         25    2    1    2    0    0 -0.14816018465E+01 -0.78214450651E+02 -0.89002308577E+02  0.17224224388E+03  0.12500513673E+03 0.  0.
          5    1    3    3  501    0 -0.59145005439E+02  0.19111944618E+02 -0.69430768327E+02  0.93306589724E+02  0.47000000000E+01 0. -1.
         -5    1    3    3    0  501  0.60626607286E+02  0.59102506033E+02 -0.77942608358E+02  0.11517739330E+03  0.47000000000E+01 0. -1.
          5    1    4    4  502    0  0.47403940551E+02  0.27112078854E+01 -0.52086655073E+02  0.70637057304E+02  0.47000000000E+01 0.  1.
         -5    1    4    4    0  502 -0.48885542397E+02 -0.80925658536E+02 -0.36915653503E+02  0.10160518657E+03  0.47000000000E+01 0.  1.
<mgrwt>
<rscale>  0 0.29846104E+03</rscale>
<asrwt>0</asrwt>
<pdfrwt beam="1">  1       21 0.11103888E-01 0.29846104E+03</pdfrwt>
<pdfrwt beam="2">  1       21 0.47469379E-01 0.29846104E+03</pdfrwt>
<totfact> 0.27883903E+05</totfact>
</mgrwt>
</event>
<event>
 8    1  0.9478272E-006  0.2697793E+03  0.7546771E-02  0.1101406E+00
         21   -1    0    0  504  503  0.00000000000E+00  0.00000000000E+00  0.14523430119E+03  0.14523430119E+03  0.00000000000E+00 0.  1.
         21   -1    0    0  503  504 -0.00000000000E+00 -0.00000000000E+00 -0.12528177596E+03  0.12528177596E+03  0.00000000000E+00 0.  1.
         25    2    1    2    0    0  0.60259564966E+01  0.13893179893E+02  0.58495567949E+02  0.13883360421E+03  0.12499482225E+03 0.  0.
         25    2    1    2    0    0 -0.60259564966E+01 -0.13893179893E+02 -0.38543042712E+02  0.13168247294E+03  0.12500149975E+03 0.  0.
          5    1    3    3  501    0 -0.11420436604E+02  0.39661963913E+02 -0.25768799108E+02  0.48883726956E+02  0.47000000000E+01 0.  1.
         -5    1    3    3    0  501  0.17446393101E+02 -0.25768784020E+02  0.84264367057E+02  0.89949877252E+02  0.47000000000E+01 0.  1.
          5    1    4    4  502    0 -0.63251606332E+01 -0.44476256324E+02  0.31527416672E+02  0.55083691195E+02  0.47000000000E+01 0.  1.
         -5    1    4    4    0  502  0.29920413657E+00  0.30583076430E+02 -0.70070459384E+02  0.76598781749E+02  0.47000000000E+01 0.  1.
<mgrwt>
<rscale>  0 0.26977925E+03</rscale>
<asrwt>0</asrwt>
<pdfrwt beam="1">  1       21 0.22343739E-01 0.26977925E+03</pdfrwt>
<pdfrwt beam="2">  1       21 0.19274119E-01 0.26977925E+03</pdfrwt>
<totfact> 0.45657873E+05</totfact>
</mgrwt>
</event>
<event>
 8    1  0.9478272E-006  0.3387658E+03  0.7546771E-02  0.1067323E+00
         21   -1    0    0  504  503  0.00000000000E+00  0.00000000000E+00  0.45761397314E+02  0.45761397314E+02  0.00000000000E+00 0. -1.
         21   -1    0    0  503  504 -0.00000000000E+00 -0.00000000000E+00 -0.62696014338E+03  0.62696014338E+03  0.00000000000E+00 0. -1.
         25    2    1    2    0    0 -0.35806904412E+02  0.10248248089E+03 -0.36166918983E+03  0.39776180814E+03  0.12500023942E+03 0.  0.
         25    2    1    2    0    0  0.35806904412E+02 -0.10248248089E+03 -0.21952955624E+03  0.27495973255E+03  0.12499934067E+03 0.  0.
          5    1    3    3  501    0 -0.62385974812E+02  0.28601374631E+02 -0.80950419689E+02  0.10623139334E+03  0.47000000000E+01 0.  1.
         -5    1    3    3    0  501  0.26579070400E+02  0.73881106262E+02 -0.28071877014E+03  0.29153041480E+03  0.47000000000E+01 0.  1.
          5    1    4    4  502    0  0.69831838015E+02 -0.53959877588E+02 -0.65936028448E+02  0.11026243167E+03  0.47000000000E+01 0. -1.
         -5    1    4    4    0  502 -0.34024933603E+02 -0.48522603305E+02 -0.15359352780E+03  0.16469730089E+03  0.47000000000E+01 0. -1.
<mgrwt>
<rscale>  0 0.33876583E+03</rscale>
<asrwt>0</asrwt>
<pdfrwt beam="1">  1       21 0.70402148E-02 0.33876583E+03</pdfrwt>
<pdfrwt beam="2">  1       21 0.96455410E-01 0.33876583E+03</pdfrwt>
<totfact> 0.12784934E+05</totfact>
</mgrwt>
</event>
<event>
 8    1  0.9478272E-006  0.4797066E+03  0.7546771E-02  0.1019216E+00
         21   -1    0    0  504  503  0.00000000000E+00  0.00000000000E+00  0.16070790448E+03  0.16070790448E+03  0.00000000000E+00 0. -1.
         21   -1    0    0  503  504 -0.00000000000E+00 -0.00000000000E+00 -0.35797622058E+03  0.35797622058E+03  0.00000000000E+00 0. -1.
         25    2    1    2    0    0 -0.13473947427E+03 -0.57255804090E+02  0.56066604766E+02  0.20050477784E+03  0.12500299491E+03 0.  0.
         25    2    1    2    0    0  0.13473947427E+03  0.57255804090E+02 -0.25333492086E+03  0.31817934723E+03  0.12500624722E+03 0.  0.
          5    1    3    3  501    0 -0.16090965579E+02 -0.29277043222E+02  0.70012597004E+02  0.77716910466E+02  0.47000000000E+01 0. -1.
         -5    1    3    3    0  501 -0.11864850869E+03 -0.27978760868E+02 -0.13945992238E+02  0.12278786737E+03  0.47000000000E+01 0. -1.
          5    1    4    4  502    0 -0.23662920582E+02  0.94977190228E+01 -0.23803162941E+02  0.35196889679E+02  0.47000000000E+01 0.  1.
         -5    1    4    4    0  502  0.15840239485E+03  0.47758085067E+02 -0.22953175792E+03  0.28298245755E+03  0.47000000000E+01 0.  1.
<mgrwt>
<rscale>  0 0.47970661E+03</rscale>
<asrwt>0</asrwt>
<pdfrwt beam="1">  1       21 0.24724293E-01 0.47970661E+03</pdfrwt>
<pdfrwt beam="2">  1       21 0.55073264E-01 0.47970661E+03</pdfrwt>
<totfact> 0.43916225E+04</totfact>
</mgrwt>
</event>
<event>
 8    1  0.9478272E-006  0.3887960E+03  0.7546771E-02  0.1047730E+00
         21   -1    0    0  504  503  0.00000000000E+00  0.00000000000E+00  0.15429198597E+03  0.15429198597E+03  0.00000000000E+00 0.  1.
         21   -1    0    0  503  504 -0.00000000000E+00 -0.00000000000E+00 -0.24492904497E+03  0.24492904497E+03  0.00000000000E+00 0.  1.
         25    2    1    2    0    0 -0.12180327561E+03 -0.67713266529E+02  0.84808036356E+01  0.18739672317E+03  0.12499793364E+03 0.  0.
         25    2    1    2    0    0  0.12180327561E+03  0.67713266529E+02 -0.99117862635E+02  0.21182430776E+03  0.12499624895E+03 0.  0.
          5    1    3    3  501    0 -0.51317792405E+02 -0.60271934075E+02 -0.51392764174E+02  0.94496180155E+02  0.47000000000E+01 0.  1.
         -5    1    3    3    0  501 -0.70485483202E+02 -0.74413324545E+01  0.59873567809E+02  0.92900543018E+02  0.47000000000E+01 0.  1.
          5    1    4    4  502    0  0.35931368242E+02 -0.24264456668E+02 -0.70171833848E+02  0.82619630516E+02  0.47000000000E+01 0. -1.
         -5    1    4    4    0  502  0.85871907365E+02  0.91977723197E+02 -0.28946028787E+02  0.12920467724E+03  0.47000000000E+01 0. -1.
<mgrwt>
<rscale>  0 0.38879603E+03</rscale>
<asrwt>0</asrwt>
<pdfrwt beam="1">  1       21 0.23737229E-01 0.38879603E+03</pdfrwt>
<pdfrwt beam="2">  1       21 0.37681391E-01 0.38879603E+03</pdfrwt>
<totfact> 0.10737154E+05</totfact>
</mgrwt>
</event>
<event>
 8    1  0.9478272E-006  0.3747356E+03  0.7546771E-02  0.1052897E+00
         21   -1    0    0  504  503  0.00000000000E+00  0.00000000000E+00  0.43017872440E+03  0.43017872440E+03  0.00000000000E+00 0. -1.
         21   -1    0    0  503  504 -0.00000000000E+00 -0.00000000000E+00 -0.81609531929E+02  0.81609531929E+02  0.00000000000E+00 0. -1.
         25    2    1    2    0    0 -0.12225435923E+03  0.56159324216E+02  0.12356491117E+03  0.22135458951E+03  0.12501827457E+03 0.  0.
         25    2    1    2    0    0  0.12225435923E+03 -0.56159324216E+02  0.22500428130E+03  0.29043366682E+03  0.12499916068E+03 0.  0.
          5    1    3    3  501    0 -0.12184114260E+03 -0.33851557620E+01  0.67381973701E+02  0.13935258767E+03  0.47000000000E+01 0.  1.
         -5    1    3    3    0  501 -0.41321663405E+00  0.59544479978E+02  0.56182937472E+02  0.82002001847E+02  0.47000000000E+01 0.  1.
          5    1    4    4  502    0  0.10629395761E+03 -0.39756961812E+02  0.23798903447E+03  0.26370417510E+03  0.47000000000E+01 0. -1.
         -5    1    4    4    0  502  0.15960401622E+02 -0.16402362405E+02 -0.12984753174E+02  0.26729491716E+02  0.47000000000E+01 0. -1.
<mgrwt>
<rscale>  0 0.37473556E+03</rscale>
<asrwt>0</asrwt>
<pdfrwt beam="1">  1       21 0.66181341E-01 0.37473556E+03</pdfrwt>
<pdfrwt beam="2">  1       21 0.12555313E-01 0.37473556E+03</pdfrwt>
<totfact> 0.10740926E+05</totfact>
</mgrwt>
</event>
<event>
 8    1  0.9478272E-006  0.2649687E+03  0.7546771E-02  0.1104194E+00
         21   -1    0    0  504  503  0.00000000000E+00  0.00000000000E+00  0.34190290821E+03  0.34190290821E+03  0.00000000000E+00 0.  1.
         21   -1    0    0  503  504 -0.00000000000E+00 -0.00000000000E+00 -0.51336517449E+02  0.51336517449E+02  0.00000000000E+00 0.  1.
         25    2    1    2    0    0  0.25966652355E+02  0.19617140907E+02  0.18904293201E+03  0.22895404337E+03  0.12499449819E+03 0.  0.
         25    2    1    2    0    0 -0.25966652355E+02 -0.19617140907E+02  0.10152345875E+03  0.16428538229E+03  0.12499429950E+03 0.  0.
          5    1    3    3  501    0 -0.41789515052E+02 -0.13944632381E+02  0.32190673598E+02  0.54764457518E+02  0.47000000000E+01 0.  1.
         -5    1    3    3    0  501  0.67756167407E+02  0.33561773288E+02  0.15685225842E+03  0.17418958585E+03  0.47000000000E+01 0.  1.
          5    1    4    4  502    0  0.16765940385E+02 -0.53639765775E+02  0.93056095688E+02  0.10881106641E+03  0.47000000000E+01 0.  1.
         -5    1    4    4    0  502 -0.42732592740E+02  0.34022624868E+02  0.84673630619E+01  0.55474315880E+02  0.47000000000E+01 0.  1.
<mgrwt>
<rscale>  0 0.26496871E+03</rscale>
<asrwt>0</asrwt>
<pdfrwt beam="1">  1       21 0.52600446E-01 0.26496871E+03</pdfrwt>
<pdfrwt beam="2">  1       21 0.78979260E-02 0.26496871E+03</pdfrwt>
<totfact> 0.41390342E+05</totfact>
</mgrwt>
</event>
<event>
 8    1  0.9478272E-006  0.3163402E+03  0.7546771E-02  0.1077346E+00
         21   -1    0    0  504  503  0.00000000000E+00  0.00000000000E+00  0.10802609233E+02  0.10802609233E+02  0.00000000000E+00 0.  1.
         21   -1    0    0  503  504 -0.00000000000E+00 -0.00000000000E+00 -0.23159017190E+04  0.23159017190E+04  0.00000000000E+00 0.  1.
         25    2    1    2    0    0 -0.77080449222E+02  0.39132682044E+02 -0.83024076128E+03  0.84403661195E+03  0.12500127269E+03 0.  0.
         25    2    1    2    0    0  0.77080449222E+02 -0.39132682044E+02 -0.14748583485E+04  0.14826677163E+04  0.12499458520E+03 0.  0.
          5    1    3    3  501    0 -0.80927091130E+01 -0.25703469606E+01 -0.59942341454E+03  0.59950197541E+03  0.47000000000E+01 0. -1.
         -5    1    3    3    0  501 -0.68987740109E+02  0.41703029005E+02 -0.23081734674E+03  0.24453463654E+03  0.47000000000E+01 0. -1.
          5    1    4    4  502    0  0.62492378325E+02  0.27738136514E+02 -0.41763058910E+03  0.42321637553E+03  0.47000000000E+01 0. -1.
         -5    1    4    4    0  502  0.14588070897E+02 -0.66870818558E+02 -0.10572277594E+04  0.10594513408E+04  0.47000000000E+01 0. -1.
<mgrwt>
<rscale>  0 0.31634020E+03</rscale>
<asrwt>0</asrwt>
<pdfrwt beam="1">  1       21 0.16619414E-02 0.31634020E+03</pdfrwt>
<pdfrwt beam="2">  1       21 0.35629226E+00 0.31634020E+03</pdfrwt>
<totfact> 0.24007407E+04</totfact>
</mgrwt>
</event>
<event>
 8    1  0.9478272E-006  0.4059318E+03  0.7546771E-02  0.1041745E+00
         21   -1    0    0  504  503  0.00000000000E+00  0.00000000000E+00  0.20698565728E+03  0.20698565728E+03  0.00000000000E+00 0. -1.
         21   -1    0    0  503  504 -0.00000000000E+00 -0.00000000000E+00 -0.19902422042E+03  0.19902422042E+03  0.00000000000E+00 0. -1.
         25    2    1    2    0    0 -0.10554853081E+03  0.11979538821E+03 -0.48540077614E+01  0.20283326978E+03  0.12500538606E+03 0.  0.
         25    2    1    2    0    0  0.10554853081E+03 -0.11979538821E+03  0.12815444623E+02  0.20317660792E+03  0.12500028396E+03 0.  0.
          5    1    3    3  501    0 -0.24796999890E+02 -0.16121641752E+02 -0.30336004308E+02  0.42628179573E+02  0.47000000000E+01 0. -1.
         -5    1    3    3    0  501 -0.80751530924E+02  0.13591702997E+03  0.25481996546E+02  0.16020509021E+03  0.47000000000E+01 0. -1.
          5    1    4    4  502    0  0.30214845285E+02 -0.89461326821E+02 -0.43669814335E+02  0.10414129131E+03  0.47000000000E+01 0. -1.
         -5    1    4    4    0  502  0.75333685529E+02 -0.30334061392E+02  0.56485258958E+02  0.99035316607E+02  0.47000000000E+01 0. -1.
<mgrwt>
<rscale>  0 0.40593181E+03</rscale>
<asrwt>0</asrwt>
<pdfrwt beam="1">  1       21 0.31843947E-01 0.40593181E+03</pdfrwt>
<pdfrwt beam="2">  1       21 0.30619111E-01 0.40593181E+03</pdfrwt>
<totfact> 0.91257867E+04</totfact>
</mgrwt>
</event>
<event>
 8    1  0.9478272E-006  0.2775374E+03  0.7546771E-02  0.1097042E+00
         21   -1    0    0  504  503  0.00000000000E+00  0.00000000000E+00  0.15199187212E+03  0.15199187212E+03  0.00000000000E+00 0. -1.
         21   -1    0    0  503  504 -0.00000000000E+00 -0.00000000000E+00 -0.12669597655E+03  0.12669597655E+03  0.00000000000E+00 0. -1.
         25    2    1    2    0    0 -0.32392200977E+02  0.35866457728E+02 -0.23511855417E+02  0.13605912028E+03  0.12499447744E+03 0.  0.
         25    2    1    2    0    0  0.32392200977E+02 -0.35866457728E+02  0.48807750992E+02  0.14262872839E+03  0.12500040052E+03 0.  0.
          5    1    3    3  501    0  0.42092040427E+01  0.72460654304E+02 -0.38060394142E+02  0.82091092227E+02  0.47000000000E+01 0.  1.
         -5    1    3    3    0  501 -0.36601405019E+02 -0.36594196576E+02  0.14548538724E+02  0.53968028049E+02  0.47000000000E+01 0.  1.
          5    1    4    4  502    0 -0.30475734829E+02  0.26285408744E+02  0.33950001203E+02  0.52861949528E+02  0.47000000000E+01 0. -1.
         -5    1    4    4    0  502  0.62867935806E+02 -0.62151866472E+02  0.14857749789E+02  0.89766778862E+02  0.47000000000E+01 0. -1.
<mgrwt>
<rscale>  0 0.27753745E+03</rscale>
<asrwt>0</asrwt>
<pdfrwt beam="1">  1       21 0.23383365E-01 0.27753745E+03</pdfrwt>
<pdfrwt beam="2">  1       21 0.19491689E-01 0.27753745E+03</pdfrwt>
<totfact> 0.40934708E+05</totfact>
</mgrwt>
</event>
<event>
 8    1  0.9478272E-006  0.2742052E+03  0.7546771E-02  0.1098897E+00
         21   -1    0    0  504  503  0.00000000000E+00  0.00000000000E+00  0.58711351623E+03  0.58711351623E+03  0.00000000000E+00 0. -1.
         21   -1    0    0  503  504 -0.00000000000E+00 -0.00000000000E+00 -0.32016157509E+02  0.32016157509E+02  0.00000000000E+00 0. -1.
         25    2    1    2    0    0 -0.31442614900E+02 -0.32222202993E+02  0.35395640632E+03  0.37807058986E+03  0.12500129978E+03 0.  0.
         25    2    1    2    0    0  0.31442614900E+02  0.32222202993E+02  0.20114095240E+03  0.24105908388E+03  0.12499956316E+03 0.  0.
          5    1    3    3  501    0  0.48298796918E+02 -0.66049230854E+01  0.13005755102E+03  0.13897285840E+03  0.47000000000E+01 0.  1.
         -5    1    3    3    0  501 -0.79741411818E+02 -0.25617279907E+02  0.22389885529E+03  0.23909773146E+03  0.47000000000E+01 0.  1.
          5    1    4    4  502    0  0.55770766493E+02  0.46130718461E+02  0.19986217060E+03  0.21261561283E+03  0.47000000000E+01 0. -1.
         -5    1    4    4    0  502 -0.24328151592E+02 -0.13908515468E+02  0.12787817989E+01  0.28443471049E+02  0.47000000000E+01 0. -1.
<mgrwt>
<rscale>  0 0.27420517E+03</rscale>
<asrwt>0</asrwt>
<pdfrwt beam="1">  1       21 0.90325148E-01 0.27420517E+03</pdfrwt>
<pdfrwt beam="2">  1       21 0.49255631E-02 0.27420517E+03</pdfrwt>
<totfact> 0.28111057E+05</totfact>
</mgrwt>
</event>
<event>
 8    1  0.9478272E-006  0.4961837E+03  0.7546771E-02  0.1014780E+00
         21   -1    0    0  504  503  0.00000000000E+00  0.00000000000E+00  0.43131043562E+03  0.43131043562E+03  0.00000000000E+00 0.  1.
         21   -1    0    0  503  504 -0.00000000000E+00 -0.00000000000E+00 -0.14270361681E+03  0.14270361681E+03  0.00000000000E+00 0.  1.
         25    2    1    2    0    0  0.68100416743E+02  0.17898849085E+03  0.33035512135E+02  0.23106494574E+03  0.12500046988E+03 0.  0.
         25    2    1    2    0    0 -0.68100416743E+02 -0.17898849085E+03  0.25557130668E+03  0.34294910668E+03  0.12499140114E+03 0.  0.
          5    1    3    3  501    0  0.84825358633E+02  0.14895665185E+03 -0.14637092653E+02  0.17210392232E+03  0.47000000000E+01 0.  1.
         -5    1    3    3    0  501 -0.16724941891E+02  0.30031839004E+02  0.47672604788E+02  0.58961023418E+02  0.47000000000E+01 0.  1.
          5    1    4    4  502    0 -0.14361185564E+02 -0.11433990749E+03  0.59966296664E+02  0.12999194141E+03  0.47000000000E+01 0. -1.
         -5    1    4    4    0  502 -0.53739231179E+02 -0.64648583361E+02  0.19560501001E+03  0.21295716527E+03  0.47000000000E+01 0. -1.
<mgrwt>
<rscale>  0 0.49618367E+03</rscale>
<asrwt>0</asrwt>
<pdfrwt beam="1">  1       21 0.66355451E-01 0.49618367E+03</pdfrwt>
<pdfrwt beam="2">  1       21 0.21954403E-01 0.49618367E+03</pdfrwt>
<totfact> 0.36562158E+04</totfact>
</mgrwt>
</event>
<event>
 8    1  0.9478272E-006  0.2637419E+03  0.7546771E-02  0.1104916E+00
         21   -1    0    0  504  503  0.00000000000E+00  0.00000000000E+00  0.12085718414E+03  0.12085718414E+03  0.00000000000E+00 0.  1.
         21   -1    0    0  503  504 -0.00000000000E+00 -0.00000000000E+00 -0.14388843166E+03  0.14388843166E+03  0.00000000000E+00 0.  1.
         25    2    1    2    0    0 -0.36865687230E+01  0.39635496665E+02  0.19512333292E+01  0.13120065825E+03  0.12500096811E+03 0.  0.
         25    2    1    2    0    0  0.36865687230E+01 -0.39635496665E+02 -0.24982480848E+02  0.13354495755E+03  0.12500227180E+03 0.  0.
          5    1    3    3  501    0 -0.52569764696E+02  0.19223557860E+01  0.32647658614E+02  0.62090540543E+02  0.47000000000E+01 0.  1.
         -5    1    3    3    0  501  0.48883195973E+02  0.37713140879E+02 -0.30696425285E+02  0.69110117702E+02  0.47000000000E+01 0.  1.
          5    1    4    4  502    0 -0.59446054978E+02 -0.29654775252E+02 -0.69068643524E+01  0.66955462234E+02  0.47000000000E+01 0. -1.
         -5    1    4    4    0  502  0.63132623701E+02 -0.99807214131E+01 -0.18075616496E+02  0.66589495321E+02  0.47000000000E+01 0. -1.
<mgrwt>
<rscale>  0 0.26374192E+03</rscale>
<asrwt>0</asrwt>
<pdfrwt beam="1">  1       21 0.18593413E-01 0.26374192E+03</pdfrwt>
<pdfrwt beam="2">  1       21 0.22136682E-01 0.26374192E+03</pdfrwt>
<totfact> 0.49761340E+05</totfact>
</mgrwt>
</event>
<event>
 8    1  0.9478272E-006  0.3093293E+03  0.7546771E-02  0.1080668E+00
         21   -1    0    0  504  503  0.00000000000E+00  0.00000000000E+00  0.14708212497E+03  0.14708212497E+03  0.00000000000E+00 0. -1.
         21   -1    0    0  503  504 -0.00000000000E+00 -0.00000000000E+00 -0.16263806864E+03  0.16263806864E+03  0.00000000000E+00 0. -1.
         25    2    1    2    0    0  0.86757074838E+02 -0.14589008207E+02  0.15842133815E+02  0.15367421092E+03  0.12500064281E+03 0.  0.
         25    2    1    2    0    0 -0.86757074838E+02  0.14589008207E+02 -0.31398077482E+02  0.15604598269E+03  0.12499952100E+03 0.  0.
          5    1    3    3  501    0  0.10671337757E+03  0.20744502262E+02  0.25360956833E+02  0.11172890162E+03  0.47000000000E+01 0. -1.
         -5    1    3    3    0  501 -0.19956302729E+02 -0.35333510469E+02 -0.95188230183E+01  0.41945309300E+02  0.47000000000E+01 0. -1.
          5    1    4    4  502    0 -0.79734551996E+01 -0.27929496089E+02  0.34085714912E+02  0.45028421032E+02  0.47000000000E+01 0. -1.
         -5    1    4    4    0  502 -0.78783619638E+02  0.42518504296E+02 -0.65483792393E+02  0.11101756166E+03  0.47000000000E+01 0. -1.
<mgrwt>
<rscale>  0 0.30932929E+03</rscale>
<asrwt>0</asrwt>
<pdfrwt beam="1">  1       21 0.22628019E-01 0.30932929E+03</pdfrwt>
<pdfrwt beam="2">  1       21 0.25021241E-01 0.30932929E+03</pdfrwt>
<totfact> 0.26928123E+05</totfact>
</mgrwt>
</event>
<event>
 8    1  0.9478272E-006  0.3305767E+03  0.7546771E-02  0.1070882E+00
         21   -1    0    0  504  503  0.00000000000E+00  0.00000000000E+00  0.93938493269E+02  0.93938493269E+02  0.00000000000E+00 0. -1.
         21   -1    0    0  503  504 -0.00000000000E+00 -0.00000000000E+00 -0.29083116257E+03  0.29083116257E+03  0.00000000000E+00 0. -1.
         25    2    1    2    0    0 -0.87565248812E+02 -0.36727095476E+02 -0.15870387736E+03  0.22322152187E+03  0.12499749916E+03 0.  0.
         25    2    1    2    0    0  0.87565248812E+02  0.36727095476E+02 -0.38188791943E+02  0.16154813397E+03  0.12499145338E+03 0.  0.
          5    1    3    3  501    0  0.22854581721E+02 -0.95289512119E+01  0.31027970333E+01  0.25393900178E+02  0.47000000000E+01 0. -1.
         -5    1    3    3    0  501 -0.11041983053E+03 -0.27198144264E+02 -0.16180667439E+03  0.19782762169E+03  0.47000000000E+01 0. -1.
          5    1    4    4  502    0  0.85910735762E+02  0.32302080221E+02 -0.78392731148E+02  0.12079565060E+03  0.47000000000E+01 0. -1.
         -5    1    4    4    0  502  0.16545130496E+01  0.44250152553E+01  0.40203939206E+02  0.40752483373E+02  0.47000000000E+01 0. -1.
<mgrwt>
<rscale>  0 0.33057672E+03</rscale>
<asrwt>0</asrwt>
<pdfrwt beam="1">  1       21 0.14452076E-01 0.33057672E+03</pdfrwt>
<pdfrwt beam="2">  1       21 0.44743254E-01 0.33057672E+03</pdfrwt>
<totfact> 0.19414427E+05</totfact>
</mgrwt>
</event>
<event>
 8    1  0.9478272E-006  0.3839709E+03  0.7546771E-02  0.1049476E+00
         21   -1    0    0  504  503  0.00000000000E+00  0.00000000000E+00  0.40625968995E+03  0.40625968995E+03  0.00000000000E+00 0.  1.
         21   -1    0    0  503  504 -0.00000000000E+00 -0.00000000000E+00 -0.90726243706E+02  0.90726243706E+02  0.00000000000E+00 0.  1.
         25    2    1    2    0    0 -0.61576042929E+02 -0.11957908774E+03  0.85133867164E+02  0.20237308676E+03  0.12496528966E+03 0.  0.
         25    2    1    2    0    0  0.61576042929E+02  0.11957908774E+03  0.23039957908E+03  0.29461284689E+03  0.12498798433E+03 0.  0.
          5    1    3    3  501    0  0.37705365553E+01 -0.76595447602E+02  0.96332322296E+02  0.12321966506E+03  0.47000000000E+01 0. -1.
         -5    1    3    3    0  501 -0.65346579484E+02 -0.42983640135E+02 -0.11198455132E+02  0.79153421700E+02  0.47000000000E+01 0. -1.
          5    1    4    4  502    0 -0.33024464739E+02  0.93059369322E+01  0.70283061874E+02  0.78351863538E+02  0.47000000000E+01 0.  1.
         -5    1    4    4    0  502  0.94600507668E+02  0.11027315080E+03  0.16011651721E+03  0.21626098335E+03  0.47000000000E+01 0.  1.
<mgrwt>
<rscale>  0 0.38397091E+03</rscale>
<asrwt>0</asrwt>
<pdfrwt beam="1">  1       21 0.62501490E-01 0.38397091E+03</pdfrwt>
<pdfrwt beam="2">  1       21 0.13957884E-01 0.38397091E+03</pdfrwt>
<totfact> 0.10020215E+05</totfact>
</mgrwt>
</event>
<event>
 8    1  0.9478272E-006  0.2618917E+03  0.7546771E-02  0.1106012E+00
         21   -1    0    0  504  503  0.00000000000E+00  0.00000000000E+00  0.10895561818E+03  0.10895561818E+03  0.00000000000E+00 0. -1.
         21   -1    0    0  503  504 -0.00000000000E+00 -0.00000000000E+00 -0.15737434756E+03  0.15737434756E+03  0.00000000000E+00 0. -1.
         25    2    1    2    0    0  0.19684007540E+02 -0.33625839926E+02 -0.22282763638E+02  0.13281564405E+03  0.12500126594E+03 0.  0.
         25    2    1    2    0    0 -0.19684007540E+02  0.33625839926E+02 -0.26135965744E+02  0.13351432169E+03  0.12499931250E+03 0.  0.
          5    1    3    3  501    0 -0.33414700157E+02 -0.39395648403E+02 -0.50355631173E+02  0.72293422180E+02  0.47000000000E+01 0. -1.
         -5    1    3    3    0  501  0.53098707697E+02  0.57698084769E+01  0.28072867535E+02  0.60522221874E+02  0.47000000000E+01 0. -1.
          5    1    4    4  502    0 -0.72360984919E+02  0.16773930588E+02 -0.23077400645E+02  0.77923894323E+02  0.47000000000E+01 0. -1.
         -5    1    4    4    0  502  0.52676977379E+02  0.16851909338E+02 -0.30585650996E+01  0.55590427365E+02  0.47000000000E+01 0. -1.
<mgrwt>
<rscale>  0 0.26189173E+03</rscale>
<asrwt>0</asrwt>
<pdfrwt beam="1">  1       21 0.16762403E-01 0.26189173E+03</pdfrwt>
<pdfrwt beam="2">  1       21 0.24211438E-01 0.26189173E+03</pdfrwt>
<totfact> 0.50872810E+05</totfact>
</mgrwt>
</event>
<event>
 8    1  0.9478272E-006  0.3437253E+03  0.7546771E-02  0.1065220E+00
         21   -1    0    0  504  503  0.00000000000E+00  0.00000000000E+00  0.67637279323E+03  0.67637279323E+03  0.00000000000E+00 0.  1.
         21   -1    0    0  503  504 -0.00000000000E+00 -0.00000000000E+00 -0.43669353263E+02  0.43669353263E+02  0.00000000000E+00 0.  1.
         25    2    1    2    0    0  0.55388912774E+02 -0.72627262643E+02  0.15998214300E+03  0.22262038134E+03  0.12499158840E+03 0.  0.
         25    2    1    2    0    0 -0.55388912774E+02  0.72627262643E+02  0.47272129697E+03  0.49742176515E+03  0.12498134622E+03 0.  0.
          5    1    3    3  501    0  0.46377346549E+02 -0.10764993499E+03  0.13242340988E+03  0.17691075790E+03  0.47000000000E+01 0. -1.
         -5    1    3    3    0  501  0.90115662249E+01  0.35022672345E+02  0.27558733116E+02  0.45709623439E+02  0.47000000000E+01 0. -1.
          5    1    4    4  502    0 -0.56196252185E+02  0.10646999009E+03  0.35922272511E+03  0.37888907847E+03  0.47000000000E+01 0.  1.
         -5    1    4    4    0  502  0.80733941069E+00 -0.33842727449E+02  0.11349857185E+03  0.11853268668E+03  0.47000000000E+01 0.  1.
<mgrwt>
<rscale>  0 0.34372525E+03</rscale>
<asrwt>0</asrwt>
<pdfrwt beam="1">  1       21 0.10405735E+00 0.34372525E+03</pdfrwt>
<pdfrwt beam="2">  1       21 0.67183625E-02 0.34372525E+03</pdfrwt>
<totfact> 0.11538395E+05</totfact>
</mgrwt>
</event>
<event>
 8    1  0.9478272E-006  0.3227244E+03  0.7546771E-02  0.1074402E+00
         21   -1    0    0  504  503  0.00000000000E+00  0.00000000000E+00  0.88643268593E+03  0.88643268593E+03  0.00000000000E+00 0.  1.
         21   -1    0    0  503  504 -0.00000000000E+00 -0.00000000000E+00 -0.29373641165E+02  0.29373641165E+02  0.00000000000E+00 0.  1.
         25    2    1    2    0    0  0.33375335476E+02 -0.11706664542E+02  0.15688854990E+03  0.20368636359E+03  0.12499263421E+03 0.  0.
         25    2    1    2    0    0 -0.33375335476E+02  0.11706664542E+02  0.70017049487E+03  0.71211996351E+03  0.12500064615E+03 0.  0.
          5    1    3    3  501    0 -0.29642892964E+02  0.29108398059E+01  0.13003495908E+03  0.13348540996E+03  0.47000000000E+01 0. -1.
         -5    1    3    3    0  501  0.63018228441E+02 -0.14617504348E+02  0.26853590827E+02  0.70200953622E+02  0.47000000000E+01 0. -1.
          5    1    4    4  502    0 -0.43804877878E+02 -0.24331528110E+02  0.63332766049E+03  0.63532425275E+03  0.47000000000E+01 0.  1.
         -5    1    4    4    0  502  0.10429542401E+02  0.36038192652E+02  0.66842834372E+02  0.76795710761E+02  0.47000000000E+01 0.  1.
<mgrwt>
<rscale>  0 0.32272438E+03</rscale>
<asrwt>0</asrwt>
<pdfrwt beam="1">  1       21 0.13637424E+00 0.32272438E+03</pdfrwt>
<pdfrwt beam="2">  1       21 0.45190224E-02 0.32272438E+03</pdfrwt>
<totfact> 0.11652002E+05</totfact>
</mgrwt>
</event>
<event>
 8    1  0.9478272E-006  0.2633576E+03  0.7546771E-02  0.1105143E+00
         21   -1    0    0  504  503  0.00000000000E+00  0.00000000000E+00  0.74524748517E+02  0.74524748517E+02  0.00000000000E+00 0. -1.
         21   -1    0    0  503  504 -0.00000000000E+00 -0.00000000000E+00 -0.23266503305E+03  0.23266503305E+03  0.00000000000E+00 0. -1.
         25    2    1    2    0    0 -0.34057340398E+02 -0.23060647023E+02 -0.73663055669E+02  0.15080891236E+03  0.12500154559E+03 0.  0.
         25    2    1    2    0    0  0.34057340398E+02  0.23060647023E+02 -0.84477228867E+02  0.15638086921E+03  0.12500751251E+03 0.  0.
          5    1    3    3  501    0 -0.79614071770E+01  0.12165274955E+02 -0.98855154201E+02  0.10002904294E+03  0.47000000000E+01 0. -1.
         -5    1    3    3    0  501 -0.26095933221E+02 -0.35225921978E+02  0.25192098531E+02  0.50779869419E+02  0.47000000000E+01 0. -1.
          5    1    4    4  502    0  0.25647692961E+02  0.74028859931E+02 -0.61198807780E+02  0.99526179122E+02  0.47000000000E+01 0. -1.
         -5    1    4    4    0  502  0.84096474365E+01 -0.50968212908E+02 -0.23278421087E+02  0.56854690091E+02  0.47000000000E+01 0. -1.
<mgrwt>
<rscale>  0 0.26335757E+03</rscale>
<asrwt>0</asrwt>
<pdfrwt beam="1">  1       21 0.11465346E-01 0.26335757E+03</pdfrwt>
<pdfrwt beam="2">  1       21 0.35794620E-01 0.26335757E+03</pdfrwt>
<totfact> 0.47236916E+05</totfact>
</mgrwt>
</event>
<event>
 8    1  0.9478272E-006  0.2579244E+03  0.7546771E-02  0.1108397E+00
         21   -1    0    0  504  503  0.00000000000E+00  0.00000000000E+00  0.26021353530E+02  0.26021353530E+02  0.00000000000E+00 0. -1.
         21   -1    0    0  503  504 -0.00000000000E+00 -0.00000000000E+00 -0.63913846163E+03  0.63913846163E+03  0.00000000000E+00 0. -1.
         25    2    1    2    0    0 -0.10368964661E+02  0.19964445201E+01 -0.22953466582E+03  0.26158487023E+03  0.12501592018E+03 0.  0.
         25    2    1    2    0    0  0.10368964661E+02 -0.19964445201E+01 -0.38358244228E+03  0.40357494493E+03  0.12500297971E+03 0.  0.
          5    1    3    3  501    0  0.50759199827E+02  0.27167420589E+02 -0.87474390583E+02  0.10482568443E+03  0.47000000000E+01 0. -1.
         -5    1    3    3    0  501 -0.61128164488E+02 -0.25170976069E+02 -0.14206027524E+03  0.15675918580E+03  0.47000000000E+01 0. -1.
          5    1    4    4  502    0  0.57339002337E+02 -0.83131121825E+01 -0.31348812943E+03  0.31883187783E+03  0.47000000000E+01 0. -1.
         -5    1    4    4    0  502 -0.46970037676E+02  0.63166676624E+01 -0.70094312842E+02  0.84743067105E+02  0.47000000000E+01 0. -1.
<mgrwt>
<rscale>  0 0.25792439E+03</rscale>
<asrwt>0</asrwt>
<pdfrwt beam="1">  1       21 0.40032854E-02 0.25792439E+03</pdfrwt>
<pdfrwt beam="2">  1       21 0.98328988E-01 0.25792439E+03</pdfrwt>
<totfact> 0.32839806E+05</totfact>
</mgrwt>
</event>
<event>
 8    1  0.9478272E-006  0.3311536E+03  0.7546771E-02  0.1070628E+00
         21   -1    0    0  504  503  0.00000000000E+00  0.00000000000E+00  0.66089985974E+03  0.66089985974E+03  0.00000000000E+00 0. -1.
         21   -1    0    0  503  504 -0.00000000000E+00 -0.00000000000E+00 -0.41482345592E+02  0.41482345592E+02  0.00000000000E+00 0. -1.
         25    2    1    2    0    0 -0.10156825556E+03  0.26327564233E+01  0.39096562351E+03  0.42284979323E+03  0.12499914769E+03 0.  0.
         25    2    1    2    0    0  0.10156825556E+03 -0.26327564233E+01  0.22845189064E+03  0.27953241210E+03  0.12500024455E+03 0.  0.
          5    1    3    3  501    0 -0.84510616873E+02 -0.26848601845E+02  0.37420995528E+03  0.38460118618E+03  0.47000000000E+01 0. -1.
         -5    1    3    3    0  501 -0.17057638685E+02  0.29481358268E+02  0.16755668231E+02  0.38248607043E+02  0.47000000000E+01 0. -1.
          5    1    4    4  502    0  0.87754210183E+02  0.48380762285E+02  0.10529775509E+03  0.14543454470E+03  0.47000000000E+01 0.  1.
         -5    1    4    4    0  502  0.13814045374E+02 -0.51013518709E+02  0.12315413554E+03  0.13409786740E+03  0.47000000000E+01 0.  1.
<mgrwt>
<rscale>  0 0.33115360E+03</rscale>
<asrwt>0</asrwt>
<pdfrwt beam="1">  1       21 0.10167689E+00 0.33115360E+03</pdfrwt>
<pdfrwt beam="2">  1       21 0.63818998E-02 0.33115360E+03</pdfrwt>
<totfact> 0.13391313E+05</totfact>
</mgrwt>
</event>
<event>
 8    1  0.9478272E-006  0.2864891E+03  0.7546771E-02  0.1092197E+00
         21   -1    0    0  504  503  0.00000000000E+00  0.00000000000E+00  0.17545688323E+03  0.17545688323E+03  0.00000000000E+00 0.  1.
         21   -1    0    0  503  504 -0.00000000000E+00 -0.00000000000E+00 -0.11694610626E+03  0.11694610626E+03  0.00000000000E+00 0.  1.
         25    2    1    2    0    0 -0.10818227252E+02  0.33144623164E+02 -0.32649476960E+02  0.13381433241E+03  0.12499874850E+03 0.  0.
         25    2    1    2    0    0  0.10818227252E+02 -0.33144623164E+02  0.91160253932E+02  0.15858865708E+03  0.12499828068E+03 0.  0.
          5    1    3    3  501    0  0.10942995174E+02  0.48618841003E+02  0.34903442157E+02  0.61023611154E+02  0.47000000000E+01 0. -1.
         -5    1    3    3    0  501 -0.21761222426E+02 -0.15474217839E+02 -0.67552919117E+02  0.72790721252E+02  0.47000000000E+01 0. -1.
          5    1    4    4  502    0 -0.35442128153E+02 -0.64087279477E+02  0.58815166278E+02  0.94045933580E+02  0.47000000000E+01 0. -1.
         -5    1    4    4    0  502  0.46260355405E+02  0.30942656313E+02  0.32345087654E+02  0.64542723504E+02  0.47000000000E+01 0. -1.
<mgrwt>
<rscale>  0 0.28648909E+03</rscale>
<asrwt>0</asrwt>
<pdfrwt beam="1">  1       21 0.26993367E-01 0.28648909E+03</pdfrwt>
<pdfrwt beam="2">  1       21 0.17991709E-01 0.28648909E+03</pdfrwt>
<totfact> 0.36002153E+05</totfact>
</mgrwt>
</event>
<event>
 8    1  0.9478272E-006  0.3463807E+03  0.7546771E-02  0.1064110E+00
         21   -1    0    0  504  503  0.00000000000E+00  0.00000000000E+00  0.20528622277E+03  0.20528622277E+03  0.00000000000E+00 0.  1.
         21   -1    0    0  503  504 -0.00000000000E+00 -0.00000000000E+00 -0.14611256776E+03  0.14611256776E+03  0.00000000000E+00 0.  1.
         25    2    1    2    0    0 -0.46438293987E+02  0.59450678841E+02 -0.64924349960E+02  0.15978568004E+03  0.12500157585E+03 0.  0.
         25    2    1    2    0    0  0.46438293987E+02 -0.59450678841E+02  0.12409800497E+03  0.19161311049E+03  0.12499748362E+03 0.  0.
          5    1    3    3  501    0  0.23939159777E+02 -0.24412739458E+02 -0.27025806862E+02  0.43835481693E+02  0.47000000000E+01 0. -1.
         -5    1    3    3    0  501 -0.70377453764E+02  0.83863418299E+02 -0.37898543098E+02  0.11595019834E+03  0.47000000000E+01 0. -1.
          5    1    4    4  502    0  0.10505018592E+02  0.30491311380E+02 -0.18708654497E+01  0.32644534348E+02  0.47000000000E+01 0.  1.
         -5    1    4    4    0  502  0.35933275395E+02 -0.89941990221E+02  0.12596887042E+03  0.15896857614E+03  0.47000000000E+01 0.  1.
<mgrwt>
<rscale>  0 0.34638070E+03</rscale>
<asrwt>0</asrwt>
<pdfrwt beam="1">  1       21 0.31582496E-01 0.34638070E+03</pdfrwt>
<pdfrwt beam="2">  1       21 0.22478857E-01 0.34638070E+03</pdfrwt>
<totfact> 0.17155610E+05</totfact>
</mgrwt>
</event>
<event>
 8    1  0.9478272E-006  0.2667632E+03  0.7546771E-02  0.1103147E+00
         21   -1    0    0  504  503  0.00000000000E+00  0.00000000000E+00  0.78946237176E+02  0.78946237176E+02  0.00000000000E+00 0.  1.
         21   -1    0    0  503  504 -0.00000000000E+00 -0.00000000000E+00 -0.22535148126E+03  0.22535148126E+03  0.00000000000E+00 0.  1.
         25    2    1    2    0    0 -0.33278980134E+02 -0.13929065271E+02 -0.39702113944E+02  0.13602673768E+03  0.12500202452E+03 0.  0.
         25    2    1    2    0    0  0.33278980134E+02  0.13929065271E+02 -0.10670313014E+03  0.16827098075E+03  0.12501222182E+03 0.  0.
          5    1    3    3  501    0  0.10268832920E+02 -0.57747475043E+02 -0.44663332746E+02  0.73872343237E+02  0.47000000000E+01 0. -1.
         -5    1    3    3    0  501 -0.43547813055E+02  0.43818409772E+02  0.49612188014E+01  0.62154394445E+02  0.47000000000E+01 0. -1.
          5    1    4    4  502    0 -0.35088428188E+02 -0.22202757074E+02 -0.72294009792E+02  0.83502539280E+02  0.47000000000E+01 0. -1.
         -5    1    4    4    0  502  0.68367408322E+02  0.36131822345E+02 -0.34409120347E+02  0.84768441473E+02  0.47000000000E+01 0. -1.
<mgrwt>
<rscale>  0 0.26676320E+03</rscale>
<asrwt>0</asrwt>
<pdfrwt beam="1">  1       21 0.12145575E-01 0.26676320E+03</pdfrwt>
<pdfrwt beam="2">  1       21 0.34669458E-01 0.26676320E+03</pdfrwt>
<totfact> 0.45365942E+05</totfact>
</mgrwt>
</event>
<event>
 8    1  0.9478272E-006  0.2610858E+03  0.7546771E-02  0.1106493E+00
         21   -1    0    0  504  503  0.00000000000E+00  0.00000000000E+00  0.23140492859E+03  0.23140492859E+03  0.00000000000E+00 0.  1.
         21   -1    0    0  503  504 -0.00000000000E+00 -0.00000000000E+00 -0.73643434242E+02  0.73643434242E+02  0.00000000000E+00 0.  1.
         25    2    1    2    0    0  0.32884914883E+02 -0.12703963851E+02  0.94260221203E+02  0.16047454383E+03  0.12499712633E+03 0.  0.
         25    2    1    2    0    0 -0.32884914883E+02  0.12703963851E+02  0.63501273146E+02  0.14457381901E+03  0.12500547639E+03 0.  0.
          5    1    3    3  501    0 -0.26130399789E+02 -0.28515112199E+02 -0.93797361755E+01  0.40074666157E+02  0.47000000000E+01 0.  1.
         -5    1    3    3    0  501  0.59015314672E+02  0.15811148347E+02  0.10363995738E+03  0.12039987767E+03  0.47000000000E+01 0.  1.
          5    1    4    4  502    0 -0.35605826837E+02  0.66562634855E+02  0.33990423932E+02  0.82920432842E+02  0.47000000000E+01 0.  1.
         -5    1    4    4    0  502  0.27209119546E+01 -0.53858671003E+02  0.29510849213E+02  0.61653386163E+02  0.47000000000E+01 0.  1.
<mgrwt>
<rscale>  0 0.26108584E+03</rscale>
<asrwt>0</asrwt>
<pdfrwt beam="1">  1       21 0.35600758E-01 0.26108584E+03</pdfrwt>
<pdfrwt beam="2">  1       21 0.11329759E-01 0.26108584E+03</pdfrwt>
<totfact> 0.48804269E+05</totfact>
</mgrwt>
</event>
<event>
 8    1  0.9478272E-006  0.4992678E+03  0.7546771E-02  0.1013970E+00
         21   -1    0    0  504  503  0.00000000000E+00  0.00000000000E+00  0.14447507052E+03  0.14447507052E+03  0.00000000000E+00 0.  1.
         21   -1    0    0  503  504 -0.00000000000E+00 -0.00000000000E+00 -0.43133449661E+03  0.43133449661E+03  0.00000000000E+00 0.  1.
         25    2    1    2    0    0 -0.11175096108E+03 -0.72915341789E+02 -0.33939442219E+03  0.38551211012E+03  0.12500435540E+03 0.  0.
         25    2    1    2    0    0  0.11175096108E+03  0.72915341789E+02  0.52534996106E+02  0.19029745701E+03  0.12509305320E+03 0.  0.
          5    1    3    3  501    0 -0.23828055899E+02  0.10913341467E+02 -0.19475524429E+03  0.19656696683E+03  0.47000000000E+01 0.  1.
         -5    1    3    3    0  501 -0.87922905177E+02 -0.83828683256E+02 -0.14463917790E+03  0.18894514330E+03  0.47000000000E+01 0.  1.
          5    1    4    4  502    0 -0.16597880869E+02  0.17126602865E+02  0.43681384876E+02  0.49989634523E+02  0.47000000000E+01 0.  1.
         -5    1    4    4    0  502  0.12834884195E+03  0.55788738924E+02  0.88536112302E+01  0.14030782249E+03  0.47000000000E+01 0.  1.
<mgrwt>
<rscale>  0 0.49926779E+03</rscale>
<asrwt>0</asrwt>
<pdfrwt beam="1">  1       21 0.22226934E-01 0.49926779E+03</pdfrwt>
<pdfrwt beam="2">  1       21 0.66359152E-01 0.49926779E+03</pdfrwt>
<totfact> 0.35676242E+04</totfact>
</mgrwt>
</event>
<event>
 8    1  0.9478272E-006  0.3750703E+03  0.7546771E-02  0.1052771E+00
         21   -1    0    0  504  503  0.00000000000E+00  0.00000000000E+00  0.25470305108E+04  0.25470305108E+04  0.00000000000E+00 0.  1.
         21   -1    0    0  503  504 -0.00000000000E+00 -0.00000000000E+00 -0.13808012681E+02  0.13808012681E+02  0.00000000000E+00 0.  1.
         25    2    1    2    0    0  0.10817905998E+03 -0.57775525130E+01  0.66330313142E+03  0.68361717486E+03  0.12500123393E+03 0.  0.
         25    2    1    2    0    0 -0.10817905998E+03  0.57775525130E+01  0.18699193667E+04  0.18772213486E+04  0.12500185847E+03 0.  0.
          5    1    3    3  501    0 -0.52485357046E+01  0.26511650690E+02  0.30808618472E+03  0.30930503062E+03  0.47000000000E+01 0. -1.
         -5    1    3    3    0  501  0.11342759569E+03 -0.32289203203E+02  0.35521694670E+03  0.37431214424E+03  0.47000000000E+01 0. -1.
          5    1    4    4  502    0 -0.10823323128E+03  0.50050284512E+02  0.12394016732E+04  0.12451337522E+04  0.47000000000E+01 0. -1.
         -5    1    4    4    0  502  0.54171292837E-01 -0.44272731999E+02  0.63051769352E+03  0.63208759644E+03  0.47000000000E+01 0. -1.
<mgrwt>
<rscale>  0 0.37507028E+03</rscale>
<asrwt>0</asrwt>
<pdfrwt beam="1">  1       21 0.39185048E+00 0.37507028E+03</pdfrwt>
<pdfrwt beam="2">  1       21 0.21243117E-02 0.37507028E+03</pdfrwt>
<totfact> 0.93012004E+03</totfact>
</mgrwt>
</event>
<event>
 8    1  0.9478272E-006  0.2747824E+03  0.7546771E-02  0.1098573E+00
         21   -1    0    0  504  503  0.00000000000E+00  0.00000000000E+00  0.16336005297E+03  0.16336005297E+03  0.00000000000E+00 0. -1.
         21   -1    0    0  503  504 -0.00000000000E+00 -0.00000000000E+00 -0.11555054611E+03  0.11555054611E+03  0.00000000000E+00 0. -1.
         25    2    1    2    0    0  0.46919968911E+02  0.30258789877E+02  0.35709663586E+02  0.14147939504E+03  0.12499664515E+03 0.  0.
         25    2    1    2    0    0 -0.46919968911E+02 -0.30258789877E+02  0.12099843279E+02  0.13743120404E+03  0.12499540708E+03 0.  0.
          5    1    3    3  501    0  0.13204126372E+02 -0.22999545032E+01  0.77328496512E+02  0.78622039638E+02  0.47000000000E+01 0.  1.
         -5    1    3    3    0  501  0.33715842539E+02  0.32558744381E+02 -0.41618832926E+02  0.62857355400E+02  0.47000000000E+01 0.  1.
          5    1    4    4  502    0  0.16723181885E+02 -0.36867157578E+02  0.48751412454E+02  0.63542445157E+02  0.47000000000E+01 0.  1.
         -5    1    4    4    0  502 -0.63643150796E+02  0.66083677006E+01 -0.36651569176E+02  0.73888758888E+02  0.47000000000E+01 0.  1.
<mgrwt>
<rscale>  0 0.27478241E+03</rscale>
<asrwt>0</asrwt>
<pdfrwt beam="1">  1       21 0.25132316E-01 0.27478241E+03</pdfrwt>
<pdfrwt beam="2">  1       21 0.17777007E-01 0.27478241E+03</pdfrwt>
<totfact> 0.42362899E+05</totfact>
</mgrwt>
</event>
<event>
 8    1  0.9478272E-006  0.2625865E+03  0.7546771E-02  0.1105599E+00
         21   -1    0    0  504  503  0.00000000000E+00  0.00000000000E+00  0.20940635623E+02  0.20940635623E+02  0.00000000000E+00 0.  1.
         21   -1    0    0  503  504 -0.00000000000E+00 -0.00000000000E+00 -0.82318009609E+03  0.82318009609E+03  0.00000000000E+00 0.  1.
         25    2    1    2    0    0  0.29190456576E+01  0.38781904972E+02 -0.36904671299E+03  0.39158091817E+03  0.12501032808E+03 0.  0.
         25    2    1    2    0    0 -0.29190456576E+01 -0.38781904972E+02 -0.43319274747E+03  0.45253981354E+03  0.12499507747E+03 0.  0.
          5    1    3    3  501    0  0.13899898729E+02  0.71195397990E+02 -0.33600655845E+03  0.34377971028E+03  0.47000000000E+01 0.  1.
         -5    1    3    3    0  501 -0.10980853071E+02 -0.32413493018E+02 -0.33040154545E+02  0.47801207894E+02  0.47000000000E+01 0.  1.
          5    1    4    4  502    0 -0.56570378887E+02 -0.35352919606E+02 -0.14972430651E+03  0.16398016542E+03  0.47000000000E+01 0. -1.
         -5    1    4    4    0  502  0.53651333230E+02 -0.34289853662E+01 -0.28346844096E+03  0.28855964811E+03  0.47000000000E+01 0. -1.
<mgrwt>
<rscale>  0 0.26258648E+03</rscale>
<asrwt>0</asrwt>
<pdfrwt beam="1">  1       21 0.32216364E-02 0.26258648E+03</pdfrwt>
<pdfrwt beam="2">  1       21 0.12664309E+00 0.26258648E+03</pdfrwt>
<totfact> 0.25377250E+05</totfact>
</mgrwt>
</event>
<event>
 8    1  0.9478272E-006  0.2528095E+03  0.7546771E-02  0.1111542E+00
         21   -1    0    0  504  503  0.00000000000E+00  0.00000000000E+00  0.60302848641E+02  0.60302848641E+02  0.00000000000E+00 0. -1.
         21   -1    0    0  503  504 -0.00000000000E+00 -0.00000000000E+00 -0.26496529286E+03  0.26496529286E+03  0.00000000000E+00 0. -1.
         25    2    1    2    0    0  0.16399150743E+02  0.55607902773E+00 -0.90492560426E+02  0.15518725385E+03  0.12499975559E+03 0.  0.
         25    2    1    2    0    0 -0.16399150743E+02 -0.55607902773E+00 -0.11416988380E+03  0.17008088765E+03  0.12499401829E+03 0.  0.
          5    1    3    3  501    0  0.56855039662E+01 -0.29200098424E+02  0.22605025016E+02  0.37656976237E+02  0.47000000000E+01 0. -1.
         -5    1    3    3    0  501  0.10713646776E+02  0.29756177452E+02 -0.11309758544E+03  0.11753027762E+03  0.47000000000E+01 0. -1.
          5    1    4    4  502    0 -0.29317720408E+02  0.70648847977E+01  0.19022876441E+02  0.35963886820E+02  0.47000000000E+01 0.  1.
         -5    1    4    4    0  502  0.12918569665E+02 -0.76209638255E+01 -0.13319276024E+03  0.13411700083E+03  0.47000000000E+01 0.  1.
<mgrwt>
<rscale>  0 0.25280951E+03</rscale>
<asrwt>0</asrwt>
<pdfrwt beam="1">  1       21 0.92773612E-02 0.25280951E+03</pdfrwt>
<pdfrwt beam="2">  1       21 0.40763892E-01 0.25280951E+03</pdfrwt>
<totfact> 0.53069636E+05</totfact>
</mgrwt>
</event>
<event>
 8    1  0.9478272E-006  0.2657138E+03  0.7546771E-02  0.1103758E+00
         21   -1    0    0  504  503  0.00000000000E+00  0.00000000000E+00  0.19545819293E+02  0.19545819293E+02  0.00000000000E+00 0. -1.
         21   -1    0    0  503  504 -0.00000000000E+00 -0.00000000000E+00 -0.90305519634E+03  0.90305519634E+03  0.00000000000E+00 0. -1.
         25    2    1    2    0    0  0.19976385548E+02 -0.17996683822E+02 -0.56713064223E+03  0.58136396728E+03  0.12499584192E+03 0.  0.
         25    2    1    2    0    0 -0.19976385548E+02  0.17996683822E+02 -0.31637873482E+03  0.34123704835E+03  0.12499713081E+03 0.  0.
          5    1    3    3  501    0 -0.49564702030E+02 -0.27450929600E+02 -0.22440013140E+03  0.23149022052E+03  0.47000000000E+01 0.  1.
         -5    1    3    3    0  501  0.69541087578E+02  0.94542457786E+01 -0.34273051082E+03  0.34987374676E+03  0.47000000000E+01 0.  1.
          5    1    4    4  502    0 -0.32889145547E+02  0.86907408703E+01 -0.32191527857E+03  0.32374181295E+03  0.47000000000E+01 0. -1.
         -5    1    4    4    0  502  0.12912759999E+02  0.93059429512E+01  0.55365437528E+01  0.17495235401E+02  0.47000000000E+01 0. -1.
<mgrwt>
<rscale>  0 0.26571378E+03</rscale>
<asrwt>0</asrwt>
<pdfrwt beam="1">  1       21 0.30070487E-02 0.26571378E+03</pdfrwt>
<pdfrwt beam="2">  1       21 0.13893159E+00 0.26571378E+03</pdfrwt>
<totfact> 0.22429547E+05</totfact>
</mgrwt>
</event>
<event>
 8    1  0.9478272E-006  0.3358634E+03  0.7546771E-02  0.1068572E+00
         21   -1    0    0  504  503  0.00000000000E+00  0.00000000000E+00  0.95164587821E+03  0.95164587821E+03  0.00000000000E+00 0.  1.
         21   -1    0    0  503  504 -0.00000000000E+00 -0.00000000000E+00 -0.29633985240E+02  0.29633985240E+02  0.00000000000E+00 0.  1.
         25    2    1    2    0    0 -0.16553423157E+02 -0.40381074954E+02  0.15919428696E+03  0.20705846162E+03  0.12500295395E+03 0.  0.
         25    2    1    2    0    0  0.16553423157E+02  0.40381074954E+02  0.76281760601E+03  0.77422140183E+03  0.12499372775E+03 0.  0.
          5    1    3    3  501    0  0.36486844030E+02  0.22484488001E+02  0.88722702953E+02  0.98644057131E+02  0.47000000000E+01 0. -1.
         -5    1    3    3    0  501 -0.53040267187E+02 -0.62865562954E+02  0.70471584006E+02  0.10841440449E+03  0.47000000000E+01 0. -1.
          5    1    4    4  502    0 -0.44576930292E+02  0.50895212111E+02  0.47011760192E+03  0.47498428918E+03  0.47000000000E+01 0. -1.
         -5    1    4    4    0  502  0.61130353449E+02 -0.10514137157E+02  0.29270000409E+03  0.29923711265E+03  0.47000000000E+01 0. -1.
<mgrwt>
<rscale>  0 0.33586342E+03</rscale>
<asrwt>0</asrwt>
<pdfrwt beam="1">  1       21 0.14640703E+00 0.33586342E+03</pdfrwt>
<pdfrwt beam="2">  1       21 0.45590754E-02 0.33586342E+03</pdfrwt>
<totfact> 0.94788028E+04</totfact>
</mgrwt>
</event>
<event>
 8    1  0.9478272E-006  0.3019711E+03  0.7546771E-02  0.1084259E+00
         21   -1    0    0  504  503  0.00000000000E+00  0.00000000000E+00  0.11499636075E+04  0.11499636075E+04  0.00000000000E+00 0. -1.
         21   -1    0    0  503  504 -0.00000000000E+00 -0.00000000000E+00 -0.19823784607E+02  0.19823784607E+02  0.00000000000E+00 0. -1.
         25    2    1    2    0    0  0.55582622770E+02 -0.31365732612E+02  0.78062800768E+03  0.79314457213E+03  0.12499995518E+03 0.  0.
         25    2    1    2    0    0 -0.55582622770E+02  0.31365732612E+02  0.34951181519E+03  0.37664281995E+03  0.12501227030E+03 0.  0.
          5    1    3    3  501    0 -0.18020378694E+01  0.32058422861E+02  0.46401516487E+03  0.46514852794E+03  0.47000000000E+01 0.  1.
         -5    1    3    3    0  501  0.57384660640E+02 -0.63424155473E+02  0.31661284281E+03  0.32799604420E+03  0.47000000000E+01 0.  1.
          5    1    4    4  502    0 -0.56607705735E+02  0.32636043907E+02  0.65674561501E+02  0.92761962780E+02  0.47000000000E+01 0. -1.
         -5    1    4    4    0  502  0.10250829649E+01 -0.12703112945E+01  0.28383725368E+03  0.28388085717E+03  0.47000000000E+01 0. -1.
<mgrwt>
<rscale>  0 0.30197106E+03</rscale>
<asrwt>0</asrwt>
<pdfrwt beam="1">  1       21 0.17691743E+00 0.30197106E+03</pdfrwt>
<pdfrwt beam="2">  1       21 0.30498139E-02 0.30197106E+03</pdfrwt>
<totfact> 0.11217531E+05</totfact>
</mgrwt>
</event>
<event>
 8    1  0.9478272E-006  0.5202409E+03  0.7546771E-02  0.1008627E+00
         21   -1    0    0  504  503  0.00000000000E+00  0.00000000000E+00  0.16602158996E+03  0.16602158996E+03  0.00000000000E+00 0.  1.
         21   -1    0    0  503  504 -0.00000000000E+00 -0.00000000000E+00 -0.40755324538E+03  0.40755324538E+03  0.00000000000E+00 0.  1.
         25    2    1    2    0    0 -0.34868141720E+02  0.19599602493E+03 -0.24358180961E+03  0.33850679316E+03  0.12499808776E+03 0.  0.
         25    2    1    2    0    0  0.34868141720E+02 -0.19599602493E+03  0.20501541819E+01  0.23506804218E+03  0.12499020852E+03 0.  0.
          5    1    3    3  501    0 -0.23229052328E+02  0.18630893669E+03 -0.14136501436E+03  0.23506757761E+03  0.47000000000E+01 0. -1.
         -5    1    3    3    0  501 -0.11639089392E+02  0.96870882482E+01 -0.10221679525E+03  0.10343921554E+03  0.47000000000E+01 0. -1.
          5    1    4    4  502    0  0.75208886031E+02 -0.17065270166E+03  0.86106922396E+01  0.18674837387E+03  0.47000000000E+01 0.  1.
         -5    1    4    4    0  502 -0.40340744311E+02 -0.25343323276E+02 -0.65605380576E+01  0.48319668313E+02  0.47000000000E+01 0.  1.
<mgrwt>
<rscale>  0 0.52024086E+03</rscale>
<asrwt>0</asrwt>
<pdfrwt beam="1">  1       21 0.25541783E-01 0.52024086E+03</pdfrwt>
<pdfrwt beam="2">  1       21 0.62700499E-01 0.52024086E+03</pdfrwt>
<totfact> 0.30768177E+04</totfact>
</mgrwt>
</event>
<event>
 8    1  0.9478272E-006  0.3438916E+03  0.7546771E-02  0.1065150E+00
         21   -1    0    0  504  503  0.00000000000E+00  0.00000000000E+00  0.10582010925E+04  0.10582010925E+04  0.00000000000E+00 0. -1.
         21   -1    0    0  503  504 -0.00000000000E+00 -0.00000000000E+00 -0.27939268272E+02  0.27939268272E+02  0.00000000000E+00 0. -1.
         25    2    1    2    0    0 -0.55293482168E+02  0.81978125679E+02  0.71890316523E+03  0.73635868062E+03  0.12499825309E+03 0.  0.
         25    2    1    2    0    0  0.55293482168E+02 -0.81978125679E+02  0.31135865897E+03  0.34978168013E+03  0.12500090792E+03 0.  0.
          5    1    3    3  501    0  0.34683346663E+02  0.53737828279E+02  0.32830332890E+03  0.33450837731E+03  0.47000000000E+01 0.  1.
         -5    1    3    3    0  501 -0.89976828831E+02  0.28240297400E+02  0.39059983634E+03  0.40185030331E+03  0.47000000000E+01 0.  1.
          5    1    4    4  502    0  0.81467001398E+02 -0.44128002626E+02  0.11350959353E+03  0.14659696708E+03  0.47000000000E+01 0. -1.
         -5    1    4    4    0  502 -0.26173519230E+02 -0.37850123053E+02  0.19784906544E+03  0.20318471306E+03  0.47000000000E+01 0. -1.
<mgrwt>
<rscale>  0 0.34389164E+03</rscale>
<asrwt>0</asrwt>
<pdfrwt beam="1">  1       21 0.16280014E+00 0.34389164E+03</pdfrwt>
<pdfrwt beam="2">  1       21 0.42983498E-02 0.34389164E+03</pdfrwt>
<totfact> 0.78332799E+04</totfact>
</mgrwt>
</event>
<event>
 8    1  0.9478272E-006  0.3295000E+03  0.7546771E-02  0.1071358E+00
         21   -1    0    0  504  503  0.00000000000E+00  0.00000000000E+00  0.57808949993E+02  0.57808949993E+02  0.00000000000E+00 0.  1.
         21   -1    0    0  503  504 -0.00000000000E+00 -0.00000000000E+00 -0.46952180835E+03  0.46952180835E+03  0.00000000000E+00 0.  1.
         25    2    1    2    0    0  0.10324115845E+03  0.10730185741E+02 -0.24949916287E+03  0.29773944329E+03  0.12500028054E+03 0.  0.
         25    2    1    2    0    0 -0.10324115845E+03 -0.10730185741E+02 -0.16221369549E+03  0.22959131506E+03  0.12500006104E+03 0.  0.
          5    1    3    3  501    0  0.75079773837E+02  0.46642991515E+02 -0.71094380246E+02  0.11352991676E+03  0.47000000000E+01 0. -1.
         -5    1    3    3    0  501  0.28161384614E+02 -0.35912805774E+02 -0.17840478262E+03  0.18420952653E+03  0.47000000000E+01 0. -1.
          5    1    4    4  502    0 -0.55797232447E+02 -0.31681656287E+02 -0.16534484572E+03  0.17742059210E+03  0.47000000000E+01 0.  1.
         -5    1    4    4    0  502 -0.47443926003E+02  0.20951470545E+02  0.31311502251E+01  0.52170722962E+02  0.47000000000E+01 0.  1.
<mgrwt>
<rscale>  0 0.32950000E+03</rscale>
<asrwt>0</asrwt>
<pdfrwt beam="1">  1       21 0.88936845E-02 0.32950000E+03</pdfrwt>
<pdfrwt beam="2">  1       21 0.72234125E-01 0.32950000E+03</pdfrwt>
<totfact> 0.16582056E+05</totfact>
</mgrwt>
</event>
<event>
 8    1  0.9478272E-006  0.2807386E+03  0.7546771E-02  0.1095286E+00
         21   -1    0    0  504  503  0.00000000000E+00  0.00000000000E+00  0.11007382294E+04  0.11007382294E+04  0.00000000000E+00 0. -1.
         21   -1    0    0  503  504 -0.00000000000E+00 -0.00000000000E+00 -0.17900290283E+02  0.17900290283E+02  0.00000000000E+00 0. -1.
         25    2    1    2    0    0 -0.24926934501E+02  0.38599001258E+02  0.71813616516E+03  0.73038086700E+03  0.12500169681E+03 0.  0.
         25    2    1    2    0    0  0.24926934501E+02 -0.38599001258E+02  0.36470177393E+03  0.38825765265E+03  0.12500154390E+03 0.  0.
          5    1    3    3  501    0 -0.48882138779E+02 -0.31454112660E+01  0.11218028317E+03  0.12249842055E+03  0.47000000000E+01 0. -1.
         -5    1    3    3    0  501  0.23955204278E+02  0.41744412524E+02  0.60595588199E+03  0.60788244645E+03  0.47000000000E+01 0. -1.
          5    1    4    4  502    0  0.39450714356E+01  0.27188278251E+02  0.26741330938E+03  0.26886192385E+03  0.47000000000E+01 0. -1.
         -5    1    4    4    0  502  0.20981863065E+02 -0.65787279508E+02  0.97288464545E+02  0.11939572880E+03  0.47000000000E+01 0. -1.
<mgrwt>
<rscale>  0 0.28073855E+03</rscale>
<asrwt>0</asrwt>
<pdfrwt beam="1">  1       21 0.16934429E+00 0.28073855E+03</pdfrwt>
<pdfrwt beam="2">  1       21 0.27538917E-02 0.28073855E+03</pdfrwt>
<totfact> 0.15156505E+05</totfact>
</mgrwt>
</event>
<event>
 8    1  0.9478272E-006  0.3620900E+03  0.7546771E-02  0.1057759E+00
         21   -1    0    0  504  503  0.00000000000E+00  0.00000000000E+00  0.16252058060E+03  0.16252058060E+03  0.00000000000E+00 0. -1.
         21   -1    0    0  503  504 -0.00000000000E+00 -0.00000000000E+00 -0.20168083050E+03  0.20168083050E+03  0.00000000000E+00 0. -1.
         25    2    1    2    0    0  0.84017880257E+02 -0.95893981880E+02  0.10497164584E+02  0.17888006668E+03  0.12503290697E+03 0.  0.
         25    2    1    2    0    0 -0.84017880257E+02  0.95893981880E+02 -0.49657414478E+02  0.18532134443E+03  0.12499392755E+03 0.  0.
          5    1    3    3  501    0  0.29028425664E+02 -0.58326497553E+01  0.56273334426E+02  0.63760861562E+02  0.47000000000E+01 0. -1.
         -5    1    3    3    0  501  0.54989454593E+02 -0.90061332125E+02 -0.45776169842E+02  0.11511920511E+03  0.47000000000E+01 0. -1.
          5    1    4    4  502    0 -0.58865340665E+02  0.12064426761E+03 -0.14189146026E+02  0.13506883246E+03  0.47000000000E+01 0. -1.
         -5    1    4    4    0  502 -0.25152539592E+02 -0.24750285728E+02 -0.35468268452E+02  0.50252511963E+02  0.47000000000E+01 0. -1.
<mgrwt>
<rscale>  0 0.36208996E+03</rscale>
<asrwt>0</asrwt>
<pdfrwt beam="1">  1       21 0.25003166E-01 0.36208996E+03</pdfrwt>
<pdfrwt beam="2">  1       21 0.31027820E-01 0.36208996E+03</pdfrwt>
<totfact> 0.14430892E+05</totfact>
</mgrwt>
</event>
<event>
 8    1  0.9478272E-006  0.3497141E+03  0.7546771E-02  0.1062732E+00
         21   -1    0    0  504  503  0.00000000000E+00  0.00000000000E+00  0.13429229610E+04  0.13429229610E+04  0.00000000000E+00 0.  1.
         21   -1    0    0  503  504 -0.00000000000E+00 -0.00000000000E+00 -0.22767492838E+02  0.22767492838E+02  0.00000000000E+00 0.  1.
         25    2    1    2    0    0  0.33277830975E+02  0.11472804256E+03  0.55812223401E+03  0.58428867093E+03  0.12499154011E+03 0.  0.
         25    2    1    2    0    0 -0.33277830975E+02 -0.11472804256E+03  0.76203323416E+03  0.78140178292E+03  0.12499663433E+03 0.  0.
          5    1    3    3  501    0  0.58722422754E+02  0.11857048512E+03  0.52821602192E+03  0.54455627688E+03  0.47000000000E+01 0.  1.
         -5    1    3    3    0  501 -0.25444591779E+02 -0.38424425573E+01  0.29906212088E+02  0.39732394052E+02  0.47000000000E+01 0.  1.
          5    1    4    4  502    0  0.83802668012E+01  0.13633916587E+02  0.15550708407E+02  0.22804102375E+02  0.47000000000E+01 0. -1.
         -5    1    4    4    0  502 -0.41658097776E+02 -0.12836195915E+03  0.74648252576E+03  0.75859768054E+03  0.47000000000E+01 0. -1.
<mgrwt>
<rscale>  0 0.34971411E+03</rscale>
<asrwt>0</asrwt>
<pdfrwt beam="1">  1       21 0.20660347E+00 0.34971411E+03</pdfrwt>
<pdfrwt beam="2">  1       21 0.35026923E-02 0.34971411E+03</pdfrwt>
<totfact> 0.55150965E+04</totfact>
</mgrwt>
</event>
<event>
 8    1  0.9478272E-006  0.3185728E+03  0.7546771E-02  0.1076308E+00
         21   -1    0    0  504  503  0.00000000000E+00  0.00000000000E+00  0.37330262441E+02  0.37330262441E+02  0.00000000000E+00 0.  1.
         21   -1    0    0  503  504 -0.00000000000E+00 -0.00000000000E+00 -0.67966734688E+03  0.67966734688E+03  0.00000000000E+00 0.  1.
         25    2    1    2    0    0 -0.53144539872E+02  0.32584349255E+02 -0.49345684723E+03  0.51284483223E+03  0.12499631969E+03 0.  0.
         25    2    1    2    0    0  0.53144539872E+02 -0.32584349255E+02 -0.14888023722E+03  0.20415277710E+03  0.12500779747E+03 0.  0.
          5    1    3    3  501    0 -0.73463110876E+02  0.27304112947E+01 -0.45070468604E+03  0.45668488899E+03  0.47000000000E+01 0.  1.
         -5    1    3    3    0  501  0.20318571004E+02  0.29853937960E+02 -0.42752161182E+02  0.56159943243E+02  0.47000000000E+01 0.  1.
          5    1    4    4  502    0 -0.38585351219E+02  0.36915174950E+01 -0.58178025566E+02  0.70065892479E+02  0.47000000000E+01 0. -1.
         -5    1    4    4    0  502  0.91729891091E+02 -0.36275866750E+02 -0.90702211649E+02  0.13408688462E+03  0.47000000000E+01 0. -1.
<mgrwt>
<rscale>  0 0.31857282E+03</rscale>
<asrwt>0</asrwt>
<pdfrwt beam="1">  1       21 0.57431184E-02 0.31857282E+03</pdfrwt>
<pdfrwt beam="2">  1       21 0.10456419E+00 0.31857282E+03</pdfrwt>
<totfact> 0.15065649E+05</totfact>
</mgrwt>
</event>
<event>
 8    1  0.9478272E-006  0.5346364E+03  0.7546771E-02  0.1005114E+00
         21   -1    0    0  504  503  0.00000000000E+00  0.00000000000E+00  0.72342711963E+03  0.72342711963E+03  0.00000000000E+00 0. -1.
         21   -1    0    0  503  504 -0.00000000000E+00 -0.00000000000E+00 -0.98778471757E+02  0.98778471757E+02  0.00000000000E+00 0. -1.
         25    2    1    2    0    0  0.87889973872E+02 -0.54389104141E+02 -0.14476882364E+02  0.16281805754E+03  0.12496926655E+03 0.  0.
         25    2    1    2    0    0 -0.87889973872E+02  0.54389104141E+02  0.63912553023E+03  0.65938753384E+03  0.12501061649E+03 0.  0.
          5    1    3    3  501    0 -0.14233487112E+02 -0.64948101947E+01  0.35711372927E+02  0.39270432531E+02  0.47000000000E+01 0. -1.
         -5    1    3    3    0  501  0.10212346098E+03 -0.47894293946E+02 -0.50188255292E+02  0.12354762501E+03  0.47000000000E+01 0. -1.
          5    1    4    4  502    0  0.25531990000E+02 -0.13644977707E+02  0.96676674079E+02  0.10102740836E+03  0.47000000000E+01 0.  1.
         -5    1    4    4    0  502 -0.11342196387E+03  0.68034081848E+02  0.54244885615E+03  0.55836012548E+03  0.47000000000E+01 0.  1.
<mgrwt>
<rscale>  0 0.53463642E+03</rscale>
<asrwt>0</asrwt>
<pdfrwt beam="1">  1       21 0.11129648E+00 0.53463642E+03</pdfrwt>
<pdfrwt beam="2">  1       21 0.15196688E-01 0.53463642E+03</pdfrwt>
<totfact> 0.21476642E+04</totfact>
</mgrwt>
</event>
<event>
 8    1  0.9478272E-006  0.3488672E+03  0.7546771E-02  0.1063081E+00
         21   -1    0    0  504  503  0.00000000000E+00  0.00000000000E+00  0.24321177061E+03  0.24321177061E+03  0.00000000000E+00 0. -1.
         21   -1    0    0  503  504 -0.00000000000E+00 -0.00000000000E+00 -0.12510526370E+03  0.12510526370E+03  0.00000000000E+00 0. -1.
         25    2    1    2    0    0 -0.51444217495E+02 -0.48586950222E+02 -0.45444462372E+02  0.15064394100E+03  0.12498479330E+03 0.  0.
         25    2    1    2    0    0  0.51444217495E+02  0.48586950222E+02  0.16355096928E+03  0.21767309330E+03  0.12500182700E+03 0.  0.
          5    1    3    3  501    0  0.10648613990E+02 -0.72011183854E+02 -0.57510190428E+01  0.73172179140E+02  0.47000000000E+01 0. -1.
         -5    1    3    3    0  501 -0.62092831485E+02  0.23424233632E+02 -0.39693443330E+02  0.77471761865E+02  0.47000000000E+01 0. -1.
          5    1    4    4  502    0  0.88175408441E+02  0.57672386151E+02  0.12252338591E+03  0.16166346796E+03  0.47000000000E+01 0. -1.
         -5    1    4    4    0  502 -0.36731190947E+02 -0.90854359284E+01  0.41027583369E+02  0.56009625347E+02  0.47000000000E+01 0. -1.
<mgrwt>
<rscale>  0 0.34886715E+03</rscale>
<asrwt>0</asrwt>
<pdfrwt beam="1">  1       21 0.37417195E-01 0.34886715E+03</pdfrwt>
<pdfrwt beam="2">  1       21 0.19246964E-01 0.34886715E+03</pdfrwt>
<totfact> 0.16384617E+05</totfact>
</mgrwt>
</event>
<event>
 8    1  0.9478272E-006  0.4650138E+03  0.7546771E-02  0.1023337E+00
         21   -1    0    0  504  503  0.00000000000E+00  0.00000000000E+00  0.34778899616E+03  0.34778899616E+03  0.00000000000E+00 0. -1.
         21   -1    0    0  503  504 -0.00000000000E+00 -0.00000000000E+00 -0.15543750284E+03  0.15543750284E+03  0.00000000000E+00 0. -1.
         25    2    1    2    0    0  0.12785791598E+03 -0.13044754410E+03  0.17324314058E+03  0.28107288313E+03  0.12499828572E+03 0.  0.
         25    2    1    2    0    0 -0.12785791598E+03  0.13044754410E+03  0.19108352737E+02  0.22215361587E+03  0.12499156555E+03 0.  0.
          5    1    3    3  501    0  0.56334199820E+02 -0.13440202570E+03  0.13934714431E+03  0.20168580319E+03  0.47000000000E+01 0. -1.
         -5    1    3    3    0  501  0.71523716160E+02  0.39544815972E+01  0.33895996268E+02  0.79387079938E+02  0.47000000000E+01 0. -1.
          5    1    4    4  502    0 -0.32394521878E+02  0.23858197194E+02 -0.49031443303E+02  0.63598671790E+02  0.47000000000E+01 0. -1.
         -5    1    4    4    0  502 -0.95463394102E+02  0.10658934691E+03  0.68139796040E+02  0.15855494408E+03  0.47000000000E+01 0. -1.
<mgrwt>
<rscale>  0 0.46501378E+03</rscale>
<asrwt>0</asrwt>
<pdfrwt beam="1">  1       21 0.53505999E-01 0.46501378E+03</pdfrwt>
<pdfrwt beam="2">  1       21 0.23913462E-01 0.46501378E+03</pdfrwt>
<totfact> 0.50018573E+04</totfact>
</mgrwt>
</event>
<event>
 8    1  0.9478272E-006  0.3092976E+03  0.7546771E-02  0.1080683E+00
         21   -1    0    0  504  503  0.00000000000E+00  0.00000000000E+00  0.16108647980E+02  0.16108647980E+02  0.00000000000E+00 0.  1.
         21   -1    0    0  503  504 -0.00000000000E+00 -0.00000000000E+00 -0.14846840801E+04  0.14846840801E+04  0.00000000000E+00 0.  1.
         25    2    1    2    0    0 -0.34953893180E+02  0.82542466253E+02 -0.81159610496E+03  0.82604446422E+03  0.12500474355E+03 0.  0.
         25    2    1    2    0    0  0.34953893180E+02 -0.82542466253E+02 -0.65697932716E+03  0.67474826385E+03  0.12501339878E+03 0.  0.
          5    1    3    3  501    0 -0.33336310019E+02 -0.10096801631E+02 -0.66703876738E+02  0.75397295314E+02  0.47000000000E+01 0.  1.
         -5    1    3    3    0  501 -0.16175831607E+01  0.92639267884E+02 -0.74489222822E+03  0.75064716891E+03  0.47000000000E+01 0.  1.
          5    1    4    4  502    0  0.74130167421E+02 -0.16141586658E+02 -0.35506919024E+03  0.36311437922E+03  0.47000000000E+01 0. -1.
         -5    1    4    4    0  502 -0.39176274241E+02 -0.66400879595E+02 -0.30191013692E+03  0.31163388463E+03  0.47000000000E+01 0. -1.
<mgrwt>
<rscale>  0 0.30929761E+03</rscale>
<asrwt>0</asrwt>
<pdfrwt beam="1">  1       21 0.24782525E-02 0.30929761E+03</pdfrwt>
<pdfrwt beam="2">  1       21 0.22841303E+00 0.30929761E+03</pdfrwt>
<totfact> 0.72727054E+04</totfact>
</mgrwt>
</event>
<event>
 8    1  0.9478272E-006  0.3224209E+03  0.7546771E-02  0.1074540E+00
         21   -1    0    0  504  503  0.00000000000E+00  0.00000000000E+00  0.41569689943E+03  0.41569689943E+03  0.00000000000E+00 0. -1.
         21   -1    0    0  503  504 -0.00000000000E+00 -0.00000000000E+00 -0.62518668103E+02  0.62518668103E+02  0.00000000000E+00 0. -1.
         25    2    1    2    0    0 -0.21018802211E+02  0.96518996907E+02  0.21305009003E+03  0.26602929765E+03  0.12499415800E+03 0.  0.
         25    2    1    2    0    0  0.21018802211E+02 -0.96518996907E+02  0.14012814129E+03  0.21218626988E+03  0.12501764009E+03 0.  0.
          5    1    3    3  501    0  0.28019423571E+02  0.97216373610E+02  0.98265705370E+02  0.14111821373E+03  0.47000000000E+01 0.  1.
         -5    1    3    3    0  501 -0.49038225782E+02 -0.69737670296E+00  0.11478438466E+03  0.12491108392E+03  0.47000000000E+01 0.  1.
          5    1    4    4  502    0  0.47033581770E+02  0.32844447420E+01  0.79235631085E+02  0.92321831788E+02  0.47000000000E+01 0.  1.
         -5    1    4    4    0  502 -0.26014779559E+02 -0.99803441649E+02  0.60892510206E+02  0.11986443809E+03  0.47000000000E+01 0.  1.
<mgrwt>
<rscale>  0 0.32242095E+03</rscale>
<asrwt>0</asrwt>
<pdfrwt beam="1">  1       21 0.63953367E-01 0.32242095E+03</pdfrwt>
<pdfrwt beam="2">  1       21 0.96182569E-02 0.32242095E+03</pdfrwt>
<totfact> 0.18940674E+05</totfact>
</mgrwt>
</event>
<event>
 8    1  0.9478272E-006  0.4274890E+03  0.7546771E-02  0.1034656E+00
         21   -1    0    0  504  503  0.00000000000E+00  0.00000000000E+00  0.13819309390E+04  0.13819309390E+04  0.00000000000E+00 0.  1.
         21   -1    0    0  503  504 -0.00000000000E+00 -0.00000000000E+00 -0.33060049521E+02  0.33060049521E+02  0.00000000000E+00 0.  1.
         25    2    1    2    0    0  0.12691357722E+03  0.42612367564E+02  0.30973014068E+03  0.35983432124E+03  0.12500043500E+03 0.  0.
         25    2    1    2    0    0 -0.12691357722E+03 -0.42612367564E+02  0.10391407488E+04  0.10551566672E+04  0.12497690478E+03 0.  0.
          5    1    3    3  501    0  0.13817969033E+02 -0.17649188940E+02  0.16452368474E+03  0.16611009295E+03  0.47000000000E+01 0. -1.
         -5    1    3    3    0  501  0.11309560818E+03  0.60261556505E+02  0.14520645593E+03  0.19372422829E+03  0.47000000000E+01 0. -1.
          5    1    4    4  502    0 -0.14694170585E+03 -0.54684190653E+02  0.83293749082E+03  0.84757842070E+03  0.47000000000E+01 0.  1.
         -5    1    4    4    0  502  0.20028128635E+02  0.12071823089E+02  0.20620325795E+03  0.20757824654E+03  0.47000000000E+01 0.  1.
<mgrwt>
<rscale>  0 0.42748897E+03</rscale>
<asrwt>0</asrwt>
<pdfrwt beam="1">  1       21 0.21260472E+00 0.42748897E+03</pdfrwt>
<pdfrwt beam="2">  1       21 0.50861625E-02 0.42748897E+03</pdfrwt>
<totfact> 0.25959217E+04</totfact>
</mgrwt>
</event>
<event>
 8    1  0.9478272E-006  0.2915274E+03  0.7546771E-02  0.1089554E+00
         21   -1    0    0  504  503  0.00000000000E+00  0.00000000000E+00  0.18954979938E+03  0.18954979938E+03  0.00000000000E+00 0.  1.
         21   -1    0    0  503  504 -0.00000000000E+00 -0.00000000000E+00 -0.11209220744E+03  0.11209220744E+03  0.00000000000E+00 0.  1.
         25    2    1    2    0    0 -0.40923657444E+02 -0.33347406395E+02  0.93803284029E+02  0.16497244105E+03  0.12502021820E+03 0.  0.
         25    2    1    2    0    0  0.40923657444E+02  0.33347406395E+02 -0.16345692095E+02  0.13666956577E+03  0.12499837322E+03 0.  0.
          5    1    3    3  501    0  0.16166692577E+02  0.20839775770E+02 -0.14920095481E+02  0.30665248282E+02  0.47000000000E+01 0. -1.
         -5    1    3    3    0  501 -0.57090350021E+02 -0.54187182165E+02  0.10872337951E+03  0.13430719277E+03  0.47000000000E+01 0. -1.
          5    1    4    4  502    0 -0.34341684841E+02 -0.21685793068E+02 -0.14216974896E+02  0.43287842565E+02  0.47000000000E+01 0.  1.
         -5    1    4    4    0  502  0.75265342285E+02  0.55033199464E+02 -0.21287171996E+01  0.93381723209E+02  0.47000000000E+01 0.  1.
<mgrwt>
<rscale>  0 0.29152739E+03</rscale>
<asrwt>0</asrwt>
<pdfrwt beam="1">  1       21 0.29161508E-01 0.29152739E+03</pdfrwt>
<pdfrwt beam="2">  1       21 0.17244955E-01 0.29152739E+03</pdfrwt>
<totfact> 0.33472258E+05</totfact>
</mgrwt>
</event>
<event>
 8    1  0.9478272E-006  0.4197294E+03  0.7546771E-02  0.1037154E+00
         21   -1    0    0  504  503  0.00000000000E+00  0.00000000000E+00  0.30045987544E+03  0.30045987544E+03  0.00000000000E+00 0.  1.
         21   -1    0    0  503  504 -0.00000000000E+00 -0.00000000000E+00 -0.14658592368E+03  0.14658592368E+03  0.00000000000E+00 0.  1.
         25    2    1    2    0    0  0.66168861348E+02  0.78209357148E+02  0.21953297905E+03  0.27259979936E+03  0.12498359876E+03 0.  0.
         25    2    1    2    0    0 -0.66168861348E+02 -0.78209357148E+02 -0.65659027298E+02  0.17444599976E+03  0.12500110883E+03 0.  0.
          5    1    3    3  501    0  0.44435571060E+02  0.21287985535E+02  0.20348415297E+03  0.20941726006E+03  0.47000000000E+01 0. -1.
         -5    1    3    3    0  501  0.21733290288E+02  0.56921371613E+02  0.16048826088E+02  0.63182539296E+02  0.47000000000E+01 0. -1.
          5    1    4    4  502    0  0.11017777172E+02  0.21758656436E+02 -0.37469466667E+02  0.44954215330E+02  0.47000000000E+01 0. -1.
         -5    1    4    4    0  502 -0.77186638520E+02 -0.99968013584E+02 -0.28189560631E+02  0.12949178443E+03  0.47000000000E+01 0. -1.
<mgrwt>
<rscale>  0 0.41972938E+03</rscale>
<asrwt>0</asrwt>
<pdfrwt beam="1">  1       21 0.46224596E-01 0.41972938E+03</pdfrwt>
<pdfrwt beam="2">  1       21 0.22551681E-01 0.41972938E+03</pdfrwt>
<totfact> 0.77164714E+04</totfact>
</mgrwt>
</event>
<event>
 8    1  0.9478272E-006  0.2653717E+03  0.7546771E-02  0.1103958E+00
         21   -1    0    0  504  503  0.00000000000E+00  0.00000000000E+00  0.11200079674E+03  0.11200079674E+03  0.00000000000E+00 0. -1.
         21   -1    0    0  503  504 -0.00000000000E+00 -0.00000000000E+00 -0.15719117753E+03  0.15719117753E+03  0.00000000000E+00 0. -1.
         25    2    1    2    0    0 -0.35895170603E+01  0.41253912544E+02 -0.60602569140E+01  0.13182629618E+03  0.12500670269E+03 0.  0.
         25    2    1    2    0    0  0.35895170603E+01 -0.41253912544E+02 -0.39130123879E+02  0.13736567810E+03  0.12499357180E+03 0.  0.
          5    1    3    3  501    0 -0.58725101171E+02  0.13532130760E+01 -0.19934548896E+02  0.62208881463E+02  0.47000000000E+01 0.  1.
         -5    1    3    3    0  501  0.55135584111E+02  0.39900699468E+02  0.13874291982E+02  0.69617414713E+02  0.47000000000E+01 0.  1.
          5    1    4    4  502    0 -0.50204535958E+02 -0.26607053666E+02 -0.54989841457E+02  0.79211131787E+02  0.47000000000E+01 0.  1.
         -5    1    4    4    0  502  0.53794053018E+02 -0.14646858878E+02  0.15859717578E+02  0.58154546313E+02  0.47000000000E+01 0.  1.
<mgrwt>
<rscale>  0 0.26537172E+03</rscale>
<asrwt>0</asrwt>
<pdfrwt beam="1">  1       21 0.17230892E-01 0.26537172E+03</pdfrwt>
<pdfrwt beam="2">  1       21 0.24183258E-01 0.26537172E+03</pdfrwt>
<totfact> 0.48418597E+05</totfact>
</mgrwt>
</event>
<event>
 8    1  0.9478272E-006  0.4730921E+03  0.7546771E-02  0.1021051E+00
         21   -1    0    0  504  503  0.00000000000E+00  0.00000000000E+00  0.25472675005E+03  0.25472675005E+03  0.00000000000E+00 0. -1.
         21   -1    0    0  503  504 -0.00000000000E+00 -0.00000000000E+00 -0.21966300321E+03  0.21966300321E+03  0.00000000000E+00 0. -1.
         25    2    1    2    0    0 -0.13541423876E+03 -0.15739061019E+02 -0.13034700374E+03  0.22625632482E+03  0.12496739189E+03 0.  0.
         25    2    1    2    0    0  0.13541423876E+03  0.15739061019E+02  0.16541075058E+03  0.24813342844E+03  0.12499899121E+03 0.  0.
          5    1    3    3  501    0  0.47543655513E+01 -0.40708901550E+02 -0.40648136757E+02  0.57915280186E+02  0.47000000000E+01 0. -1.
         -5    1    3    3    0  501 -0.14016860431E+03  0.24969840531E+02 -0.89698866986E+02  0.16834104463E+03  0.47000000000E+01 0. -1.
          5    1    4    4  502    0  0.28694773005E+02 -0.51118849887E+02  0.56967857587E+02  0.81877674672E+02  0.47000000000E+01 0.  1.
         -5    1    4    4    0  502  0.10671946575E+03  0.66857910906E+02  0.10844289300E+03  0.16625575377E+03  0.47000000000E+01 0.  1.
<mgrwt>
<rscale>  0 0.47309214E+03</rscale>
<asrwt>0</asrwt>
<pdfrwt beam="1">  1       21 0.39188731E-01 0.47309214E+03</pdfrwt>
<pdfrwt beam="2">  1       21 0.33794308E-01 0.47309214E+03</pdfrwt>
<totfact> 0.48514985E+04</totfact>
</mgrwt>
</event>
<event>
 8    1  0.9478272E-006  0.3959380E+03  0.7546771E-02  0.1045195E+00
         21   -1    0    0  504  503  0.00000000000E+00  0.00000000000E+00  0.53066429535E+03  0.53066429535E+03  0.00000000000E+00 0. -1.
         21   -1    0    0  503  504 -0.00000000000E+00 -0.00000000000E+00 -0.73854087976E+02  0.73854087976E+02  0.00000000000E+00 0. -1.
         25    2    1    2    0    0  0.60082512371E+00 -0.15338694080E+03  0.21888553650E+03  0.29506575915E+03  0.12500003813E+03 0.  0.
         25    2    1    2    0    0 -0.60082512371E+00  0.15338694080E+03  0.23792467087E+03  0.30945262418E+03  0.12499945201E+03 0.  0.
          5    1    3    3  501    0  0.85420723090E+01 -0.16250223542E+03  0.22731508198E+03  0.27959645923E+03  0.47000000000E+01 0.  1.
         -5    1    3    3    0  501 -0.79412471853E+01  0.91152946240E+01 -0.84295454812E+01  0.15469299918E+02  0.47000000000E+01 0.  1.
          5    1    4    4  502    0 -0.59270043823E+02  0.53028200357E+02  0.76332214522E+02  0.11033415202E+03  0.47000000000E+01 0.  1.
         -5    1    4    4    0  502  0.58669218699E+02  0.10035874044E+03  0.16159245635E+03  0.19911847216E+03  0.47000000000E+01 0.  1.
<mgrwt>
<rscale>  0 0.39593801E+03</rscale>
<asrwt>0</asrwt>
<pdfrwt beam="1">  1       21 0.81640658E-01 0.39593801E+03</pdfrwt>
<pdfrwt beam="2">  1       21 0.11362168E-01 0.39593801E+03</pdfrwt>
<totfact> 0.79658390E+04</totfact>
</mgrwt>
</event>
<event>
 8    1  0.9478272E-006  0.3602875E+03  0.7546771E-02  0.1058470E+00
         21   -1    0    0  504  503  0.00000000000E+00  0.00000000000E+00  0.32708464558E+02  0.32708464558E+02  0.00000000000E+00 0. -1.
         21   -1    0    0  503  504 -0.00000000000E+00 -0.00000000000E+00 -0.99215180761E+03  0.99215180761E+03  0.00000000000E+00 0. -1.
         25    2    1    2    0    0 -0.45810024770E+02  0.46084438935E+02 -0.79907459291E+03  0.81139896470E+03  0.12500296393E+03 0.  0.
         25    2    1    2    0    0  0.45810024770E+02 -0.46084438935E+02 -0.16036875014E+03  0.21346130747E+03  0.12500103953E+03 0.  0.
          5    1    3    3  501    0  0.23500869170E+02  0.63830836127E+02 -0.34137960640E+03  0.34812180650E+03  0.47000000000E+01 0.  1.
         -5    1    3    3    0  501 -0.69310893940E+02 -0.17746397193E+02 -0.45769498651E+03  0.46327715820E+03  0.47000000000E+01 0.  1.
          5    1    4    4  502    0  0.36393359907E+01 -0.26398854115E+02  0.15700336416E+02  0.31284737950E+02  0.47000000000E+01 0. -1.
         -5    1    4    4    0  502  0.42170688779E+02 -0.19685584820E+02 -0.17606908656E+03  0.18217656952E+03  0.47000000000E+01 0. -1.
<mgrwt>
<rscale>  0 0.36028745E+03</rscale>
<asrwt>0</asrwt>
<pdfrwt beam="1">  1       21 0.50320719E-02 0.36028745E+03</pdfrwt>
<pdfrwt beam="2">  1       21 0.15263873E+00 0.36028745E+03</pdfrwt>
<totfact> 0.71040056E+04</totfact>
</mgrwt>
</event>
<event>
 8    1  0.9478272E-006  0.3356996E+03  0.7546771E-02  0.1068642E+00
         21   -1    0    0  504  503  0.00000000000E+00  0.00000000000E+00  0.55174155575E+03  0.55174155575E+03  0.00000000000E+00 0.  1.
         21   -1    0    0  503  504 -0.00000000000E+00 -0.00000000000E+00 -0.51062971270E+02  0.51062971270E+02  0.00000000000E+00 0.  1.
         25    2    1    2    0    0 -0.10775825479E+03 -0.24937914749E+01  0.19554003672E+03  0.25588736584E+03  0.12499751023E+03 0.  0.
         25    2    1    2    0    0  0.10775825479E+03  0.24937914749E+01  0.30513854776E+03  0.34691716118E+03  0.12499569162E+03 0.  0.
          5    1    3    3  501    0  0.57353720560E-01 -0.18001292564E+02 -0.11516323494E+02  0.21880711375E+02  0.47000000000E+01 0.  1.
         -5    1    3    3    0  501 -0.10781560851E+03  0.15507501090E+02  0.20705636022E+03  0.23400665447E+03  0.47000000000E+01 0.  1.
          5    1    4    4  502    0  0.10196477736E+03  0.48672894270E+02  0.25145354636E+03  0.27571152031E+03  0.47000000000E+01 0. -1.
         -5    1    4    4    0  502  0.57934774303E+01 -0.46179102795E+02  0.53685001397E+02  0.71205640863E+02  0.47000000000E+01 0. -1.
<mgrwt>
<rscale>  0 0.33569965E+03</rscale>
<asrwt>0</asrwt>
<pdfrwt beam="1">  1       21 0.84883312E-01 0.33569965E+03</pdfrwt>
<pdfrwt beam="2">  1       21 0.78558421E-02 0.33569965E+03</pdfrwt>
<totfact> 0.14260894E+05</totfact>
</mgrwt>
</event>
<event>
 8    1  0.9478272E-006  0.2777430E+03  0.7546771E-02  0.1096928E+00
         21   -1    0    0  504  503  0.00000000000E+00  0.00000000000E+00  0.55482578251E+02  0.55482578251E+02  0.00000000000E+00 0.  1.
         21   -1    0    0  503  504 -0.00000000000E+00 -0.00000000000E+00 -0.34759197104E+03  0.34759197104E+03  0.00000000000E+00 0.  1.
         25    2    1    2    0    0 -0.14486041621E+01 -0.60306571189E+02 -0.15274461766E+03  0.20638166424E+03  0.12499396836E+03 0.  0.
         25    2    1    2    0    0  0.14486041621E+01  0.60306571189E+02 -0.13936477512E+03  0.19669288505E+03  0.12500627785E+03 0.  0.
          5    1    3    3  501    0  0.48311077563E+02 -0.28174489637E+02 -0.17708775396E+02  0.58851107106E+02  0.47000000000E+01 0. -1.
         -5    1    3    3    0  501 -0.49759681725E+02 -0.32132081551E+02 -0.13503584227E+03  0.14753055713E+03  0.47000000000E+01 0. -1.
          5    1    4    4  502    0  0.36565103827E+02  0.39394086063E+02 -0.14542207502E+03  0.15510825490E+03  0.47000000000E+01 0.  1.
         -5    1    4    4    0  502 -0.35116499665E+02  0.20912485126E+02  0.60572998979E+01  0.41584630152E+02  0.47000000000E+01 0.  1.
<mgrwt>
<rscale>  0 0.27774304E+03</rscale>
<asrwt>0</asrwt>
<pdfrwt beam="1">  1       21 0.85357815E-02 0.27774304E+03</pdfrwt>
<pdfrwt beam="2">  1       21 0.53475686E-01 0.27774304E+03</pdfrwt>
<totfact> 0.34781132E+05</totfact>
</mgrwt>
</event>
<event>
 8    1  0.9478272E-006  0.2947292E+03  0.7546771E-02  0.1087906E+00
         21   -1    0    0  504  503  0.00000000000E+00  0.00000000000E+00  0.11949616282E+04  0.11949616282E+04  0.00000000000E+00 0. -1.
         21   -1    0    0  503  504 -0.00000000000E+00 -0.00000000000E+00 -0.18173236254E+02  0.18173236254E+02  0.00000000000E+00 0. -1.
         25    2    1    2    0    0  0.40987497927E+00  0.36470159896E+02  0.87231237463E+03  0.88198177707E+03  0.12503093856E+03 0.  0.
         25    2    1    2    0    0 -0.40987497927E+00 -0.36470159896E+02  0.30447601729E+03  0.33115308735E+03  0.12500592626E+03 0.  0.
          5    1    3    3  501    0 -0.47216646532E+02  0.59371790387E+02  0.57069072311E+03  0.57572946134E+03  0.47000000000E+01 0.  1.
         -5    1    3    3    0  501  0.47626521511E+02 -0.22901630491E+02  0.30162165151E+03  0.30625231573E+03  0.47000000000E+01 0.  1.
          5    1    4    4  502    0  0.17883722337E+02 -0.69212135899E+02  0.98840960513E+02  0.12207281743E+03  0.47000000000E+01 0.  1.
         -5    1    4    4    0  502 -0.18293597316E+02  0.32741976004E+02  0.20563505678E+03  0.20908026992E+03  0.47000000000E+01 0.  1.
<mgrwt>
<rscale>  0 0.29472916E+03</rscale>
<asrwt>0</asrwt>
<pdfrwt beam="1">  1       21 0.18384019E+00 0.29472916E+03</pdfrwt>
<pdfrwt beam="2">  1       21 0.27958834E-02 0.29472916E+03</pdfrwt>
<totfact> 0.11642260E+05</totfact>
</mgrwt>
</event>
<event>
 8    1  0.9478272E-006  0.3724506E+03  0.7546771E-02  0.1053760E+00
         21   -1    0    0  504  503  0.00000000000E+00  0.00000000000E+00  0.48971750210E+03  0.48971750210E+03  0.00000000000E+00 0.  1.
         21   -1    0    0  503  504 -0.00000000000E+00 -0.00000000000E+00 -0.70816051782E+02  0.70816051782E+02  0.00000000000E+00 0.  1.
         25    2    1    2    0    0  0.84144798672E-01 -0.94760967868E+02  0.36051629363E+03  0.39316142435E+03  0.12499703804E+03 0.  0.
         25    2    1    2    0    0 -0.84144798672E-01  0.94760967868E+02  0.58385156690E+02  0.16737212953E+03  0.12499982044E+03 0.  0.
          5    1    3    3  501    0  0.45645177229E+02 -0.32955147051E+02  0.57800589404E+02  0.80824019059E+02  0.47000000000E+01 0.  1.
         -5    1    3    3    0  501 -0.45561032430E+02 -0.61805820817E+02  0.30271570422E+03  0.31233740530E+03  0.47000000000E+01 0.  1.
          5    1    4    4  502    0  0.52398988732E+02  0.59521347241E+02  0.66323773291E+02  0.10348612323E+03  0.47000000000E+01 0. -1.
         -5    1    4    4    0  502 -0.52483133531E+02  0.35239620626E+02 -0.79386166013E+01  0.63886006298E+02  0.47000000000E+01 0. -1.
<mgrwt>
<rscale>  0 0.37245059E+03</rscale>
<asrwt>0</asrwt>
<pdfrwt beam="1">  1       21 0.75341152E-01 0.37245059E+03</pdfrwt>
<pdfrwt beam="2">  1       21 0.10894777E-01 0.37245059E+03</pdfrwt>
<totfact> 0.10386428E+05</totfact>
</mgrwt>
</event>
<event>
 8    1  0.9478272E-006  0.2680836E+03  0.7546771E-02  0.1102381E+00
         21   -1    0    0  504  503  0.00000000000E+00  0.00000000000E+00  0.63739121960E+03  0.63739121960E+03  0.00000000000E+00 0.  1.
         21   -1    0    0  503  504 -0.00000000000E+00 -0.00000000000E+00 -0.28188666707E+02  0.28188666707E+02  0.00000000000E+00 0.  1.
         25    2    1    2    0    0  0.40034332570E+02  0.93479317938E+01  0.24123872135E+03  0.27479261496E+03  0.12499891577E+03 0.  0.
         25    2    1    2    0    0 -0.40034332570E+02 -0.93479317938E+01  0.36796383155E+03  0.39078727135E+03  0.12500871374E+03 0.  0.
          5    1    3    3  501    0  0.19487159141E+02 -0.53498403164E+02  0.16028684467E+03  0.17016401231E+03  0.47000000000E+01 0.  1.
         -5    1    3    3    0  501  0.20547173429E+02  0.62846334957E+02  0.80951876675E+02  0.10462860264E+03  0.47000000000E+01 0.  1.
          5    1    4    4  502    0 -0.23978677151E+02  0.57496272080E+02  0.16381910224E+03  0.17532708439E+03  0.47000000000E+01 0. -1.
         -5    1    4    4    0  502 -0.16055655419E+02 -0.66844203874E+02  0.20414472930E+03  0.21546018696E+03  0.47000000000E+01 0. -1.
<mgrwt>
<rscale>  0 0.26808363E+03</rscale>
<asrwt>0</asrwt>
<pdfrwt beam="1">  1       21 0.98060177E-01 0.26808363E+03</pdfrwt>
<pdfrwt beam="2">  1       21 0.43367184E-02 0.26808363E+03</pdfrwt>
<totfact> 0.28799992E+05</totfact>
</mgrwt>
</event>
<event>
 8    1  0.9478272E-006  0.3165182E+03  0.7546771E-02  0.1077263E+00
         21   -1    0    0  504  503  0.00000000000E+00  0.00000000000E+00  0.34655487014E+03  0.34655487014E+03  0.00000000000E+00 0. -1.
         21   -1    0    0  503  504 -0.00000000000E+00 -0.00000000000E+00 -0.72271236802E+02  0.72271236802E+02  0.00000000000E+00 0. -1.
         25    2    1    2    0    0  0.70006938181E+01 -0.22145679140E+02  0.26182370332E+03  0.29102335377E+03  0.12491397042E+03 0.  0.
         25    2    1    2    0    0 -0.70006938181E+01  0.22145679140E+02  0.12459930025E+02  0.12780275317E+03  0.12505539990E+03 0.  0.
          5    1    3    3  501    0 -0.53701240076E+02 -0.27521016850E+02  0.88319777895E+02  0.10706868226E+03  0.47000000000E+01 0.  1.
         -5    1    3    3    0  501  0.60701933894E+02  0.53753377096E+01  0.17350392542E+03  0.18395467151E+03  0.47000000000E+01 0.  1.
          5    1    4    4  502    0 -0.49755200646E+02  0.36623927835E+01 -0.35011717408E+02  0.61130217307E+02  0.47000000000E+01 0.  1.
         -5    1    4    4    0  502  0.42754506827E+02  0.18483286356E+02  0.47471647434E+02  0.66672535865E+02  0.47000000000E+01 0.  1.
<mgrwt>
<rscale>  0 0.31651824E+03</rscale>
<asrwt>0</asrwt>
<pdfrwt beam="1">  1       21 0.53316133E-01 0.31651824E+03</pdfrwt>
<pdfrwt beam="2">  1       21 0.11118652E-01 0.31651824E+03</pdfrwt>
<totfact> 0.21687305E+05</totfact>
</mgrwt>
</event>
<event>
 8    1  0.9478272E-006  0.2920172E+03  0.7546771E-02  0.1089301E+00
         21   -1    0    0  504  503  0.00000000000E+00  0.00000000000E+00  0.10909904018E+02  0.10909904018E+02  0.00000000000E+00 0. -1.
         21   -1    0    0  503  504 -0.00000000000E+00 -0.00000000000E+00 -0.19540509102E+04  0.19540509102E+04  0.00000000000E+00 0. -1.
         25    2    1    2    0    0  0.62140996897E+02 -0.74554465548E+01 -0.68782352660E+03  0.70188331447E+03  0.12498758422E+03 0.  0.
         25    2    1    2    0    0 -0.62140996897E+02  0.74554465548E+01 -0.12553174796E+04  0.12630774997E+04  0.12500283454E+03 0.  0.
          5    1    3    3  501    0  0.81003999976E+01 -0.35725749046E+02 -0.54826923303E+03  0.54951177195E+03  0.47000000000E+01 0. -1.
         -5    1    3    3    0  501  0.54040596899E+02  0.28270302491E+02 -0.13955429357E+03  0.15237154252E+03  0.47000000000E+01 0. -1.
          5    1    4    4  502    0 -0.72112342928E+02  0.53660609403E+02 -0.70708489776E+03  0.71279084845E+03  0.47000000000E+01 0. -1.
         -5    1    4    4    0  502  0.99713460313E+01 -0.46205162848E+02 -0.54823258180E+03  0.55028665126E+03  0.47000000000E+01 0. -1.
<mgrwt>
<rscale>  0 0.29201718E+03</rscale>
<asrwt>0</asrwt>
<pdfrwt beam="1">  1       21 0.16784455E-02 0.29201718E+03</pdfrwt>
<pdfrwt beam="2">  1       21 0.30062344E+00 0.29201718E+03</pdfrwt>
<totfact> 0.51492567E+04</totfact>
</mgrwt>
</event>
<event>
 8    1  0.9478272E-006  0.3462995E+03  0.7546771E-02  0.1064144E+00
         21   -1    0    0  504  503  0.00000000000E+00  0.00000000000E+00  0.10861477786E+04  0.10861477786E+04  0.00000000000E+00 0. -1.
         21   -1    0    0  503  504 -0.00000000000E+00 -0.00000000000E+00 -0.27602903529E+02  0.27602903529E+02  0.00000000000E+00 0. -1.
         25    2    1    2    0    0  0.64365691556E+02 -0.81912698754E+02  0.71963386803E+03  0.73780090407E+03  0.12499855024E+03 0.  0.
         25    2    1    2    0    0 -0.64365691556E+02  0.81912698754E+02  0.33891100701E+03  0.37594977803E+03  0.12499972985E+03 0.  0.
          5    1    3    3  501    0  0.62742068083E+01  0.26530665765E+02  0.51902232013E+02  0.58814739521E+02  0.47000000000E+01 0. -1.
         -5    1    3    3    0  501  0.58091484747E+02 -0.10844336452E+03  0.66773163602E+03  0.67898616455E+03  0.47000000000E+01 0. -1.
          5    1    4    4  502    0 -0.71223418062E+01  0.76480073365E+02  0.29085935237E+03  0.30086738314E+03  0.47000000000E+01 0. -1.
         -5    1    4    4    0  502 -0.57243349749E+02  0.54326253886E+01  0.48051654638E+02  0.75082394891E+02  0.47000000000E+01 0. -1.
<mgrwt>
<rscale>  0 0.34629948E+03</rscale>
<asrwt>0</asrwt>
<pdfrwt beam="1">  1       21 0.16709962E+00 0.34629948E+03</pdfrwt>
<pdfrwt beam="2">  1       21 0.42466014E-02 0.34629948E+03</pdfrwt>
<totfact> 0.74302886E+04</totfact>
</mgrwt>
</event>
<event>
 8    1  0.9478272E-006  0.2853054E+03  0.7546771E-02  0.1092826E+00
         21   -1    0    0  504  503  0.00000000000E+00  0.00000000000E+00  0.17704209366E+04  0.17704209366E+04  0.00000000000E+00 0. -1.
         21   -1    0    0  503  504 -0.00000000000E+00 -0.00000000000E+00 -0.11494320785E+02  0.11494320785E+02  0.00000000000E+00 0. -1.
         25    2    1    2    0    0  0.55362434843E+01  0.56319815400E+02  0.63579039651E+03  0.65042894989E+03  0.12500327576E+03 0.  0.
         25    2    1    2    0    0 -0.55362434843E+01 -0.56319815400E+02  0.11231362193E+04  0.11314863075E+04  0.12499490133E+03 0.  0.
          5    1    3    3  501    0  0.43317972114E+02 -0.22319982968E+02  0.19399485345E+03  0.20007678904E+03  0.47000000000E+01 0. -1.
         -5    1    3    3    0  501 -0.37781728629E+02  0.78639798368E+02  0.44179554307E+03  0.45035216085E+03  0.47000000000E+01 0. -1.
          5    1    4    4  502    0 -0.12468671424E+02 -0.62226595007E+02  0.24008909693E+03  0.24837971205E+03  0.47000000000E+01 0. -1.
         -5    1    4    4    0  502  0.69324279401E+01  0.59067796073E+01  0.88304712232E+03  0.88310659540E+03  0.47000000000E+01 0. -1.
<mgrwt>
<rscale>  0 0.28530535E+03</rscale>
<asrwt>0</asrwt>
<pdfrwt beam="1">  1       21 0.27237223E+00 0.28530535E+03</pdfrwt>
<pdfrwt beam="2">  1       21 0.17683585E-02 0.28530535E+03</pdfrwt>
<totfact> 0.69634160E+04</totfact>
</mgrwt>
</event>
<event>
 8    1  0.9478272E-006  0.3565907E+03  0.7546771E-02  0.1059942E+00
         21   -1    0    0  504  503  0.00000000000E+00  0.00000000000E+00  0.51116900255E+03  0.51116900255E+03  0.00000000000E+00 0. -1.
         21   -1    0    0  503  504 -0.00000000000E+00 -0.00000000000E+00 -0.62189288953E+02  0.62189288953E+02  0.00000000000E+00 0. -1.
         25    2    1    2    0    0  0.38867025423E+02  0.37375616129E+02  0.40961019580E+03  0.43164003969E+03  0.12500011605E+03 0.  0.
         25    2    1    2    0    0 -0.38867025423E+02 -0.37375616129E+02  0.39369517801E+02  0.14171825182E+03  0.12500608633E+03 0.  0.
          5    1    3    3  501    0  0.44480722501E+02  0.74831775437E+01  0.39495990249E+03  0.39755496123E+03  0.47000000000E+01 0. -1.
         -5    1    3    3    0  501 -0.56136970776E+01  0.29892438585E+02  0.14650293303E+02  0.34085078456E+02  0.47000000000E+01 0. -1.
          5    1    4    4  502    0  0.11022152184E+02 -0.60791023051E+02  0.56460764245E+02  0.83826870522E+02  0.47000000000E+01 0.  1.
         -5    1    4    4    0  502 -0.49889177607E+02  0.23415406922E+02 -0.17091246444E+02  0.57891381298E+02  0.47000000000E+01 0.  1.
<mgrwt>
<rscale>  0 0.35659073E+03</rscale>
<asrwt>0</asrwt>
<pdfrwt beam="1">  1       21 0.78641382E-01 0.35659073E+03</pdfrwt>
<pdfrwt beam="2">  1       21 0.95675832E-02 0.35659073E+03</pdfrwt>
<totfact> 0.11933854E+05</totfact>
</mgrwt>
</event>
<event>
 8    1  0.9478272E-006  0.3130224E+03  0.7546771E-02  0.1078906E+00
         21   -1    0    0  504  503  0.00000000000E+00  0.00000000000E+00  0.33869874505E+03  0.33869874505E+03  0.00000000000E+00 0. -1.
         21   -1    0    0  503  504 -0.00000000000E+00 -0.00000000000E+00 -0.72323131273E+02  0.72323131273E+02  0.00000000000E+00 0. -1.
         25    2    1    2    0    0  0.39433823389E+02  0.81582584190E+02  0.99501605035E+02  0.18368313674E+03  0.12501272274E+03 0.  0.
         25    2    1    2    0    0 -0.39433823389E+02 -0.81582584190E+02  0.16687400874E+03  0.22733873958E+03  0.12500089300E+03 0.  0.
          5    1    3    3  501    0  0.30562764875E+02 -0.29548113929E+02  0.25588956010E+02  0.49840328081E+02  0.47000000000E+01 0. -1.
         -5    1    3    3    0  501  0.88710585140E+01  0.11113069812E+03  0.73912649025E+02  0.13384280866E+03  0.47000000000E+01 0. -1.
          5    1    4    4  502    0  0.41695718635E+01 -0.89809781889E+02  0.51687836805E+02  0.10381187180E+03  0.47000000000E+01 0.  1.
         -5    1    4    4    0  502 -0.43603395253E+02  0.82271976990E+01  0.11518617194E+03  0.12352686779E+03  0.47000000000E+01 0.  1.
<mgrwt>
<rscale>  0 0.31302239E+03</rscale>
<asrwt>0</asrwt>
<pdfrwt beam="1">  1       21 0.52107498E-01 0.31302239E+03</pdfrwt>
<pdfrwt beam="2">  1       21 0.11126636E-01 0.31302239E+03</pdfrwt>
<totfact> 0.22758565E+05</totfact>
</mgrwt>
</event>
<event>
 8    1  0.9478272E-006  0.3409506E+03  0.7546771E-02  0.1066392E+00
         21   -1    0    0  504  503  0.00000000000E+00  0.00000000000E+00  0.10479816857E+04  0.10479816857E+04  0.00000000000E+00 0.  1.
         21   -1    0    0  503  504 -0.00000000000E+00 -0.00000000000E+00 -0.27731243849E+02  0.27731243849E+02  0.00000000000E+00 0.  1.
         25    2    1    2    0    0  0.52555547882E+02 -0.78932982538E+02  0.29979629175E+03  0.33837172171E+03  0.12500041665E+03 0.  0.
         25    2    1    2    0    0 -0.52555547882E+02  0.78932982538E+02  0.72045415008E+03  0.73734120781E+03  0.12500149209E+03 0.  0.
          5    1    3    3  501    0  0.34577627849E+02  0.14093122081E+02  0.18809827551E+03  0.19182617050E+03  0.47000000000E+01 0. -1.
         -5    1    3    3    0  501  0.17977920033E+02 -0.93026104618E+02  0.11169801623E+03  0.14654555121E+03  0.47000000000E+01 0. -1.
          5    1    4    4  502    0 -0.42584312284E+02  0.74769936013E+02  0.72042219357E+03  0.72555785019E+03  0.47000000000E+01 0.  1.
         -5    1    4    4    0  502 -0.99712355982E+01  0.41630465243E+01  0.31956513173E-01  0.11783357626E+02  0.47000000000E+01 0.  1.
<mgrwt>
<rscale>  0 0.34095065E+03</rscale>
<asrwt>0</asrwt>
<pdfrwt beam="1">  1       21 0.16122792E+00 0.34095065E+03</pdfrwt>
<pdfrwt beam="2">  1       21 0.42663460E-02 0.34095065E+03</pdfrwt>
<totfact> 0.81572858E+04</totfact>
</mgrwt>
</event>
<event>
 8    1  0.9478272E-006  0.2563891E+03  0.7546771E-02  0.1109332E+00
         21   -1    0    0  504  503  0.00000000000E+00  0.00000000000E+00  0.49842271180E+02  0.49842271180E+02  0.00000000000E+00 0. -1.
         21   -1    0    0  503  504 -0.00000000000E+00 -0.00000000000E+00 -0.32971709060E+03  0.32971709060E+03  0.00000000000E+00 0. -1.
         25    2    1    2    0    0  0.19378078941E+02  0.20332923043E+02 -0.14700665876E+03  0.19500091103E+03  0.12500183952E+03 0.  0.
         25    2    1    2    0    0 -0.19378078941E+02 -0.20332923043E+02 -0.13286816067E+03  0.18455845075E+03  0.12497574133E+03 0.  0.
          5    1    3    3  501    0  0.90796768012E+01  0.53681204618E+02 -0.12630904234E+02  0.56086914711E+02  0.47000000000E+01 0. -1.
         -5    1    3    3    0  501  0.10298402140E+02 -0.33348281575E+02 -0.13437575452E+03  0.13891399632E+03  0.47000000000E+01 0. -1.
          5    1    4    4  502    0  0.36368623969E+02 -0.51781491782E+02 -0.73904977212E+02  0.97406546788E+02  0.47000000000E+01 0.  1.
         -5    1    4    4    0  502 -0.55746702910E+02  0.31448568739E+02 -0.58963183454E+02  0.87151903961E+02  0.47000000000E+01 0.  1.
<mgrwt>
<rscale>  0 0.25638915E+03</rscale>
<asrwt>0</asrwt>
<pdfrwt beam="1">  1       21 0.76680417E-02 0.25638915E+03</pdfrwt>
<pdfrwt beam="2">  1       21 0.50725707E-01 0.25638915E+03</pdfrwt>
<totfact> 0.47133348E+05</totfact>
</mgrwt>
</event>
<event>
 8    1  0.9478272E-006  0.2876596E+03  0.7546771E-02  0.1091577E+00
         21   -1    0    0  504  503  0.00000000000E+00  0.00000000000E+00  0.13632589268E+03  0.13632589268E+03  0.00000000000E+00 0. -1.
         21   -1    0    0  503  504 -0.00000000000E+00 -0.00000000000E+00 -0.15174676824E+03  0.15174676824E+03  0.00000000000E+00 0. -1.
         25    2    1    2    0    0 -0.44648594500E+02  0.21695524004E+02  0.43327872056E+02  0.14130437824E+03  0.12500172023E+03 0.  0.
         25    2    1    2    0    0  0.44648594500E+02 -0.21695524004E+02 -0.58748747615E+02  0.14676828268E+03  0.12500128280E+03 0.  0.
          5    1    3    3  501    0  0.93227724661E+00  0.37860760990E+02  0.74408298756E+02  0.83624107094E+02  0.47000000000E+01 0. -1.
         -5    1    3    3    0  501 -0.45580871747E+02 -0.16165236985E+02 -0.31080426700E+02  0.57680271149E+02  0.47000000000E+01 0. -1.
          5    1    4    4  502    0  0.76618832053E+01  0.50613475865E+02 -0.34376573280E+02  0.61840659634E+02  0.47000000000E+01 0.  1.
         -5    1    4    4    0  502  0.36986711295E+02 -0.72308999870E+02 -0.24372174335E+02  0.84927623047E+02  0.47000000000E+01 0.  1.
<mgrwt>
<rscale>  0 0.28765962E+03</rscale>
<asrwt>0</asrwt>
<pdfrwt beam="1">  1       21 0.20973214E-01 0.28765962E+03</pdfrwt>
<pdfrwt beam="2">  1       21 0.23345656E-01 0.28765962E+03</pdfrwt>
<totfact> 0.35694676E+05</totfact>
</mgrwt>
</event>
<event>
 8    1  0.9478272E-006  0.2710226E+03  0.7546771E-02  0.1100696E+00
         21   -1    0    0  504  503  0.00000000000E+00  0.00000000000E+00  0.23841353498E+03  0.23841353498E+03  0.00000000000E+00 0.  1.
         21   -1    0    0  503  504 -0.00000000000E+00 -0.00000000000E+00 -0.77022933717E+02  0.77022933717E+02  0.00000000000E+00 0.  1.
         25    2    1    2    0    0 -0.24227012693E+02 -0.23869828375E+02  0.12699506327E+03  0.18140495108E+03  0.12499317314E+03 0.  0.
         25    2    1    2    0    0  0.24227012693E+02  0.23869828375E+02  0.34395537986E+02  0.13403151761E+03  0.12499871131E+03 0.  0.
          5    1    3    3  501    0  0.40814673868E+02  0.48577020096E+01  0.94355999120E+02  0.10302708111E+03  0.47000000000E+01 0. -1.
         -5    1    3    3    0  501 -0.65041686561E+02 -0.28727530385E+02  0.32639064153E+02  0.78377869973E+02  0.47000000000E+01 0. -1.
          5    1    4    4  502    0 -0.33489887969E+02 -0.31451938792E+02  0.27259004285E+02  0.53627794702E+02  0.47000000000E+01 0.  1.
         -5    1    4    4    0  502  0.57716900662E+02  0.55321767168E+02  0.71365337007E+01  0.80403722910E+02  0.47000000000E+01 0.  1.
<mgrwt>
<rscale>  0 0.27102258E+03</rscale>
<asrwt>0</asrwt>
<pdfrwt beam="1">  1       21 0.36679005E-01 0.27102258E+03</pdfrwt>
<pdfrwt beam="2">  1       21 0.11849682E-01 0.27102258E+03</pdfrwt>
<totfact> 0.42328296E+05</totfact>
</mgrwt>
</event>
<event>
 8    1  0.9478272E-006  0.3263659E+03  0.7546771E-02  0.1072756E+00
         21   -1    0    0  504  503  0.00000000000E+00  0.00000000000E+00  0.39771415985E+02  0.39771415985E+02  0.00000000000E+00 0. -1.
         21   -1    0    0  503  504 -0.00000000000E+00 -0.00000000000E+00 -0.66954317878E+03  0.66954317878E+03  0.00000000000E+00 0. -1.
         25    2    1    2    0    0  0.26355790858E+02  0.10084461129E+03 -0.28913008536E+03  0.33179076735E+03  0.12499857481E+03 0.  0.
         25    2    1    2    0    0 -0.26355790858E+02 -0.10084461129E+03 -0.34064167743E+03  0.37752382741E+03  0.12499289787E+03 0.  0.
          5    1    3    3  501    0  0.43564821704E+02 -0.13629342984E+02 -0.66140945902E+02  0.80500729221E+02  0.47000000000E+01 0.  1.
         -5    1    3    3    0  501 -0.17209030846E+02  0.11447395427E+03 -0.22298913946E+03  0.25129003813E+03  0.47000000000E+01 0.  1.
          5    1    4    4  502    0  0.34069945584E+01 -0.21856494794E+02 -0.25904068088E+03  0.26002591857E+03  0.47000000000E+01 0.  1.
         -5    1    4    4    0  502 -0.29762785417E+02 -0.78988116494E+02 -0.81600996550E+02  0.11749790884E+03  0.47000000000E+01 0.  1.
<mgrwt>
<rscale>  0 0.32636593E+03</rscale>
<asrwt>0</asrwt>
<pdfrwt beam="1">  1       21 0.61186794E-02 0.32636593E+03</pdfrwt>
<pdfrwt beam="2">  1       21 0.10300664E+00 0.32636593E+03</pdfrwt>
<totfact> 0.13976735E+05</totfact>
</mgrwt>
</event>
<event>
 8    1  0.9478272E-006  0.3718392E+03  0.7546771E-02  0.1053992E+00
         21   -1    0    0  504  503  0.00000000000E+00  0.00000000000E+00  0.15471152841E+03  0.15471152841E+03  0.00000000000E+00 0.  1.
         21   -1    0    0  503  504 -0.00000000000E+00 -0.00000000000E+00 -0.22342285439E+03  0.22342285439E+03  0.00000000000E+00 0.  1.
         25    2    1    2    0    0 -0.33035200094E+02 -0.18508630892E+02  0.10020405096E+03  0.16461338289E+03  0.12499128024E+03 0.  0.
         25    2    1    2    0    0  0.33035200094E+02  0.18508630892E+02 -0.16891537694E+03  0.21352099991E+03  0.12499967589E+03 0.  0.
          5    1    3    3  501    0 -0.71422030947E+02  0.21484741338E+02  0.52520480155E+02  0.91341072091E+02  0.47000000000E+01 0. -1.
         -5    1    3    3    0  501  0.38386830854E+02 -0.39993372231E+02  0.47683570806E+02  0.73272310802E+02  0.47000000000E+01 0. -1.
          5    1    4    4  502    0 -0.20622398618E+02  0.20456091691E+02  0.63954260421E+01  0.30111899413E+02  0.47000000000E+01 0.  1.
         -5    1    4    4    0  502  0.53657598711E+02 -0.19474607986E+01 -0.17531080298E+03  0.18340910050E+03  0.47000000000E+01 0.  1.
<mgrwt>
<rscale>  0 0.37183917E+03</rscale>
<asrwt>0</asrwt>
<pdfrwt beam="1">  1       21 0.23801774E-01 0.37183917E+03</pdfrwt>
<pdfrwt beam="2">  1       21 0.34372747E-01 0.37183917E+03</pdfrwt>
<totfact> 0.12909461E+05</totfact>
</mgrwt>
</event>
<event>
 8    1  0.9478272E-006  0.2895895E+03  0.7546771E-02  0.1090564E+00
         21   -1    0    0  504  503  0.00000000000E+00  0.00000000000E+00  0.23399222464E+04  0.23399222464E+04  0.00000000000E+00 0. -1.
         21   -1    0    0  503  504 -0.00000000000E+00 -0.00000000000E+00 -0.89599230715E+01  0.89599230715E+01  0.00000000000E+00 0. -1.
         25    2    1    2    0    0 -0.35951032255E+02  0.58069241317E+02  0.95462771057E+03  0.96519679776E+03  0.12500511634E+03 0.  0.
         25    2    1    2    0    0  0.35951032255E+02 -0.58069241317E+02  0.13763346127E+04  0.13836853717E+04  0.12499491231E+03 0.  0.
          5    1    3    3  501    0  0.33796425806E+02  0.63678787186E+02  0.46917702953E+03  0.47470660558E+03  0.47000000000E+01 0.  1.
         -5    1    3    3    0  501 -0.69747458061E+02 -0.56095458691E+01  0.48545068103E+03  0.49049019218E+03  0.47000000000E+01 0.  1.
          5    1    4    4  502    0  0.18088486990E+02 -0.35998990028E+02  0.11362153267E+03  0.12064436718E+03  0.47000000000E+01 0.  1.
         -5    1    4    4    0  502  0.17862545266E+02 -0.22070251289E+02  0.12627130801E+04  0.12630410045E+04  0.47000000000E+01 0.  1.
<mgrwt>
<rscale>  0 0.28958953E+03</rscale>
<asrwt>0</asrwt>
<pdfrwt beam="1">  1       21 0.35998755E+00 0.28958953E+03</pdfrwt>
<pdfrwt beam="2">  1       21 0.13784516E-02 0.28958953E+03</pdfrwt>
<totfact> 0.31468007E+04</totfact>
</mgrwt>
</event>
<event>
 8    1  0.9478272E-006  0.3279055E+03  0.7546771E-02  0.1072067E+00
         21   -1    0    0  504  503  0.00000000000E+00  0.00000000000E+00  0.38275188819E+02  0.38275188819E+02  0.00000000000E+00 0.  1.
         21   -1    0    0  503  504 -0.00000000000E+00 -0.00000000000E+00 -0.70229561475E+03  0.70229561475E+03  0.00000000000E+00 0.  1.
         25    2    1    2    0    0  0.93196223676E+01 -0.93498212901E+02 -0.44324742983E+03  0.47002411026E+03  0.12500243594E+03 0.  0.
         25    2    1    2    0    0 -0.93196223676E+01  0.93498212901E+02 -0.22077299610E+03  0.27054669332E+03  0.12500410505E+03 0.  0.
          5    1    3    3  501    0  0.18444544412E+01 -0.26355283454E+01 -0.30067429388E+03  0.30072823117E+03  0.47000000000E+01 0.  1.
         -5    1    3    3    0  501  0.74751679263E+01 -0.90862684556E+02 -0.14257313595E+03  0.16929587908E+03  0.47000000000E+01 0.  1.
          5    1    4    4  502    0  0.27268398380E+02 -0.19893256236E+02 -0.29113834116E+02  0.44822009446E+02  0.47000000000E+01 0. -1.
         -5    1    4    4    0  502 -0.36588020747E+02  0.11339146914E+03 -0.19165916199E+03  0.22572468387E+03  0.47000000000E+01 0. -1.
<mgrwt>
<rscale>  0 0.32790546E+03</rscale>
<asrwt>0</asrwt>
<pdfrwt beam="1">  1       21 0.58884913E-02 0.32790546E+03</pdfrwt>
<pdfrwt beam="2">  1       21 0.10804547E+00 0.32790546E+03</pdfrwt>
<totfact> 0.13287064E+05</totfact>
</mgrwt>
</event>
<event>
 8    1  0.9478272E-006  0.4244205E+03  0.7546771E-02  0.1035637E+00
         21   -1    0    0  504  503  0.00000000000E+00  0.00000000000E+00  0.12263353946E+03  0.12263353946E+03  0.00000000000E+00 0. -1.
         21   -1    0    0  503  504 -0.00000000000E+00 -0.00000000000E+00 -0.36721757440E+03  0.36721757440E+03  0.00000000000E+00 0. -1.
         25    2    1    2    0    0 -0.83055586399E+02 -0.14836182154E+03 -0.14808748133E+03  0.25780684378E+03  0.12500002420E+03 0.  0.
         25    2    1    2    0    0  0.83055586399E+02  0.14836182154E+03 -0.96496553610E+02  0.23204427008E+03  0.12499399145E+03 0.  0.
          5    1    3    3  501    0 -0.37717467872E+02 -0.65556893714E+01 -0.90023052264E+02  0.97937859813E+02  0.47000000000E+01 0. -1.
         -5    1    3    3    0  501 -0.45338118528E+02 -0.14180613217E+03 -0.58064429070E+02  0.15986898397E+03  0.47000000000E+01 0. -1.
          5    1    4    4  502    0  0.49680933349E+02  0.10234991798E+03  0.67756559216E+01  0.11406884045E+03  0.47000000000E+01 0.  1.
         -5    1    4    4    0  502  0.33374653050E+02  0.46011903559E+02 -0.10327220953E+03  0.11797542963E+03  0.47000000000E+01 0.  1.
<mgrwt>
<rscale>  0 0.42442050E+03</rscale>
<asrwt>0</asrwt>
<pdfrwt beam="1">  1       21 0.18866698E-01 0.42442050E+03</pdfrwt>
<pdfrwt beam="2">  1       21 0.56495012E-01 0.42442050E+03</pdfrwt>
<totfact> 0.70628821E+04</totfact>
</mgrwt>
</event>
<event>
 8    1  0.9478272E-006  0.2652774E+03  0.7546771E-02  0.1104013E+00
         21   -1    0    0  504  503  0.00000000000E+00  0.00000000000E+00  0.20942664913E+03  0.20942664913E+03  0.00000000000E+00 0. -1.
         21   -1    0    0  503  504 -0.00000000000E+00 -0.00000000000E+00 -0.84005663579E+02  0.84005663579E+02  0.00000000000E+00 0. -1.
         25    2    1    2    0    0 -0.41017063293E+02 -0.13825660101E+02  0.52085923095E+02  0.14216433424E+03  0.12499682470E+03 0.  0.
         25    2    1    2    0    0  0.41017063293E+02  0.13825660101E+02  0.73335062454E+02  0.15126797847E+03  0.12502168439E+03 0.  0.
          5    1    3    3  501    0 -0.63041350019E+01 -0.11242445850E+02 -0.40701279451E+02  0.42951354528E+02  0.47000000000E+01 0.  1.
         -5    1    3    3    0  501 -0.34712928291E+02 -0.25832142516E+01  0.92787202547E+02  0.99212979710E+02  0.47000000000E+01 0.  1.
          5    1    4    4  502    0  0.83571827440E+01 -0.84434631271E+01 -0.34249512575E+02  0.36554803852E+02  0.47000000000E+01 0.  1.
         -5    1    4    4    0  502  0.32659880549E+02  0.22269123228E+02  0.10758457503E+03  0.11471317462E+03  0.47000000000E+01 0.  1.
<mgrwt>
<rscale>  0 0.26527740E+03</rscale>
<asrwt>0</asrwt>
<pdfrwt beam="1">  1       21 0.32219484E-01 0.26527740E+03</pdfrwt>
<pdfrwt beam="2">  1       21 0.12923948E-01 0.26527740E+03</pdfrwt>
<totfact> 0.46922573E+05</totfact>
</mgrwt>
</event>
<event>
 8    1  0.9478272E-006  0.2812825E+03  0.7546771E-02  0.1094991E+00
         21   -1    0    0  504  503  0.00000000000E+00  0.00000000000E+00  0.15208039029E+02  0.15208039029E+02  0.00000000000E+00 0. -1.
         21   -1    0    0  503  504 -0.00000000000E+00 -0.00000000000E+00 -0.13006251693E+04  0.13006251693E+04  0.00000000000E+00 0. -1.
         25    2    1    2    0    0  0.53331941071E+02 -0.49413925228E+01 -0.47490731492E+03  0.49399386138E+03  0.12499705604E+03 0.  0.
         25    2    1    2    0    0 -0.53331941071E+02  0.49413925228E+01 -0.81050981535E+03  0.82183934695E+03  0.12500015245E+03 0.  0.
          5    1    3    3  501    0  0.53936551428E+02  0.50929534283E+02 -0.33746072341E+03  0.34554999478E+03  0.47000000000E+01 0.  1.
         -5    1    3    3    0  501 -0.60461035729E+00 -0.55870926806E+02 -0.13744659151E+03  0.14844386661E+03  0.47000000000E+01 0.  1.
          5    1    4    4  502    0 -0.97764814562E+01 -0.18720892006E+02 -0.70329021490E+03  0.70362295852E+03  0.47000000000E+01 0.  1.
         -5    1    4    4    0  502 -0.43555459615E+02  0.23662284528E+02 -0.10721960045E+03  0.11821638842E+03  0.47000000000E+01 0.  1.
<mgrwt>
<rscale>  0 0.28128248E+03</rscale>
<asrwt>0</asrwt>
<pdfrwt beam="1">  1       21 0.23396977E-02 0.28128248E+03</pdfrwt>
<pdfrwt beam="2">  1       21 0.20009623E+00 0.28128248E+03</pdfrwt>
<totfact> 0.12241127E+05</totfact>
</mgrwt>
</event>
<event>
 8    1  0.9478272E-006  0.4188435E+03  0.7546771E-02  0.1037443E+00
         21   -1    0    0  504  503  0.00000000000E+00  0.00000000000E+00  0.31472063048E+03  0.31472063048E+03  0.00000000000E+00 0. -1.
         21   -1    0    0  503  504 -0.00000000000E+00 -0.00000000000E+00 -0.13935364435E+03  0.13935364435E+03  0.00000000000E+00 0. -1.
         25    2    1    2    0    0  0.95510658427E+02  0.80095510817E+02 -0.34461924097E+02  0.17986409711E+03  0.12500356991E+03 0.  0.
         25    2    1    2    0    0 -0.95510658427E+02 -0.80095510817E+02  0.20982891023E+03  0.27421017772E+03  0.12500189307E+03 0.  0.
          5    1    3    3  501    0  0.11350863464E+03  0.98498494072E+02 -0.28879494560E+02  0.15310871522E+03  0.47000000000E+01 0.  1.
         -5    1    3    3    0  501 -0.17997976208E+02 -0.18402983254E+02 -0.55824295370E+01  0.26755381885E+02  0.47000000000E+01 0.  1.
          5    1    4    4  502    0 -0.27158764066E+01 -0.22138969342E+02 -0.12773730246E+02  0.26129832234E+02  0.47000000000E+01 0. -1.
         -5    1    4    4    0  502 -0.92794782021E+02 -0.57956541475E+02  0.22260264048E+03  0.24808034549E+03  0.47000000000E+01 0. -1.
<mgrwt>
<rscale>  0 0.41884349E+03</rscale>
<asrwt>0</asrwt>
<pdfrwt beam="1">  1       21 0.48418558E-01 0.41884349E+03</pdfrwt>
<pdfrwt beam="2">  1       21 0.21439022E-01 0.41884349E+03</pdfrwt>
<totfact> 0.77129710E+04</totfact>
</mgrwt>
</event>
<event>
 8    1  0.9478272E-006  0.3280910E+03  0.7546771E-02  0.1071985E+00
         21   -1    0    0  504  503  0.00000000000E+00  0.00000000000E+00  0.28688214374E+03  0.28688214374E+03  0.00000000000E+00 0. -1.
         21   -1    0    0  503  504 -0.00000000000E+00 -0.00000000000E+00 -0.93804789118E+02  0.93804789118E+02  0.00000000000E+00 0. -1.
         25    2    1    2    0    0  0.78520764212E+01  0.21005946334E+02  0.21698471563E+03  0.25145664815E+03  0.12508067076E+03 0.  0.
         25    2    1    2    0    0 -0.78520764212E+01 -0.21005946334E+02 -0.23907361010E+02  0.12923028470E+03  0.12500399869E+03 0.  0.
          5    1    3    3  501    0  0.18205686365E+02  0.35452361270E+02  0.22700092933E+03  0.23052077749E+03  0.47000000000E+01 0. -1.
         -5    1    3    3    0  501 -0.10353609944E+02 -0.14446414936E+02 -0.10016213705E+02  0.20935870662E+02  0.47000000000E+01 0. -1.
          5    1    4    4  502    0 -0.62518708851E+02 -0.48452457450E+01 -0.33474530973E+02  0.71236925724E+02  0.47000000000E+01 0. -1.
         -5    1    4    4    0  502  0.54666632430E+02 -0.16160700589E+02  0.95671699636E+01  0.57993358981E+02  0.47000000000E+01 0. -1.
<mgrwt>
<rscale>  0 0.32809096E+03</rscale>
<asrwt>0</asrwt>
<pdfrwt beam="1">  1       21 0.44135714E-01 0.32809096E+03</pdfrwt>
<pdfrwt beam="2">  1       21 0.14431506E-01 0.32809096E+03</pdfrwt>
<totfact> 0.20036111E+05</totfact>
</mgrwt>
</event>
<event>
 8    1  0.9478272E-006  0.3296792E+03  0.7546771E-02  0.1071279E+00
         21   -1    0    0  504  503  0.00000000000E+00  0.00000000000E+00  0.15894610884E+03  0.15894610884E+03  0.00000000000E+00 0.  1.
         21   -1    0    0  503  504 -0.00000000000E+00 -0.00000000000E+00 -0.17095165620E+03  0.17095165620E+03  0.00000000000E+00 0.  1.
         25    2    1    2    0    0 -0.57883041431E+02  0.60988658912E+02  0.60953939968E+02  0.16251124861E+03  0.12499784049E+03 0.  0.
         25    2    1    2    0    0  0.57883041431E+02 -0.60988658912E+02 -0.72959487329E+02  0.16738651643E+03  0.12500038435E+03 0.  0.
          5    1    3    3  501    0 -0.95154623002E+02  0.47608201420E+02  0.60792014780E+02  0.12263238635E+03  0.47000000000E+01 0.  1.
         -5    1    3    3    0  501  0.37271581571E+02  0.13380457492E+02  0.16192518827E+00  0.39878862262E+02  0.47000000000E+01 0.  1.
          5    1    4    4  502    0  0.79975602056E+02 -0.18702846550E+02 -0.84650857649E+02  0.11804131096E+03  0.47000000000E+01 0.  1.
         -5    1    4    4    0  502 -0.22092560626E+02 -0.42285812362E+02  0.11691370320E+02  0.49345205462E+02  0.47000000000E+01 0.  1.
<mgrwt>
<rscale>  0 0.32967924E+03</rscale>
<asrwt>0</asrwt>
<pdfrwt beam="1">  1       21 0.24453248E-01 0.32967924E+03</pdfrwt>
<pdfrwt beam="2">  1       21 0.26300255E-01 0.32967924E+03</pdfrwt>
<totfact> 0.20982515E+05</totfact>
</mgrwt>
</event>
<event>
 8    1  0.9478272E-006  0.4222044E+03  0.7546771E-02  0.1036351E+00
         21   -1    0    0  504  503  0.00000000000E+00  0.00000000000E+00  0.12033864810E+03  0.12033864810E+03  0.00000000000E+00 0. -1.
         21   -1    0    0  503  504 -0.00000000000E+00 -0.00000000000E+00 -0.37032271523E+03  0.37032271523E+03  0.00000000000E+00 0. -1.
         25    2    1    2    0    0  0.13255539269E+02  0.16666243518E+03 -0.88540091895E+02  0.22676385847E+03  0.12502169017E+03 0.  0.
         25    2    1    2    0    0 -0.13255539269E+02 -0.16666243518E+03 -0.16144397523E+03  0.26389750486E+03  0.12500263723E+03 0.  0.
          5    1    3    3  501    0  0.28565340588E+02  0.17904331412E+03 -0.95977528685E+02  0.20519810678E+03  0.47000000000E+01 0. -1.
         -5    1    3    3    0  501 -0.15309801319E+02 -0.12380878943E+02  0.74374367901E+01  0.21565751687E+02  0.47000000000E+01 0. -1.
          5    1    4    4  502    0 -0.38724076062E+02 -0.94281724316E+02 -0.15655273827E+03  0.18686745962E+03  0.47000000000E+01 0.  1.
         -5    1    4    4    0  502  0.25468536792E+02 -0.72380710860E+02 -0.48912369619E+01  0.77030045242E+02  0.47000000000E+01 0.  1.
<mgrwt>
<rscale>  0 0.42220438E+03</rscale>
<asrwt>0</asrwt>
<pdfrwt beam="1">  1       21 0.18513638E-01 0.42220438E+03</pdfrwt>
<pdfrwt beam="2">  1       21 0.56972725E-01 0.42220438E+03</pdfrwt>
<totfact> 0.71904647E+04</totfact>
</mgrwt>
</event>
<event>
 8    1  0.9478272E-006  0.2753224E+03  0.7546771E-02  0.1098271E+00
         21   -1    0    0  504  503  0.00000000000E+00  0.00000000000E+00  0.22935527709E+03  0.22935527709E+03  0.00000000000E+00 0.  1.
         21   -1    0    0  503  504 -0.00000000000E+00 -0.00000000000E+00 -0.82625579447E+02  0.82625579447E+02  0.00000000000E+00 0.  1.
         25    2    1    2    0    0 -0.42565640543E+02  0.38926998532E+02  0.72293778596E+02  0.15547801758E+03  0.12497951255E+03 0.  0.
         25    2    1    2    0    0  0.42565640543E+02 -0.38926998532E+02  0.74435919048E+02  0.15650283896E+03  0.12500115035E+03 0.  0.
          5    1    3    3  501    0  0.22069266797E+02 -0.33523065086E+02  0.22804094687E+02  0.46400055649E+02  0.47000000000E+01 0.  1.
         -5    1    3    3    0  501 -0.64634907340E+02  0.72450063619E+02  0.49489683908E+02  0.10907796193E+03  0.47000000000E+01 0.  1.
          5    1    4    4  502    0 -0.27542059632E+02 -0.46570491993E+02  0.63054517411E+00  0.54312644572E+02  0.47000000000E+01 0. -1.
         -5    1    4    4    0  502  0.70107700175E+02  0.76434934604E+01  0.73805373874E+02  0.10219019439E+03  0.47000000000E+01 0. -1.
<mgrwt>
<rscale>  0 0.27532245E+03</rscale>
<asrwt>0</asrwt>
<pdfrwt beam="1">  1       21 0.35285427E-01 0.27532245E+03</pdfrwt>
<pdfrwt beam="2">  1       21 0.12711628E-01 0.27532245E+03</pdfrwt>
<totfact> 0.40271191E+05</totfact>
</mgrwt>
</event>
<event>
 8    1  0.9478272E-006  0.2997414E+03  0.7546771E-02  0.1085370E+00
         21   -1    0    0  504  503  0.00000000000E+00  0.00000000000E+00  0.82863394967E+02  0.82863394967E+02  0.00000000000E+00 0.  1.
         21   -1    0    0  503  504 -0.00000000000E+00 -0.00000000000E+00 -0.27106335527E+03  0.27106335527E+03  0.00000000000E+00 0.  1.
         25    2    1    2    0    0  0.63773578708E+02 -0.47845362425E+02 -0.68131536375E+02  0.16314993373E+03  0.12497898455E+03 0.  0.
         25    2    1    2    0    0 -0.63773578708E+02  0.47845362425E+02 -0.12006842393E+03  0.19077681651E+03  0.12499247676E+03 0.  0.
          5    1    3    3  501    0  0.42453784978E+02  0.22849912643E+02  0.16090753755E+02  0.51043557117E+02  0.47000000000E+01 0. -1.
         -5    1    3    3    0  501  0.21319793730E+02 -0.70695275068E+02 -0.84222290130E+02  0.11210637661E+03  0.47000000000E+01 0. -1.
          5    1    4    4  502    0 -0.57122454023E+02 -0.84475807272E+01 -0.12071131119E+03  0.13389416351E+03  0.47000000000E+01 0. -1.
         -5    1    4    4    0  502 -0.66511246856E+01  0.56292943152E+02  0.64288725841E+00  0.56882653000E+02  0.47000000000E+01 0. -1.
<mgrwt>
<rscale>  0 0.29974142E+03</rscale>
<asrwt>0</asrwt>
<pdfrwt beam="1">  1       21 0.12748215E-01 0.29974142E+03</pdfrwt>
<pdfrwt beam="2">  1       21 0.41702054E-01 0.29974142E+03</pdfrwt>
<totfact> 0.28413819E+05</totfact>
</mgrwt>
</event>
<event>
 8    1  0.9478272E-006  0.4984680E+03  0.7546771E-02  0.1014180E+00
         21   -1    0    0  504  503  0.00000000000E+00  0.00000000000E+00  0.28018057202E+03  0.28018057202E+03  0.00000000000E+00 0.  1.
         21   -1    0    0  503  504 -0.00000000000E+00 -0.00000000000E+00 -0.22170558819E+03  0.22170558819E+03  0.00000000000E+00 0.  1.
         25    2    1    2    0    0 -0.93534735266E+02  0.11301981973E+03 -0.12986945515E+03  0.23240774743E+03  0.12500023733E+03 0.  0.
         25    2    1    2    0    0  0.93534735266E+02 -0.11301981973E+03  0.18834443899E+03  0.26947841278E+03  0.12499104328E+03 0.  0.
          5    1    3    3  501    0  0.22982414862E+01 -0.12738941582E+02 -0.56291102155E+02  0.57951192640E+02  0.47000000000E+01 0. -1.
         -5    1    3    3    0  501 -0.95832976752E+02  0.12575876131E+03 -0.73578352999E+02  0.17445655479E+03  0.47000000000E+01 0. -1.
          5    1    4    4  502    0  0.11352690424E+03 -0.11144435093E+03  0.12352904352E+03  0.20146889570E+03  0.47000000000E+01 0.  1.
         -5    1    4    4    0  502 -0.19992168978E+02 -0.15754687946E+01  0.64815395475E+02  0.68009517076E+02  0.47000000000E+01 0.  1.
<mgrwt>
<rscale>  0 0.49846805E+03</rscale>
<asrwt>0</asrwt>
<pdfrwt beam="1">  1       21 0.43104704E-01 0.49846805E+03</pdfrwt>
<pdfrwt beam="2">  1       21 0.34108552E-01 0.49846805E+03</pdfrwt>
<totfact> 0.38885448E+04</totfact>
</mgrwt>
</event>
<event>
 8    1  0.9478272E-006  0.2702594E+03  0.7546771E-02  0.1101131E+00
         21   -1    0    0  504  503  0.00000000000E+00  0.00000000000E+00  0.60683904605E+03  0.60683904605E+03  0.00000000000E+00 0. -1.
         21   -1    0    0  503  504 -0.00000000000E+00 -0.00000000000E+00 -0.30090419151E+02  0.30090419151E+02  0.00000000000E+00 0. -1.
         25    2    1    2    0    0  0.65357997040E+01  0.48136985466E+02  0.32747506245E+03  0.35387279616E+03  0.12500461306E+03 0.  0.
         25    2    1    2    0    0 -0.65357997040E+01 -0.48136985466E+02  0.24927356445E+03  0.28305666904E+03  0.12499552756E+03 0.  0.
          5    1    3    3  501    0  0.77538181550E+01  0.33069215598E+02  0.96060778651E+01  0.35609850438E+02  0.47000000000E+01 0.  1.
         -5    1    3    3    0  501 -0.12180184510E+01  0.15067769868E+02  0.31786898459E+03  0.31826294572E+03  0.47000000000E+01 0.  1.
          5    1    4    4  502    0 -0.64506488662E+02 -0.13174273923E+02  0.13132924450E+03  0.14698336312E+03  0.47000000000E+01 0.  1.
         -5    1    4    4    0  502  0.57970688958E+02 -0.34962711543E+02  0.11794431995E+03  0.13607330593E+03  0.47000000000E+01 0.  1.
<mgrwt>
<rscale>  0 0.27025944E+03</rscale>
<asrwt>0</asrwt>
<pdfrwt beam="1">  1       21 0.93359845E-01 0.27025944E+03</pdfrwt>
<pdfrwt beam="2">  1       21 0.46292957E-02 0.27025944E+03</pdfrwt>
<totfact> 0.28940956E+05</totfact>
</mgrwt>
</event>
<event>
 8    1  0.9478272E-006  0.3506141E+03  0.7546771E-02  0.1062363E+00
         21   -1    0    0  504  503  0.00000000000E+00  0.00000000000E+00  0.49210494924E+03  0.49210494924E+03  0.00000000000E+00 0.  1.
         21   -1    0    0  503  504 -0.00000000000E+00 -0.00000000000E+00 -0.62451219577E+02  0.62451219577E+02  0.00000000000E+00 0.  1.
         25    2    1    2    0    0 -0.31046081652E+02  0.71048367282E+02  0.36570146323E+03  0.39415668726E+03  0.12494080287E+03 0.  0.
         25    2    1    2    0    0  0.31046081652E+02 -0.71048367282E+02  0.63952266440E+02  0.16039948157E+03  0.12500548638E+03 0.  0.
          5    1    3    3  501    0  0.20053438457E+02 -0.28204661724E+02  0.75425436622E+02  0.83118769400E+02  0.47000000000E+01 0.  1.
         -5    1    3    3    0  501 -0.51099520110E+02  0.99253029005E+02  0.29027602661E+03  0.31103791786E+03  0.47000000000E+01 0.  1.
          5    1    4    4  502    0 -0.23635790886E+02 -0.70629735139E+01  0.71482041803E+02  0.75764823672E+02  0.47000000000E+01 0. -1.
         -5    1    4    4    0  502  0.54681872538E+02 -0.63985393768E+02 -0.75297753635E+01  0.84634657894E+02  0.47000000000E+01 0. -1.
<mgrwt>
<rscale>  0 0.35061406E+03</rscale>
<asrwt>0</asrwt>
<pdfrwt beam="1">  1       21 0.75708451E-01 0.35061406E+03</pdfrwt>
<pdfrwt beam="2">  1       21 0.96078803E-02 0.35061406E+03</pdfrwt>
<totfact> 0.12934714E+05</totfact>
</mgrwt>
</event>
<event>
 8    1  0.9478272E-006  0.3402373E+03  0.7546771E-02  0.1066695E+00
         21   -1    0    0  504  503  0.00000000000E+00  0.00000000000E+00  0.45412086349E+03  0.45412086349E+03  0.00000000000E+00 0. -1.
         21   -1    0    0  503  504 -0.00000000000E+00 -0.00000000000E+00 -0.63728310065E+02  0.63728310065E+02  0.00000000000E+00 0. -1.
         25    2    1    2    0    0 -0.90859922944E+02 -0.21121602122E+02  0.91824821627E+02  0.18099888619E+03  0.12500860474E+03 0.  0.
         25    2    1    2    0    0  0.90859922944E+02  0.21121602122E+02  0.29856773180E+03  0.33685028737E+03  0.12499511173E+03 0.  0.
          5    1    3    3  501    0 -0.37680585655E+02 -0.47430324330E+02 -0.11425344733E+02  0.61823059643E+02  0.47000000000E+01 0.  1.
         -5    1    3    3    0  501 -0.53179337289E+02  0.26308722208E+02  0.10325016636E+03  0.11917582654E+03  0.47000000000E+01 0.  1.
          5    1    4    4  502    0  0.69281676410E+02 -0.25966134742E+02  0.26445902911E+03  0.27465407136E+03  0.47000000000E+01 0.  1.
         -5    1    4    4    0  502  0.21578246534E+02  0.47087736863E+02  0.34108702692E+02  0.62196216008E+02  0.47000000000E+01 0.  1.
<mgrwt>
<rscale>  0 0.34023730E+03</rscale>
<asrwt>0</asrwt>
<pdfrwt beam="1">  1       21 0.69864746E-01 0.34023730E+03</pdfrwt>
<pdfrwt beam="2">  1       21 0.98043557E-02 0.34023730E+03</pdfrwt>
<totfact> 0.14986386E+05</totfact>
</mgrwt>
</event>
<event>
 8    1  0.9478272E-006  0.2723421E+03  0.7546771E-02  0.1099947E+00
         21   -1    0    0  504  503  0.00000000000E+00  0.00000000000E+00  0.15939270486E+03  0.15939270486E+03  0.00000000000E+00 0. -1.
         21   -1    0    0  503  504 -0.00000000000E+00 -0.00000000000E+00 -0.11633251766E+03  0.11633251766E+03  0.00000000000E+00 0. -1.
         25    2    1    2    0    0 -0.34109820870E+02 -0.24690992797E+02  0.55761911261E+02  0.14321296740E+03  0.12500975274E+03 0.  0.
         25    2    1    2    0    0  0.34109820870E+02  0.24690992797E+02 -0.12701724058E+02  0.13251225512E+03  0.12500015584E+03 0.  0.
          5    1    3    3  501    0 -0.14601798606E+02 -0.57146939420E+02  0.78874049959E+02  0.98601171213E+02  0.47000000000E+01 0. -1.
         -5    1    3    3    0  501 -0.19508022264E+02  0.32455946624E+02 -0.23112138698E+02  0.44611796187E+02  0.47000000000E+01 0. -1.
          5    1    4    4  502    0 -0.27742910246E+01  0.69101924556E+02 -0.24277656944E+02  0.73445675807E+02  0.47000000000E+01 0. -1.
         -5    1    4    4    0  502  0.36884111894E+02 -0.44410931760E+02  0.11575932886E+02  0.59066579317E+02  0.47000000000E+01 0. -1.
<mgrwt>
<rscale>  0 0.27234210E+03</rscale>
<asrwt>0</asrwt>
<pdfrwt beam="1">  1       21 0.24521955E-01 0.27234210E+03</pdfrwt>
<pdfrwt beam="2">  1       21 0.17897310E-01 0.27234210E+03</pdfrwt>
<totfact> 0.43878885E+05</totfact>
</mgrwt>
</event>
<event>
 8    1  0.9478272E-006  0.2857149E+03  0.7546771E-02  0.1092608E+00
         21   -1    0    0  504  503  0.00000000000E+00  0.00000000000E+00  0.51160480198E+02  0.51160480198E+02  0.00000000000E+00 0.  1.
         21   -1    0    0  503  504 -0.00000000000E+00 -0.00000000000E+00 -0.39890651929E+03  0.39890651929E+03  0.00000000000E+00 0.  1.
         25    2    1    2    0    0 -0.59147746861E+02 -0.24023196441E+02 -0.21578375447E+03  0.25741480210E+03  0.12499672685E+03 0.  0.
         25    2    1    2    0    0  0.59147746861E+02  0.24023196441E+02 -0.13196228462E+03  0.19265219738E+03  0.12500101867E+03 0.  0.
          5    1    3    3  501    0  0.10777344619E+02 -0.54170420834E+02 -0.13678977441E+03  0.14759443768E+03  0.47000000000E+01 0. -1.
         -5    1    3    3    0  501 -0.69925091480E+02  0.30147224393E+02 -0.78993980060E+02  0.10982036443E+03  0.47000000000E+01 0. -1.
          5    1    4    4  502    0  0.19028584668E+02  0.51068950311E+02 -0.29446954206E+01  0.54780342746E+02  0.47000000000E+01 0. -1.
         -5    1    4    4    0  502  0.40119162193E+02 -0.27045753870E+02 -0.12901758920E+03  0.13787185463E+03  0.47000000000E+01 0. -1.
<mgrwt>
<rscale>  0 0.28571489E+03</rscale>
<asrwt>0</asrwt>
<pdfrwt beam="1">  1       21 0.78708432E-02 0.28571489E+03</pdfrwt>
<pdfrwt beam="2">  1       21 0.61370233E-01 0.28571489E+03</pdfrwt>
<totfact> 0.29780856E+05</totfact>
</mgrwt>
</event>
<event>
 8    1  0.9478272E-006  0.2651414E+03  0.7546771E-02  0.1104093E+00
         21   -1    0    0  504  503  0.00000000000E+00  0.00000000000E+00  0.28355346448E+03  0.28355346448E+03  0.00000000000E+00 0. -1.
         21   -1    0    0  503  504 -0.00000000000E+00 -0.00000000000E+00 -0.61981221908E+02  0.61981221908E+02  0.00000000000E+00 0. -1.
         25    2    1    2    0    0  0.14168909356E+02 -0.68960267859E+00  0.16528640193E+03  0.20771433178E+03  0.12499766166E+03 0.  0.
         25    2    1    2    0    0 -0.14168909356E+02  0.68960267859E+00  0.56285840645E+02  0.13782035461E+03  0.12500048298E+03 0.  0.
          5    1    3    3  501    0  0.65885744650E+01  0.31027932966E+02  0.17125426945E+03  0.17423047019E+03  0.47000000000E+01 0. -1.
         -5    1    3    3    0  501  0.75803348905E+01 -0.31717535645E+02 -0.59678675173E+01  0.33483861592E+02  0.47000000000E+01 0. -1.
          5    1    4    4  502    0 -0.39195716570E+02  0.82864022274E+01 -0.28224323240E+02  0.49230794039E+02  0.47000000000E+01 0. -1.
         -5    1    4    4    0  502  0.25026807215E+02 -0.75967995488E+01  0.84510163885E+02  0.88589560573E+02  0.47000000000E+01 0. -1.
<mgrwt>
<rscale>  0 0.26514140E+03</rscale>
<asrwt>0</asrwt>
<pdfrwt beam="1">  1       21 0.43623609E-01 0.26514140E+03</pdfrwt>
<pdfrwt beam="2">  1       21 0.95355728E-02 0.26514140E+03</pdfrwt>
<totfact> 0.43893176E+05</totfact>
</mgrwt>
</event>
<event>
 8    1  0.9478272E-006  0.2675668E+03  0.7546771E-02  0.1102680E+00
         21   -1    0    0  504  503  0.00000000000E+00  0.00000000000E+00  0.12080913715E+04  0.12080913715E+04  0.00000000000E+00 0.  1.
         21   -1    0    0  503  504 -0.00000000000E+00 -0.00000000000E+00 -0.14815107195E+02  0.14815107195E+02  0.00000000000E+00 0.  1.
         25    2    1    2    0    0  0.44168453423E+02 -0.15542535665E+02  0.63778219004E+03  0.65160017706E+03  0.12499698444E+03 0.  0.
         25    2    1    2    0    0 -0.44168453423E+02  0.15542535665E+02  0.55549407430E+03  0.57130630167E+03  0.12499920421E+03 0.  0.
          5    1    3    3  501    0  0.26412091350E+02  0.85155013521E+01  0.60958023592E+03  0.61022968328E+03  0.47000000000E+01 0.  1.
         -5    1    3    3    0  501  0.17756362074E+02 -0.24058037017E+02  0.28201954118E+02  0.41370493776E+02  0.47000000000E+01 0.  1.
          5    1    4    4  502    0  0.12608080270E+02  0.50781224531E+02  0.37724563052E+03  0.38088587818E+03  0.47000000000E+01 0.  1.
         -5    1    4    4    0  502 -0.56776533693E+02 -0.35238688866E+02  0.17824844379E+03  0.19042042349E+03  0.47000000000E+01 0.  1.
<mgrwt>
<rscale>  0 0.26756684E+03</rscale>
<asrwt>0</asrwt>
<pdfrwt beam="1">  1       21 0.18586013E+00 0.26756684E+03</pdfrwt>
<pdfrwt beam="2">  1       21 0.22792482E-02 0.26756684E+03</pdfrwt>
<totfact> 0.15981475E+05</totfact>
</mgrwt>
</event>
<event>
 8    1  0.9478272E-006  0.3938480E+03  0.7546771E-02  0.1045931E+00
         21   -1    0    0  504  503  0.00000000000E+00  0.00000000000E+00  0.14870897535E+03  0.14870897535E+03  0.00000000000E+00 0. -1.
         21   -1    0    0  503  504 -0.00000000000E+00 -0.00000000000E+00 -0.26077147191E+03  0.26077147191E+03  0.00000000000E+00 0. -1.
         25    2    1    2    0    0 -0.34722128990E+01 -0.10446491430E+03 -0.17101178898E+03  0.23621061445E+03  0.12500179130E+03 0.  0.
         25    2    1    2    0    0  0.34722128990E+01  0.10446491430E+03  0.58949292417E+02  0.17326983281E+03  0.12498976480E+03 0.  0.
          5    1    3    3  501    0 -0.45686257653E+02  0.29737775956E+01 -0.35422627085E+02  0.58076931747E+02  0.47000000000E+01 0. -1.
         -5    1    3    3    0  501  0.42214044754E+02 -0.10743869190E+03 -0.13558916189E+03  0.17813368270E+03  0.47000000000E+01 0. -1.
          5    1    4    4  502    0  0.53977726347E+02  0.26177868051E+02  0.52340672618E+02  0.79752816423E+02  0.47000000000E+01 0. -1.
         -5    1    4    4    0  502 -0.50505513448E+02  0.78287046249E+02  0.66086197986E+01  0.93517016391E+02  0.47000000000E+01 0. -1.
<mgrwt>
<rscale>  0 0.39384798E+03</rscale>
<asrwt>0</asrwt>
<pdfrwt beam="1">  1       21 0.22878304E-01 0.39384798E+03</pdfrwt>
<pdfrwt beam="2">  1       21 0.40118687E-01 0.39384798E+03</pdfrwt>
<totfact> 0.10129474E+05</totfact>
</mgrwt>
</event>
<event>
 8    1  0.9478272E-006  0.2580396E+03  0.7546771E-02  0.1108327E+00
         21   -1    0    0  504  503  0.00000000000E+00  0.00000000000E+00  0.34917644875E+02  0.34917644875E+02  0.00000000000E+00 0. -1.
         21   -1    0    0  503  504 -0.00000000000E+00 -0.00000000000E+00 -0.47672499699E+03  0.47672499699E+03  0.00000000000E+00 0. -1.
         25    2    1    2    0    0 -0.17012977595E+02  0.17559320008E+02 -0.26171805627E+03  0.29106541055E+03  0.12499984447E+03 0.  0.
         25    2    1    2    0    0  0.17012977595E+02 -0.17559320008E+02 -0.18008929584E+03  0.22057723131E+03  0.12499755745E+03 0.  0.
          5    1    3    3  501    0 -0.37447961450E+02 -0.16635722984E+02 -0.24357246289E+03  0.24703993964E+03  0.47000000000E+01 0.  1.
         -5    1    3    3    0  501  0.20434983854E+02  0.34195042993E+02 -0.18145593377E+02  0.44025470916E+02  0.47000000000E+01 0.  1.
          5    1    4    4  502    0 -0.51810467789E+00  0.11391452111E+02  0.16746106826E+02  0.20797973639E+02  0.47000000000E+01 0. -1.
         -5    1    4    4    0  502  0.17531082273E+02 -0.28950772119E+02 -0.19683540267E+03  0.19977925767E+03  0.47000000000E+01 0. -1.
<mgrwt>
<rscale>  0 0.25803964E+03</rscale>
<asrwt>0</asrwt>
<pdfrwt beam="1">  1       21 0.53719456E-02 0.25803964E+03</pdfrwt>
<pdfrwt beam="2">  1       21 0.73342304E-01 0.25803964E+03</pdfrwt>
<totfact> 0.39178895E+05</totfact>
</mgrwt>
</event>
<event>
 8    1  0.9478272E-006  0.2875564E+03  0.7546771E-02  0.1091632E+00
         21   -1    0    0  504  503  0.00000000000E+00  0.00000000000E+00  0.85650664544E+03  0.85650664544E+03  0.00000000000E+00 0. -1.
         21   -1    0    0  503  504 -0.00000000000E+00 -0.00000000000E+00 -0.24135438957E+02  0.24135438957E+02  0.00000000000E+00 0. -1.
         25    2    1    2    0    0  0.52611238359E+02 -0.47424271882E+02  0.39893186180E+03  0.42401465581E+03  0.12499917607E+03 0.  0.
         25    2    1    2    0    0 -0.52611238359E+02  0.47424271882E+02  0.43343934468E+03  0.45662742859E+03  0.12498775562E+03 0.  0.
          5    1    3    3  501    0  0.12818095827E+02 -0.13427040679E+02 -0.23627297125E+01  0.19294079240E+02  0.47000000000E+01 0.  1.
         -5    1    3    3    0  501  0.39793142533E+02 -0.33997231203E+02  0.40129459151E+03  0.40472057657E+03  0.47000000000E+01 0.  1.
          5    1    4    4  502    0 -0.66556601597E+02  0.19868101993E+02  0.10068262735E+03  0.12240753303E+03  0.47000000000E+01 0. -1.
         -5    1    4    4    0  502  0.13945363238E+02  0.27556169889E+02  0.33275671733E+03  0.33421989556E+03  0.47000000000E+01 0. -1.
<mgrwt>
<rscale>  0 0.28755635E+03</rscale>
<asrwt>0</asrwt>
<pdfrwt beam="1">  1       21 0.13177023E+00 0.28755635E+03</pdfrwt>
<pdfrwt beam="2">  1       21 0.37131451E-02 0.28755635E+03</pdfrwt>
<totfact> 0.17942733E+05</totfact>
</mgrwt>
</event>
<event>
 8    1  0.9478272E-006  0.2571834E+03  0.7546771E-02  0.1108847E+00
         21   -1    0    0  504  503  0.00000000000E+00  0.00000000000E+00  0.11390320848E+03  0.11390320848E+03  0.00000000000E+00 0. -1.
         21   -1    0    0  503  504 -0.00000000000E+00 -0.00000000000E+00 -0.14517432924E+03  0.14517432924E+03  0.00000000000E+00 0. -1.
         25    2    1    2    0    0  0.25629506683E+02 -0.13449208498E+01  0.35206212279E+00  0.12760372850E+03  0.12499562854E+03 0.  0.
         25    2    1    2    0    0 -0.25629506683E+02  0.13449208498E+01 -0.31623182882E+02  0.13147380921E+03  0.12500662538E+03 0.  0.
          5    1    3    3  501    0  0.70500469838E+01 -0.45413271291E+02 -0.42830511904E+02  0.62996913589E+02  0.47000000000E+01 0. -1.
         -5    1    3    3    0  501  0.18579459699E+02  0.44068350441E+02  0.43182574027E+02  0.64606814911E+02  0.47000000000E+01 0. -1.
          5    1    4    4  502    0 -0.99923598209E+01  0.19554581264E+02  0.45405437017E+02  0.50655430251E+02  0.47000000000E+01 0.  1.
         -5    1    4    4    0  502 -0.15637146862E+02 -0.18209660414E+02 -0.77028619899E+02  0.80818378962E+02  0.47000000000E+01 0.  1.
<mgrwt>
<rscale>  0 0.25718337E+03</rscale>
<asrwt>0</asrwt>
<pdfrwt beam="1">  1       21 0.17523571E-01 0.25718337E+03</pdfrwt>
<pdfrwt beam="2">  1       21 0.22334512E-01 0.25718337E+03</pdfrwt>
<totfact> 0.54696458E+05</totfact>
</mgrwt>
</event>
<event>
 8    1  0.9478272E-006  0.2680153E+03  0.7546771E-02  0.1102421E+00
         21   -1    0    0  504  503  0.00000000000E+00  0.00000000000E+00  0.44241863620E+03  0.44241863620E+03  0.00000000000E+00 0.  1.
         21   -1    0    0  503  504 -0.00000000000E+00 -0.00000000000E+00 -0.40590614672E+02  0.40590614672E+02  0.00000000000E+00 0.  1.
         25    2    1    2    0    0  0.29614758091E+02 -0.18420654436E+02  0.26114249521E+03  0.29161331154E+03  0.12500626487E+03 0.  0.
         25    2    1    2    0    0 -0.29614758091E+02  0.18420654436E+02  0.14068552632E+03  0.19139593933E+03  0.12499453536E+03 0.  0.
          5    1    3    3  501    0  0.53569129592E+02 -0.56899561030E+02  0.11985576931E+03  0.14315972593E+03  0.47000000000E+01 0. -1.
         -5    1    3    3    0  501 -0.23954371501E+02  0.38478906594E+02  0.14128672589E+03  0.14845358561E+03  0.47000000000E+01 0. -1.
          5    1    4    4  502    0  0.32459979550E+02  0.11235253613E+02  0.12076075204E+03  0.12563888900E+03  0.47000000000E+01 0.  1.
         -5    1    4    4    0  502 -0.62074737641E+02  0.71854008226E+01  0.19924774281E+02  0.65757050331E+02  0.47000000000E+01 0.  1.
<mgrwt>
<rscale>  0 0.26801526E+03</rscale>
<asrwt>0</asrwt>
<pdfrwt beam="1">  1       21 0.68064402E-01 0.26801526E+03</pdfrwt>
<pdfrwt beam="2">  1       21 0.62447103E-02 0.26801526E+03</pdfrwt>
<totfact> 0.35636072E+05</totfact>
</mgrwt>
</event>
<event>
 8    1  0.9478272E-006  0.4186198E+03  0.7546771E-02  0.1037516E+00
         21   -1    0    0  504  503  0.00000000000E+00  0.00000000000E+00  0.11262419531E+03  0.11262419531E+03  0.00000000000E+00 0. -1.
         21   -1    0    0  503  504 -0.00000000000E+00 -0.00000000000E+00 -0.38899840560E+03  0.38899840560E+03  0.00000000000E+00 0. -1.
         25    2    1    2    0    0 -0.32400780865E+02  0.16360045061E+03 -0.11512447740E+03  0.23810458227E+03  0.12500091504E+03 0.  0.
         25    2    1    2    0    0  0.32400780865E+02 -0.16360045061E+03 -0.16124973289E+03  0.26351801864E+03  0.12500140700E+03 0.  0.
          5    1    3    3  501    0 -0.21084401514E+02  0.17032410217E+03 -0.60997637868E+02  0.18220223268E+03  0.47000000000E+01 0.  1.
         -5    1    3    3    0  501 -0.11316379352E+02 -0.67236515660E+01 -0.54126839529E+02  0.55902349587E+02  0.47000000000E+01 0.  1.
          5    1    4    4  502    0  0.49205397809E+02 -0.19407595797E+02 -0.10403163137E+02  0.54112306839E+02  0.47000000000E+01 0. -1.
         -5    1    4    4    0  502 -0.16804616944E+02 -0.14419285481E+03 -0.15084656975E+03  0.20940571180E+03  0.47000000000E+01 0. -1.
<mgrwt>
<rscale>  0 0.41861979E+03</rscale>
<asrwt>0</asrwt>
<pdfrwt beam="1">  1       21 0.17326799E-01 0.41861979E+03</pdfrwt>
<pdfrwt beam="2">  1       21 0.59845909E-01 0.41861979E+03</pdfrwt>
<totfact> 0.73223256E+04</totfact>
</mgrwt>
</event>
<event>
 8    1  0.9478272E-006  0.2721055E+03  0.7546771E-02  0.1100081E+00
         21   -1    0    0  504  503  0.00000000000E+00  0.00000000000E+00  0.65182242253E+02  0.65182242253E+02  0.00000000000E+00 0. -1.
         21   -1    0    0  503  504 -0.00000000000E+00 -0.00000000000E+00 -0.28397834013E+03  0.28397834013E+03  0.00000000000E+00 0. -1.
         25    2    1    2    0    0 -0.45062435841E+01  0.49784960133E+02 -0.84148736578E+02  0.15875650445E+03  0.12499507730E+03 0.  0.
         25    2    1    2    0    0  0.45062435841E+01 -0.49784960133E+02 -0.13464736130E+03  0.19040407793E+03  0.12499981001E+03 0.  0.
          5    1    3    3  501    0 -0.28488579318E+01  0.50488214119E+02  0.19929343646E+02  0.54556800626E+02  0.47000000000E+01 0. -1.
         -5    1    3    3    0  501 -0.16573856523E+01 -0.70325398572E+00 -0.10407808022E+03  0.10419970382E+03  0.47000000000E+01 0. -1.
          5    1    4    4  502    0  0.17807957937E+02 -0.88515722274E+02 -0.72794019667E+02  0.11607418212E+03  0.47000000000E+01 0.  1.
         -5    1    4    4    0  502 -0.13301714353E+02  0.38730762141E+02 -0.61853341631E+02  0.74329895814E+02  0.47000000000E+01 0.  1.
<mgrwt>
<rscale>  0 0.27210546E+03</rscale>
<asrwt>0</asrwt>
<pdfrwt beam="1">  1       21 0.10028037E-01 0.27210546E+03</pdfrwt>
<pdfrwt beam="2">  1       21 0.43688976E-01 0.27210546E+03</pdfrwt>
<totfact> 0.39959900E+05</totfact>
</mgrwt>
</event>
<event>
 8    1  0.9478272E-006  0.2639572E+03  0.7546771E-02  0.1104789E+00
         21   -1    0    0  504  503  0.00000000000E+00  0.00000000000E+00  0.33293353493E+03  0.33293353493E+03  0.00000000000E+00 0. -1.
         21   -1    0    0  503  504 -0.00000000000E+00 -0.00000000000E+00 -0.52317798662E+02  0.52317798662E+02  0.00000000000E+00 0. -1.
         25    2    1    2    0    0 -0.22413460914E+02  0.13230928452E+02  0.91568816906E+02  0.15712216832E+03  0.12500042740E+03 0.  0.
         25    2    1    2    0    0  0.22413460914E+02 -0.13230928452E+02  0.18904691936E+03  0.22812916527E+03  0.12500703031E+03 0.  0.
          5    1    3    3  501    0  0.40055810129E+02  0.13899388304E+02  0.83747895365E+02  0.93986493171E+02  0.47000000000E+01 0.  1.
         -5    1    3    3    0  501 -0.62469271044E+02 -0.66845985212E+00  0.78209215404E+01  0.63135675153E+02  0.47000000000E+01 0.  1.
          5    1    4    4  502    0  0.73058602902E+02  0.37265319805E+00  0.12849990731E+03  0.14789190143E+03  0.47000000000E+01 0.  1.
         -5    1    4    4    0  502 -0.50645141987E+02 -0.13603581650E+02  0.60547012053E+02  0.80237263844E+02  0.47000000000E+01 0.  1.
<mgrwt>
<rscale>  0 0.26395719E+03</rscale>
<asrwt>0</asrwt>
<pdfrwt beam="1">  1       21 0.51220542E-01 0.26395719E+03</pdfrwt>
<pdfrwt beam="2">  1       21 0.80488923E-02 0.26395719E+03</pdfrwt>
<totfact> 0.42361374E+05</totfact>
</mgrwt>
</event>
<event>
 8    1  0.9478272E-006  0.3143655E+03  0.7546771E-02  0.1078272E+00
         21   -1    0    0  504  503  0.00000000000E+00  0.00000000000E+00  0.17709329135E+03  0.17709329135E+03  0.00000000000E+00 0.  1.
         21   -1    0    0  503  504 -0.00000000000E+00 -0.00000000000E+00 -0.13951072964E+03  0.13951072964E+03  0.00000000000E+00 0.  1.
         25    2    1    2    0    0  0.67754421147E+02  0.59815428990E+02 -0.11642285080E+02  0.15469260625E+03  0.12500284996E+03 0.  0.
         25    2    1    2    0    0 -0.67754421147E+02 -0.59815428990E+02  0.49224846788E+02  0.16191141473E+03  0.12499469408E+03 0.  0.
          5    1    3    3  501    0  0.97378637584E+02  0.17296340563E+02  0.73832159386E+01  0.99289296161E+02  0.47000000000E+01 0.  1.
         -5    1    3    3    0  501 -0.29624216437E+02  0.42519088428E+02 -0.19025501018E+02  0.55403310092E+02  0.47000000000E+01 0.  1.
          5    1    4    4  502    0 -0.11254774628E+02 -0.67591283125E+02 -0.20531038774E+02  0.71685877686E+02  0.47000000000E+01 0. -1.
         -5    1    4    4    0  502 -0.56499646519E+02  0.77758541346E+01  0.69755885562E+02  0.90225537044E+02  0.47000000000E+01 0. -1.
<mgrwt>
<rscale>  0 0.31436548E+03</rscale>
<asrwt>0</asrwt>
<pdfrwt beam="1">  1       21 0.27245122E-01 0.31436548E+03</pdfrwt>
<pdfrwt beam="2">  1       21 0.21463189E-01 0.31436548E+03</pdfrwt>
<totfact> 0.25223921E+05</totfact>
</mgrwt>
</event>
<event>
 8    1  0.9478272E-006  0.3266568E+03  0.7546771E-02  0.1072626E+00
         21   -1    0    0  504  503  0.00000000000E+00  0.00000000000E+00  0.39937795835E+02  0.39937795835E+02  0.00000000000E+00 0.  1.
         21   -1    0    0  503  504 -0.00000000000E+00 -0.00000000000E+00 -0.66794282488E+03  0.66794282488E+03  0.00000000000E+00 0.  1.
         25    2    1    2    0    0 -0.38728014491E+02 -0.21010282868E+02 -0.52083875805E+03  0.53743692444E+03  0.12499657903E+03 0.  0.
         25    2    1    2    0    0  0.38728014491E+02  0.21010282868E+02 -0.10716627100E+03  0.17044369628E+03  0.12500061148E+03 0.  0.
          5    1    3    3  501    0 -0.70339648180E+02 -0.40378178363E+02 -0.22442996757E+03  0.23868172058E+03  0.47000000000E+01 0. -1.
         -5    1    3    3    0  501  0.31611633689E+02  0.19367895496E+02 -0.29640879048E+03  0.29875520386E+03  0.47000000000E+01 0. -1.
          5    1    4    4  502    0 -0.28019718965E+02  0.49791863397E+02 -0.31487402547E+02  0.65405510705E+02  0.47000000000E+01 0. -1.
         -5    1    4    4    0  502  0.66747733455E+02 -0.28781580530E+02 -0.75678868454E+02  0.10503818558E+03  0.47000000000E+01 0. -1.
<mgrwt>
<rscale>  0 0.32665679E+03</rscale>
<asrwt>0</asrwt>
<pdfrwt beam="1">  1       21 0.61442758E-02 0.32665679E+03</pdfrwt>
<pdfrwt beam="2">  1       21 0.10276044E+00 0.32665679E+03</pdfrwt>
<totfact> 0.13955846E+05</totfact>
</mgrwt>
</event>
<event>
 8    1  0.9478272E-006  0.2989457E+03  0.7546771E-02  0.1085769E+00
         21   -1    0    0  504  503  0.00000000000E+00  0.00000000000E+00  0.27952849059E+03  0.27952849059E+03  0.00000000000E+00 0. -1.
         21   -1    0    0  503  504 -0.00000000000E+00 -0.00000000000E+00 -0.79927921384E+02  0.79927921384E+02  0.00000000000E+00 0. -1.
         25    2    1    2    0    0  0.29849135749E+01 -0.67982018749E+01  0.19793984009E+03  0.23422204738E+03  0.12499864770E+03 0.  0.
         25    2    1    2    0    0 -0.29849135749E+01  0.67982018749E+01  0.16607291151E+01  0.12523436459E+03  0.12500305115E+03 0.  0.
          5    1    3    3  501    0  0.18763555797E+02  0.30637728033E+02  0.45058296157E+01  0.36512106290E+02  0.47000000000E+01 0. -1.
         -5    1    3    3    0  501 -0.15778642222E+02 -0.37435929908E+02  0.19343401047E+03  0.19770994109E+03  0.47000000000E+01 0. -1.
          5    1    4    4  502    0  0.27658329339E+02 -0.42286147891E+02  0.31734819418E+02  0.59852236790E+02  0.47000000000E+01 0.  1.
         -5    1    4    4    0  502 -0.30643242914E+02  0.49084349766E+02 -0.30074090303E+02  0.65382127801E+02  0.47000000000E+01 0.  1.
<mgrwt>
<rscale>  0 0.29894569E+03</rscale>
<asrwt>0</asrwt>
<pdfrwt beam="1">  1       21 0.43004383E-01 0.29894569E+03</pdfrwt>
<pdfrwt beam="2">  1       21 0.12296603E-01 0.29894569E+03</pdfrwt>
<totfact> 0.28477548E+05</totfact>
</mgrwt>
</event>
<event>
 8    1  0.9478272E-006  0.3201603E+03  0.7546771E-02  0.1075576E+00
         21   -1    0    0  504  503  0.00000000000E+00  0.00000000000E+00  0.22950729084E+04  0.22950729084E+04  0.00000000000E+00 0. -1.
         21   -1    0    0  503  504 -0.00000000000E+00 -0.00000000000E+00 -0.11165508419E+02  0.11165508419E+02  0.00000000000E+00 0. -1.
         25    2    1    2    0    0  0.21481195068E+02 -0.81486092781E+01  0.18425756422E+04  0.18469541816E+04  0.12500764104E+03 0.  0.
         25    2    1    2    0    0 -0.21481195068E+02  0.81486092781E+01  0.44133175785E+03  0.45928423523E+03  0.12506177143E+03 0.  0.
          5    1    3    3  501    0  0.34535462350E+02  0.24559203657E+02  0.16800282195E+04  0.16805691776E+04  0.47000000000E+01 0.  1.
         -5    1    3    3    0  501 -0.13054267282E+02 -0.32707812935E+02  0.16254742273E+03  0.16638500400E+03  0.47000000000E+01 0.  1.
          5    1    4    4  502    0 -0.29901462110E+02 -0.38423937223E+02  0.72863444101E+02  0.87759146955E+02  0.47000000000E+01 0.  1.
         -5    1    4    4    0  502  0.84202670419E+01  0.46572546501E+02  0.36846831374E+03  0.37152508828E+03  0.47000000000E+01 0.  1.
<mgrwt>
<rscale>  0 0.32016031E+03</rscale>
<asrwt>0</asrwt>
<pdfrwt beam="1">  1       21 0.35308777E+00 0.32016031E+03</pdfrwt>
<pdfrwt beam="2">  1       21 0.17177723E-02 0.32016031E+03</pdfrwt>
<totfact> 0.23726876E+04</totfact>
</mgrwt>
</event>
<event>
 8    1  0.9478272E-006  0.2647171E+03  0.7546771E-02  0.1104342E+00
         21   -1    0    0  504  503  0.00000000000E+00  0.00000000000E+00  0.16267241759E+03  0.16267241759E+03  0.00000000000E+00 0.  1.
         21   -1    0    0  503  504 -0.00000000000E+00 -0.00000000000E+00 -0.10769364016E+03  0.10769364016E+03  0.00000000000E+00 0.  1.
         25    2    1    2    0    0  0.63815081359E+01  0.20729674189E+02 -0.11032815214E+02  0.12734930268E+03  0.12500271534E+03 0.  0.
         25    2    1    2    0    0 -0.63815081359E+01 -0.20729674189E+02  0.66011592649E+02  0.14301675507E+03  0.12500327527E+03 0.  0.
          5    1    3    3  501    0 -0.51521905784E+01  0.71174113433E+02 -0.20803640087E+02  0.74479399377E+02  0.47000000000E+01 0.  1.
         -5    1    3    3    0  501  0.11533698714E+02 -0.50444439244E+02  0.97708248728E+01  0.52869903304E+02  0.47000000000E+01 0.  1.
          5    1    4    4  502    0  0.37389877821E+02  0.37746805995E+02  0.22700100742E+02  0.57967308891E+02  0.47000000000E+01 0. -1.
         -5    1    4    4    0  502 -0.43771385957E+02 -0.58476480184E+02  0.43311491907E+02  0.85049446174E+02  0.47000000000E+01 0. -1.
<mgrwt>
<rscale>  0 0.26471709E+03</rscale>
<asrwt>0</asrwt>
<pdfrwt beam="1">  1       21 0.25026526E-01 0.26471709E+03</pdfrwt>
<pdfrwt beam="2">  1       21 0.16568252E-01 0.26471709E+03</pdfrwt>
<totfact> 0.48755602E+05</totfact>
</mgrwt>
</event>
<event>
 8    1  0.9478272E-006  0.3135986E+03  0.7546771E-02  0.1078634E+00
         21   -1    0    0  504  503  0.00000000000E+00  0.00000000000E+00  0.10326498024E+04  0.10326498024E+04  0.00000000000E+00 0.  1.
         21   -1    0    0  503  504 -0.00000000000E+00 -0.00000000000E+00 -0.23808676496E+02  0.23808676496E+02  0.00000000000E+00 0.  1.
         25    2    1    2    0    0 -0.31155008285E+02 -0.83724525393E+02  0.39890337612E+03  0.42746766436E+03  0.12499707956E+03 0.  0.
         25    2    1    2    0    0  0.31155008285E+02  0.83724525393E+02  0.60993774975E+03  0.62899081451E+03  0.12499982186E+03 0.  0.
          5    1    3    3  501    0  0.16498947819E+02 -0.41336959640E+02  0.33167540189E+03  0.33468137344E+03  0.47000000000E+01 0.  1.
         -5    1    3    3    0  501 -0.47653956104E+02 -0.42387565753E+02  0.67227974228E+02  0.92786290914E+02  0.47000000000E+01 0.  1.
          5    1    4    4  502    0  0.69314757312E+02  0.88922708618E+02  0.40573985034E+03  0.42113976284E+03  0.47000000000E+01 0. -1.
         -5    1    4    4    0  502 -0.38159749026E+02 -0.51981832253E+01  0.20419789941E+03  0.20785105167E+03  0.47000000000E+01 0. -1.
<mgrwt>
<rscale>  0 0.31359863E+03</rscale>
<asrwt>0</asrwt>
<pdfrwt beam="1">  1       21 0.15886917E+00 0.31359863E+03</pdfrwt>
<pdfrwt beam="2">  1       21 0.36628741E-02 0.31359863E+03</pdfrwt>
<totfact> 0.11097068E+05</totfact>
</mgrwt>
</event>
<event>
 8    1  0.9478272E-006  0.3206547E+03  0.7546771E-02  0.1075348E+00
         21   -1    0    0  504  503  0.00000000000E+00  0.00000000000E+00  0.43180768236E+02  0.43180768236E+02  0.00000000000E+00 0.  1.
         21   -1    0    0  503  504 -0.00000000000E+00 -0.00000000000E+00 -0.59528507811E+03  0.59528507811E+03  0.00000000000E+00 0.  1.
         25    2    1    2    0    0 -0.61815919882E+02 -0.35181885474E+02 -0.41720159251E+03  0.44129510263E+03  0.12500090318E+03 0.  0.
         25    2    1    2    0    0  0.61815919882E+02  0.35181885474E+02 -0.13490271736E+03  0.19717074371E+03  0.12497434140E+03 0.  0.
          5    1    3    3  501    0 -0.48414169009E+02 -0.37880983877E+02 -0.67974216114E+02  0.91768648005E+02  0.47000000000E+01 0. -1.
         -5    1    3    3    0  501 -0.13401750874E+02  0.26990984031E+01 -0.34922737640E+03  0.34952645463E+03  0.47000000000E+01 0. -1.
          5    1    4    4  502    0 -0.23433155887E+02 -0.20111194025E+02 -0.41483413707E+01  0.31509866012E+02  0.47000000000E+01 0. -1.
         -5    1    4    4    0  502  0.85249075769E+02  0.55293079499E+02 -0.13075437599E+03  0.16566087770E+03  0.47000000000E+01 0. -1.
<mgrwt>
<rscale>  0 0.32065475E+03</rscale>
<asrwt>0</asrwt>
<pdfrwt beam="1">  1       21 0.66431952E-02 0.32065475E+03</pdfrwt>
<pdfrwt beam="2">  1       21 0.91582319E-01 0.32065475E+03</pdfrwt>
<totfact> 0.16069866E+05</totfact>
</mgrwt>
</event>
<event>
 8    1  0.9478272E-006  0.2664434E+03  0.7546771E-02  0.1103333E+00
         21   -1    0    0  504  503  0.00000000000E+00  0.00000000000E+00  0.56889882405E+02  0.56889882405E+02  0.00000000000E+00 0.  1.
         21   -1    0    0  503  504 -0.00000000000E+00 -0.00000000000E+00 -0.31197154228E+03  0.31197154228E+03  0.00000000000E+00 0.  1.
         25    2    1    2    0    0  0.17548610171E+01 -0.17088517010E+01 -0.63766162488E+02  0.14035109775E+03  0.12500522969E+03 0.  0.
         25    2    1    2    0    0 -0.17548610171E+01  0.17088517010E+01 -0.19131549739E+03  0.22851032694E+03  0.12493738538E+03 0.  0.
          5    1    3    3  501    0 -0.22980239070E+02  0.53969783073E+02 -0.51119459364E+02  0.77949457973E+02  0.47000000000E+01 0.  1.
         -5    1    3    3    0  501  0.24735100087E+02 -0.55678634774E+02 -0.12646703125E+02  0.62401639775E+02  0.47000000000E+01 0.  1.
          5    1    4    4  502    0 -0.12038471510E+01  0.46300380072E+02 -0.18706459482E+02  0.50171666000E+02  0.47000000000E+01 0.  1.
         -5    1    4    4    0  502 -0.55101386611E+00 -0.44591528371E+02 -0.17260903791E+03  0.17833866094E+03  0.47000000000E+01 0.  1.
<mgrwt>
<rscale>  0 0.26644342E+03</rscale>
<asrwt>0</asrwt>
<pdfrwt beam="1">  1       21 0.87522894E-02 0.26644342E+03</pdfrwt>
<pdfrwt beam="2">  1       21 0.47995623E-01 0.26644342E+03</pdfrwt>
<totfact> 0.41885793E+05</totfact>
</mgrwt>
</event>
<event>
 8    1  0.9478272E-006  0.2616943E+03  0.7546771E-02  0.1106130E+00
         21   -1    0    0  504  503  0.00000000000E+00  0.00000000000E+00  0.89521435812E+02  0.89521435812E+02  0.00000000000E+00 0. -1.
         21   -1    0    0  503  504 -0.00000000000E+00 -0.00000000000E+00 -0.19125005548E+03  0.19125005548E+03  0.00000000000E+00 0. -1.
         25    2    1    2    0    0 -0.21724684770E+01  0.34625607417E+02 -0.32529447091E+02  0.13374211419E+03  0.12500054349E+03 0.  0.
         25    2    1    2    0    0  0.21724684770E+01 -0.34625607417E+02 -0.69199172580E+02  0.14702937710E+03  0.12500183974E+03 0.  0.
          5    1    3    3  501    0 -0.56021914292E+02  0.38924964906E+02 -0.39663547816E+02  0.79049951292E+02  0.47000000000E+01 0.  1.
         -5    1    3    3    0  501  0.53849445815E+02 -0.42993574884E+01  0.71341007252E+01  0.54692162899E+02  0.47000000000E+01 0.  1.
          5    1    4    4  502    0 -0.95448841642E+01 -0.18120658121E+02  0.34975503110E+02  0.40802437210E+02  0.47000000000E+01 0. -1.
         -5    1    4    4    0  502  0.11717352641E+02 -0.16504949296E+02 -0.10417467569E+03  0.10622693989E+03  0.47000000000E+01 0. -1.
<mgrwt>
<rscale>  0 0.26169432E+03</rscale>
<asrwt>0</asrwt>
<pdfrwt beam="1">  1       21 0.13772529E-01 0.26169432E+03</pdfrwt>
<pdfrwt beam="2">  1       21 0.29423085E-01 0.26169432E+03</pdfrwt>
<totfact> 0.50017532E+05</totfact>
</mgrwt>
</event>
<event>
 8    1  0.9478272E-006  0.3334001E+03  0.7546771E-02  0.1069642E+00
         21   -1    0    0  504  503  0.00000000000E+00  0.00000000000E+00  0.10740854354E+04  0.10740854354E+04  0.00000000000E+00 0.  1.
         21   -1    0    0  503  504 -0.00000000000E+00 -0.00000000000E+00 -0.25872160468E+02  0.25872160468E+02  0.00000000000E+00 0.  1.
         25    2    1    2    0    0 -0.45886729833E+00  0.79176003237E+02  0.77742434339E+03  0.79138030269E+03  0.12500049499E+03 0.  0.
         25    2    1    2    0    0  0.45886729833E+00 -0.79176003237E+02  0.27078893155E+03  0.30857729318E+03  0.12499700144E+03 0.  0.
          5    1    3    3  501    0  0.21614208606E+02  0.10224322117E+03  0.43340499511E+03  0.44585068137E+03  0.47000000000E+01 0. -1.
         -5    1    3    3    0  501 -0.22073075904E+02 -0.23067217933E+02  0.34401934828E+03  0.34552962132E+03  0.47000000000E+01 0. -1.
          5    1    4    4  502    0 -0.99177752716E+01 -0.11107551391E+03  0.22925428765E+03  0.25498186301E+03  0.47000000000E+01 0. -1.
         -5    1    4    4    0  502  0.10376642570E+02  0.31899510669E+02  0.41534643896E+02  0.53595430174E+02  0.47000000000E+01 0. -1.
<mgrwt>
<rscale>  0 0.33340012E+03</rscale>
<asrwt>0</asrwt>
<pdfrwt beam="1">  1       21 0.16524388E+00 0.33340012E+03</pdfrwt>
<pdfrwt beam="2">  1       21 0.39803332E-02 0.33340012E+03</pdfrwt>
<totfact> 0.85926978E+04</totfact>
</mgrwt>
</event>
<event>
 8    1  0.9478272E-006  0.4016651E+03  0.7546771E-02  0.1043205E+00
         21   -1    0    0  504  503  0.00000000000E+00  0.00000000000E+00  0.11657982861E+04  0.11657982861E+04  0.00000000000E+00 0. -1.
         21   -1    0    0  503  504 -0.00000000000E+00 -0.00000000000E+00 -0.34597505412E+02  0.34597505412E+02  0.00000000000E+00 0. -1.
         25    2    1    2    0    0 -0.12823434701E+03  0.86843079594E+02  0.48524627456E+03  0.52447597537E+03  0.12500133415E+03 0.  0.
         25    2    1    2    0    0  0.12823434701E+03 -0.86843079594E+02  0.64595450609E+03  0.67591981611E+03  0.12499842256E+03 0.  0.
          5    1    3    3  501    0 -0.68450081355E+02  0.26023850171E+02  0.38872290300E+03  0.39558847270E+03  0.47000000000E+01 0.  1.
         -5    1    3    3    0  501 -0.59784265652E+02  0.60819229423E+02  0.96523371561E+02  0.12888750267E+03  0.47000000000E+01 0.  1.
          5    1    4    4  502    0 -0.62226441886E+01  0.14933945045E+02  0.14213661796E+02  0.22042282027E+02  0.47000000000E+01 0.  1.
         -5    1    4    4    0  502  0.13445699120E+03 -0.10177702464E+03  0.63174084430E+03  0.65387753408E+03  0.47000000000E+01 0.  1.
<mgrwt>
<rscale>  0 0.40166510E+03</rscale>
<asrwt>0</asrwt>
<pdfrwt beam="1">  1       21 0.17935355E+00 0.40166510E+03</pdfrwt>
<pdfrwt beam="2">  1       21 0.53226940E-02 0.40166510E+03</pdfrwt>
<totfact> 0.40504684E+04</totfact>
</mgrwt>
</event>
<event>
 8    1  0.9478272E-006  0.3922882E+03  0.7546771E-02  0.1046483E+00
         21   -1    0    0  504  503  0.00000000000E+00  0.00000000000E+00  0.59282990655E+03  0.59282990655E+03  0.00000000000E+00 0. -1.
         21   -1    0    0  503  504 -0.00000000000E+00 -0.00000000000E+00 -0.64896366391E+02  0.64896366391E+02  0.00000000000E+00 0. -1.
         25    2    1    2    0    0 -0.13156210804E+03 -0.72983550086E+02  0.28839329313E+03  0.34846877618E+03  0.12499843838E+03 0.  0.
         25    2    1    2    0    0  0.13156210804E+03  0.72983550086E+02  0.23954024704E+03  0.30925749677E+03  0.12500192999E+03 0.  0.
          5    1    3    3  501    0 -0.12589364289E+03 -0.38658349239E+01  0.18202884385E+03  0.22140628716E+03  0.47000000000E+01 0.  1.
         -5    1    3    3    0  501 -0.56684651474E+01 -0.69117715162E+02  0.10636444928E+03  0.12706248902E+03  0.47000000000E+01 0.  1.
          5    1    4    4  502    0  0.96853028796E+02  0.31339674692E+02  0.23317557423E+03  0.25447126127E+03  0.47000000000E+01 0.  1.
         -5    1    4    4    0  502  0.34709079241E+02  0.41643875394E+02  0.63646728084E+01  0.54786235494E+02  0.47000000000E+01 0.  1.
<mgrwt>
<rscale>  0 0.39228819E+03</rscale>
<asrwt>0</asrwt>
<pdfrwt beam="1">  1       21 0.91204597E-01 0.39228819E+03</pdfrwt>
<pdfrwt beam="2">  1       21 0.99840568E-02 0.39228819E+03</pdfrwt>
<totfact> 0.77667658E+04</totfact>
</mgrwt>
</event>
<event>
 8    1  0.9478272E-006  0.3676508E+03  0.7546771E-02  0.1055595E+00
         21   -1    0    0  504  503  0.00000000000E+00  0.00000000000E+00  0.12648878787E+03  0.12648878787E+03  0.00000000000E+00 0. -1.
         21   -1    0    0  503  504 -0.00000000000E+00 -0.00000000000E+00 -0.26715240662E+03  0.26715240662E+03  0.00000000000E+00 0. -1.
         25    2    1    2    0    0  0.33000330553E+02  0.11174170767E+03 -0.14288856224E+03  0.22274602147E+03  0.12499367110E+03 0.  0.
         25    2    1    2    0    0 -0.33000330553E+02 -0.11174170767E+03  0.22249434959E+01  0.17089517301E+03  0.12499991495E+03 0.  0.
          5    1    3    3  501    0  0.70168667540E+01  0.26730568849E+02  0.21818231914E+02  0.35523020337E+02  0.47000000000E+01 0.  1.
         -5    1    3    3    0  501  0.25983463799E+02  0.85011138822E+02 -0.16470679415E+03  0.18722300114E+03  0.47000000000E+01 0.  1.
          5    1    4    4  502    0  0.45187310905E+02 -0.26663558546E+02  0.14402840512E+02  0.54611081623E+02  0.47000000000E+01 0.  1.
         -5    1    4    4    0  502 -0.78187641458E+02 -0.85078149124E+02 -0.12177897016E+02  0.11628409139E+03  0.47000000000E+01 0.  1.
<mgrwt>
<rscale>  0 0.36765083E+03</rscale>
<asrwt>0</asrwt>
<pdfrwt beam="1">  1       21 0.19459814E-01 0.36765083E+03</pdfrwt>
<pdfrwt beam="2">  1       21 0.41100370E-01 0.36765083E+03</pdfrwt>
<totfact> 0.13193916E+05</totfact>
</mgrwt>
</event>
<event>
 8    1  0.9478272E-006  0.3294330E+03  0.7546771E-02  0.1071388E+00
         21   -1    0    0  504  503  0.00000000000E+00  0.00000000000E+00  0.33561197825E+02  0.33561197825E+02  0.00000000000E+00 0. -1.
         21   -1    0    0  503  504 -0.00000000000E+00 -0.00000000000E+00 -0.80841951852E+03  0.80841951852E+03  0.00000000000E+00 0. -1.
         25    2    1    2    0    0 -0.97045085450E+02 -0.43176766698E+02 -0.34914932246E+03  0.38576253523E+03  0.12500200965E+03 0.  0.
         25    2    1    2    0    0  0.97045085450E+02  0.43176766698E+02 -0.42570899823E+03  0.45621818112E+03  0.12499958326E+03 0.  0.
          5    1    3    3  501    0 -0.70637106052E+02 -0.12009565483E+02 -0.59625993609E+02  0.93333699854E+02  0.47000000000E+01 0.  1.
         -5    1    3    3    0  501 -0.26407979398E+02 -0.31167201215E+02 -0.28952332885E+03  0.29242883537E+03  0.47000000000E+01 0.  1.
          5    1    4    4  502    0  0.99696333001E+02  0.44367934290E+01 -0.39216445491E+03  0.40469012052E+03  0.47000000000E+01 0. -1.
         -5    1    4    4    0  502 -0.26512475509E+01  0.38739973269E+02 -0.33544543319E+02  0.51528060597E+02  0.47000000000E+01 0. -1.
<mgrwt>
<rscale>  0 0.32943301E+03</rscale>
<asrwt>0</asrwt>
<pdfrwt beam="1">  1       21 0.51632619E-02 0.32943301E+03</pdfrwt>
<pdfrwt beam="2">  1       21 0.12437222E+00 0.32943301E+03</pdfrwt>
<totfact> 0.11730660E+05</totfact>
</mgrwt>
</event>
<event>
 8    1  0.9478272E-006  0.3863380E+03  0.7546771E-02  0.1048616E+00
         21   -1    0    0  504  503  0.00000000000E+00  0.00000000000E+00  0.99485021745E+03  0.99485021745E+03  0.00000000000E+00 0. -1.
         21   -1    0    0  503  504 -0.00000000000E+00 -0.00000000000E+00 -0.37507419992E+02  0.37507419992E+02  0.00000000000E+00 0. -1.
         25    2    1    2    0    0 -0.48071060249E+02 -0.11062331901E+03  0.70449236491E+03  0.72559100487E+03  0.12499787433E+03 0.  0.
         25    2    1    2    0    0  0.48071060249E+02  0.11062331901E+03  0.25285043255E+03  0.30676663258E+03  0.12499632027E+03 0.  0.
          5    1    3    3  501    0  0.27283468172E+02  0.24120673560E+01  0.24040713745E+03  0.24200803177E+03  0.47000000000E+01 0. -1.
         -5    1    3    3    0  501 -0.75354528422E+02 -0.11303538636E+03  0.46408522746E+03  0.48358297310E+03  0.47000000000E+01 0. -1.
          5    1    4    4  502    0  0.46363233494E+02  0.84413708113E+02  0.63291922743E+02  0.11533941660E+03  0.47000000000E+01 0.  1.
         -5    1    4    4    0  502  0.17078267550E+01  0.26209610892E+02  0.18955850981E+03  0.19142721598E+03  0.47000000000E+01 0.  1.
<mgrwt>
<rscale>  0 0.38633801E+03</rscale>
<asrwt>0</asrwt>
<pdfrwt beam="1">  1       21 0.15305386E+00 0.38633801E+03</pdfrwt>
<pdfrwt beam="2">  1       21 0.57703731E-02 0.38633801E+03</pdfrwt>
<totfact> 0.55252880E+04</totfact>
</mgrwt>
</event>
<event>
 8    1  0.9478272E-006  0.3147665E+03  0.7546771E-02  0.1078083E+00
         21   -1    0    0  504  503  0.00000000000E+00  0.00000000000E+00  0.84672954424E+03  0.84672954424E+03  0.00000000000E+00 0. -1.
         21   -1    0    0  503  504 -0.00000000000E+00 -0.00000000000E+00 -0.29253122862E+02  0.29253122862E+02  0.00000000000E+00 0. -1.
         25    2    1    2    0    0  0.90562128198E+02 -0.23727036903E+02  0.35459575577E+03  0.38746354640E+03  0.12500151374E+03 0.  0.
         25    2    1    2    0    0 -0.90562128198E+02  0.23727036903E+02  0.46288066561E+03  0.48851912070E+03  0.12501179685E+03 0.  0.
          5    1    3    3  501    0 -0.76265003503E+01 -0.13487643151E+02 -0.29948157984E+01  0.16466297308E+02  0.47000000000E+01 0. -1.
         -5    1    3    3    0  501  0.98188628548E+02 -0.10239393751E+02  0.35759057157E+03  0.37099724909E+03  0.47000000000E+01 0. -1.
          5    1    4    4  502    0 -0.14522077276E+02 -0.25248342238E+02  0.30563501669E+03  0.30705573263E+03  0.47000000000E+01 0.  1.
         -5    1    4    4    0  502 -0.76040050922E+02  0.48975379140E+02  0.15724564892E+03  0.18146338807E+03  0.47000000000E+01 0.  1.
<mgrwt>
<rscale>  0 0.31476647E+03</rscale>
<asrwt>0</asrwt>
<pdfrwt beam="1">  1       21 0.13026606E+00 0.31476647E+03</pdfrwt>
<pdfrwt beam="2">  1       21 0.45004811E-02 0.31476647E+03</pdfrwt>
<totfact> 0.13237468E+05</totfact>
</mgrwt>
</event>
<event>
 8    1  0.9478272E-006  0.4463330E+03  0.7546771E-02  0.1028821E+00
         21   -1    0    0  504  503  0.00000000000E+00  0.00000000000E+00  0.43118123647E+03  0.43118123647E+03  0.00000000000E+00 0.  1.
         21   -1    0    0  503  504 -0.00000000000E+00 -0.00000000000E+00 -0.11550432050E+03  0.11550432050E+03  0.00000000000E+00 0.  1.
         25    2    1    2    0    0 -0.53446214797E+02 -0.89214068936E+02 -0.29389197733E+02  0.16522740169E+03  0.12498288424E+03 0.  0.
         25    2    1    2    0    0  0.53446214797E+02  0.89214068936E+02  0.34506611370E+03  0.38145815528E+03  0.12499621367E+03 0.  0.
          5    1    3    3  501    0 -0.72000685221E+02 -0.24916933383E+02  0.23423382627E+02  0.79847962373E+02  0.47000000000E+01 0. -1.
         -5    1    3    3    0  501  0.18554470424E+02 -0.64297135554E+02 -0.52812580360E+02  0.85379439313E+02  0.47000000000E+01 0. -1.
          5    1    4    4  502    0  0.58671621375E+02  0.18193236176E+02  0.27363354048E+03  0.28048307876E+03  0.47000000000E+01 0. -1.
         -5    1    4    4    0  502 -0.52254065780E+01  0.71020832760E+02  0.71432573220E+02  0.10097507651E+03  0.47000000000E+01 0. -1.
<mgrwt>
<rscale>  0 0.44633304E+03</rscale>
<asrwt>0</asrwt>
<pdfrwt beam="1">  1       21 0.66335574E-01 0.44633304E+03</pdfrwt>
<pdfrwt beam="2">  1       21 0.17769896E-01 0.44633304E+03</pdfrwt>
<totfact> 0.55299220E+04</totfact>
</mgrwt>
</event>
<event>
 8    1  0.9478272E-006  0.3117002E+03  0.7546771E-02  0.1079534E+00
         21   -1    0    0  504  503  0.00000000000E+00  0.00000000000E+00  0.68209397978E+03  0.68209397978E+03  0.00000000000E+00 0. -1.
         21   -1    0    0  503  504 -0.00000000000E+00 -0.00000000000E+00 -0.35609834884E+02  0.35609834884E+02  0.00000000000E+00 0. -1.
         25    2    1    2    0    0  0.46761874071E+01 -0.65884602634E+02  0.47425899439E+03  0.49488308988E+03  0.12500012516E+03 0.  0.
         25    2    1    2    0    0 -0.46761874071E+01  0.65884602634E+02  0.17222515050E+03  0.22282072479E+03  0.12499970134E+03 0.  0.
          5    1    3    3  501    0 -0.50233654434E+02 -0.38799767139E+02  0.12504250730E+03  0.14030880443E+03  0.47000000000E+01 0.  1.
         -5    1    3    3    0  501  0.54909841841E+02 -0.27084835495E+02  0.34921648709E+03  0.35457428545E+03  0.47000000000E+01 0.  1.
          5    1    4    4  502    0 -0.15640673607E+02 -0.30531397421E+02  0.86809534393E+02  0.93460056500E+02  0.47000000000E+01 0.  1.
         -5    1    4    4    0  502  0.10964486199E+02  0.96416000055E+02  0.85415616107E+02  0.12936066829E+03  0.47000000000E+01 0.  1.
<mgrwt>
<rscale>  0 0.31170020E+03</rscale>
<asrwt>0</asrwt>
<pdfrwt beam="1">  1       21 0.10493753E+00 0.31170020E+03</pdfrwt>
<pdfrwt beam="2">  1       21 0.54784367E-02 0.31170020E+03</pdfrwt>
<totfact> 0.16229222E+05</totfact>
</mgrwt>
</event>
<event>
 8    1  0.9478272E-006  0.3202082E+03  0.7546771E-02  0.1075554E+00
         21   -1    0    0  504  503  0.00000000000E+00  0.00000000000E+00  0.66025488200E+03  0.66025488200E+03  0.00000000000E+00 0. -1.
         21   -1    0    0  503  504 -0.00000000000E+00 -0.00000000000E+00 -0.38823374063E+02  0.38823374063E+02  0.00000000000E+00 0. -1.
         25    2    1    2    0    0 -0.36806725454E+02 -0.91861948658E+02  0.34275980079E+03  0.37802419316E+03  0.12499862770E+03 0.  0.
         25    2    1    2    0    0  0.36806725454E+02  0.91861948658E+02  0.27867170715E+03  0.32105406291E+03  0.12499775315E+03 0.  0.
          5    1    3    3  501    0 -0.82652064197E+02 -0.62003540119E+02  0.24416666765E+03  0.26517023644E+03  0.47000000000E+01 0.  1.
         -5    1    3    3    0  501  0.45845338743E+02 -0.29858408538E+02  0.98593133142E+02  0.11285395672E+03  0.47000000000E+01 0.  1.
          5    1    4    4  502    0  0.82827808877E+02  0.53859635687E+02  0.18736170568E+03  0.21186742325E+03  0.47000000000E+01 0. -1.
         -5    1    4    4    0  502 -0.46021083423E+02  0.38002312970E+02  0.91310001467E+02  0.10918663965E+03  0.47000000000E+01 0. -1.
<mgrwt>
<rscale>  0 0.32020820E+03</rscale>
<asrwt>0</asrwt>
<pdfrwt beam="1">  1       21 0.10157767E+00 0.32020820E+03</pdfrwt>
<pdfrwt beam="2">  1       21 0.59728273E-02 0.32020820E+03</pdfrwt>
<totfact> 0.15098828E+05</totfact>
</mgrwt>
</event>
<event>
 8    1  0.9478272E-006  0.3336207E+03  0.7546771E-02  0.1069546E+00
         21   -1    0    0  504  503  0.00000000000E+00  0.00000000000E+00  0.26570764337E+02  0.26570764337E+02  0.00000000000E+00 0.  1.
         21   -1    0    0  503  504 -0.00000000000E+00 -0.00000000000E+00 -0.10472293785E+04  0.10472293785E+04  0.00000000000E+00 0.  1.
         25    2    1    2    0    0  0.92394474659E+02 -0.62133074451E+01 -0.31655693909E+03  0.35271842116E+03  0.12500657906E+03 0.  0.
         25    2    1    2    0    0 -0.92394474659E+02  0.62133074451E+01 -0.70410167506E+03  0.72108172165E+03  0.12499734537E+03 0.  0.
          5    1    3    3  501    0  0.98529363673E+02  0.35420647564E+02 -0.27079781578E+03  0.29037252764E+03  0.47000000000E+01 0.  1.
         -5    1    3    3    0  501 -0.61348890143E+01 -0.41633955009E+02 -0.45759123310E+02  0.62345893521E+02  0.47000000000E+01 0.  1.
          5    1    4    4  502    0 -0.39037776836E+02  0.64692525877E+02 -0.31349619742E+03  0.32250740568E+03  0.47000000000E+01 0.  1.
         -5    1    4    4    0  502 -0.53356697823E+02 -0.58479218432E+02 -0.39060547764E+03  0.39857431597E+03  0.47000000000E+01 0.  1.
<mgrwt>
<rscale>  0 0.33362065E+03</rscale>
<asrwt>0</asrwt>
<pdfrwt beam="1">  1       21 0.40878102E-02 0.33362065E+03</pdfrwt>
<pdfrwt beam="2">  1       21 0.16111220E+00 0.33362065E+03</pdfrwt>
<totfact> 0.88101124E+04</totfact>
</mgrwt>
</event>
<event>
 8    1  0.9478272E-006  0.3492867E+03  0.7546771E-02  0.1062908E+00
         21   -1    0    0  504  503  0.00000000000E+00  0.00000000000E+00  0.12336301303E+03  0.12336301303E+03  0.00000000000E+00 0.  1.
         21   -1    0    0  503  504 -0.00000000000E+00 -0.00000000000E+00 -0.24724022947E+03  0.24724022947E+03  0.00000000000E+00 0.  1.
         25    2    1    2    0    0  0.49367990634E+01  0.10990283016E+03 -0.60724443032E+01  0.16662829389E+03  0.12500043872E+03 0.  0.
         25    2    1    2    0    0 -0.49367990634E+01 -0.10990283016E+03 -0.11780477213E+03  0.20397494861E+03  0.12499924505E+03 0.  0.
          5    1    3    3  501    0 -0.24753270340E+02  0.50182799896E+02  0.53145791597E+02  0.77314959499E+02  0.47000000000E+01 0. -1.
         -5    1    3    3    0  501  0.29690069403E+02  0.59720030267E+02 -0.59218235901E+02  0.89313334387E+02  0.47000000000E+01 0. -1.
          5    1    4    4  502    0 -0.29719984839E+02 -0.20729831482E+02  0.17071149138E+02  0.40330107178E+02  0.47000000000E+01 0.  1.
         -5    1    4    4    0  502  0.24783185775E+02 -0.89172998680E+02 -0.13487592127E+03  0.16364484144E+03  0.47000000000E+01 0.  1.
<mgrwt>
<rscale>  0 0.34928670E+03</rscale>
<asrwt>0</asrwt>
<pdfrwt beam="1">  1       21 0.18978925E-01 0.34928670E+03</pdfrwt>
<pdfrwt beam="2">  1       21 0.38036958E-01 0.34928670E+03</pdfrwt>
<totfact> 0.16269964E+05</totfact>
</mgrwt>
</event>
<event>
 8    1  0.9478272E-006  0.2622181E+03  0.7546771E-02  0.1105818E+00
         21   -1    0    0  504  503  0.00000000000E+00  0.00000000000E+00  0.84236969761E+02  0.84236969761E+02  0.00000000000E+00 0. -1.
         21   -1    0    0  503  504 -0.00000000000E+00 -0.00000000000E+00 -0.20406218400E+03  0.20406218400E+03  0.00000000000E+00 0. -1.
         25    2    1    2    0    0  0.27531358440E+02 -0.27547827773E+02 -0.52354449665E+02  0.14100516776E+03  0.12499844168E+03 0.  0.
         25    2    1    2    0    0 -0.27531358440E+02  0.27547827773E+02 -0.67470764574E+02  0.14729398600E+03  0.12500542279E+03 0.  0.
          5    1    3    3  501    0  0.71966562915E+02 -0.35366103863E+02 -0.13860670855E+02  0.81511690431E+02  0.47000000000E+01 0.  1.
         -5    1    3    3    0  501 -0.44435204475E+02  0.78182760905E+01 -0.38493778810E+02  0.59493477330E+02  0.47000000000E+01 0.  1.
          5    1    4    4  502    0 -0.68620910366E+02  0.32371138039E+02 -0.10516261364E+02  0.76742437220E+02  0.47000000000E+01 0.  1.
         -5    1    4    4    0  502  0.41089551926E+02 -0.48233102661E+01 -0.56954503210E+02  0.70551548780E+02  0.47000000000E+01 0.  1.
<mgrwt>
<rscale>  0 0.26221808E+03</rscale>
<asrwt>0</asrwt>
<pdfrwt beam="1">  1       21 0.12959534E-01 0.26221808E+03</pdfrwt>
<pdfrwt beam="2">  1       21 0.31394182E-01 0.26221808E+03</pdfrwt>
<totfact> 0.49173236E+05</totfact>
</mgrwt>
</event>
<event>
 8    1  0.9478272E-006  0.2833654E+03  0.7546771E-02  0.1093865E+00
         21   -1    0    0  504  503  0.00000000000E+00  0.00000000000E+00  0.10233437064E+03  0.10233437064E+03  0.00000000000E+00 0. -1.
         21   -1    0    0  503  504 -0.00000000000E+00 -0.00000000000E+00 -0.19616075910E+03  0.19616075910E+03  0.00000000000E+00 0. -1.
         25    2    1    2    0    0  0.34066724570E+02  0.57035763963E+02 -0.40573357172E+02  0.14724417827E+03  0.12498412151E+03 0.  0.
         25    2    1    2    0    0 -0.34066724570E+02 -0.57035763963E+02 -0.53253031287E+02  0.15125095147E+03  0.12500937919E+03 0.  0.
          5    1    3    3  501    0  0.26741159743E+02 -0.37647486835E+02 -0.11577869848E+02  0.47838895886E+02  0.47000000000E+01 0.  1.
         -5    1    3    3    0  501  0.73255648269E+01  0.94683250798E+02 -0.28995487325E+02  0.99405282389E+02  0.47000000000E+01 0.  1.
          5    1    4    4  502    0  0.32600352302E+02 -0.74535120596E+00  0.18855536013E+02  0.37959975724E+02  0.47000000000E+01 0. -1.
         -5    1    4    4    0  502 -0.66667076871E+02 -0.56290412757E+02 -0.72108567300E+02  0.11329097574E+03  0.47000000000E+01 0. -1.
<mgrwt>
<rscale>  0 0.28336540E+03</rscale>
<asrwt>0</asrwt>
<pdfrwt beam="1">  1       21 0.15743749E-01 0.28336540E+03</pdfrwt>
<pdfrwt beam="2">  1       21 0.30178578E-01 0.28336540E+03</pdfrwt>
<totfact> 0.37097747E+05</totfact>
</mgrwt>
</event>
<event>
 8    1  0.9478272E-006  0.3193470E+03  0.7546771E-02  0.1075950E+00
         21   -1    0    0  504  503  0.00000000000E+00  0.00000000000E+00  0.11652950126E+04  0.11652950126E+04  0.00000000000E+00 0.  1.
         21   -1    0    0  503  504 -0.00000000000E+00 -0.00000000000E+00 -0.21879116725E+02  0.21879116725E+02  0.00000000000E+00 0.  1.
         25    2    1    2    0    0 -0.15154189278E+02  0.17503566107E+02  0.93087186850E+03  0.93951172479E+03  0.12499528456E+03 0.  0.
         25    2    1    2    0    0  0.15154189278E+02 -0.17503566107E+02  0.21254402741E+03  0.24766240458E+03  0.12500271507E+03 0.  0.
          5    1    3    3  501    0 -0.33888077567E+01  0.59642084729E+02  0.78149084441E+03  0.78378485070E+03  0.47000000000E+01 0. -1.
         -5    1    3    3    0  501 -0.11765381522E+02 -0.42138518622E+02  0.14938102410E+03  0.15572687409E+03  0.47000000000E+01 0. -1.
          5    1    4    4  502    0 -0.49645450945E+02  0.13849179010E+02  0.62268801530E+02  0.80968908865E+02  0.47000000000E+01 0.  1.
         -5    1    4    4    0  502  0.64799640223E+02 -0.31352745116E+02  0.15027522588E+03  0.16669349571E+03  0.47000000000E+01 0.  1.
<mgrwt>
<rscale>  0 0.31934699E+03</rscale>
<asrwt>0</asrwt>
<pdfrwt beam="1">  1       21 0.17927611E+00 0.31934699E+03</pdfrwt>
<pdfrwt beam="2">  1       21 0.33660189E-02 0.31934699E+03</pdfrwt>
<totfact> 0.90977442E+04</totfact>
</mgrwt>
</event>
<event>
 8    1  0.9478272E-006  0.2745742E+03  0.7546771E-02  0.1098690E+00
         21   -1    0    0  504  503  0.00000000000E+00  0.00000000000E+00  0.94422634124E+03  0.94422634124E+03  0.00000000000E+00 0.  1.
         21   -1    0    0  503  504 -0.00000000000E+00 -0.00000000000E+00 -0.19961054220E+02  0.19961054220E+02  0.00000000000E+00 0.  1.
         25    2    1    2    0    0 -0.51434957299E+02 -0.23827671760E+02  0.45116773227E+03  0.47158338851E+03  0.12500102763E+03 0.  0.
         25    2    1    2    0    0  0.51434957299E+02  0.23827671760E+02  0.47309755475E+03  0.49260400695E+03  0.12499639424E+03 0.  0.
          5    1    3    3  501    0 -0.54793953784E+02  0.34799568629E+02  0.13372707535E+03  0.14872258749E+03  0.47000000000E+01 0.  1.
         -5    1    3    3    0  501  0.33589964856E+01 -0.58627240389E+02  0.31744065692E+03  0.32286080102E+03  0.47000000000E+01 0.  1.
          5    1    4    4  502    0  0.15123511184E+02 -0.39097297936E+02  0.61244866161E+02  0.74366275471E+02  0.47000000000E+01 0.  1.
         -5    1    4    4    0  502  0.36311446115E+02  0.62924969695E+02  0.41185268859E+03  0.41823773148E+03  0.47000000000E+01 0.  1.
<mgrwt>
<rscale>  0 0.27457424E+03</rscale>
<asrwt>0</asrwt>
<pdfrwt beam="1">  1       21 0.14526556E+00 0.27457424E+03</pdfrwt>
<pdfrwt beam="2">  1       21 0.30709321E-02 0.27457424E+03</pdfrwt>
<totfact> 0.19210600E+05</totfact>
</mgrwt>
</event>
<event>
 8    1  0.9478272E-006  0.2848950E+03  0.7546771E-02  0.1093045E+00
         21   -1    0    0  504  503  0.00000000000E+00  0.00000000000E+00  0.12301260448E+03  0.12301260448E+03  0.00000000000E+00 0.  1.
         21   -1    0    0  503  504 -0.00000000000E+00 -0.00000000000E+00 -0.16495295672E+03  0.16495295672E+03  0.00000000000E+00 0.  1.
         25    2    1    2    0    0 -0.68869064944E+01  0.45297307777E+02 -0.72170875955E+02  0.15143809251E+03  0.12500233980E+03 0.  0.
         25    2    1    2    0    0  0.68869064944E+01 -0.45297307777E+02  0.30230523711E+02  0.13652746868E+03  0.12500635811E+03 0.  0.
          5    1    3    3  501    0 -0.62433072208E+02  0.12367545340E+02 -0.16173541991E+02  0.65837057526E+02  0.47000000000E+01 0.  1.
         -5    1    3    3    0  501  0.55546165714E+02  0.32929762437E+02 -0.55997333964E+02  0.85601034986E+02  0.47000000000E+01 0.  1.
          5    1    4    4  502    0  0.58194258851E+02 -0.34406690339E+02 -0.12252945526E+02  0.68866659403E+02  0.47000000000E+01 0. -1.
         -5    1    4    4    0  502 -0.51307352357E+02 -0.10890617438E+02  0.42483469237E+02  0.67660809280E+02  0.47000000000E+01 0. -1.
<mgrwt>
<rscale>  0 0.28489502E+03</rscale>
<asrwt>0</asrwt>
<pdfrwt beam="1">  1       21 0.18925016E-01 0.28489502E+03</pdfrwt>
<pdfrwt beam="2">  1       21 0.25377378E-01 0.28489502E+03</pdfrwt>
<totfact> 0.36922474E+05</totfact>
</mgrwt>
</event>
<event>
 8    1  0.9478272E-006  0.3324326E+03  0.7546771E-02  0.1070066E+00
         21   -1    0    0  504  503  0.00000000000E+00  0.00000000000E+00  0.21163572069E+04  0.21163572069E+04  0.00000000000E+00 0.  1.
         21   -1    0    0  503  504 -0.00000000000E+00 -0.00000000000E+00 -0.13054439288E+02  0.13054439288E+02  0.00000000000E+00 0.  1.
         25    2    1    2    0    0 -0.46894986064E+02 -0.68891231482E+02  0.15070676959E+04  0.15145410252E+04  0.12504533347E+03 0.  0.
         25    2    1    2    0    0  0.46894986064E+02  0.68891231482E+02  0.59623507163E+03  0.61487062093E+03  0.12499791337E+03 0.  0.
          5    1    3    3  501    0 -0.77262249979E+02 -0.61872921325E+02  0.71361121258E+03  0.72045871942E+03  0.47000000000E+01 0.  1.
         -5    1    3    3    0  501  0.30367263915E+02 -0.70183101571E+01  0.79345648336E+03  0.79408230580E+03  0.47000000000E+01 0.  1.
          5    1    4    4  502    0 -0.32158874355E+02  0.54420585518E+02  0.17778597336E+03  0.18874780966E+03  0.47000000000E+01 0.  1.
         -5    1    4    4    0  502  0.79053860419E+02  0.14470645965E+02  0.41844909827E+03  0.42612281127E+03  0.47000000000E+01 0.  1.
<mgrwt>
<rscale>  0 0.33243259E+03</rscale>
<asrwt>0</asrwt>
<pdfrwt beam="1">  1       21 0.32559314E+00 0.33243259E+03</pdfrwt>
<pdfrwt beam="2">  1       21 0.20083770E-02 0.33243259E+03</pdfrwt>
<totfact> 0.26654415E+04</totfact>
</mgrwt>
</event>
<event>
 8    1  0.9478272E-006  0.3594850E+03  0.7546771E-02  0.1058788E+00
         21   -1    0    0  504  503  0.00000000000E+00  0.00000000000E+00  0.23422138555E+03  0.23422138555E+03  0.00000000000E+00 0.  1.
         21   -1    0    0  503  504 -0.00000000000E+00 -0.00000000000E+00 -0.13793514525E+03  0.13793514525E+03  0.00000000000E+00 0.  1.
         25    2    1    2    0    0 -0.61606172111E+02 -0.99198908666E+02 -0.90094757651E+01  0.17129055396E+03  0.12499415706E+03 0.  0.
         25    2    1    2    0    0  0.61606172111E+02  0.99198908666E+02  0.10529571607E+03  0.20086597684E+03  0.12499683560E+03 0.  0.
          5    1    3    3  501    0  0.15400930505E+02  0.17240283633E+02  0.17172468412E+02  0.29178754455E+02  0.47000000000E+01 0.  1.
         -5    1    3    3    0  501 -0.77007102616E+02 -0.11643919230E+03 -0.26181944177E+02  0.14211179950E+03  0.47000000000E+01 0.  1.
          5    1    4    4  502    0 -0.62143933451E+00 -0.28514756703E+02  0.17254924977E+02  0.33664520978E+02  0.47000000000E+01 0. -1.
         -5    1    4    4    0  502  0.62227611445E+02  0.12771366537E+03  0.88040791088E+02  0.16720145587E+03  0.47000000000E+01 0. -1.
<mgrwt>
<rscale>  0 0.35948497E+03</rscale>
<asrwt>0</asrwt>
<pdfrwt beam="1">  1       21 0.36034059E-01 0.35948497E+03</pdfrwt>
<pdfrwt beam="2">  1       21 0.21220792E-01 0.35948497E+03</pdfrwt>
<totfact> 0.14663294E+05</totfact>
</mgrwt>
</event>
<event>
 8    1  0.9478272E-006  0.2707433E+03  0.7546771E-02  0.1100855E+00
         21   -1    0    0  504  503  0.00000000000E+00  0.00000000000E+00  0.22869781269E+02  0.22869781269E+02  0.00000000000E+00 0. -1.
         21   -1    0    0  503  504 -0.00000000000E+00 -0.00000000000E+00 -0.80129692457E+03  0.80129692457E+03  0.00000000000E+00 0. -1.
         25    2    1    2    0    0  0.33000783332E+02 -0.28054857964E+02 -0.47649221751E+03  0.49451578089E+03  0.12499958979E+03 0.  0.
         25    2    1    2    0    0 -0.33000783332E+02  0.28054857964E+02 -0.30193492579E+03  0.32965092495E+03  0.12501562362E+03 0.  0.
          5    1    3    3  501    0 -0.11462173399E+02  0.12762772872E+02 -0.40907481817E+01  0.18250863297E+02  0.47000000000E+01 0.  1.
         -5    1    3    3    0  501  0.44462956730E+02 -0.40817630836E+02 -0.47240146933E+03  0.47626491760E+03  0.47000000000E+01 0.  1.
          5    1    4    4  502    0 -0.22471705461E+02  0.20062900465E+02 -0.32782006590E+01  0.30664867861E+02  0.47000000000E+01 0. -1.
         -5    1    4    4    0  502 -0.10529077871E+02  0.79919574990E+01 -0.29865672513E+03  0.29898605708E+03  0.47000000000E+01 0. -1.
<mgrwt>
<rscale>  0 0.27074331E+03</rscale>
<asrwt>0</asrwt>
<pdfrwt beam="1">  1       21 0.35184276E-02 0.27074331E+03</pdfrwt>
<pdfrwt beam="2">  1       21 0.12327646E+00 0.27074331E+03</pdfrwt>
<totfact> 0.23385190E+05</totfact>
</mgrwt>
</event>
<event>
 8    1  0.9478272E-006  0.3521209E+03  0.7546771E-02  0.1061748E+00
         21   -1    0    0  504  503  0.00000000000E+00  0.00000000000E+00  0.87733254036E+02  0.87733254036E+02  0.00000000000E+00 0. -1.
         21   -1    0    0  503  504 -0.00000000000E+00 -0.00000000000E+00 -0.35331285298E+03  0.35331285298E+03  0.00000000000E+00 0. -1.
         25    2    1    2    0    0  0.80130369713E+02 -0.93382409020E+02 -0.11402073281E+03  0.20922960182E+03  0.12504058662E+03 0.  0.
         25    2    1    2    0    0 -0.80130369713E+02  0.93382409020E+02 -0.15155886613E+03  0.23181650520E+03  0.12501060640E+03 0.  0.
          5    1    3    3  501    0  0.41236659613E+02 -0.78349050029E+01 -0.10681531611E+03  0.11486274239E+03  0.47000000000E+01 0.  1.
         -5    1    3    3    0  501  0.38893710100E+02 -0.85547504017E+02 -0.72054166954E+01  0.94366859430E+02  0.47000000000E+01 0.  1.
          5    1    4    4  502    0  0.30944414653E+02  0.33698747985E+02 -0.22063521524E+02  0.51010306762E+02  0.47000000000E+01 0. -1.
         -5    1    4    4    0  502 -0.11107478437E+03  0.59683661035E+02 -0.12949534461E+03  0.18080619843E+03  0.47000000000E+01 0. -1.
<mgrwt>
<rscale>  0 0.35212092E+03</rscale>
<asrwt>0</asrwt>
<pdfrwt beam="1">  1       21 0.13497424E-01 0.35212092E+03</pdfrwt>
<pdfrwt beam="2">  1       21 0.54355824E-01 0.35212092E+03</pdfrwt>
<totfact> 0.14529231E+05</totfact>
</mgrwt>
</event>
<event>
 8    1  0.9478272E-006  0.2978531E+03  0.7546771E-02  0.1086319E+00
         21   -1    0    0  504  503  0.00000000000E+00  0.00000000000E+00  0.17533155832E+03  0.17533155832E+03  0.00000000000E+00 0. -1.
         21   -1    0    0  503  504 -0.00000000000E+00 -0.00000000000E+00 -0.12649815975E+03  0.12649815975E+03  0.00000000000E+00 0. -1.
         25    2    1    2    0    0 -0.41930953516E+02 -0.13348242139E+02  0.93280976598E+02  0.16205762619E+03  0.12499981272E+03 0.  0.
         25    2    1    2    0    0  0.41930953516E+02  0.13348242139E+02 -0.44447578032E+02  0.13977209188E+03  0.12499708015E+03 0.  0.
          5    1    3    3  501    0 -0.70022887369E+02 -0.46587372077E+02  0.40437938926E+02  0.93439311305E+02  0.47000000000E+01 0. -1.
         -5    1    3    3    0  501  0.28091933853E+02  0.33239129938E+02  0.52843037672E+02  0.68618314881E+02  0.47000000000E+01 0. -1.
          5    1    4    4  502    0  0.56985752610E+02  0.25876907870E+02  0.24928244925E+02  0.67531457532E+02  0.47000000000E+01 0.  1.
         -5    1    4    4    0  502 -0.15054799093E+02 -0.12528665731E+02 -0.69375822956E+02  0.72240634352E+02  0.47000000000E+01 0.  1.
<mgrwt>
<rscale>  0 0.29785311E+03</rscale>
<asrwt>0</asrwt>
<pdfrwt beam="1">  1       21 0.26974086E-01 0.29785311E+03</pdfrwt>
<pdfrwt beam="2">  1       21 0.19461255E-01 0.29785311E+03</pdfrwt>
<totfact> 0.31052919E+05</totfact>
</mgrwt>
</event>
<event>
 8    1  0.9478272E-006  0.3848841E+03  0.7546771E-02  0.1049143E+00
         21   -1    0    0  504  503  0.00000000000E+00  0.00000000000E+00  0.10020675670E+03  0.10020675670E+03  0.00000000000E+00 0. -1.
         21   -1    0    0  503  504 -0.00000000000E+00 -0.00000000000E+00 -0.36957532674E+03  0.36957532674E+03  0.00000000000E+00 0. -1.
         25    2    1    2    0    0  0.10882004106E+03  0.90210215668E+02 -0.88586264298E+02  0.20845086735E+03  0.12499821410E+03 0.  0.
         25    2    1    2    0    0 -0.10882004106E+03 -0.90210215668E+02 -0.18078230574E+03  0.26133121609E+03  0.12502830914E+03 0.  0.
          5    1    3    3  501    0 -0.17430636546E+02 -0.95106662679E+01  0.66157937970E+01  0.21450841262E+02  0.47000000000E+01 0. -1.
         -5    1    3    3    0  501  0.12625067761E+03  0.99720881936E+02 -0.95202058095E+02  0.18700002609E+03  0.47000000000E+01 0. -1.
          5    1    4    4  502    0 -0.34383863731E+02 -0.10049649129E+03 -0.13971762018E+03  0.17557020885E+03  0.47000000000E+01 0.  1.
         -5    1    4    4    0  502 -0.74436177333E+02  0.10286275621E+02 -0.41064685553E+02  0.85761007233E+02  0.47000000000E+01 0.  1.
<mgrwt>
<rscale>  0 0.38488411E+03</rscale>
<asrwt>0</asrwt>
<pdfrwt beam="1">  1       21 0.15416424E-01 0.38488411E+03</pdfrwt>
<pdfrwt beam="2">  1       21 0.56857743E-01 0.38488411E+03</pdfrwt>
<totfact> 0.10251339E+05</totfact>
</mgrwt>
</event>
<event>
 8    1  0.9478272E-006  0.2977744E+03  0.7546771E-02  0.1086358E+00
         21   -1    0    0  504  503  0.00000000000E+00  0.00000000000E+00  0.65275586217E+02  0.65275586217E+02  0.00000000000E+00 0.  1.
         21   -1    0    0  503  504 -0.00000000000E+00 -0.00000000000E+00 -0.33959716048E+03  0.33959716048E+03  0.00000000000E+00 0.  1.
         25    2    1    2    0    0  0.23741521972E+02 -0.53176142839E+02 -0.60824413804E+02  0.15071672659E+03  0.12499824129E+03 0.  0.
         25    2    1    2    0    0 -0.23741521972E+02  0.53176142839E+02 -0.21349716046E+03  0.25415602011E+03  0.12499153171E+03 0.  0.
          5    1    3    3  501    0  0.70322476881E+01 -0.93527239465E+02 -0.39303968961E+02  0.10180220531E+03  0.47000000000E+01 0. -1.
         -5    1    3    3    0  501  0.16709274284E+02  0.40351096626E+02 -0.21520444843E+02  0.48914521282E+02  0.47000000000E+01 0. -1.
          5    1    4    4  502    0  0.25063840117E+02  0.38222660078E+02 -0.13787254774E+02  0.47972348484E+02  0.47000000000E+01 0. -1.
         -5    1    4    4    0  502 -0.48805362089E+02  0.14953482761E+02 -0.19970990569E+03  0.20618367162E+03  0.47000000000E+01 0. -1.
<mgrwt>
<rscale>  0 0.29777444E+03</rscale>
<asrwt>0</asrwt>
<pdfrwt beam="1">  1       21 0.10042398E-01 0.29777444E+03</pdfrwt>
<pdfrwt beam="2">  1       21 0.52245718E-01 0.29777444E+03</pdfrwt>
<totfact> 0.27280305E+05</totfact>
</mgrwt>
</event>
<event>
 8    1  0.9478272E-006  0.3281383E+03  0.7546771E-02  0.1071964E+00
         21   -1    0    0  504  503  0.00000000000E+00  0.00000000000E+00  0.67250208977E+03  0.67250208977E+03  0.00000000000E+00 0. -1.
         21   -1    0    0  503  504 -0.00000000000E+00 -0.00000000000E+00 -0.40027656159E+02  0.40027656159E+02  0.00000000000E+00 0. -1.
         25    2    1    2    0    0  0.56557957306E+02 -0.30285187450E+02  0.13229416590E+03  0.19299029211E+03  0.12501004521E+03 0.  0.
         25    2    1    2    0    0 -0.56557957306E+02  0.30285187450E+02  0.50018026772E+03  0.51953945383E+03  0.12499979501E+03 0.  0.
          5    1    3    3  501    0  0.60318716961E+02  0.25662092803E+02  0.22231278034E+02  0.69377304256E+02  0.47000000000E+01 0.  1.
         -5    1    3    3    0  501 -0.37607596549E+01 -0.55947280253E+02  0.11006288786E+03  0.12361298785E+03  0.47000000000E+01 0.  1.
          5    1    4    4  502    0  0.10981276618E+02 -0.38827778879E+02  0.10242469117E+03  0.11018662446E+03  0.47000000000E+01 0. -1.
         -5    1    4    4    0  502 -0.67539233924E+02  0.69112966329E+02  0.39775557655E+03  0.40935282937E+03  0.47000000000E+01 0. -1.
<mgrwt>
<rscale>  0 0.32813828E+03</rscale>
<asrwt>0</asrwt>
<pdfrwt beam="1">  1       21 0.10346185E+00 0.32813828E+03</pdfrwt>
<pdfrwt beam="2">  1       21 0.61581015E-02 0.32813828E+03</pdfrwt>
<totfact> 0.13668416E+05</totfact>
</mgrwt>
</event>
<event>
 8    1  0.9478272E-006  0.2805650E+03  0.7546771E-02  0.1095381E+00
         21   -1    0    0  504  503  0.00000000000E+00  0.00000000000E+00  0.15608124054E+02  0.15608124054E+02  0.00000000000E+00 0.  1.
         21   -1    0    0  503  504 -0.00000000000E+00 -0.00000000000E+00 -0.12608297059E+04  0.12608297059E+04  0.00000000000E+00 0.  1.
         25    2    1    2    0    0 -0.61620327915E+02 -0.72847281487E+01 -0.55765518293E+03  0.57485258641E+03  0.12500424382E+03 0.  0.
         25    2    1    2    0    0  0.61620327915E+02  0.72847281487E+01 -0.68756639892E+03  0.70158524355E+03  0.12499667583E+03 0.  0.
          5    1    3    3  501    0  0.34802860267E+02 -0.17742548936E+01 -0.24717449251E+03  0.24966318674E+03  0.47000000000E+01 0.  1.
         -5    1    3    3    0  501 -0.96423188182E+02 -0.55104732551E+01 -0.31048069042E+03  0.32518939967E+03  0.47000000000E+01 0.  1.
          5    1    4    4  502    0  0.10513387105E+02 -0.11417629134E+02 -0.58631328992E+03  0.58653751585E+03  0.47000000000E+01 0. -1.
         -5    1    4    4    0  502  0.51106940810E+02  0.18702357283E+02 -0.10125310900E+03  0.11504772770E+03  0.47000000000E+01 0. -1.
<mgrwt>
<rscale>  0 0.28056505E+03</rscale>
<asrwt>0</asrwt>
<pdfrwt beam="1">  1       21 0.24012491E-02 0.28056505E+03</pdfrwt>
<pdfrwt beam="2">  1       21 0.19397386E+00 0.28056505E+03</pdfrwt>
<totfact> 0.12872283E+05</totfact>
</mgrwt>
</event>
<event>
 8    1  0.9478272E-006  0.4774149E+03  0.7546771E-02  0.1019848E+00
         21   -1    0    0  504  503  0.00000000000E+00  0.00000000000E+00  0.53992011027E+03  0.53992011027E+03  0.00000000000E+00 0.  1.
         21   -1    0    0  503  504 -0.00000000000E+00 -0.00000000000E+00 -0.10553645409E+03  0.10553645409E+03  0.00000000000E+00 0.  1.
         25    2    1    2    0    0 -0.13533729141E+03 -0.10596269022E+03  0.36413407784E+03  0.42161860710E+03  0.12499739614E+03 0.  0.
         25    2    1    2    0    0  0.13533729141E+03  0.10596269022E+03  0.70249578343E+02  0.22383795727E+03  0.12499661472E+03 0.  0.
          5    1    3    3  501    0 -0.23940675448E+02  0.23871755128E+02  0.26951898325E+02  0.43491510173E+02  0.47000000000E+01 0. -1.
         -5    1    3    3    0  501 -0.11139661596E+03 -0.12983444534E+03  0.33718217951E+03  0.37812709692E+03  0.47000000000E+01 0. -1.
          5    1    4    4  502    0  0.15290899608E+03  0.79631047370E+02  0.80369894477E+02  0.19027263262E+03  0.47000000000E+01 0.  1.
         -5    1    4    4    0  502 -0.17571704666E+02  0.26331642846E+02 -0.10120316134E+02  0.33565324645E+02  0.47000000000E+01 0.  1.
<mgrwt>
<rscale>  0 0.47741493E+03</rscale>
<asrwt>0</asrwt>
<pdfrwt beam="1">  1       21 0.83064631E-01 0.47741493E+03</pdfrwt>
<pdfrwt beam="2">  1       21 0.16236378E-01 0.47741493E+03</pdfrwt>
<totfact> 0.38966948E+04</totfact>
</mgrwt>
</event>
<event>
 8    1  0.9478272E-006  0.2654189E+03  0.7546771E-02  0.1103930E+00
         21   -1    0    0  504  503  0.00000000000E+00  0.00000000000E+00  0.10416815166E+03  0.10416815166E+03  0.00000000000E+00 0. -1.
         21   -1    0    0  503  504 -0.00000000000E+00 -0.00000000000E+00 -0.16907082889E+03  0.16907082889E+03  0.00000000000E+00 0. -1.
         25    2    1    2    0    0 -0.12141164548E+02 -0.21530790731E+02 -0.70765532132E+02  0.14568308125E+03  0.12491924111E+03 0.  0.
         25    2    1    2    0    0  0.12141164548E+02  0.21530790731E+02  0.58628549078E+01  0.12755589930E+03  0.12500060621E+03 0.  0.
          5    1    3    3  501    0 -0.57705901092E+02 -0.47214123477E+02 -0.44633023714E+02  0.87024946322E+02  0.47000000000E+01 0.  1.
         -5    1    3    3    0  501  0.45564736543E+02  0.25683332746E+02 -0.26132508418E+02  0.58658134930E+02  0.47000000000E+01 0.  1.
          5    1    4    4  502    0  0.48247284686E+00 -0.24236380728E+02 -0.49086179531E+02  0.54947046798E+02  0.47000000000E+01 0. -1.
         -5    1    4    4    0  502  0.11658691701E+02  0.45767171459E+02  0.54949034439E+02  0.72608852499E+02  0.47000000000E+01 0. -1.
<mgrwt>
<rscale>  0 0.26541888E+03</rscale>
<asrwt>0</asrwt>
<pdfrwt beam="1">  1       21 0.16025870E-01 0.26541888E+03</pdfrwt>
<pdfrwt beam="2">  1       21 0.26010897E-01 0.26541888E+03</pdfrwt>
<totfact> 0.48125059E+05</totfact>
</mgrwt>
</event>
<event>
 8    1  0.9478272E-006  0.2652440E+03  0.7546771E-02  0.1104033E+00
         21   -1    0    0  504  503  0.00000000000E+00  0.00000000000E+00  0.37502903382E+03  0.37502903382E+03  0.00000000000E+00 0.  1.
         21   -1    0    0  503  504 -0.00000000000E+00 -0.00000000000E+00 -0.46899289917E+02  0.46899289917E+02  0.00000000000E+00 0.  1.
         25    2    1    2    0    0 -0.12656426589E+01 -0.41999199606E+02  0.18641851240E+03  0.22834749332E+03  0.12500072529E+03 0.  0.
         25    2    1    2    0    0  0.12656426589E+01  0.41999199606E+02  0.14171123150E+03  0.19358083041E+03  0.12500372054E+03 0.  0.
          5    1    3    3  501    0  0.80717637785E+01 -0.99446531551E+01 -0.17201356896E+02  0.21955094533E+02  0.47000000000E+01 0.  1.
         -5    1    3    3    0  501 -0.93374064373E+01 -0.32054546451E+02  0.20361986929E+03  0.20639239879E+03  0.47000000000E+01 0.  1.
          5    1    4    4  502    0 -0.35604624075E+02 -0.21014667623E+02  0.98125355217E+01  0.42751390202E+02  0.47000000000E+01 0.  1.
         -5    1    4    4    0  502  0.36870266734E+02  0.63013867229E+02  0.13189869598E+03  0.15082944021E+03  0.47000000000E+01 0.  1.
<mgrwt>
<rscale>  0 0.26524400E+03</rscale>
<asrwt>0</asrwt>
<pdfrwt beam="1">  1       21 0.57696773E-01 0.26524400E+03</pdfrwt>
<pdfrwt beam="2">  1       21 0.72152756E-02 0.26524400E+03</pdfrwt>
<totfact> 0.39791553E+05</totfact>
</mgrwt>
</event>
<event>
 8    1  0.9478272E-006  0.2569772E+03  0.7546771E-02  0.1108973E+00
         21   -1    0    0  504  503  0.00000000000E+00  0.00000000000E+00  0.14503503165E+04  0.14503503165E+04  0.00000000000E+00 0.  1.
         21   -1    0    0  503  504 -0.00000000000E+00 -0.00000000000E+00 -0.11382987984E+02  0.11382987984E+02  0.00000000000E+00 0.  1.
         25    2    1    2    0    0 -0.10804097360E+02 -0.11401379817E+02  0.57585759144E+03  0.58947750694E+03  0.12500018234E+03 0.  0.
         25    2    1    2    0    0  0.10804097360E+02  0.11401379817E+02  0.86310973706E+03  0.87225579753E+03  0.12500015254E+03 0.  0.
          5    1    3    3  501    0 -0.86207678362E+01  0.14536083933E+02  0.53247758380E+01  0.18331901481E+02  0.47000000000E+01 0.  1.
         -5    1    3    3    0  501 -0.21833295233E+01 -0.25937463750E+02  0.57053281560E+03  0.57114560546E+03  0.47000000000E+01 0.  1.
          5    1    4    4  502    0 -0.96880233174E+01  0.57243587952E+02  0.67480637494E+03  0.67731559839E+03  0.47000000000E+01 0.  1.
         -5    1    4    4    0  502  0.20492120677E+02 -0.45842208134E+02  0.18830336212E+03  0.19494019914E+03  0.47000000000E+01 0.  1.
<mgrwt>
<rscale>  0 0.25697720E+03</rscale>
<asrwt>0</asrwt>
<pdfrwt beam="1">  1       21 0.22313067E+00 0.25697720E+03</pdfrwt>
<pdfrwt beam="2">  1       21 0.17512301E-02 0.25697720E+03</pdfrwt>
<totfact> 0.14205364E+05</totfact>
</mgrwt>
</event>
<event>
 8    1  0.9478272E-006  0.5064077E+03  0.7546771E-02  0.1012120E+00
         21   -1    0    0  504  503  0.00000000000E+00  0.00000000000E+00  0.66358408453E+02  0.66358408453E+02  0.00000000000E+00 0. -1.
         21   -1    0    0  503  504 -0.00000000000E+00 -0.00000000000E+00 -0.96615017373E+03  0.96615017373E+03  0.00000000000E+00 0. -1.
         25    2    1    2    0    0  0.65770324314E+02  0.18464981217E+03 -0.24533285675E+03  0.33798548744E+03  0.12499876168E+03 0.  0.
         25    2    1    2    0    0 -0.65770324314E+02 -0.18464981217E+03 -0.65445890852E+03  0.69452309474E+03  0.12499830996E+03 0.  0.
          5    1    3    3  501    0  0.59634802602E+02  0.19130292234E+03 -0.17251012916E+03  0.26445217420E+03  0.47000000000E+01 0. -1.
         -5    1    3    3    0  501  0.61355217121E+01 -0.66531101709E+01 -0.72822727593E+02  0.73533313238E+02  0.47000000000E+01 0. -1.
          5    1    4    4  502    0 -0.36589034980E+02  0.44664659428E+01 -0.16118342475E+03  0.16541128503E+03  0.47000000000E+01 0.  1.
         -5    1    4    4    0  502 -0.29181289333E+02 -0.18911627811E+03 -0.49327548377E+03  0.52911180972E+03  0.47000000000E+01 0.  1.
<mgrwt>
<rscale>  0 0.50640769E+03</rscale>
<asrwt>0</asrwt>
<pdfrwt beam="1">  1       21 0.10208986E-01 0.50640769E+03</pdfrwt>
<pdfrwt beam="2">  1       21 0.14863849E+00 0.50640769E+03</pdfrwt>
<totfact> 0.21114043E+04</totfact>
</mgrwt>
</event>
<event>
 8    1  0.9478272E-006  0.2585819E+03  0.7546771E-02  0.1107998E+00
         21   -1    0    0  504  503  0.00000000000E+00  0.00000000000E+00  0.93128117451E+03  0.93128117451E+03  0.00000000000E+00 0.  1.
         21   -1    0    0  503  504 -0.00000000000E+00 -0.00000000000E+00 -0.17949630442E+02  0.17949630442E+02  0.00000000000E+00 0.  1.
         25    2    1    2    0    0  0.16543420964E+02  0.20131761545E+02  0.38219305815E+03  0.40295804492E+03  0.12499871865E+03 0.  0.
         25    2    1    2    0    0 -0.16543420964E+02 -0.20131761545E+02  0.53113848592E+03  0.54627276003E+03  0.12500745791E+03 0.  0.
          5    1    3    3  501    0 -0.48597618183E+02  0.32973267996E+01  0.83837633217E+02  0.97074402396E+02  0.47000000000E+01 0. -1.
         -5    1    3    3    0  501  0.65141039147E+02  0.16834434745E+02  0.29835542493E+03  0.30588364252E+03  0.47000000000E+01 0. -1.
          5    1    4    4  502    0  0.80615634558E+01 -0.63263981793E+02  0.41468736755E+03  0.41958911212E+03  0.47000000000E+01 0.  1.
         -5    1    4    4    0  502 -0.24604984420E+02  0.43132220249E+02  0.11645111836E+03  0.12668364792E+03  0.47000000000E+01 0.  1.
<mgrwt>
<rscale>  0 0.25858192E+03</rscale>
<asrwt>0</asrwt>
<pdfrwt beam="1">  1       21 0.14327399E+00 0.25858192E+03</pdfrwt>
<pdfrwt beam="2">  1       21 0.27614823E-02 0.25858192E+03</pdfrwt>
<totfact> 0.23893478E+05</totfact>
</mgrwt>
</event>
<event>
 8    1  0.9478272E-006  0.2911437E+03  0.7546771E-02  0.1089754E+00
         21   -1    0    0  504  503  0.00000000000E+00  0.00000000000E+00  0.55479042353E+03  0.55479042353E+03  0.00000000000E+00 0.  1.
         21   -1    0    0  503  504 -0.00000000000E+00 -0.00000000000E+00 -0.38196699567E+02  0.38196699567E+02  0.00000000000E+00 0.  1.
         25    2    1    2    0    0  0.14965841429E+02  0.32819456779E+02  0.39133313866E+03  0.41239388266E+03  0.12500398351E+03 0.  0.
         25    2    1    2    0    0 -0.14965841429E+02 -0.32819456779E+02  0.12526058531E+03  0.18059324044E+03  0.12499044406E+03 0.  0.
          5    1    3    3  501    0  0.23035868883E+02  0.74989646793E+02  0.17566426875E+03  0.19244252050E+03  0.47000000000E+01 0. -1.
         -5    1    3    3    0  501 -0.80700274540E+01 -0.42170190015E+02  0.21566886991E+03  0.21995136216E+03  0.47000000000E+01 0. -1.
          5    1    4    4  502    0  0.22110406775E+02  0.23528479883E+02 -0.57810770114E+01  0.33135634969E+02  0.47000000000E+01 0. -1.
         -5    1    4    4    0  502 -0.37076248205E+02 -0.56347936662E+02  0.13104166232E+03  0.14745760547E+03  0.47000000000E+01 0. -1.
<mgrwt>
<rscale>  0 0.29114370E+03</rscale>
<asrwt>0</asrwt>
<pdfrwt beam="1">  1       21 0.85352367E-01 0.29114370E+03</pdfrwt>
<pdfrwt beam="2">  1       21 0.58764157E-02 0.29114370E+03</pdfrwt>
<totfact> 0.23596563E+05</totfact>
</mgrwt>
</event>
<event>
 8    1  0.9478272E-006  0.2624291E+03  0.7546771E-02  0.1105692E+00
         21   -1    0    0  504  503  0.00000000000E+00  0.00000000000E+00  0.24209576935E+02  0.24209576935E+02  0.00000000000E+00 0.  1.
         21   -1    0    0  503  504 -0.00000000000E+00 -0.00000000000E+00 -0.71117561730E+03  0.71117561730E+03  0.00000000000E+00 0.  1.
         25    2    1    2    0    0  0.34458138972E+02 -0.53059551773E+01 -0.28936296396E+03  0.31714241036E+03  0.12503146420E+03 0.  0.
         25    2    1    2    0    0 -0.34458138972E+02  0.53059551773E+01 -0.39760307641E+03  0.41824278387E+03  0.12499321337E+03 0.  0.
          5    1    3    3  501    0  0.52315910712E+02  0.45214656792E+02 -0.11113869695E+03  0.13097793579E+03  0.47000000000E+01 0. -1.
         -5    1    3    3    0  501 -0.17857771741E+02 -0.50520611969E+02 -0.17822426701E+03  0.18616447458E+03  0.47000000000E+01 0. -1.
          5    1    4    4  502    0 -0.58010481128E+02 -0.21133933417E+01 -0.76442908716E+02  0.96100419588E+02  0.47000000000E+01 0. -1.
         -5    1    4    4    0  502  0.23552342156E+02  0.74193485190E+01 -0.32116016769E+03  0.32214236428E+03  0.47000000000E+01 0. -1.
<mgrwt>
<rscale>  0 0.26242912E+03</rscale>
<asrwt>0</asrwt>
<pdfrwt beam="1">  1       21 0.37245505E-02 0.26242912E+03</pdfrwt>
<pdfrwt beam="2">  1       21 0.10941163E+00 0.26242912E+03</pdfrwt>
<totfact> 0.28621261E+05</totfact>
</mgrwt>
</event>
<event>
 8    1  0.9478272E-006  0.4691214E+03  0.7546771E-02  0.1022168E+00
         21   -1    0    0  504  503  0.00000000000E+00  0.00000000000E+00  0.46068611905E+03  0.46068611905E+03  0.00000000000E+00 0.  1.
         21   -1    0    0  503  504 -0.00000000000E+00 -0.00000000000E+00 -0.11942776374E+03  0.11942776374E+03  0.00000000000E+00 0.  1.
         25    2    1    2    0    0 -0.10716530839E+03  0.10063730074E+03  0.57288656929E+01  0.19305159003E+03  0.12499530746E+03 0.  0.
         25    2    1    2    0    0  0.10716530839E+03 -0.10063730074E+03  0.33552948962E+03  0.38706229276E+03  0.12499964179E+03 0.  0.
          5    1    3    3  501    0 -0.52026337870E+02  0.36049501189E+02  0.63856136685E+02  0.90033341382E+02  0.47000000000E+01 0. -1.
         -5    1    3    3    0  501 -0.55138970522E+02  0.64587799548E+02 -0.58127270992E+02  0.10301824864E+03  0.47000000000E+01 0. -1.
          5    1    4    4  502    0 -0.20717556208E+02 -0.37664531100E+02  0.12913684109E+03  0.13618460913E+03  0.47000000000E+01 0. -1.
         -5    1    4    4    0  502  0.12788286460E+03 -0.62972769637E+02  0.20639264853E+03  0.25087768363E+03  0.47000000000E+01 0. -1.
<mgrwt>
<rscale>  0 0.46912136E+03</rscale>
<asrwt>0</asrwt>
<pdfrwt beam="1">  1       21 0.70874787E-01 0.46912136E+03</pdfrwt>
<pdfrwt beam="2">  1       21 0.18373502E-01 0.46912136E+03</pdfrwt>
<totfact> 0.44536336E+04</totfact>
</mgrwt>
</event>
<event>
 8    1  0.9478272E-006  0.3678391E+03  0.7546771E-02  0.1055522E+00
         21   -1    0    0  504  503  0.00000000000E+00  0.00000000000E+00  0.37811491171E+02  0.37811491171E+02  0.00000000000E+00 0. -1.
         21   -1    0    0  503  504 -0.00000000000E+00 -0.00000000000E+00 -0.89460647376E+03  0.89460647376E+03  0.00000000000E+00 0. -1.
         25    2    1    2    0    0  0.94218893292E+02 -0.49208180958E+02 -0.21778849769E+03  0.27268063864E+03  0.12499702411E+03 0.  0.
         25    2    1    2    0    0 -0.94218893292E+02  0.49208180958E+02 -0.63900648490E+03  0.65973732629E+03  0.12500162813E+03 0.  0.
          5    1    3    3  501    0  0.57480031569E+02 -0.90869087253E+02 -0.15521183633E+03  0.18887548593E+03  0.47000000000E+01 0. -1.
         -5    1    3    3    0  501  0.36738861722E+02  0.41660906295E+02 -0.62576661360E+02  0.83805152711E+02  0.47000000000E+01 0. -1.
          5    1    4    4  502    0 -0.59835407142E+02  0.67421115936E+02 -0.20535226442E+03  0.22431568229E+03  0.47000000000E+01 0.  1.
         -5    1    4    4    0  502 -0.34383486150E+02 -0.18212934978E+02 -0.43365422048E+03  0.43542164400E+03  0.47000000000E+01 0.  1.
<mgrwt>
<rscale>  0 0.36783912E+03</rscale>
<asrwt>0</asrwt>
<pdfrwt beam="1">  1       21 0.58171531E-02 0.36783912E+03</pdfrwt>
<pdfrwt beam="2">  1       21 0.13763175E+00 0.36783912E+03</pdfrwt>
<totfact> 0.72762407E+04</totfact>
</mgrwt>
</event>
<event>
 8    1  0.9478272E-006  0.2509568E+03  0.7546771E-02  0.1112702E+00
         21   -1    0    0  504  503  0.00000000000E+00  0.00000000000E+00  0.24133398880E+03  0.24133398880E+03  0.00000000000E+00 0.  1.
         21   -1    0    0  503  504 -0.00000000000E+00 -0.00000000000E+00 -0.65240805675E+02  0.65240805675E+02  0.00000000000E+00 0.  1.
         25    2    1    2    0    0 -0.39429359023E+01 -0.44758736402E+01  0.99230062843E+02  0.15971255051E+03  0.12500365287E+03 0.  0.
         25    2    1    2    0    0  0.39429359023E+01  0.44758736402E+01  0.76863120284E+02  0.14686224396E+03  0.12499999702E+03 0.  0.
          5    1    3    3  501    0  0.16761885914E+02 -0.17020996397E+02 -0.23911959885E+02  0.34125459166E+02  0.47000000000E+01 0. -1.
         -5    1    3    3    0  501 -0.20704821817E+02  0.12545122757E+02  0.12314202273E+03  0.12558709135E+03  0.47000000000E+01 0. -1.
          5    1    4    4  502    0 -0.46725727010E+02 -0.35907296396E+02  0.27110891230E+02  0.65036281584E+02  0.47000000000E+01 0. -1.
         -5    1    4    4    0  502  0.50668662912E+02  0.40383170036E+02  0.49752229054E+02  0.81825962380E+02  0.47000000000E+01 0. -1.
<mgrwt>
<rscale>  0 0.25095676E+03</rscale>
<asrwt>0</asrwt>
<pdfrwt beam="1">  1       21 0.37128305E-01 0.25095676E+03</pdfrwt>
<pdfrwt beam="2">  1       21 0.10037047E-01 0.25095676E+03</pdfrwt>
<totfact> 0.55788871E+05</totfact>
</mgrwt>
</event>
<event>
 8    1  0.9478272E-006  0.3307227E+03  0.7546771E-02  0.1070818E+00
         21   -1    0    0  504  503  0.00000000000E+00  0.00000000000E+00  0.11751456121E+04  0.11751456121E+04  0.00000000000E+00 0. -1.
         21   -1    0    0  503  504 -0.00000000000E+00 -0.00000000000E+00 -0.23268924347E+02  0.23268924347E+02  0.00000000000E+00 0. -1.
         25    2    1    2    0    0  0.27488414769E+02 -0.83202457854E+02  0.34561012340E+03  0.37782373290E+03  0.12500461515E+03 0.  0.
         25    2    1    2    0    0 -0.27488414769E+02  0.83202457854E+02  0.80626656432E+03  0.82059080351E+03  0.12500092850E+03 0.  0.
          5    1    3    3  501    0  0.27871454985E+02 -0.72387355154E+02  0.35458450551E+03  0.36300001203E+03  0.47000000000E+01 0.  1.
         -5    1    3    3    0  501 -0.38304021581E+00 -0.10815102700E+02 -0.89743821077E+01  0.14823720870E+02  0.47000000000E+01 0.  1.
          5    1    4    4  502    0  0.48097988373E+01  0.96339486043E+02  0.73277709016E+03  0.73911351267E+03  0.47000000000E+01 0.  1.
         -5    1    4    4    0  502 -0.32298213606E+02 -0.13137028188E+02  0.73489474158E+02  0.81477290848E+02  0.47000000000E+01 0.  1.
<mgrwt>
<rscale>  0 0.33072269E+03</rscale>
<asrwt>0</asrwt>
<pdfrwt beam="1">  1       21 0.18079159E+00 0.33072269E+03</pdfrwt>
<pdfrwt beam="2">  1       21 0.35798354E-02 0.33072269E+03</pdfrwt>
<totfact> 0.79728339E+04</totfact>
</mgrwt>
</event>
<event>
 8    1  0.9478272E-006  0.3098573E+03  0.7546771E-02  0.1080414E+00
         21   -1    0    0  504  503  0.00000000000E+00  0.00000000000E+00  0.10542411980E+03  0.10542411980E+03  0.00000000000E+00 0.  1.
         21   -1    0    0  503  504 -0.00000000000E+00 -0.00000000000E+00 -0.22767922913E+03  0.22767922913E+03  0.00000000000E+00 0.  1.
         25    2    1    2    0    0  0.83918881221E+01  0.70346151520E+02 -0.12343265669E+03  0.18942223212E+03  0.12500462577E+03 0.  0.
         25    2    1    2    0    0 -0.83918881221E+01 -0.70346151520E+02  0.11775473592E+01  0.14368111681E+03  0.12499548747E+03 0.  0.
          5    1    3    3  501    0 -0.57328522923E+02  0.44691733561E+02 -0.66743488203E+02  0.98796223646E+02  0.47000000000E+01 0. -1.
         -5    1    3    3    0  501  0.65720411045E+02  0.25654417959E+02 -0.56689168488E+02  0.90626008478E+02  0.47000000000E+01 0. -1.
          5    1    4    4  502    0  0.36280134891E+02  0.17460202978E+02  0.16693881772E+02  0.43839281066E+02  0.47000000000E+01 0. -1.
         -5    1    4    4    0  502 -0.44672023013E+02 -0.87806354497E+02 -0.15516334413E+02  0.99841835739E+02  0.47000000000E+01 0. -1.
<mgrwt>
<rscale>  0 0.30985727E+03</rscale>
<asrwt>0</asrwt>
<pdfrwt beam="1">  1       21 0.16219095E-01 0.30985727E+03</pdfrwt>
<pdfrwt beam="2">  1       21 0.35027574E-01 0.30985727E+03</pdfrwt>
<totfact> 0.25979409E+05</totfact>
</mgrwt>
</event>
<event>
 8    1  0.9478272E-006  0.2860945E+03  0.7546771E-02  0.1092406E+00
         21   -1    0    0  504  503  0.00000000000E+00  0.00000000000E+00  0.29713543439E+02  0.29713543439E+02  0.00000000000E+00 0. -1.
         21   -1    0    0  503  504 -0.00000000000E+00 -0.00000000000E+00 -0.68865973622E+03  0.68865973622E+03  0.00000000000E+00 0. -1.
         25    2    1    2    0    0  0.51307022554E+02 -0.44151502419E+02 -0.28945393789E+03  0.32247609040E+03  0.12500192393E+03 0.  0.
         25    2    1    2    0    0 -0.51307022554E+02  0.44151502419E+02 -0.36949225488E+03  0.39589718926E+03  0.12501316856E+03 0.  0.
          5    1    3    3  501    0  0.54253628199E+02 -0.83564032166E+02 -0.17675113788E+03  0.20295186224E+03  0.47000000000E+01 0. -1.
         -5    1    3    3    0  501 -0.29466056454E+01  0.39412529747E+02 -0.11270280002E+03  0.11952422816E+03  0.47000000000E+01 0. -1.
          5    1    4    4  502    0 -0.23651534178E+02  0.84569755068E+02 -0.28349111605E+03  0.29681769055E+03  0.47000000000E+01 0.  1.
         -5    1    4    4    0  502 -0.27655488375E+02 -0.40418252649E+02 -0.86001138830E+02  0.99079498710E+02  0.47000000000E+01 0.  1.
<mgrwt>
<rscale>  0 0.28609454E+03</rscale>
<asrwt>0</asrwt>
<pdfrwt beam="1">  1       21 0.45713149E-02 0.28609454E+03</pdfrwt>
<pdfrwt beam="2">  1       21 0.10594764E+00 0.28609454E+03</pdfrwt>
<totfact> 0.21755180E+05</totfact>
</mgrwt>
</event>
<event>
 8    1  0.9478272E-006  0.3359878E+03  0.7546771E-02  0.1068518E+00
         21   -1    0    0  504  503  0.00000000000E+00  0.00000000000E+00  0.10798969788E+03  0.10798969788E+03  0.00000000000E+00 0.  1.
         21   -1    0    0  503  504 -0.00000000000E+00 -0.00000000000E+00 -0.26133923314E+03  0.26133923314E+03  0.00000000000E+00 0.  1.
         25    2    1    2    0    0  0.70496507256E+02 -0.82347634523E+02 -0.10860842488E+03  0.19792039977E+03  0.12500321693E+03 0.  0.
         25    2    1    2    0    0 -0.70496507256E+02  0.82347634523E+02 -0.44741110376E+02  0.17140853124E+03  0.12501290805E+03 0.  0.
          5    1    3    3  501    0  0.42299951117E+02 -0.41034550759E+02  0.17925453875E+02  0.61778087677E+02  0.47000000000E+01 0.  1.
         -5    1    3    3    0  501  0.28196556139E+02 -0.41313083764E+02 -0.12653387876E+03  0.13614231209E+03  0.47000000000E+01 0.  1.
          5    1    4    4  502    0  0.15043495087E+02  0.78099241796E+02 -0.22823973294E+02  0.82878357069E+02  0.47000000000E+01 0.  1.
         -5    1    4    4    0  502 -0.85540002343E+02  0.42483927271E+01 -0.21917137082E+02  0.88530174175E+02  0.47000000000E+01 0.  1.
<mgrwt>
<rscale>  0 0.33598777E+03</rscale>
<asrwt>0</asrwt>
<pdfrwt beam="1">  1       21 0.16613800E-01 0.33598777E+03</pdfrwt>
<pdfrwt beam="2">  1       21 0.40206035E-01 0.33598777E+03</pdfrwt>
<totfact> 0.18688299E+05</totfact>
</mgrwt>
</event>
<event>
 8    1  0.9478272E-006  0.4650982E+03  0.7546771E-02  0.1023313E+00
         21   -1    0    0  504  503  0.00000000000E+00  0.00000000000E+00  0.73034934351E+03  0.73034934351E+03  0.00000000000E+00 0.  1.
         21   -1    0    0  503  504 -0.00000000000E+00 -0.00000000000E+00 -0.74045505437E+02  0.74045505437E+02  0.00000000000E+00 0.  1.
         25    2    1    2    0    0 -0.68500421431E+02  0.16078099415E+03  0.48197866294E+03  0.52770319182E+03  0.12499756522E+03 0.  0.
         25    2    1    2    0    0  0.68500421431E+02 -0.16078099415E+03  0.17432517513E+03  0.27669165713E+03  0.12500468241E+03 0.  0.
          5    1    3    3  501    0  0.32290191938E+02  0.77039052889E+02  0.19466014710E+03  0.21187811363E+03  0.47000000000E+01 0.  1.
         -5    1    3    3    0  501 -0.10079061337E+03  0.83741941258E+02  0.28731851584E+03  0.31582507819E+03  0.47000000000E+01 0.  1.
          5    1    4    4  502    0  0.46808709543E+02 -0.93069141714E+02  0.19272541358E+02  0.10604923988E+03  0.47000000000E+01 0.  1.
         -5    1    4    4    0  502  0.21691711888E+02 -0.67711852433E+02  0.15505263377E+03  0.17064241725E+03  0.47000000000E+01 0.  1.
<mgrwt>
<rscale>  0 0.46509821E+03</rscale>
<asrwt>0</asrwt>
<pdfrwt beam="1">  1       21 0.11236143E+00 0.46509821E+03</pdfrwt>
<pdfrwt beam="2">  1       21 0.11391617E-01 0.46509821E+03</pdfrwt>
<totfact> 0.36215801E+04</totfact>
</mgrwt>
</event>
<event>
 8    1  0.9478272E-006  0.2821609E+03  0.7546771E-02  0.1094515E+00
         21   -1    0    0  504  503  0.00000000000E+00  0.00000000000E+00  0.13721889695E+04  0.13721889695E+04  0.00000000000E+00 0.  1.
         21   -1    0    0  503  504 -0.00000000000E+00 -0.00000000000E+00 -0.14505070228E+02  0.14505070228E+02  0.00000000000E+00 0.  1.
         25    2    1    2    0    0  0.48479312666E+02  0.28448834302E+02  0.51450357153E+03  0.53244715433E+03  0.12500586830E+03 0.  0.
         25    2    1    2    0    0 -0.48479312666E+02 -0.28448834302E+02  0.84318032774E+03  0.85424688539E+03  0.12500038476E+03 0.  0.
          5    1    3    3  501    0 -0.38292851406E+02  0.31733311762E+02  0.17602047873E+03  0.18297170404E+03  0.47000000000E+01 0.  1.
         -5    1    3    3    0  501  0.86772164072E+02 -0.32844774603E+01  0.33848309280E+03  0.34947545030E+03  0.47000000000E+01 0.  1.
          5    1    4    4  502    0  0.37778791651E+02 -0.28517332237E+02  0.39158023403E+03  0.39445867340E+03  0.47000000000E+01 0.  1.
         -5    1    4    4    0  502 -0.86258104317E+02  0.68497935506E-01  0.45160009370E+03  0.45978821199E+03  0.47000000000E+01 0.  1.
<mgrwt>
<rscale>  0 0.28216093E+03</rscale>
<asrwt>0</asrwt>
<pdfrwt beam="1">  1       21 0.21110589E+00 0.28216093E+03</pdfrwt>
<pdfrwt beam="2">  1       21 0.22315503E-02 0.28216093E+03</pdfrwt>
<totfact> 0.11235657E+05</totfact>
</mgrwt>
</event>
<event>
 8    1  0.9478272E-006  0.3120332E+03  0.7546771E-02  0.1079375E+00
         21   -1    0    0  504  503  0.00000000000E+00  0.00000000000E+00  0.22377646441E+02  0.22377646441E+02  0.00000000000E+00 0. -1.
         21   -1    0    0  503  504 -0.00000000000E+00 -0.00000000000E+00 -0.10877454113E+04  0.10877454113E+04  0.00000000000E+00 0. -1.
         25    2    1    2    0    0  0.52767378941E+02 -0.74305289582E+02 -0.60485673267E+03  0.62432398624E+03  0.12499240139E+03 0.  0.
         25    2    1    2    0    0 -0.52767378941E+02  0.74305289582E+02 -0.46051103221E+03  0.48579907151E+03  0.12499861903E+03 0.  0.
          5    1    3    3  501    0  0.12850100670E+02  0.34066656811E+02 -0.10356584966E+03  0.10988010470E+03  0.47000000000E+01 0. -1.
         -5    1    3    3    0  501  0.39917278271E+02 -0.10837194639E+03 -0.50129088301E+03  0.51444388154E+03  0.47000000000E+01 0. -1.
          5    1    4    4  502    0  0.30291305108E+02  0.53754638108E+02 -0.12446267844E+03  0.13899702374E+03  0.47000000000E+01 0. -1.
         -5    1    4    4    0  502 -0.83058684049E+02  0.20550651474E+02 -0.33604835377E+03  0.34680204777E+03  0.47000000000E+01 0. -1.
<mgrwt>
<rscale>  0 0.31203322E+03</rscale>
<asrwt>0</asrwt>
<pdfrwt beam="1">  1       21 0.34427139E-02 0.31203322E+03</pdfrwt>
<pdfrwt beam="2">  1       21 0.16734549E+00 0.31203322E+03</pdfrwt>
<totfact> 0.10673553E+05</totfact>
</mgrwt>
</event>
<event>
 8    1  0.9478272E-006  0.2919605E+03  0.7546771E-02  0.1089330E+00
         21   -1    0    0  504  503  0.00000000000E+00  0.00000000000E+00  0.56652624842E+02  0.56652624842E+02  0.00000000000E+00 0.  1.
         21   -1    0    0  503  504 -0.00000000000E+00 -0.00000000000E+00 -0.37615621195E+03  0.37615621195E+03  0.00000000000E+00 0.  1.
         25    2    1    2    0    0 -0.37031810104E+02  0.31330818974E+02 -0.74187002073E+02  0.15324004316E+03  0.12500329746E+03 0.  0.
         25    2    1    2    0    0  0.37031810104E+02 -0.31330818974E+02 -0.24531658504E+03  0.27956879363E+03  0.12500203319E+03 0.  0.
          5    1    3    3  501    0 -0.50960966596E+02  0.11356535607E+02  0.19799352795E+02  0.56036554038E+02  0.47000000000E+01 0.  1.
         -5    1    3    3    0  501  0.13929156492E+02  0.19974283366E+02 -0.93986354868E+02  0.97203489124E+02  0.47000000000E+01 0.  1.
          5    1    4    4  502    0 -0.35143018341E+02 -0.19406162143E+02 -0.16893335354E+03  0.17370146461E+03  0.47000000000E+01 0. -1.
         -5    1    4    4    0  502  0.72174828445E+02 -0.11924656831E+02 -0.76383231497E+02  0.10586732903E+03  0.47000000000E+01 0. -1.
<mgrwt>
<rscale>  0 0.29196052E+03</rscale>
<asrwt>0</asrwt>
<pdfrwt beam="1">  1       21 0.87157889E-02 0.29196052E+03</pdfrwt>
<pdfrwt beam="2">  1       21 0.57870184E-01 0.29196052E+03</pdfrwt>
<totfact> 0.28227940E+05</totfact>
</mgrwt>
</event>
<event>
 8    1  0.9478272E-006  0.2796867E+03  0.7546771E-02  0.1095860E+00
         21   -1    0    0  504  503  0.00000000000E+00  0.00000000000E+00  0.44366782899E+02  0.44366782899E+02  0.00000000000E+00 0. -1.
         21   -1    0    0  503  504 -0.00000000000E+00 -0.00000000000E+00 -0.44078374006E+03  0.44078374006E+03  0.00000000000E+00 0. -1.
         25    2    1    2    0    0 -0.42602660671E+01  0.62364023518E+02 -0.18969296536E+03  0.23561639553E+03  0.12499697372E+03 0.  0.
         25    2    1    2    0    0  0.42602660671E+01 -0.62364023518E+02 -0.20672399180E+03  0.24953412743E+03  0.12500020268E+03 0.  0.
          5    1    3    3  501    0  0.37291097035E-01 -0.38443392498E+02 -0.50907569420E+02  0.63965353447E+02  0.47000000000E+01 0. -1.
         -5    1    3    3    0  501 -0.42975571642E+01  0.10080741602E+03 -0.13878539594E+03  0.17165104208E+03  0.47000000000E+01 0. -1.
          5    1    4    4  502    0 -0.41527856013E+02 -0.49580356019E+02 -0.18687111043E+03  0.19780211435E+03  0.47000000000E+01 0. -1.
         -5    1    4    4    0  502  0.45788122080E+02 -0.12783667499E+02 -0.19852881368E+02  0.51732013076E+02  0.47000000000E+01 0. -1.
<mgrwt>
<rscale>  0 0.27968666E+03</rscale>
<asrwt>0</asrwt>
<pdfrwt beam="1">  1       21 0.68256594E-02 0.27968666E+03</pdfrwt>
<pdfrwt beam="2">  1       21 0.67812878E-01 0.27968666E+03</pdfrwt>
<totfact> 0.30718096E+05</totfact>
</mgrwt>
</event>
<event>
 8    1  0.9478272E-006  0.3601778E+03  0.7546771E-02  0.1058513E+00
         21   -1    0    0  504  503  0.00000000000E+00  0.00000000000E+00  0.91539521810E+02  0.91539521810E+02  0.00000000000E+00 0.  1.
         21   -1    0    0  503  504 -0.00000000000E+00 -0.00000000000E+00 -0.35429516795E+03  0.35429516795E+03  0.00000000000E+00 0.  1.
         25    2    1    2    0    0  0.79244649933E+02 -0.54174167691E+01 -0.25821267212E+03  0.29766801274E+03  0.12499359512E+03 0.  0.
         25    2    1    2    0    0 -0.79244649933E+02  0.54174167691E+01 -0.45429740282E+01  0.14816667702E+03  0.12499465036E+03 0.  0.
          5    1    3    3  501    0  0.80631525185E+02 -0.40211005060E+02 -0.24331252974E+03  0.25950230232E+03  0.47000000000E+01 0. -1.
         -5    1    3    3    0  501 -0.13868752524E+01  0.34793588291E+02 -0.14900142375E+02  0.38165710421E+02  0.47000000000E+01 0. -1.
          5    1    4    4  502    0 -0.29982635058E+02 -0.55102414782E+02 -0.24456910537E+02  0.67494184882E+02  0.47000000000E+01 0.  1.
         -5    1    4    4    0  502 -0.49262014875E+02  0.60519831552E+02  0.19913936508E+02  0.80672492139E+02  0.47000000000E+01 0.  1.
<mgrwt>
<rscale>  0 0.36017779E+03</rscale>
<asrwt>0</asrwt>
<pdfrwt beam="1">  1       21 0.14083003E-01 0.36017779E+03</pdfrwt>
<pdfrwt beam="2">  1       21 0.54506949E-01 0.36017779E+03</pdfrwt>
<totfact> 0.13337768E+05</totfact>
</mgrwt>
</event>
<event>
 8    1  0.9478272E-006  0.2679098E+03  0.7546771E-02  0.1102482E+00
         21   -1    0    0  504  503  0.00000000000E+00  0.00000000000E+00  0.21646710888E+02  0.21646710888E+02  0.00000000000E+00 0.  1.
         21   -1    0    0  503  504 -0.00000000000E+00 -0.00000000000E+00 -0.82894430319E+03  0.82894430319E+03  0.00000000000E+00 0.  1.
         25    2    1    2    0    0  0.36563509911E+02 -0.28201025563E+02 -0.44733524186E+03  0.46675542060E+03  0.12497846196E+03 0.  0.
         25    2    1    2    0    0 -0.36563509911E+02  0.28201025563E+02 -0.35996235044E+03  0.38383559347E+03  0.12499872392E+03 0.  0.
          5    1    3    3  501    0  0.44882554127E+02 -0.11230041186E+02 -0.44467333530E+03  0.44709844846E+03  0.47000000000E+01 0.  1.
         -5    1    3    3    0  501 -0.83190442157E+01 -0.16970984377E+02 -0.26619065646E+01  0.19656972146E+02  0.47000000000E+01 0.  1.
          5    1    4    4  502    0 -0.51254413443E+02  0.24709517445E+02 -0.36322765405E+03  0.36768735879E+03  0.47000000000E+01 0.  1.
         -5    1    4    4    0  502  0.14690903532E+02  0.34915081180E+01  0.32653036111E+01  0.16148234678E+02  0.47000000000E+01 0.  1.
<mgrwt>
<rscale>  0 0.26790982E+03</rscale>
<asrwt>0</asrwt>
<pdfrwt beam="1">  1       21 0.33302633E-02 0.26790982E+03</pdfrwt>
<pdfrwt beam="2">  1       21 0.12752989E+00 0.26790982E+03</pdfrwt>
<totfact> 0.23550520E+05</totfact>
</mgrwt>
</event>
<event>
 8    1  0.9478272E-006  0.2655175E+03  0.7546771E-02  0.1103873E+00
         21   -1    0    0  504  503  0.00000000000E+00  0.00000000000E+00  0.27730618620E+02  0.27730618620E+02  0.00000000000E+00 0.  1.
         21   -1    0    0  503  504 -0.00000000000E+00 -0.00000000000E+00 -0.63557491907E+03  0.63557491907E+03  0.00000000000E+00 0.  1.
         25    2    1    2    0    0 -0.33790871015E+02  0.20743593740E+02 -0.35561784206E+03  0.37902610510E+03  0.12499847642E+03 0.  0.
         25    2    1    2    0    0  0.33790871015E+02 -0.20743593740E+02 -0.25222645839E+03  0.28427943260E+03  0.12499795934E+03 0.  0.
          5    1    3    3  501    0 -0.49529159926E+02 -0.12532828623E+02 -0.51649371748E+02  0.72800804104E+02  0.47000000000E+01 0.  1.
         -5    1    3    3    0  501  0.15738288911E+02  0.33276422363E+02 -0.30396847032E+03  0.30622530100E+03  0.47000000000E+01 0.  1.
          5    1    4    4  502    0  0.13811713426E+02  0.47072012160E+02 -0.16331952721E+03  0.17059277747E+03  0.47000000000E+01 0. -1.
         -5    1    4    4    0  502  0.19979157588E+02 -0.67815605900E+02 -0.88906931176E+02  0.11368665512E+03  0.47000000000E+01 0. -1.
<mgrwt>
<rscale>  0 0.26551750E+03</rscale>
<asrwt>0</asrwt>
<pdfrwt beam="1">  1       21 0.42662490E-02 0.26551750E+03</pdfrwt>
<pdfrwt beam="2">  1       21 0.97780756E-01 0.26551750E+03</pdfrwt>
<totfact> 0.29831302E+05</totfact>
</mgrwt>
</event>
<event>
 8    1  0.9478272E-006  0.3518162E+03  0.7546771E-02  0.1061872E+00
         21   -1    0    0  504  503  0.00000000000E+00  0.00000000000E+00  0.27588949666E+02  0.27588949666E+02  0.00000000000E+00 0. -1.
         21   -1    0    0  503  504 -0.00000000000E+00 -0.00000000000E+00 -0.11215958482E+04  0.11215958482E+04  0.00000000000E+00 0. -1.
         25    2    1    2    0    0 -0.78965582939E+02  0.33042817955E+02 -0.83899456311E+03  0.85256342928E+03  0.12500053164E+03 0.  0.
         25    2    1    2    0    0  0.78965582939E+02 -0.33042817955E+02 -0.25501233547E+03  0.29662136863E+03  0.12500221590E+03 0.  0.
          5    1    3    3  501    0  0.44008971786E+01  0.62127648938E+02 -0.38590335925E+03  0.39092544729E+03  0.47000000000E+01 0. -1.
         -5    1    3    3    0  501 -0.83366480118E+02 -0.29084830983E+02 -0.45309120386E+03  0.46163798199E+03  0.47000000000E+01 0. -1.
          5    1    4    4  502    0  0.30698567809E+02 -0.22680374422E+02 -0.24242833462E+03  0.24545954631E+03  0.47000000000E+01 0. -1.
         -5    1    4    4    0  502  0.48267015131E+02 -0.10362443533E+02 -0.12584000850E+02  0.51161822319E+02  0.47000000000E+01 0. -1.
<mgrwt>
<rscale>  0 0.35181615E+03</rscale>
<asrwt>0</asrwt>
<pdfrwt beam="1">  1       21 0.42444534E-02 0.35181615E+03</pdfrwt>
<pdfrwt beam="2">  1       21 0.17255322E+00 0.35181615E+03</pdfrwt>
<totfact> 0.67811936E+04</totfact>
</mgrwt>
</event>
<event>
 8    1  0.9478272E-006  0.2540541E+03  0.7546771E-02  0.1110769E+00
         21   -1    0    0  504  503  0.00000000000E+00  0.00000000000E+00  0.69794777300E+02  0.69794777300E+02  0.00000000000E+00 0. -1.
         21   -1    0    0  503  504 -0.00000000000E+00 -0.00000000000E+00 -0.23119016646E+03  0.23119016646E+03  0.00000000000E+00 0. -1.
         25    2    1    2    0    0  0.88467876298E+00  0.15729094999E+01 -0.53980337554E+02  0.13616114008E+03  0.12499088977E+03 0.  0.
         25    2    1    2    0    0 -0.88467876298E+00 -0.15729094999E+01 -0.10741505161E+03  0.16482380368E+03  0.12500254496E+03 0.  0.
          5    1    3    3  501    0  0.61017875246E+02 -0.11129336213E+02 -0.36371570294E+02  0.72055703104E+02  0.47000000000E+01 0.  1.
         -5    1    3    3    0  501 -0.60133196483E+02  0.12702245713E+02 -0.17608767260E+02  0.64105436976E+02  0.47000000000E+01 0.  1.
          5    1    4    4  502    0  0.79589491753E+00 -0.42677659107E+02 -0.11497478034E+03  0.12273266130E+03  0.47000000000E+01 0.  1.
         -5    1    4    4    0  502 -0.16805736805E+01  0.41104749608E+02  0.75597287361E+01  0.42091142379E+02  0.47000000000E+01 0.  1.
<mgrwt>
<rscale>  0 0.25405406E+03</rscale>
<asrwt>0</asrwt>
<pdfrwt beam="1">  1       21 0.10737658E-01 0.25405406E+03</pdfrwt>
<pdfrwt beam="2">  1       21 0.35567719E-01 0.25405406E+03</pdfrwt>
<totfact> 0.53892679E+05</totfact>
</mgrwt>
</event>
<event>
 8    1  0.9478272E-006  0.2607589E+03  0.7546771E-02  0.1106688E+00
         21   -1    0    0  504  503  0.00000000000E+00  0.00000000000E+00  0.28285431941E+04  0.28285431941E+04  0.00000000000E+00 0.  1.
         21   -1    0    0  503  504 -0.00000000000E+00 -0.00000000000E+00 -0.60097367878E+01  0.60097367878E+01  0.00000000000E+00 0.  1.
         25    2    1    2    0    0  0.20816925460E+01 -0.27232325022E+01  0.18123748629E+04  0.18166834345E+04  0.12499723211E+03 0.  0.
         25    2    1    2    0    0 -0.20816925460E+01  0.27232325022E+01  0.10101585944E+04  0.10178694964E+04  0.12500470549E+03 0.  0.
          5    1    3    3  501    0  0.58889183478E+02  0.21828163065E+02  0.91323628632E+03  0.91540537976E+03  0.47000000000E+01 0.  1.
         -5    1    3    3    0  501 -0.56807490932E+02 -0.24551395567E+02  0.89913857654E+03  0.90127805469E+03  0.47000000000E+01 0.  1.
          5    1    4    4  502    0  0.51735998247E+02 -0.28415031990E+02  0.37346619339E+03  0.37813108199E+03  0.47000000000E+01 0.  1.
         -5    1    4    4    0  502 -0.53817690793E+02  0.31138264492E+02  0.63669240104E+03  0.63973841443E+03  0.47000000000E+01 0.  1.
<mgrwt>
<rscale>  0 0.26075889E+03</rscale>
<asrwt>0</asrwt>
<pdfrwt beam="1">  1       21 0.43515943E+00 0.26075889E+03</pdfrwt>
<pdfrwt beam="2">  1       21 0.92457715E-03 0.26075889E+03</pdfrwt>
<totfact> 0.20571914E+04</totfact>
</mgrwt>
</event>
<event>
 8    1  0.9478272E-006  0.3495324E+03  0.7546771E-02  0.1062807E+00
         21   -1    0    0  504  503  0.00000000000E+00  0.00000000000E+00  0.18195462646E+04  0.18195462646E+04  0.00000000000E+00 0.  1.
         21   -1    0    0  503  504 -0.00000000000E+00 -0.00000000000E+00 -0.16786179954E+02  0.16786179954E+02  0.00000000000E+00 0.  1.
         25    2    1    2    0    0 -0.88621377545E+02 -0.81160513889E+02  0.78653699676E+03  0.80542284639E+03  0.12499894658E+03 0.  0.
         25    2    1    2    0    0  0.88621377545E+02  0.81160513889E+02  0.10162230879E+04  0.10309095981E+04  0.12499783061E+03 0.  0.
          5    1    3    3  501    0  0.15981369037E+02 -0.71767457032E+01  0.15678467130E+02  0.23975282412E+02  0.47000000000E+01 0. -1.
         -5    1    3    3    0  501 -0.10460274658E+03 -0.73983768186E+02  0.77085852963E+03  0.78144756398E+03  0.47000000000E+01 0. -1.
          5    1    4    4  502    0  0.65461604774E+01  0.90047713881E+02  0.56082145929E+03  0.56806182955E+03  0.47000000000E+01 0. -1.
         -5    1    4    4    0  502  0.82075217068E+02 -0.88871999922E+01  0.45540162857E+03  0.46284776859E+03  0.47000000000E+01 0. -1.
<mgrwt>
<rscale>  0 0.34953244E+03</rscale>
<asrwt>0</asrwt>
<pdfrwt beam="1">  1       21 0.27993004E+00 0.34953244E+03</pdfrwt>
<pdfrwt beam="2">  1       21 0.25824907E-02 0.34953244E+03</pdfrwt>
<totfact> 0.32544310E+04</totfact>
</mgrwt>
</event>
<event>
 8    1  0.9478272E-006  0.2692699E+03  0.7546771E-02  0.1101698E+00
         21   -1    0    0  504  503  0.00000000000E+00  0.00000000000E+00  0.78020321541E+02  0.78020321541E+02  0.00000000000E+00 0.  1.
         21   -1    0    0  503  504 -0.00000000000E+00 -0.00000000000E+00 -0.23233146733E+03  0.23233146733E+03  0.00000000000E+00 0.  1.
         25    2    1    2    0    0 -0.69266789789E-01 -0.49816795307E+02 -0.71983592815E+02  0.15260404835E+03  0.12499856017E+03 0.  0.
         25    2    1    2    0    0  0.69266789789E-01  0.49816795307E+02 -0.82327552975E+02  0.15774774053E+03  0.12499922308E+03 0.  0.
          5    1    3    3  501    0  0.12142418024E+02 -0.41916888718E+02 -0.10631750512E+03  0.11502158828E+03  0.47000000000E+01 0.  1.
         -5    1    3    3    0  501 -0.12211684814E+02 -0.78999065883E+01  0.34333912308E+02  0.37582460064E+02  0.47000000000E+01 0.  1.
          5    1    4    4  502    0  0.42752187280E+02  0.91718347037E+01 -0.87972924195E+02  0.98352414614E+02  0.47000000000E+01 0. -1.
         -5    1    4    4    0  502 -0.42682920490E+02  0.40644960603E+02  0.56453712200E+01  0.59395325912E+02  0.47000000000E+01 0. -1.
<mgrwt>
<rscale>  0 0.26926994E+03</rscale>
<asrwt>0</asrwt>
<pdfrwt beam="1">  1       21 0.12003126E-01 0.26926994E+03</pdfrwt>
<pdfrwt beam="2">  1       21 0.35743302E-01 0.26926994E+03</pdfrwt>
<totfact> 0.43576425E+05</totfact>
</mgrwt>
</event>
<event>
 8    1  0.9478272E-006  0.4233750E+03  0.7546771E-02  0.1035973E+00
         21   -1    0    0  504  503  0.00000000000E+00  0.00000000000E+00  0.29515342513E+02  0.29515342513E+02  0.00000000000E+00 0. -1.
         21   -1    0    0  503  504 -0.00000000000E+00 -0.00000000000E+00 -0.15182476700E+04  0.15182476700E+04  0.00000000000E+00 0. -1.
         25    2    1    2    0    0  0.85641608098E+02 -0.55902205093E+02 -0.24411259833E+03  0.29270797950E+03  0.12500983572E+03 0.  0.
         25    2    1    2    0    0 -0.85641608098E+02  0.55902205093E+02 -0.12446197292E+04  0.12550550330E+04  0.12500129649E+03 0.  0.
          5    1    3    3  501    0  0.99386528100E+02 -0.40161633919E+02 -0.98900724371E+02  0.14592491935E+03  0.47000000000E+01 0. -1.
         -5    1    3    3    0  501 -0.13744920002E+02 -0.15740571173E+02 -0.14521187396E+03  0.14678306015E+03  0.47000000000E+01 0. -1.
          5    1    4    4  502    0  0.60624400598E+01  0.41177843529E+02 -0.13042351302E+03  0.13698449082E+03  0.47000000000E+01 0. -1.
         -5    1    4    4    0  502 -0.91704048158E+02  0.14724361564E+02 -0.11141962162E+04  0.11180705422E+04  0.47000000000E+01 0. -1.
<mgrwt>
<rscale>  0 0.42337501E+03</rscale>
<asrwt>0</asrwt>
<pdfrwt beam="1">  1       21 0.45408207E-02 0.42337501E+03</pdfrwt>
<pdfrwt beam="2">  1       21 0.23357663E+00 0.42337501E+03</pdfrwt>
<totfact> 0.23252797E+04</totfact>
</mgrwt>
</event>
<event>
 8    1  0.9478272E-006  0.4305170E+03  0.7546771E-02  0.1033697E+00
         21   -1    0    0  504  503  0.00000000000E+00  0.00000000000E+00  0.39761559851E+03  0.39761559851E+03  0.00000000000E+00 0.  1.
         21   -1    0    0  503  504 -0.00000000000E+00 -0.00000000000E+00 -0.11653520920E+03  0.11653520920E+03  0.00000000000E+00 0.  1.
         25    2    1    2    0    0 -0.11406617603E+03  0.11356951686E+03  0.57779125419E+02  0.21182967514E+03  0.12499702501E+03 0.  0.
         25    2    1    2    0    0  0.11406617603E+03 -0.11356951686E+03  0.22330126389E+03  0.30232113257E+03  0.12500194026E+03 0.  0.
          5    1    3    3  501    0 -0.11937266150E+03  0.88273785414E+02  0.19943195012E+00  0.14854030860E+03  0.47000000000E+01 0. -1.
         -5    1    3    3    0  501  0.53064854687E+01  0.25295731447E+02  0.57579693469E+02  0.63289366543E+02  0.47000000000E+01 0. -1.
          5    1    4    4  502    0  0.12778605895E+03 -0.10851472813E+03  0.14250572667E+03  0.22007883864E+03  0.47000000000E+01 0.  1.
         -5    1    4    4    0  502 -0.13719882917E+02 -0.50547887260E+01  0.80795537218E+02  0.82242293929E+02  0.47000000000E+01 0.  1.
<mgrwt>
<rscale>  0 0.43051698E+03</rscale>
<asrwt>0</asrwt>
<pdfrwt beam="1">  1       21 0.61171630E-01 0.43051698E+03</pdfrwt>
<pdfrwt beam="2">  1       21 0.17928494E-01 0.43051698E+03</pdfrwt>
<totfact> 0.65288269E+04</totfact>
</mgrwt>
</event>
<event>
 8    1  0.9478272E-006  0.3092484E+03  0.7546771E-02  0.1080707E+00
         21   -1    0    0  504  503  0.00000000000E+00  0.00000000000E+00  0.33915037829E+03  0.33915037829E+03  0.00000000000E+00 0.  1.
         21   -1    0    0  503  504 -0.00000000000E+00 -0.00000000000E+00 -0.70495698070E+02  0.70495698070E+02  0.00000000000E+00 0.  1.
         25    2    1    2    0    0  0.72257005415E+02 -0.54395918713E+02  0.12080119921E+03  0.19595401746E+03  0.12500022570E+03 0.  0.
         25    2    1    2    0    0 -0.72257005415E+02  0.54395918713E+02  0.14785348101E+03  0.21369205889E+03  0.12499461342E+03 0.  0.
          5    1    3    3  501    0  0.18389058086E+02 -0.77485853879E+02  0.25095802838E+02  0.83630761857E+02  0.47000000000E+01 0. -1.
         -5    1    3    3    0  501  0.53867947330E+02  0.23089935167E+02  0.95705396372E+02  0.11232325561E+03  0.47000000000E+01 0. -1.
          5    1    4    4  502    0 -0.77922295115E+02  0.47414720981E+02  0.31079647989E+02  0.96478362138E+02  0.47000000000E+01 0.  1.
         -5    1    4    4    0  502  0.56652896992E+01  0.69811977319E+01  0.11677383302E+03  0.11721369676E+03  0.47000000000E+01 0.  1.
<mgrwt>
<rscale>  0 0.30924840E+03</rscale>
<asrwt>0</asrwt>
<pdfrwt beam="1">  1       21 0.52176980E-01 0.30924840E+03</pdfrwt>
<pdfrwt beam="2">  1       21 0.10845492E-01 0.30924840E+03</pdfrwt>
<totfact> 0.23781064E+05</totfact>
</mgrwt>
</event>
<event>
 8    1  0.9478272E-006  0.3618940E+03  0.7546771E-02  0.1057836E+00
         21   -1    0    0  504  503  0.00000000000E+00  0.00000000000E+00  0.32481193320E+02  0.32481193320E+02  0.00000000000E+00 0.  1.
         21   -1    0    0  503  504 -0.00000000000E+00 -0.00000000000E+00 -0.10080238570E+04  0.10080238570E+04  0.00000000000E+00 0.  1.
         25    2    1    2    0    0  0.21354436758E+02  0.12035985639E+03 -0.35373819496E+03  0.39458811701E+03  0.12500625791E+03 0.  0.
         25    2    1    2    0    0 -0.21354436758E+02 -0.12035985639E+03 -0.62180446867E+03  0.64591693326E+03  0.12500152162E+03 0.  0.
          5    1    3    3  501    0  0.68404188916E+02  0.96449245820E+02 -0.20512834744E+03  0.23681494675E+03  0.47000000000E+01 0. -1.
         -5    1    3    3    0  501 -0.47049752158E+02  0.23910610566E+02 -0.14860984751E+03  0.15777317026E+03  0.47000000000E+01 0. -1.
          5    1    4    4  502    0 -0.23197183988E+02 -0.45891203503E+02 -0.50278560128E+03  0.50543007702E+03  0.47000000000E+01 0.  1.
         -5    1    4    4    0  502  0.18427472292E+01 -0.74468652883E+02 -0.11901886740E+03  0.14048685624E+03  0.47000000000E+01 0.  1.
<mgrwt>
<rscale>  0 0.36189401E+03</rscale>
<asrwt>0</asrwt>
<pdfrwt beam="1">  1       21 0.49971061E-02 0.36189401E+03</pdfrwt>
<pdfrwt beam="2">  1       21 0.15508061E+00 0.36189401E+03</pdfrwt>
<totfact> 0.68831103E+04</totfact>
</mgrwt>
</event>
<event>
 8    1  0.9478272E-006  0.3667163E+03  0.7546771E-02  0.1055956E+00
         21   -1    0    0  504  503  0.00000000000E+00  0.00000000000E+00  0.59725088804E+02  0.59725088804E+02  0.00000000000E+00 0.  1.
         21   -1    0    0  503  504 -0.00000000000E+00 -0.00000000000E+00 -0.56291597377E+03  0.56291597377E+03  0.00000000000E+00 0.  1.
         25    2    1    2    0    0  0.83252857398E+01  0.17677493118E+02 -0.26260881699E+02  0.12921423008E+03  0.12499951681E+03 0.  0.
         25    2    1    2    0    0 -0.83252857398E+01 -0.17677493118E+02 -0.47693000326E+03  0.49342683249E+03  0.12500402738E+03 0.  0.
          5    1    3    3  501    0 -0.46820835855E+02  0.40409044539E+02  0.40200797756E+01  0.62155712465E+02  0.47000000000E+01 0. -1.
         -5    1    3    3    0  501  0.55146121594E+02 -0.22731551420E+02 -0.30280961475E+02  0.67058517615E+02  0.47000000000E+01 0. -1.
          5    1    4    4  502    0  0.33481538153E+02 -0.58695898248E+02 -0.25023830735E+03  0.25924413654E+03  0.47000000000E+01 0.  1.
         -5    1    4    4    0  502 -0.41806823892E+02  0.41018405129E+02 -0.22669169592E+03  0.23418269595E+03  0.47000000000E+01 0.  1.
<mgrwt>
<rscale>  0 0.36671627E+03</rscale>
<asrwt>0</asrwt>
<pdfrwt beam="1">  1       21 0.91884748E-02 0.36671627E+03</pdfrwt>
<pdfrwt beam="2">  1       21 0.86602461E-01 0.36671627E+03</pdfrwt>
<totfact> 0.10238140E+05</totfact>
</mgrwt>
</event>
<event>
 8    1  0.9478272E-006  0.2856105E+03  0.7546771E-02  0.1092663E+00
         21   -1    0    0  504  503  0.00000000000E+00  0.00000000000E+00  0.42261572307E+02  0.42261572307E+02  0.00000000000E+00 0. -1.
         21   -1    0    0  503  504 -0.00000000000E+00 -0.00000000000E+00 -0.48255030377E+03  0.48255030377E+03  0.00000000000E+00 0. -1.
         25    2    1    2    0    0 -0.28481142735E+02 -0.23959704405E+02 -0.32704776509E+03  0.35209590349E+03  0.12500416666E+03 0.  0.
         25    2    1    2    0    0  0.28481142735E+02  0.23959704405E+02 -0.11324096637E+03  0.17271597258E+03  0.12498819061E+03 0.  0.
          5    1    3    3  501    0 -0.62293476639E+02 -0.21383527253E+02 -0.84968563709E+02  0.10760798896E+03  0.47000000000E+01 0. -1.
         -5    1    3    3    0  501  0.33812333905E+02 -0.25761771524E+01 -0.24207920138E+03  0.24448791453E+03  0.47000000000E+01 0. -1.
          5    1    4    4  502    0  0.77469455865E+02  0.14999019731E+02 -0.57047082655E+02  0.97483059166E+02  0.47000000000E+01 0.  1.
         -5    1    4    4    0  502 -0.48988313130E+02  0.89606846740E+01 -0.56193883718E+02  0.75232913412E+02  0.47000000000E+01 0.  1.
<mgrwt>
<rscale>  0 0.28561047E+03</rscale>
<asrwt>0</asrwt>
<pdfrwt beam="1">  1       21 0.65017801E-02 0.28561047E+03</pdfrwt>
<pdfrwt beam="2">  1       21 0.74238511E-01 0.28561047E+03</pdfrwt>
<totfact> 0.27272769E+05</totfact>
</mgrwt>
</event>
<event>
 8    1  0.9478272E-006  0.2680636E+03  0.7546771E-02  0.1102393E+00
         21   -1    0    0  504  503  0.00000000000E+00  0.00000000000E+00  0.41934948111E+03  0.41934948111E+03  0.00000000000E+00 0. -1.
         21   -1    0    0  503  504 -0.00000000000E+00 -0.00000000000E+00 -0.42839018835E+02  0.42839018835E+02  0.00000000000E+00 0. -1.
         25    2    1    2    0    0  0.50509393658E+01 -0.30012295824E+01  0.10548626246E+03  0.16366686062E+03  0.12499988132E+03 0.  0.
         25    2    1    2    0    0 -0.50509393658E+01  0.30012295824E+01  0.27102419982E+03  0.29852163933E+03  0.12500613142E+03 0.  0.
          5    1    3    3  501    0 -0.24954935068E+02  0.22979195803E+02 -0.14506335266E+02  0.37192956146E+02  0.47000000000E+01 0. -1.
         -5    1    3    3    0  501  0.30005874434E+02 -0.25980425385E+02  0.11999259773E+03  0.12647390447E+03  0.47000000000E+01 0. -1.
          5    1    4    4  502    0 -0.49316261208E+02 -0.16512374087E+02  0.50282850727E+02  0.72492807883E+02  0.47000000000E+01 0.  1.
         -5    1    4    4    0  502  0.44265321843E+02  0.19513603669E+02  0.22074134909E+03  0.22602883145E+03  0.47000000000E+01 0.  1.
<mgrwt>
<rscale>  0 0.26806358E+03</rscale>
<asrwt>0</asrwt>
<pdfrwt beam="1">  1       21 0.64515302E-01 0.26806358E+03</pdfrwt>
<pdfrwt beam="2">  1       21 0.65906186E-02 0.26806358E+03</pdfrwt>
<totfact> 0.36523442E+05</totfact>
</mgrwt>
</event>
<event>
 8    1  0.9478272E-006  0.2835483E+03  0.7546771E-02  0.1093767E+00
         21   -1    0    0  504  503  0.00000000000E+00  0.00000000000E+00  0.45147746828E+03  0.45147746828E+03  0.00000000000E+00 0.  1.
         21   -1    0    0  503  504 -0.00000000000E+00 -0.00000000000E+00 -0.44520278948E+02  0.44520278948E+02  0.00000000000E+00 0.  1.
         25    2    1    2    0    0  0.61663488480E+01 -0.22686176374E+02  0.93974235801E+02  0.15814108394E+03  0.12499903592E+03 0.  0.
         25    2    1    2    0    0 -0.61663488480E+01  0.22686176374E+02  0.31298295353E+03  0.33785666328E+03  0.12504442917E+03 0.  0.
          5    1    3    3  501    0 -0.58772335016E+02 -0.91427345712E+01  0.34483991496E+02  0.68913080240E+02  0.47000000000E+01 0.  1.
         -5    1    3    3    0  501  0.64938683864E+02 -0.13543441803E+02  0.59490244304E+02  0.89228003705E+02  0.47000000000E+01 0.  1.
          5    1    4    4  502    0  0.54672958706E+02  0.81388070136E+01  0.21060234879E+03  0.21778616097E+03  0.47000000000E+01 0. -1.
         -5    1    4    4    0  502 -0.60839307554E+02  0.14547369361E+02  0.10238060474E+03  0.12007050231E+03  0.47000000000E+01 0. -1.
<mgrwt>
<rscale>  0 0.28354825E+03</rscale>
<asrwt>0</asrwt>
<pdfrwt beam="1">  1       21 0.69458069E-01 0.28354825E+03</pdfrwt>
<pdfrwt beam="2">  1       21 0.68492740E-02 0.28354825E+03</pdfrwt>
<totfact> 0.28928435E+05</totfact>
</mgrwt>
</event>
<event>
 8    1  0.9478272E-006  0.5174793E+03  0.7546771E-02  0.1009315E+00
         21   -1    0    0  504  503  0.00000000000E+00  0.00000000000E+00  0.62686340430E+03  0.62686340430E+03  0.00000000000E+00 0. -1.
         21   -1    0    0  503  504 -0.00000000000E+00 -0.00000000000E+00 -0.10679551730E+03  0.10679551730E+03  0.00000000000E+00 0. -1.
         25    2    1    2    0    0  0.17856495523E+03  0.70127344826E+02  0.43085910217E+03  0.48792205657E+03  0.12500031856E+03 0.  0.
         25    2    1    2    0    0 -0.17856495523E+03 -0.70127344826E+02  0.89208784830E+02  0.24573686503E+03  0.12500044726E+03 0.  0.
          5    1    3    3  501    0  0.83166670793E+02  0.60585143513E+02  0.34179502053E+03  0.35697784358E+03  0.47000000000E+01 0.  1.
         -5    1    3    3    0  501  0.95398284435E+02  0.95422013126E+01  0.89064081640E+02  0.13094421300E+03  0.47000000000E+01 0.  1.
          5    1    4    4  502    0 -0.74678475338E+02 -0.21858747040E+02 -0.26995268925E+02  0.82495539548E+02  0.47000000000E+01 0. -1.
         -5    1    4    4    0  502 -0.10388647989E+03 -0.48268597786E+02  0.11620405375E+03  0.16324132548E+03  0.47000000000E+01 0. -1.
<mgrwt>
<rscale>  0 0.51747928E+03</rscale>
<asrwt>0</asrwt>
<pdfrwt beam="1">  1       21 0.96440521E-01 0.51747928E+03</pdfrwt>
<pdfrwt beam="2">  1       21 0.16430080E-01 0.51747928E+03</pdfrwt>
<totfact> 0.26509819E+04</totfact>
</mgrwt>
</event>
<event>
 8    1  0.9478272E-006  0.3003809E+03  0.7546771E-02  0.1085050E+00
         21   -1    0    0  504  503  0.00000000000E+00  0.00000000000E+00  0.18360908158E+03  0.18360908158E+03  0.00000000000E+00 0. -1.
         21   -1    0    0  503  504 -0.00000000000E+00 -0.00000000000E+00 -0.12285432203E+03  0.12285432203E+03  0.00000000000E+00 0. -1.
         25    2    1    2    0    0 -0.31475892951E+02 -0.13505988041E+02  0.10778630879E+03  0.16857062059E+03  0.12500008886E+03 0.  0.
         25    2    1    2    0    0  0.31475892951E+02  0.13505988041E+02 -0.47031549245E+02  0.13789278302E+03  0.12501723655E+03 0.  0.
          5    1    3    3  501    0 -0.49164554245E+02 -0.26349184963E+01 -0.86454212943E+01  0.50208858770E+02  0.47000000000E+01 0.  1.
         -5    1    3    3    0  501  0.17688661294E+02 -0.10871069544E+02  0.11643173008E+03  0.11836176182E+03  0.47000000000E+01 0.  1.
          5    1    4    4  502    0 -0.96944496843E+01  0.40635600949E+02  0.26162681791E+02  0.49515758478E+02  0.47000000000E+01 0.  1.
         -5    1    4    4    0  502  0.41170342635E+02 -0.27129612908E+02 -0.73194231036E+02  0.88377024538E+02  0.47000000000E+01 0.  1.
<mgrwt>
<rscale>  0 0.30038089E+03</rscale>
<asrwt>0</asrwt>
<pdfrwt beam="1">  1       21 0.28247551E-01 0.30038089E+03</pdfrwt>
<pdfrwt beam="2">  1       21 0.18900665E-01 0.30038089E+03</pdfrwt>
<totfact> 0.29969025E+05</totfact>
</mgrwt>
</event>
<event>
 8    1  0.9478272E-006  0.3783697E+03  0.7546771E-02  0.1051538E+00
         21   -1    0    0  504  503  0.00000000000E+00  0.00000000000E+00  0.21297105006E+02  0.21297105006E+02  0.00000000000E+00 0. -1.
         21   -1    0    0  503  504 -0.00000000000E+00 -0.00000000000E+00 -0.16805528325E+04  0.16805528325E+04  0.00000000000E+00 0. -1.
         25    2    1    2    0    0 -0.40837871509E+02  0.13183361871E+03 -0.67932114007E+03  0.70438012604E+03  0.12500526328E+03 0.  0.
         25    2    1    2    0    0  0.40837871509E+02 -0.13183361871E+03 -0.97993458745E+03  0.99746981149E+03  0.12500557740E+03 0.  0.
          5    1    3    3  501    0 -0.11992518860E+02  0.55806175672E+02 -0.53975306182E+03  0.54278320487E+03  0.47000000000E+01 0. -1.
         -5    1    3    3    0  501 -0.28845352649E+02  0.76027443038E+02 -0.13956807825E+03  0.16159692117E+03  0.47000000000E+01 0. -1.
          5    1    4    4  502    0  0.11452306469E+02 -0.34358680785E+02 -0.49734541145E+02  0.61703232101E+02  0.47000000000E+01 0. -1.
         -5    1    4    4    0  502  0.29385565040E+02 -0.97474937925E+02 -0.93020004631E+03  0.93576657939E+03  0.47000000000E+01 0. -1.
<mgrwt>
<rscale>  0 0.37836971E+03</rscale>
<asrwt>0</asrwt>
<pdfrwt beam="1">  1       21 0.32764765E-02 0.37836971E+03</pdfrwt>
<pdfrwt beam="2">  1       21 0.25854669E+00 0.37836971E+03</pdfrwt>
<totfact> 0.28967313E+04</totfact>
</mgrwt>
</event>
<event>
 8    1  0.9478272E-006  0.2878109E+03  0.7546771E-02  0.1091498E+00
         21   -1    0    0  504  503  0.00000000000E+00  0.00000000000E+00  0.12462439424E+02  0.12462439424E+02  0.00000000000E+00 0. -1.
         21   -1    0    0  503  504 -0.00000000000E+00 -0.00000000000E+00 -0.16616951284E+04  0.16616951284E+04  0.00000000000E+00 0. -1.
         25    2    1    2    0    0 -0.50089224691E+02  0.50184059709E+02 -0.86809558231E+03  0.87991128950E+03  0.12500626818E+03 0.  0.
         25    2    1    2    0    0  0.50089224691E+02 -0.50184059709E+02 -0.78113710666E+03  0.79424627832E+03  0.12499840375E+03 0.  0.
          5    1    3    3  501    0 -0.67565639936E+01  0.78862588368E+02 -0.68349948943E+03  0.68808328061E+03  0.47000000000E+01 0. -1.
         -5    1    3    3    0  501 -0.43332660697E+02 -0.28678528659E+02 -0.18459609288E+03  0.19182800890E+03  0.47000000000E+01 0. -1.
          5    1    4    4  502    0  0.14513092953E+02  0.38977545696E+02 -0.14611602302E+03  0.15199296405E+03  0.47000000000E+01 0.  1.
         -5    1    4    4    0  502  0.35576131738E+02 -0.89161605405E+02 -0.63502108364E+03  0.64225331427E+03  0.47000000000E+01 0.  1.
<mgrwt>
<rscale>  0 0.28781087E+03</rscale>
<asrwt>0</asrwt>
<pdfrwt beam="1">  1       21 0.19172997E-02 0.28781087E+03</pdfrwt>
<pdfrwt beam="2">  1       21 0.25564523E+00 0.28781087E+03</pdfrwt>
<totfact> 0.76595352E+04</totfact>
</mgrwt>
</event>
<event>
 8    1  0.9478272E-006  0.2845839E+03  0.7546771E-02  0.1093211E+00
         21   -1    0    0  504  503  0.00000000000E+00  0.00000000000E+00  0.89225909741E+02  0.89225909741E+02  0.00000000000E+00 0.  1.
         21   -1    0    0  503  504 -0.00000000000E+00 -0.00000000000E+00 -0.22691835447E+03  0.22691835447E+03  0.00000000000E+00 0.  1.
         25    2    1    2    0    0 -0.32357852128E+02 -0.50006536702E+02 -0.32454980166E+02  0.14222296401E+03  0.12500544567E+03 0.  0.
         25    2    1    2    0    0  0.32357852128E+02  0.50006536702E+02 -0.10523746457E+03  0.17392130020E+03  0.12500404157E+03 0.  0.
          5    1    3    3  501    0  0.97559031997E+01 -0.39982753024E+02 -0.72218198451E+02  0.83254767876E+02  0.47000000000E+01 0.  1.
         -5    1    3    3    0  501 -0.42113755328E+02 -0.10023783678E+02  0.39763218286E+02  0.58968196135E+02  0.47000000000E+01 0.  1.
          5    1    4    4  502    0  0.58098017692E+02 -0.54501415879E+01 -0.95237672389E+02  0.11179171680E+03  0.47000000000E+01 0. -1.
         -5    1    4    4    0  502 -0.25740165564E+02  0.55456678290E+02 -0.99997921770E+01  0.62129583402E+02  0.47000000000E+01 0. -1.
<mgrwt>
<rscale>  0 0.28458388E+03</rscale>
<asrwt>0</asrwt>
<pdfrwt beam="1">  1       21 0.13727063E-01 0.28458388E+03</pdfrwt>
<pdfrwt beam="2">  1       21 0.34910516E-01 0.28458388E+03</pdfrwt>
<totfact> 0.35715526E+05</totfact>
</mgrwt>
</event>
<event>
 8    1  0.9478272E-006  0.3445314E+03  0.7546771E-02  0.1064882E+00
         21   -1    0    0  504  503  0.00000000000E+00  0.00000000000E+00  0.14958201780E+03  0.14958201780E+03  0.00000000000E+00 0.  1.
         21   -1    0    0  503  504 -0.00000000000E+00 -0.00000000000E+00 -0.19838933427E+03  0.19838933427E+03  0.00000000000E+00 0.  1.
         25    2    1    2    0    0 -0.93983075010E+02 -0.50513739793E+02  0.27699477437E+02  0.16670177274E+03  0.12505104433E+03 0.  0.
         25    2    1    2    0    0  0.93983075010E+02  0.50513739793E+02 -0.76506793913E+02  0.18126957933E+03  0.12498365725E+03 0.  0.
          5    1    3    3  501    0 -0.90151243601E+02 -0.88045539601E+02  0.17262475940E+02  0.12727665474E+03  0.47000000000E+01 0. -1.
         -5    1    3    3    0  501 -0.38318314092E+01  0.37531799808E+02  0.10437001496E+02  0.39425117996E+02  0.47000000000E+01 0. -1.
          5    1    4    4  502    0  0.83997238691E+02  0.89115525069E+02 -0.68267981476E+02  0.14028442612E+03  0.47000000000E+01 0.  1.
         -5    1    4    4    0  502  0.99858363194E+01 -0.38601785276E+02 -0.82388124365E+01  0.40985153213E+02  0.47000000000E+01 0.  1.
<mgrwt>
<rscale>  0 0.34453143E+03</rscale>
<asrwt>0</asrwt>
<pdfrwt beam="1">  1       21 0.23012618E-01 0.34453143E+03</pdfrwt>
<pdfrwt beam="2">  1       21 0.30521436E-01 0.34453143E+03</pdfrwt>
<totfact> 0.17558040E+05</totfact>
</mgrwt>
</event>
<event>
 8    1  0.9478272E-006  0.3498426E+03  0.7546771E-02  0.1062680E+00
         21   -1    0    0  504  503  0.00000000000E+00  0.00000000000E+00  0.24137319946E+02  0.24137319946E+02  0.00000000000E+00 0.  1.
         21   -1    0    0  503  504 -0.00000000000E+00 -0.00000000000E+00 -0.12676409380E+04  0.12676409380E+04  0.00000000000E+00 0.  1.
         25    2    1    2    0    0  0.16074478495E+02  0.83502389356E+02 -0.29683959917E+03  0.33311830689E+03  0.12499208320E+03 0.  0.
         25    2    1    2    0    0 -0.16074478495E+02 -0.83502389356E+02 -0.94666401886E+03  0.95865995103E+03  0.12500039688E+03 0.  0.
          5    1    3    3  501    0 -0.39640035369E+02 -0.96876898000E+01 -0.62286378095E+02  0.74611437688E+02  0.47000000000E+01 0.  1.
         -5    1    3    3    0  501  0.55714513864E+02  0.93190079156E+02 -0.23455322108E+03  0.25850686921E+03  0.47000000000E+01 0.  1.
          5    1    4    4  502    0  0.47641972421E+02 -0.57443920241E+01 -0.23315389557E+03  0.23808734657E+03  0.47000000000E+01 0.  1.
         -5    1    4    4    0  502 -0.63716450916E+02 -0.77757997332E+02 -0.71351012329E+03  0.72057260446E+03  0.47000000000E+01 0.  1.
<mgrwt>
<rscale>  0 0.34984256E+03</rscale>
<asrwt>0</asrwt>
<pdfrwt beam="1">  1       21 0.37134332E-02 0.34984256E+03</pdfrwt>
<pdfrwt beam="2">  1       21 0.19502172E+00 0.34984256E+03</pdfrwt>
<totfact> 0.59560606E+04</totfact>
</mgrwt>
</event>
<event>
 8    1  0.9478272E-006  0.4851326E+03  0.7546771E-02  0.1017734E+00
         21   -1    0    0  504  503  0.00000000000E+00  0.00000000000E+00  0.13224983786E+03  0.13224983786E+03  0.00000000000E+00 0.  1.
         21   -1    0    0  503  504 -0.00000000000E+00 -0.00000000000E+00 -0.44490344975E+03  0.44490344975E+03  0.00000000000E+00 0.  1.
         25    2    1    2    0    0  0.15654477984E+03 -0.10052617937E+03 -0.45993935080E+02  0.22880779313E+03  0.12500313315E+03 0.  0.
         25    2    1    2    0    0 -0.15654477984E+03  0.10052617937E+03 -0.26665967681E+03  0.34834549448E+03  0.12500167781E+03 0.  0.
          5    1    3    3  501    0  0.52766060527E+02 -0.13792784825E+02  0.40590080679E+02  0.68147947191E+02  0.47000000000E+01 0. -1.
         -5    1    3    3    0  501  0.10377871931E+03 -0.86733394547E+02 -0.86584015759E+02  0.16065984594E+03  0.47000000000E+01 0. -1.
          5    1    4    4  502    0 -0.37214918720E+02  0.28145805388E+02 -0.17531500161E+03  0.18147885917E+03  0.47000000000E+01 0. -1.
         -5    1    4    4    0  502 -0.11932986112E+03  0.72380373984E+02 -0.91344675202E+02  0.16686663531E+03  0.47000000000E+01 0. -1.
<mgrwt>
<rscale>  0 0.48513260E+03</rscale>
<asrwt>0</asrwt>
<pdfrwt beam="1">  1       21 0.20346129E-01 0.48513260E+03</pdfrwt>
<pdfrwt beam="2">  1       21 0.68446684E-01 0.48513260E+03</pdfrwt>
<totfact> 0.39554126E+04</totfact>
</mgrwt>
</event>
<event>
 8    1  0.9478272E-006  0.3011162E+03  0.7546771E-02  0.1084684E+00
         21   -1    0    0  504  503  0.00000000000E+00  0.00000000000E+00  0.59579966072E+03  0.59579966072E+03  0.00000000000E+00 0.  1.
         21   -1    0    0  503  504 -0.00000000000E+00 -0.00000000000E+00 -0.38045904374E+02  0.38045904374E+02  0.00000000000E+00 0.  1.
         25    2    1    2    0    0 -0.69095401066E+02  0.61177723228E+01  0.17946770682E+03  0.22944774092E+03  0.12500402567E+03 0.  0.
         25    2    1    2    0    0  0.69095401066E+02 -0.61177723228E+01  0.37828604952E+03  0.40439782418E+03  0.12500265336E+03 0.  0.
          5    1    3    3  501    0 -0.29976688234E+02  0.57525520827E+02  0.13795324747E+03  0.15251549387E+03  0.47000000000E+01 0. -1.
         -5    1    3    3    0  501 -0.39118712832E+02 -0.51407748504E+02  0.41514459352E+02  0.76932247044E+02  0.47000000000E+01 0. -1.
          5    1    4    4  502    0 -0.14952083564E+02 -0.35769242622E+02  0.21304829387E+03  0.21659794330E+03  0.47000000000E+01 0. -1.
         -5    1    4    4    0  502  0.84047484630E+02  0.29651470299E+02  0.16523775565E+03  0.18779988087E+03  0.47000000000E+01 0. -1.
<mgrwt>
<rscale>  0 0.30111617E+03</rscale>
<asrwt>0</asrwt>
<pdfrwt beam="1">  1       21 0.91661479E-01 0.30111617E+03</pdfrwt>
<pdfrwt beam="2">  1       21 0.58532165E-02 0.30111617E+03</pdfrwt>
<totfact> 0.20067547E+05</totfact>
</mgrwt>
</event>
<event>
 8    1  0.9478272E-006  0.2681434E+03  0.7546771E-02  0.1102347E+00
         21   -1    0    0  504  503  0.00000000000E+00  0.00000000000E+00  0.16869852596E+03  0.16869852596E+03  0.00000000000E+00 0. -1.
         21   -1    0    0  503  504 -0.00000000000E+00 -0.00000000000E+00 -0.10655232496E+03  0.10655232496E+03  0.00000000000E+00 0. -1.
         25    2    1    2    0    0  0.32912467921E+02 -0.15662628202E+02  0.63876635441E+02  0.14503608631E+03  0.12500677305E+03 0.  0.
         25    2    1    2    0    0 -0.32912467921E+02  0.15662628202E+02 -0.17304344444E+01  0.13021476461E+03  0.12499736819E+03 0.  0.
          5    1    3    3  501    0  0.74352758790E+02  0.12013528325E+01  0.66641460265E+02  0.99964744858E+02  0.47000000000E+01 0.  1.
         -5    1    3    3    0  501 -0.41440290869E+02 -0.16863981035E+02 -0.27648248241E+01  0.45071341449E+02  0.47000000000E+01 0.  1.
          5    1    4    4  502    0 -0.37951515591E+02 -0.49941344232E+02  0.84598971727E+01  0.63467434638E+02  0.47000000000E+01 0.  1.
         -5    1    4    4    0  502  0.50390476702E+01  0.65603972434E+02 -0.10190331617E+02  0.66747329977E+02  0.47000000000E+01 0.  1.
<mgrwt>
<rscale>  0 0.26814340E+03</rscale>
<asrwt>0</asrwt>
<pdfrwt beam="1">  1       21 0.25953619E-01 0.26814340E+03</pdfrwt>
<pdfrwt beam="2">  1       21 0.16392665E-01 0.26814340E+03</pdfrwt>
<totfact> 0.46330884E+05</totfact>
</mgrwt>
</event>
<event>
 8    1  0.9478272E-006  0.3503223E+03  0.7546771E-02  0.1062483E+00
         21   -1    0    0  504  503  0.00000000000E+00  0.00000000000E+00  0.49884062341E+02  0.49884062341E+02  0.00000000000E+00 0. -1.
         21   -1    0    0  503  504 -0.00000000000E+00 -0.00000000000E+00 -0.61505465017E+03  0.61505465017E+03  0.00000000000E+00 0. -1.
         25    2    1    2    0    0  0.58795692291E+02 -0.55320592202E+02 -0.45797059460E+03  0.48153919999E+03  0.12500253700E+03 0.  0.
         25    2    1    2    0    0 -0.58795692291E+02  0.55320592202E+02 -0.10719999324E+03  0.18339951253E+03  0.12500496507E+03 0.  0.
          5    1    3    3  501    0  0.62180314523E+01 -0.36339992836E+02 -0.39681843288E+03  0.39855516264E+03  0.47000000000E+01 0. -1.
         -5    1    3    3    0  501  0.52577660838E+02 -0.18980599366E+02 -0.61152161714E+02  0.82984037344E+02  0.47000000000E+01 0. -1.
          5    1    4    4  502    0 -0.50348350491E+02  0.77228717274E+02 -0.12367966233E+03  0.15433074886E+03  0.47000000000E+01 0. -1.
         -5    1    4    4    0  502 -0.84473417995E+01 -0.21908125071E+02  0.16479669096E+02  0.29068763667E+02  0.47000000000E+01 0. -1.
<mgrwt>
<rscale>  0 0.35032228E+03</rscale>
<asrwt>0</asrwt>
<pdfrwt beam="1">  1       21 0.76744710E-02 0.35032228E+03</pdfrwt>
<pdfrwt beam="2">  1       21 0.94623794E-01 0.35032228E+03</pdfrwt>
<totfact> 0.11471268E+05</totfact>
</mgrwt>
</event>
<event>
 8    1  0.9478272E-006  0.2691557E+03  0.7546771E-02  0.1101764E+00
         21   -1    0    0  504  503  0.00000000000E+00  0.00000000000E+00  0.14816503531E+03  0.14816503531E+03  0.00000000000E+00 0.  1.
         21   -1    0    0  503  504 -0.00000000000E+00 -0.00000000000E+00 -0.12223661129E+03  0.12223661129E+03  0.00000000000E+00 0.  1.
         25    2    1    2    0    0  0.12097693330E+00  0.49849667361E+02  0.13908948979E+02  0.13529220619E+03  0.12500207288E+03 0.  0.
         25    2    1    2    0    0 -0.12097693330E+00 -0.49849667361E+02  0.12019475044E+02  0.13510944041E+03  0.12500035654E+03 0.  0.
          5    1    3    3  501    0 -0.41995851191E+02  0.71985057208E+02  0.23091900303E+02  0.86607308226E+02  0.47000000000E+01 0. -1.
         -5    1    3    3    0  501  0.42116828124E+02 -0.22135389847E+02 -0.91829513242E+01  0.48684897966E+02  0.47000000000E+01 0. -1.
          5    1    4    4  502    0  0.50460087325E+02  0.44004083102E+01  0.29440126818E+02  0.58774102062E+02  0.47000000000E+01 0.  1.
         -5    1    4    4    0  502 -0.50581064259E+02 -0.54250075671E+02 -0.17420651774E+02  0.76335338344E+02  0.47000000000E+01 0.  1.
<mgrwt>
<rscale>  0 0.26915566E+03</rscale>
<asrwt>0</asrwt>
<pdfrwt beam="1">  1       21 0.22794621E-01 0.26915566E+03</pdfrwt>
<pdfrwt beam="2">  1       21 0.18805633E-01 0.26915566E+03</pdfrwt>
<totfact> 0.46032569E+05</totfact>
</mgrwt>
</event>
<event>
 8    1  0.9478272E-006  0.2794209E+03  0.7546771E-02  0.1096006E+00
         21   -1    0    0  504  503  0.00000000000E+00  0.00000000000E+00  0.74752597419E+02  0.74752597419E+02  0.00000000000E+00 0.  1.
         21   -1    0    0  503  504 -0.00000000000E+00 -0.00000000000E+00 -0.26111475296E+03  0.26111475296E+03  0.00000000000E+00 0.  1.
         25    2    1    2    0    0 -0.38443409348E+02 -0.26142985653E+02 -0.14321306981E+03  0.19569510952E+03  0.12500096442E+03 0.  0.
         25    2    1    2    0    0  0.38443409348E+02  0.26142985653E+02 -0.43149085733E+02  0.14017224086E+03  0.12500024834E+03 0.  0.
          5    1    3    3  501    0 -0.15693571674E+01  0.43019540294E+02 -0.15928749388E+02  0.46140641371E+02  0.47000000000E+01 0. -1.
         -5    1    3    3    0  501 -0.36874052180E+02 -0.69162525947E+02 -0.12728432042E+03  0.14955446815E+03  0.47000000000E+01 0. -1.
          5    1    4    4  502    0  0.61257713860E+02  0.16377504232E+01  0.23210383806E+02  0.65696283382E+02  0.47000000000E+01 0.  1.
         -5    1    4    4    0  502 -0.22814304513E+02  0.24505235230E+02 -0.66359469539E+02  0.74475957473E+02  0.47000000000E+01 0.  1.
<mgrwt>
<rscale>  0 0.27942087E+03</rscale>
<asrwt>0</asrwt>
<pdfrwt beam="1">  1       21 0.11500400E-01 0.27942087E+03</pdfrwt>
<pdfrwt beam="2">  1       21 0.40171500E-01 0.27942087E+03</pdfrwt>
<totfact> 0.37095694E+05</totfact>
</mgrwt>
</event>
<event>
 8    1  0.9478272E-006  0.2805214E+03  0.7546771E-02  0.1095404E+00
         21   -1    0    0  504  503  0.00000000000E+00  0.00000000000E+00  0.58634028097E+03  0.58634028097E+03  0.00000000000E+00 0.  1.
         21   -1    0    0  503  504 -0.00000000000E+00 -0.00000000000E+00 -0.33552302615E+02  0.33552302615E+02  0.00000000000E+00 0.  1.
         25    2    1    2    0    0 -0.38606091302E+02  0.47156222055E+02  0.31679752817E+03  0.34597634871E+03  0.12499928179E+03 0.  0.
         25    2    1    2    0    0  0.38606091302E+02 -0.47156222055E+02  0.23599045019E+03  0.27391623488E+03  0.12499788633E+03 0.  0.
          5    1    3    3  501    0 -0.20861627797E+02  0.51723126882E+02  0.32162136844E+03  0.32645502601E+03  0.47000000000E+01 0. -1.
         -5    1    3    3    0  501 -0.17744463505E+02 -0.45669048272E+01 -0.48238402753E+01  0.19521322695E+02  0.47000000000E+01 0. -1.
          5    1    4    4  502    0  0.32460262987E+01 -0.52210739631E+02  0.22049267784E+02  0.56962779333E+02  0.47000000000E+01 0. -1.
         -5    1    4    4    0  502  0.35360065003E+02  0.50545175756E+01  0.21394118240E+03  0.21695345555E+03  0.47000000000E+01 0. -1.
<mgrwt>
<rscale>  0 0.28052142E+03</rscale>
<asrwt>0</asrwt>
<pdfrwt beam="1">  1       21 0.90206190E-01 0.28052142E+03</pdfrwt>
<pdfrwt beam="2">  1       21 0.51618931E-02 0.28052142E+03</pdfrwt>
<totfact> 0.25987708E+05</totfact>
</mgrwt>
</event>
<event>
 8    1  0.9478272E-006  0.3444590E+03  0.7546771E-02  0.1064913E+00
         21   -1    0    0  504  503  0.00000000000E+00  0.00000000000E+00  0.31891453380E+03  0.31891453380E+03  0.00000000000E+00 0.  1.
         21   -1    0    0  503  504 -0.00000000000E+00 -0.00000000000E+00 -0.93012360997E+02  0.93012360997E+02  0.00000000000E+00 0.  1.
         25    2    1    2    0    0  0.11626739520E+03  0.87080424615E+01  0.87792722557E+02  0.19216339738E+03  0.12500108787E+03 0.  0.
         25    2    1    2    0    0 -0.11626739520E+03 -0.87080424615E+01  0.13810945024E+03  0.21976349741E+03  0.12501134892E+03 0.  0.
          5    1    3    3  501    0  0.13083206578E+03 -0.22949882511E+02  0.54219279123E+02  0.14354632274E+03  0.47000000000E+01 0. -1.
         -5    1    3    3    0  501 -0.14564670579E+02  0.31657924972E+02  0.33573443434E+02  0.48617074641E+02  0.47000000000E+01 0. -1.
          5    1    4    4  502    0 -0.38961776845E+02 -0.58731414661E+02  0.27583538941E+02  0.75831001203E+02  0.47000000000E+01 0. -1.
         -5    1    4    4    0  502 -0.77305618357E+02  0.50023372199E+02  0.11052591130E+03  0.14393249621E+03  0.47000000000E+01 0. -1.
<mgrwt>
<rscale>  0 0.34445896E+03</rscale>
<asrwt>0</asrwt>
<pdfrwt beam="1">  1       21 0.49063774E-01 0.34445896E+03</pdfrwt>
<pdfrwt beam="2">  1       21 0.14309594E-01 0.34445896E+03</pdfrwt>
<totfact> 0.16254010E+05</totfact>
</mgrwt>
</event>
<event>
 8    1  0.9478272E-006  0.3023111E+03  0.7546771E-02  0.1084091E+00
         21   -1    0    0  504  503  0.00000000000E+00  0.00000000000E+00  0.14349904755E+03  0.14349904755E+03  0.00000000000E+00 0.  1.
         21   -1    0    0  503  504 -0.00000000000E+00 -0.00000000000E+00 -0.15922053765E+03  0.15922053765E+03  0.00000000000E+00 0.  1.
         25    2    1    2    0    0  0.24737038150E+02  0.75003951389E+02 -0.39284861483E+02  0.15299007899E+03  0.12500060059E+03 0.  0.
         25    2    1    2    0    0 -0.24737038150E+02 -0.75003951389E+02  0.23563371386E+02  0.14972950622E+03  0.12500471503E+03 0.  0.
          5    1    3    3  501    0  0.59210401988E+02  0.91545830813E+02 -0.32582764720E+02  0.11388695008E+03  0.47000000000E+01 0. -1.
         -5    1    3    3    0  501 -0.34473363838E+02 -0.16541879424E+02 -0.67020967623E+01  0.39103128905E+02  0.47000000000E+01 0. -1.
          5    1    4    4  502    0  0.21936384324E+02 -0.39372672606E+02  0.63898658719E+02  0.78336076564E+02  0.47000000000E+01 0.  1.
         -5    1    4    4    0  502 -0.46673422474E+02 -0.35631278783E+02 -0.40335287333E+02  0.71393429651E+02  0.47000000000E+01 0.  1.
<mgrwt>
<rscale>  0 0.30231107E+03</rscale>
<asrwt>0</asrwt>
<pdfrwt beam="1">  1       21 0.22076777E-01 0.30231107E+03</pdfrwt>
<pdfrwt beam="2">  1       21 0.24495467E-01 0.30231107E+03</pdfrwt>
<totfact> 0.29445112E+05</totfact>
</mgrwt>
</event>
<event>
 8    1  0.9478272E-006  0.2816685E+03  0.7546771E-02  0.1094781E+00
         21   -1    0    0  504  503  0.00000000000E+00  0.00000000000E+00  0.28003743489E+03  0.28003743489E+03  0.00000000000E+00 0.  1.
         21   -1    0    0  503  504 -0.00000000000E+00 -0.00000000000E+00 -0.70827259673E+02  0.70827259673E+02  0.00000000000E+00 0.  1.
         25    2    1    2    0    0  0.17342622453E+02 -0.16088257215E+02  0.17987761021E+03  0.22031217059E+03  0.12498759651E+03 0.  0.
         25    2    1    2    0    0 -0.17342622453E+02  0.16088257215E+02  0.29332565004E+02  0.13055252397E+03  0.12499585422E+03 0.  0.
          5    1    3    3  501    0 -0.48433013725E+02  0.13659881651E+01  0.12017952242E+03  0.12966429868E+03  0.47000000000E+01 0.  1.
         -5    1    3    3    0  501  0.65775636178E+02 -0.17454245380E+02  0.59698087792E+02  0.90647871913E+02  0.47000000000E+01 0.  1.
          5    1    4    4  502    0  0.42417343388E+02 -0.20464535570E+02  0.36790990497E+02  0.59947437126E+02  0.47000000000E+01 0. -1.
         -5    1    4    4    0  502 -0.59759965842E+02  0.36552792785E+02 -0.74584254930E+01  0.70605086847E+02  0.47000000000E+01 0. -1.
<mgrwt>
<rscale>  0 0.28166849E+03</rscale>
<asrwt>0</asrwt>
<pdfrwt beam="1">  1       21 0.43082682E-01 0.28166849E+03</pdfrwt>
<pdfrwt beam="2">  1       21 0.10896502E-01 0.28166849E+03</pdfrwt>
<totfact> 0.35392047E+05</totfact>
</mgrwt>
</event>
<event>
 8    1  0.9478272E-006  0.2801865E+03  0.7546771E-02  0.1095587E+00
         21   -1    0    0  504  503  0.00000000000E+00  0.00000000000E+00  0.35497613355E+03  0.35497613355E+03  0.00000000000E+00 0. -1.
         21   -1    0    0  503  504 -0.00000000000E+00 -0.00000000000E+00 -0.55288544286E+02  0.55288544286E+02  0.00000000000E+00 0. -1.
         25    2    1    2    0    0 -0.24939515987E+02 -0.56162372797E+02  0.12789588426E+03  0.18909997003E+03  0.12500099952E+03 0.  0.
         25    2    1    2    0    0  0.24939515987E+02  0.56162372797E+02  0.17179170500E+03  0.22116470780E+03  0.12500098597E+03 0.  0.
          5    1    3    3  501    0 -0.70730665734E+02 -0.55970749423E+02  0.10216409572E+03  0.13636401403E+03  0.47000000000E+01 0. -1.
         -5    1    3    3    0  501  0.45791149747E+02 -0.19162337362E+00  0.25731788534E+02  0.52735956006E+02  0.47000000000E+01 0. -1.
          5    1    4    4  502    0  0.68342518512E+02  0.11053620586E+02  0.12463934218E+03  0.14265320881E+03  0.47000000000E+01 0.  1.
         -5    1    4    4    0  502 -0.43403002525E+02  0.45108752211E+02  0.47152362824E+02  0.78511498993E+02  0.47000000000E+01 0.  1.
<mgrwt>
<rscale>  0 0.28018646E+03</rscale>
<asrwt>0</asrwt>
<pdfrwt beam="1">  1       21 0.54611711E-01 0.28018646E+03</pdfrwt>
<pdfrwt beam="2">  1       21 0.85059301E-02 0.28018646E+03</pdfrwt>
<totfact> 0.33448226E+05</totfact>
</mgrwt>
</event>
<event>
 8    1  0.9478272E-006  0.3936653E+03  0.7546771E-02  0.1045995E+00
         21   -1    0    0  504  503  0.00000000000E+00  0.00000000000E+00  0.75413019372E+02  0.75413019372E+02  0.00000000000E+00 0. -1.
         21   -1    0    0  503  504 -0.00000000000E+00 -0.00000000000E+00 -0.51374541320E+03  0.51374541320E+03  0.00000000000E+00 0. -1.
         25    2    1    2    0    0 -0.11227252984E+03 -0.56521338990E+02 -0.34719996737E+03  0.38983671100E+03  0.12500024472E+03 0.  0.
         25    2    1    2    0    0  0.11227252984E+03  0.56521338990E+02 -0.91132426455E+02  0.19932172157E+03  0.12499698725E+03 0.  0.
          5    1    3    3  501    0 -0.10860291560E+03  0.10173937561E+02 -0.19334336226E+03  0.22204019458E+03  0.47000000000E+01 0.  1.
         -5    1    3    3    0  501 -0.36696142422E+01 -0.66695276551E+02 -0.15385660512E+03  0.16779651642E+03  0.47000000000E+01 0.  1.
          5    1    4    4  502    0 -0.24555588484E+02 -0.74734399390E+01 -0.11811196220E+02  0.28643037312E+02  0.47000000000E+01 0.  1.
         -5    1    4    4    0  502  0.13682811833E+03  0.63994778929E+02 -0.79321230235E+02  0.17067868426E+03  0.47000000000E+01 0.  1.
<mgrwt>
<rscale>  0 0.39366530E+03</rscale>
<asrwt>0</asrwt>
<pdfrwt beam="1">  1       21 0.11602003E-01 0.39366530E+03</pdfrwt>
<pdfrwt beam="2">  1       21 0.79037757E-01 0.39366530E+03</pdfrwt>
<totfact> 0.82690457E+04</totfact>
</mgrwt>
</event>
<event>
 8    1  0.9478272E-006  0.4494075E+03  0.7546771E-02  0.1027899E+00
         21   -1    0    0  504  503  0.00000000000E+00  0.00000000000E+00  0.98484060786E+03  0.98484060786E+03  0.00000000000E+00 0. -1.
         21   -1    0    0  503  504 -0.00000000000E+00 -0.00000000000E+00 -0.51268985025E+02  0.51268985025E+02  0.00000000000E+00 0. -1.
         25    2    1    2    0    0  0.15830634890E+03  0.94629901091E+02  0.39951062613E+03  0.45743799142E+03  0.12500022928E+03 0.  0.
         25    2    1    2    0    0 -0.15830634890E+03 -0.94629901091E+02  0.53406099671E+03  0.57867160147E+03  0.12499582337E+03 0.  0.
          5    1    3    3  501    0 -0.95607840864E+01 -0.10802060280E+02  0.51294639033E+01  0.16015445625E+02  0.47000000000E+01 0. -1.
         -5    1    3    3    0  501  0.16786713299E+03  0.10543196137E+03  0.39438116223E+03  0.44142254579E+03  0.47000000000E+01 0. -1.
          5    1    4    4  502    0 -0.17477881676E+02  0.29400563194E+02  0.69047145584E+02  0.77197589193E+02  0.47000000000E+01 0.  1.
         -5    1    4    4    0  502 -0.14082846722E+03 -0.12403046428E+03  0.46501385113E+03  0.50147401228E+03  0.47000000000E+01 0.  1.
<mgrwt>
<rscale>  0 0.44940751E+03</rscale>
<asrwt>0</asrwt>
<pdfrwt beam="1">  1       21 0.15151393E+00 0.44940751E+03</pdfrwt>
<pdfrwt beam="2">  1       21 0.78875369E-02 0.44940751E+03</pdfrwt>
<totfact> 0.32269774E+04</totfact>
</mgrwt>
</event>
<event>
 8    1  0.9478272E-006  0.3379167E+03  0.7546771E-02  0.1067687E+00
         21   -1    0    0  504  503  0.00000000000E+00  0.00000000000E+00  0.23491245527E+02  0.23491245527E+02  0.00000000000E+00 0. -1.
         21   -1    0    0  503  504 -0.00000000000E+00 -0.00000000000E+00 -0.12152152289E+04  0.12152152289E+04  0.00000000000E+00 0. -1.
         25    2    1    2    0    0  0.36200391439E+02  0.36686983296E+02 -0.22445464005E+03  0.26203327783E+03  0.12500060067E+03 0.  0.
         25    2    1    2    0    0 -0.36200391439E+02 -0.36686983296E+02 -0.96726934331E+03  0.97667319658E+03  0.12499658928E+03 0.  0.
          5    1    3    3  501    0  0.24373506176E+02 -0.31146354523E+02 -0.16829307652E+02  0.43237469854E+02  0.47000000000E+01 0.  1.
         -5    1    3    3    0  501  0.11826885264E+02  0.67833337819E+02 -0.20762533240E+03  0.21879580798E+03  0.47000000000E+01 0.  1.
          5    1    4    4  502    0 -0.37899375930E+02 -0.33342653601E+02 -0.96907060399E+03  0.97039580624E+03  0.47000000000E+01 0.  1.
         -5    1    4    4    0  502  0.16989844909E+01 -0.33443296953E+01  0.18012606863E+01  0.62773903393E+01  0.47000000000E+01 0.  1.
<mgrwt>
<rscale>  0 0.33791667E+03</rscale>
<asrwt>0</asrwt>
<pdfrwt beam="1">  1       21 0.36140373E-02 0.33791667E+03</pdfrwt>
<pdfrwt beam="2">  1       21 0.18695622E+00 0.33791667E+03</pdfrwt>
<totfact> 0.70976303E+04</totfact>
</mgrwt>
</event>
<event>
 8    1  0.9478272E-006  0.3386151E+03  0.7546771E-02  0.1067387E+00
         21   -1    0    0  504  503  0.00000000000E+00  0.00000000000E+00  0.23471355923E+02  0.23471355923E+02  0.00000000000E+00 0.  1.
         21   -1    0    0  503  504 -0.00000000000E+00 -0.00000000000E+00 -0.12212776908E+04  0.12212776908E+04  0.00000000000E+00 0.  1.
         25    2    1    2    0    0 -0.91409661786E+02  0.45722679141E+02 -0.41170173818E+03  0.44223263297E+03  0.12500036312E+03 0.  0.
         25    2    1    2    0    0  0.91409661786E+02 -0.45722679141E+02 -0.78610459667E+03  0.80251641373E+03  0.12500347097E+03 0.  0.
          5    1    3    3  501    0 -0.74699360793E+02  0.71396232591E+01 -0.38484351416E+03  0.39211935570E+03  0.47000000000E+01 0.  1.
         -5    1    3    3    0  501 -0.16710300994E+02  0.38583055882E+02 -0.26858224022E+02  0.50113277264E+02  0.47000000000E+01 0.  1.
          5    1    4    4  502    0  0.19959572975E+02 -0.38367350436E+02 -0.67426170213E+02  0.80242236774E+02  0.47000000000E+01 0. -1.
         -5    1    4    4    0  502  0.71450088812E+02 -0.73553287049E+01 -0.71867842645E+03  0.72227417696E+03  0.47000000000E+01 0. -1.
<mgrwt>
<rscale>  0 0.33861508E+03</rscale>
<asrwt>0</asrwt>
<pdfrwt beam="1">  1       21 0.36109770E-02 0.33861508E+03</pdfrwt>
<pdfrwt beam="2">  1       21 0.18788892E+00 0.33861508E+03</pdfrwt>
<totfact> 0.70028637E+04</totfact>
</mgrwt>
</event>
<event>
 8    1  0.9478272E-006  0.6258406E+03  0.7546771E-02  0.9853199E-01
         21   -1    0    0  504  503  0.00000000000E+00  0.00000000000E+00  0.11443316855E+03  0.11443316855E+03  0.00000000000E+00 0.  1.
         21   -1    0    0  503  504 -0.00000000000E+00 -0.00000000000E+00 -0.85568813990E+03  0.85568813990E+03  0.00000000000E+00 0.  1.
         25    2    1    2    0    0  0.21900680946E+02 -0.12093127238E+03 -0.77243040083E+03  0.79207115268E+03  0.12499589720E+03 0.  0.
         25    2    1    2    0    0 -0.21900680946E+02  0.12093127238E+03  0.31175429475E+02  0.17805015577E+03  0.12500375235E+03 0.  0.
          5    1    3    3  501    0 -0.28375609257E+02 -0.11838430417E+03 -0.60624546682E+03  0.61836532463E+03  0.47000000000E+01 0. -1.
         -5    1    3    3    0  501  0.50276290203E+02 -0.25469682047E+01 -0.16618493401E+03  0.17370582805E+03  0.47000000000E+01 0. -1.
          5    1    4    4  502    0  0.21464935240E+02  0.31366262678E+02  0.62776470453E+02  0.73536121204E+02  0.47000000000E+01 0. -1.
         -5    1    4    4    0  502 -0.43365616186E+02  0.89565009700E+02 -0.31601040977E+02  0.10451403456E+03  0.47000000000E+01 0. -1.
<mgrwt>
<rscale>  0 0.62584057E+03</rscale>
<asrwt>0</asrwt>
<pdfrwt beam="1">  1       21 0.17605102E-01 0.62584057E+03</pdfrwt>
<pdfrwt beam="2">  1       21 0.13164433E+00 0.62584057E+03</pdfrwt>
<totfact> 0.10381078E+04</totfact>
</mgrwt>
</event>
<event>
 8    1  0.9478272E-006  0.4451362E+03  0.7546771E-02  0.1029182E+00
         21   -1    0    0  504  503  0.00000000000E+00  0.00000000000E+00  0.32922827878E+03  0.32922827878E+03  0.00000000000E+00 0.  1.
         21   -1    0    0  503  504 -0.00000000000E+00 -0.00000000000E+00 -0.15046266946E+03  0.15046266946E+03  0.00000000000E+00 0.  1.
         25    2    1    2    0    0 -0.16436482250E+03 -0.45134291131E+02  0.14259698354E+02  0.21185003987E+03  0.12499680510E+03 0.  0.
         25    2    1    2    0    0  0.16436482250E+03  0.45134291131E+02  0.16450591097E+03  0.26784090837E+03  0.12499463324E+03 0.  0.
          5    1    3    3  501    0 -0.13933157571E+03 -0.28040967835E+02 -0.41564835624E+02  0.14815299332E+03  0.47000000000E+01 0.  1.
         -5    1    3    3    0  501 -0.25033246788E+02 -0.17093323296E+02  0.55824533978E+02  0.63697046556E+02  0.47000000000E+01 0.  1.
          5    1    4    4  502    0  0.28755849478E+02 -0.22026485619E+02 -0.89465465007E+01  0.37605792668E+02  0.47000000000E+01 0.  1.
         -5    1    4    4    0  502  0.13560897302E+03  0.67160776750E+02  0.17345245747E+03  0.23023511570E+03  0.47000000000E+01 0.  1.
<mgrwt>
<rscale>  0 0.44513623E+03</rscale>
<asrwt>0</asrwt>
<pdfrwt beam="1">  1       21 0.50650504E-01 0.44513623E+03</pdfrwt>
<pdfrwt beam="2">  1       21 0.23148103E-01 0.44513623E+03</pdfrwt>
<totfact> 0.60154031E+04</totfact>
</mgrwt>
</event>
<event>
 8    1  0.9478272E-006  0.2643004E+03  0.7546771E-02  0.1104587E+00
         21   -1    0    0  504  503  0.00000000000E+00  0.00000000000E+00  0.52725746595E+02  0.52725746595E+02  0.00000000000E+00 0.  1.
         21   -1    0    0  503  504 -0.00000000000E+00 -0.00000000000E+00 -0.33121721612E+03  0.33121721612E+03  0.00000000000E+00 0.  1.
         25    2    1    2    0    0 -0.10625821584E+02  0.28026030637E+02 -0.94655438612E+02  0.15962453163E+03  0.12498788966E+03 0.  0.
         25    2    1    2    0    0  0.10625821584E+02 -0.28026030637E+02 -0.18383603092E+03  0.22431843109E+03  0.12499882314E+03 0.  0.
          5    1    3    3  501    0 -0.16609152560E+02  0.42492995090E+02 -0.12056245861E+03  0.12899191837E+03  0.47000000000E+01 0. -1.
         -5    1    3    3    0  501  0.59833309761E+01 -0.14466964452E+02  0.25907019993E+02  0.30632613257E+02  0.47000000000E+01 0. -1.
          5    1    4    4  502    0 -0.34194356573E+02 -0.54366495285E+02 -0.14683358836E+03  0.16033453309E+03  0.47000000000E+01 0.  1.
         -5    1    4    4    0  502  0.44820178157E+02  0.26340464648E+02 -0.37002442555E+02  0.63983897997E+02  0.47000000000E+01 0.  1.
<mgrwt>
<rscale>  0 0.26430040E+03</rscale>
<asrwt>0</asrwt>
<pdfrwt beam="1">  1       21 0.81116531E-02 0.26430040E+03</pdfrwt>
<pdfrwt beam="2">  1       21 0.50956496E-01 0.26430040E+03</pdfrwt>
<totfact> 0.42243173E+05</totfact>
</mgrwt>
</event>
<event>
 8    1  0.9478272E-006  0.2993303E+03  0.7546771E-02  0.1085576E+00
         21   -1    0    0  504  503  0.00000000000E+00  0.00000000000E+00  0.16809819514E+03  0.16809819514E+03  0.00000000000E+00 0.  1.
         21   -1    0    0  503  504 -0.00000000000E+00 -0.00000000000E+00 -0.13325339920E+03  0.13325339920E+03  0.00000000000E+00 0.  1.
         25    2    1    2    0    0  0.34175898759E+02  0.44240070002E+02  0.78257567220E+02  0.15770702994E+03  0.12498833791E+03 0.  0.
         25    2    1    2    0    0 -0.34175898759E+02 -0.44240070002E+02 -0.43412771287E+02  0.14364456440E+03  0.12499566521E+03 0.  0.
          5    1    3    3  501    0  0.58374530462E+02  0.33559828969E+02  0.10169414706E+03  0.12205587849E+03  0.47000000000E+01 0. -1.
         -5    1    3    3    0  501 -0.24198631703E+02  0.10680241033E+02 -0.23436579842E+02  0.35651151447E+02  0.47000000000E+01 0. -1.
          5    1    4    4  502    0 -0.53550258093E+02 -0.42127707838E+02 -0.77995266554E+02  0.10367123764E+03  0.47000000000E+01 0. -1.
         -5    1    4    4    0  502  0.19374359334E+02 -0.21123621637E+01  0.34582495267E+02  0.39973326762E+02  0.47000000000E+01 0. -1.
<mgrwt>
<rscale>  0 0.29933029E+03</rscale>
<asrwt>0</asrwt>
<pdfrwt beam="1">  1       21 0.25861261E-01 0.29933029E+03</pdfrwt>
<pdfrwt beam="2">  1       21 0.20500523E-01 0.29933029E+03</pdfrwt>
<totfact> 0.30538316E+05</totfact>
</mgrwt>
</event>
<event>
 8    1  0.9478272E-006  0.4459464E+03  0.7546771E-02  0.1028938E+00
         21   -1    0    0  504  503  0.00000000000E+00  0.00000000000E+00  0.64762446536E+02  0.64762446536E+02  0.00000000000E+00 0. -1.
         21   -1    0    0  503  504 -0.00000000000E+00 -0.00000000000E+00 -0.76768335377E+03  0.76768335377E+03  0.00000000000E+00 0. -1.
         25    2    1    2    0    0  0.16445949978E+03 -0.83923282157E+02 -0.34686274632E+03  0.41233559416E+03  0.12496732801E+03 0.  0.
         25    2    1    2    0    0 -0.16445949978E+03  0.83923282157E+02 -0.35605816092E+03  0.42011020615E+03  0.12500050800E+03 0.  0.
          5    1    3    3  501    0  0.36327610324E+02  0.27675044481E+02 -0.12273130848E+03  0.13103689343E+03  0.47000000000E+01 0.  1.
         -5    1    3    3    0  501  0.12813188945E+03 -0.11159832664E+03 -0.22413143784E+03  0.28129870073E+03  0.47000000000E+01 0.  1.
          5    1    4    4  502    0 -0.16402693244E+03  0.36932644392E+02 -0.31685846162E+03  0.35873420451E+03  0.47000000000E+01 0. -1.
         -5    1    4    4    0  502 -0.43256734096E+00  0.46990637765E+02 -0.39199699299E+02  0.61376001639E+02  0.47000000000E+01 0. -1.
<mgrwt>
<rscale>  0 0.44594642E+03</rscale>
<asrwt>0</asrwt>
<pdfrwt beam="1">  1       21 0.99634534E-02 0.44594642E+03</pdfrwt>
<pdfrwt beam="2">  1       21 0.11810513E+00 0.44594642E+03</pdfrwt>
<totfact> 0.40914544E+04</totfact>
</mgrwt>
</event>
<event>
 8    1  0.9478272E-006  0.3391703E+03  0.7546771E-02  0.1067150E+00
         21   -1    0    0  504  503  0.00000000000E+00  0.00000000000E+00  0.19071892595E+03  0.19071892595E+03  0.00000000000E+00 0.  1.
         21   -1    0    0  503  504 -0.00000000000E+00 -0.00000000000E+00 -0.15079319805E+03  0.15079319805E+03  0.00000000000E+00 0.  1.
         25    2    1    2    0    0 -0.10536367300E+03 -0.41285484629E+02  0.38198810264E+02  0.17288798803E+03  0.12500044988E+03 0.  0.
         25    2    1    2    0    0  0.10536367300E+03  0.41285484629E+02  0.17269176305E+01  0.16862413597E+03  0.12500048863E+03 0.  0.
          5    1    3    3  501    0 -0.74263258639E+02 -0.79464479074E+01 -0.38027570184E+02  0.83942621546E+02  0.47000000000E+01 0. -1.
         -5    1    3    3    0  501 -0.31100414359E+02 -0.33339036722E+02  0.76226380448E+02  0.88945366485E+02  0.47000000000E+01 0. -1.
          5    1    4    4  502    0  0.91143256232E+02  0.20614489006E+02 -0.53502774702E+02  0.10778073675E+03  0.47000000000E+01 0. -1.
         -5    1    4    4    0  502  0.14220416766E+02  0.20670995623E+02  0.55229692333E+02  0.60843399216E+02  0.47000000000E+01 0. -1.
<mgrwt>
<rscale>  0 0.33917026E+03</rscale>
<asrwt>0</asrwt>
<pdfrwt beam="1">  1       21 0.29341373E-01 0.33917026E+03</pdfrwt>
<pdfrwt beam="2">  1       21 0.23198953E-01 0.33917026E+03</pdfrwt>
<totfact> 0.18708714E+05</totfact>
</mgrwt>
</event>
<event>
 8    1  0.9478272E-006  0.3889873E+03  0.7546771E-02  0.1047661E+00
         21   -1    0    0  504  503  0.00000000000E+00  0.00000000000E+00  0.19063506294E+03  0.19063506294E+03  0.00000000000E+00 0. -1.
         21   -1    0    0  503  504 -0.00000000000E+00 -0.00000000000E+00 -0.19843029886E+03  0.19843029886E+03  0.00000000000E+00 0. -1.
         25    2    1    2    0    0 -0.10159933777E+03  0.86208925742E+02 -0.70600970422E+02  0.19586777294E+03  0.12500113255E+03 0.  0.
         25    2    1    2    0    0  0.10159933777E+03 -0.86208925742E+02  0.62805734496E+02  0.19319758886E+03  0.12500537485E+03 0.  0.
          5    1    3    3  501    0 -0.13280759279E+02 -0.22066657182E+02 -0.47399638266E+02  0.54149160972E+02  0.47000000000E+01 0.  1.
         -5    1    3    3    0  501 -0.88318578495E+02  0.10827558292E+03 -0.23201332156E+02  0.14171861197E+03  0.47000000000E+01 0.  1.
          5    1    4    4  502    0  0.24288967207E+02 -0.99767707906E+02  0.46856775815E+02  0.11296546777E+03  0.47000000000E+01 0. -1.
         -5    1    4    4    0  502  0.77310370567E+02  0.13558782163E+02  0.15948958681E+02  0.80232121086E+02  0.47000000000E+01 0. -1.
<mgrwt>
<rscale>  0 0.38898726E+03</rscale>
<asrwt>0</asrwt>
<pdfrwt beam="1">  1       21 0.29328471E-01 0.38898726E+03</pdfrwt>
<pdfrwt beam="2">  1       21 0.30527738E-01 0.38898726E+03</pdfrwt>
<totfact> 0.10848097E+05</totfact>
</mgrwt>
</event>
<event>
 8    1  0.9478272E-006  0.3570142E+03  0.7546771E-02  0.1059772E+00
         21   -1    0    0  504  503  0.00000000000E+00  0.00000000000E+00  0.58690066662E+02  0.58690066662E+02  0.00000000000E+00 0. -1.
         21   -1    0    0  503  504 -0.00000000000E+00 -0.00000000000E+00 -0.54293332100E+03  0.54293332100E+03  0.00000000000E+00 0. -1.
         25    2    1    2    0    0 -0.12055466212E+03 -0.40597397262E+02 -0.25496192819E+03  0.31114714417E+03  0.12500154109E+03 0.  0.
         25    2    1    2    0    0  0.12055466212E+03  0.40597397262E+02 -0.22928132615E+03  0.29047624350E+03  0.12499978516E+03 0.  0.
          5    1    3    3  501    0  0.23995997627E+02 -0.42742136574E+01 -0.65467619918E+02  0.70015541576E+02  0.47000000000E+01 0.  1.
         -5    1    3    3    0  501 -0.14455065975E+03 -0.36323183605E+02 -0.18949430827E+03  0.24113160259E+03  0.47000000000E+01 0.  1.
          5    1    4    4  502    0  0.95286764344E+02  0.82280245838E+02 -0.13777878110E+03  0.18669410499E+03  0.47000000000E+01 0.  1.
         -5    1    4    4    0  502  0.25267897778E+02 -0.41682848576E+02 -0.91502545047E+02  0.10378213851E+03  0.47000000000E+01 0.  1.
<mgrwt>
<rscale>  0 0.35701425E+03</rscale>
<asrwt>0</asrwt>
<pdfrwt beam="1">  1       21 0.90292414E-02 0.35701425E+03</pdfrwt>
<pdfrwt beam="2">  1       21 0.83528199E-01 0.35701425E+03</pdfrwt>
<totfact> 0.11514777E+05</totfact>
</mgrwt>
</event>
<event>
 8    1  0.9478272E-006  0.2841432E+03  0.7546771E-02  0.1093447E+00
         21   -1    0    0  504  503  0.00000000000E+00  0.00000000000E+00  0.55624348811E+03  0.55624348811E+03  0.00000000000E+00 0. -1.
         21   -1    0    0  503  504 -0.00000000000E+00 -0.00000000000E+00 -0.36286865491E+02  0.36286865491E+02  0.00000000000E+00 0. -1.
         25    2    1    2    0    0 -0.50499707959E+02  0.42070268612E+02  0.22778647256E+03  0.26801200515E+03  0.12499451915E+03 0.  0.
         25    2    1    2    0    0  0.50499707959E+02 -0.42070268612E+02  0.29217015006E+03  0.32451834845E+03  0.12501453473E+03 0.  0.
          5    1    3    3  501    0  0.75350924519E+01 -0.39113924365E+02  0.50237061744E+02  0.64284749903E+02  0.47000000000E+01 0. -1.
         -5    1    3    3    0  501 -0.58034800411E+02  0.81184192977E+02  0.17754941082E+03  0.20372725524E+03  0.47000000000E+01 0. -1.
          5    1    4    4  502    0  0.68477798458E+02 -0.23340064441E+02  0.28898783886E+03  0.29794299538E+03  0.47000000000E+01 0. -1.
         -5    1    4    4    0  502 -0.17978090499E+02 -0.18730204171E+02  0.31823112000E+01  0.26575353071E+02  0.47000000000E+01 0. -1.
<mgrwt>
<rscale>  0 0.28414315E+03</rscale>
<asrwt>0</asrwt>
<pdfrwt beam="1">  1       21 0.85575915E-01 0.28414315E+03</pdfrwt>
<pdfrwt beam="2">  1       21 0.55825951E-02 0.28414315E+03</pdfrwt>
<totfact> 0.25662040E+05</totfact>
</mgrwt>
</event>
<event>
 8    1  0.9478272E-006  0.4737163E+03  0.7546771E-02  0.1020877E+00
         21   -1    0    0  504  503  0.00000000000E+00  0.00000000000E+00  0.47946256049E+03  0.47946256049E+03  0.00000000000E+00 0.  1.
         21   -1    0    0  503  504 -0.00000000000E+00 -0.00000000000E+00 -0.11700972583E+03  0.11700972583E+03  0.00000000000E+00 0.  1.
         25    2    1    2    0    0  0.20102974981E+03 -0.60459338599E+01  0.17477430270E+03  0.29431727109E+03  0.12500834192E+03 0.  0.
         25    2    1    2    0    0 -0.20102974981E+03  0.60459338599E+01  0.18767853195E+03  0.30215501523E+03  0.12499963299E+03 0.  0.
          5    1    3    3  501    0  0.10081471433E+03 -0.64824172817E+02  0.99030636580E+02  0.15554721787E+03  0.47000000000E+01 0.  1.
         -5    1    3    3    0  501  0.10021503548E+03  0.58778238958E+02  0.75743666118E+02  0.13877005321E+03  0.47000000000E+01 0.  1.
          5    1    4    4  502    0 -0.75692836390E+02 -0.49642764081E+02  0.11635913884E+03  0.14749694471E+03  0.47000000000E+01 0.  1.
         -5    1    4    4    0  502 -0.12533691342E+03  0.55688697941E+02  0.71319393113E+02  0.15465807052E+03  0.47000000000E+01 0.  1.
<mgrwt>
<rscale>  0 0.47371630E+03</rscale>
<asrwt>0</asrwt>
<pdfrwt beam="1">  1       21 0.73763470E-01 0.47371630E+03</pdfrwt>
<pdfrwt beam="2">  1       21 0.18001497E-01 0.47371630E+03</pdfrwt>
<totfact> 0.42237635E+04</totfact>
</mgrwt>
</event>
<event>
 8    1  0.9478272E-006  0.3285381E+03  0.7546771E-02  0.1071786E+00
         21   -1    0    0  504  503  0.00000000000E+00  0.00000000000E+00  0.15002020041E+03  0.15002020041E+03  0.00000000000E+00 0. -1.
         21   -1    0    0  503  504 -0.00000000000E+00 -0.00000000000E+00 -0.17987119670E+03  0.17987119670E+03  0.00000000000E+00 0. -1.
         25    2    1    2    0    0 -0.10378533050E+03  0.23258488815E+02 -0.84954834299E+01  0.16432642364E+03  0.12497458997E+03 0.  0.
         25    2    1    2    0    0  0.10378533050E+03 -0.23258488815E+02 -0.21355512862E+02  0.16556497347E+03  0.12507337999E+03 0.  0.
          5    1    3    3  501    0  0.69132872064E+01  0.36014960479E+02  0.28649282124E+02  0.46773307394E+02  0.47000000000E+01 0.  1.
         -5    1    3    3    0  501 -0.11069861771E+03 -0.12756471664E+02 -0.37144765554E+02  0.11755311625E+03  0.47000000000E+01 0.  1.
          5    1    4    4  502    0  0.58631209471E+02 -0.39701057515E+01 -0.73211206749E+02  0.93996549178E+02  0.47000000000E+01 0.  1.
         -5    1    4    4    0  502  0.45154121028E+02 -0.19288383064E+02  0.51855693886E+02  0.71568424291E+02  0.47000000000E+01 0.  1.
<mgrwt>
<rscale>  0 0.32853805E+03</rscale>
<asrwt>0</asrwt>
<pdfrwt beam="1">  1       21 0.23080031E-01 0.32853805E+03</pdfrwt>
<pdfrwt beam="2">  1       21 0.27672492E-01 0.32853805E+03</pdfrwt>
<totfact> 0.21240616E+05</totfact>
</mgrwt>
</event>
<event>
 8    1  0.9478272E-006  0.3747466E+03  0.7546771E-02  0.1052893E+00
         21   -1    0    0  504  503  0.00000000000E+00  0.00000000000E+00  0.46755545391E+02  0.46755545391E+02  0.00000000000E+00 0. -1.
         21   -1    0    0  503  504 -0.00000000000E+00 -0.00000000000E+00 -0.75090016355E+03  0.75090016355E+03  0.00000000000E+00 0. -1.
         25    2    1    2    0    0  0.11094264255E+03  0.65517176128E+01 -0.53182257082E+03  0.55750380773E+03  0.12499621540E+03 0.  0.
         25    2    1    2    0    0 -0.11094264255E+03 -0.65517176128E+01 -0.17232204734E+03  0.24015190121E+03  0.12500741065E+03 0.  0.
          5    1    3    3  501    0  0.42647816402E+02 -0.53700960635E+02 -0.15091436874E+03  0.16583083582E+03  0.47000000000E+01 0. -1.
         -5    1    3    3    0  501  0.68294826144E+02  0.60252678248E+02 -0.38090820208E+03  0.39167297191E+03  0.47000000000E+01 0. -1.
          5    1    4    4  502    0 -0.58947984296E+02 -0.51225173139E+02 -0.14773795715E+03  0.16717498976E+03  0.47000000000E+01 0. -1.
         -5    1    4    4    0  502 -0.51994658251E+02  0.44673455527E+02 -0.24584090189E+02  0.72976911457E+02  0.47000000000E+01 0. -1.
<mgrwt>
<rscale>  0 0.37474656E+03</rscale>
<asrwt>0</asrwt>
<pdfrwt beam="1">  1       21 0.71931614E-02 0.37474656E+03</pdfrwt>
<pdfrwt beam="2">  1       21 0.11552309E+00 0.37474656E+03</pdfrwt>
<totfact> 0.78515845E+04</totfact>
</mgrwt>
</event>
<event>
 8    1  0.9478272E-006  0.3381839E+03  0.7546771E-02  0.1067572E+00
         21   -1    0    0  504  503  0.00000000000E+00  0.00000000000E+00  0.58105432291E+03  0.58105432291E+03  0.00000000000E+00 0.  1.
         21   -1    0    0  503  504 -0.00000000000E+00 -0.00000000000E+00 -0.49207245497E+02  0.49207245497E+02  0.00000000000E+00 0.  1.
         25    2    1    2    0    0 -0.18722351791E+02  0.15434523879E+02  0.58576051756E+02  0.14015855010E+03  0.12499805735E+03 0.  0.
         25    2    1    2    0    0  0.18722351791E+02 -0.15434523879E+02  0.47327102565E+03  0.49010301830E+03  0.12500701519E+03 0.  0.
          5    1    3    3  501    0  0.29527930206E+02 -0.40815307066E+02  0.10431870122E+02  0.51659479937E+02  0.47000000000E+01 0. -1.
         -5    1    3    3    0  501 -0.48250281997E+02  0.56249830945E+02  0.48144181635E+02  0.88499070161E+02  0.47000000000E+01 0. -1.
          5    1    4    4  502    0 -0.36995412476E+02  0.25726788795E+02  0.30060384428E+03  0.30399883125E+03  0.47000000000E+01 0. -1.
         -5    1    4    4    0  502  0.55717764267E+02 -0.41161312674E+02  0.17266718137E+03  0.18610418705E+03  0.47000000000E+01 0. -1.
<mgrwt>
<rscale>  0 0.33818387E+03</rscale>
<asrwt>0</asrwt>
<pdfrwt beam="1">  1       21 0.89392968E-01 0.33818387E+03</pdfrwt>
<pdfrwt beam="2">  1       21 0.75703459E-02 0.33818387E+03</pdfrwt>
<totfact> 0.13479351E+05</totfact>
</mgrwt>
</event>
<event>
 8    1  0.9478272E-006  0.2521794E+03  0.7546771E-02  0.1111935E+00
         21   -1    0    0  504  503  0.00000000000E+00  0.00000000000E+00  0.32664474611E+03  0.32664474611E+03  0.00000000000E+00 0. -1.
         21   -1    0    0  503  504 -0.00000000000E+00 -0.00000000000E+00 -0.48672468915E+02  0.48672468915E+02  0.00000000000E+00 0. -1.
         25    2    1    2    0    0 -0.12402268824E+02  0.10489865232E+02  0.13378555970E+03  0.18381652542E+03  0.12500434188E+03 0.  0.
         25    2    1    2    0    0  0.12402268824E+02 -0.10489865232E+02  0.14418671749E+03  0.19150068961E+03  0.12497540187E+03 0.  0.
          5    1    3    3  501    0 -0.79143989396E+01  0.66882359671E+02  0.87836544213E+02  0.11078463903E+03  0.47000000000E+01 0. -1.
         -5    1    3    3    0  501 -0.44878698840E+01 -0.56392494439E+02  0.45949015487E+02  0.73031886388E+02  0.47000000000E+01 0. -1.
          5    1    4    4  502    0 -0.18331227750E+02 -0.26351177771E+02  0.15225853379E+03  0.15567649017E+03  0.47000000000E+01 0.  1.
         -5    1    4    4    0  502  0.30733496574E+02  0.15861312539E+02 -0.80718162914E+01  0.35824199438E+02  0.47000000000E+01 0.  1.
<mgrwt>
<rscale>  0 0.25217935E+03</rscale>
<asrwt>0</asrwt>
<pdfrwt beam="1">  1       21 0.50253037E-01 0.25217935E+03</pdfrwt>
<pdfrwt beam="2">  1       21 0.74880723E-02 0.25217935E+03</pdfrwt>
<totfact> 0.50144818E+05</totfact>
</mgrwt>
</event>
<event>
 8    1  0.9478272E-006  0.3030021E+03  0.7546771E-02  0.1083749E+00
         21   -1    0    0  504  503  0.00000000000E+00  0.00000000000E+00  0.57377836483E+02  0.57377836483E+02  0.00000000000E+00 0. -1.
         21   -1    0    0  503  504 -0.00000000000E+00 -0.00000000000E+00 -0.40002501806E+03  0.40002501806E+03  0.00000000000E+00 0. -1.
         25    2    1    2    0    0  0.78308464137E+02  0.23071018982E+02 -0.13244593219E+03  0.19957867780E+03  0.12500094482E+03 0.  0.
         25    2    1    2    0    0 -0.78308464137E+02 -0.23071018982E+02 -0.21020124939E+03  0.25782417674E+03  0.12499701355E+03 0.  0.
          5    1    3    3  501    0  0.10965834239E+03  0.16027093631E+02 -0.76010830984E+02  0.13446767720E+03  0.47000000000E+01 0. -1.
         -5    1    3    3    0  501 -0.31349878250E+02  0.70439253509E+01 -0.56435101208E+02  0.65111000599E+02  0.47000000000E+01 0. -1.
          5    1    4    4  502    0  0.18032854766E+02  0.12106256553E+02  0.17744347416E+01  0.22293136105E+02  0.47000000000E+01 0.  1.
         -5    1    4    4    0  502 -0.96341318903E+02 -0.35177275534E+02 -0.21197568413E+03  0.23553104064E+03  0.47000000000E+01 0.  1.
<mgrwt>
<rscale>  0 0.30300211E+03</rscale>
<asrwt>0</asrwt>
<pdfrwt beam="1">  1       21 0.88273597E-02 0.30300211E+03</pdfrwt>
<pdfrwt beam="2">  1       21 0.61542309E-01 0.30300211E+03</pdfrwt>
<totfact> 0.24096326E+05</totfact>
</mgrwt>
</event>
<event>
 8    1  0.9478272E-006  0.3477978E+03  0.7546771E-02  0.1063523E+00
         21   -1    0    0  504  503  0.00000000000E+00  0.00000000000E+00  0.28021414507E+03  0.28021414507E+03  0.00000000000E+00 0. -1.
         21   -1    0    0  503  504 -0.00000000000E+00 -0.00000000000E+00 -0.10792042546E+03  0.10792042546E+03  0.00000000000E+00 0. -1.
         25    2    1    2    0    0  0.17965360850E+02  0.96555468673E+02  0.74872793056E+01  0.15914237276E+03  0.12499809093E+03 0.  0.
         25    2    1    2    0    0 -0.17965360850E+02 -0.96555468673E+02  0.16480644030E+03  0.22899219776E+03  0.12502220263E+03 0.  0.
          5    1    3    3  501    0 -0.24764354811E+02  0.76243616404E+02  0.50638701607E+02  0.94935401258E+02  0.47000000000E+01 0. -1.
         -5    1    3    3    0  501  0.42729715661E+02  0.20311852269E+02 -0.43151422302E+02  0.64206971505E+02  0.47000000000E+01 0. -1.
          5    1    4    4  502    0  0.13425373413E+02 -0.11787655375E+03  0.10791900348E+03  0.16044850852E+03  0.47000000000E+01 0. -1.
         -5    1    4    4    0  502 -0.31390734263E+02  0.21321085077E+02  0.56887436820E+02  0.68543689238E+02  0.47000000000E+01 0. -1.
<mgrwt>
<rscale>  0 0.34779781E+03</rscale>
<asrwt>0</asrwt>
<pdfrwt beam="1">  1       21 0.43109868E-01 0.34779781E+03</pdfrwt>
<pdfrwt beam="2">  1       21 0.16603143E-01 0.34779781E+03</pdfrwt>
<totfact> 0.16167755E+05</totfact>
</mgrwt>
</event>
<event>
 8    1  0.9478272E-006  0.2740191E+03  0.7546771E-02  0.1099001E+00
         21   -1    0    0  504  503  0.00000000000E+00  0.00000000000E+00  0.11128228045E+03  0.11128228045E+03  0.00000000000E+00 0. -1.
         21   -1    0    0  503  504 -0.00000000000E+00 -0.00000000000E+00 -0.16868463177E+03  0.16868463177E+03  0.00000000000E+00 0. -1.
         25    2    1    2    0    0  0.54525525808E+02  0.12752626733E+02 -0.25345283932E+02  0.13929402669E+03  0.12499912000E+03 0.  0.
         25    2    1    2    0    0 -0.54525525808E+02 -0.12752626733E+02 -0.32057067388E+02  0.14067288552E+03  0.12500217078E+03 0.  0.
          5    1    3    3  501    0  0.80018115686E+02 -0.30771339862E+02 -0.21373725787E+02  0.88479943201E+02  0.47000000000E+01 0. -1.
         -5    1    3    3    0  501 -0.25492589878E+02  0.43523966596E+02 -0.39715581446E+01  0.50814083491E+02  0.47000000000E+01 0. -1.
          5    1    4    4  502    0 -0.85525180170E+02 -0.15086032237E+02 -0.53962900440E+02  0.10235345346E+03  0.47000000000E+01 0.  1.
         -5    1    4    4    0  502  0.30999654362E+02  0.23334055039E+01  0.21905833051E+02  0.38319432061E+02  0.47000000000E+01 0.  1.
<mgrwt>
<rscale>  0 0.27401905E+03</rscale>
<asrwt>0</asrwt>
<pdfrwt beam="1">  1       21 0.17120351E-01 0.27401905E+03</pdfrwt>
<pdfrwt beam="2">  1       21 0.25951482E-01 0.27401905E+03</pdfrwt>
<totfact> 0.42712641E+05</totfact>
</mgrwt>
</event>
<event>
 8    1  0.9478272E-006  0.4230347E+03  0.7546771E-02  0.1036083E+00
         21   -1    0    0  504  503  0.00000000000E+00  0.00000000000E+00  0.38845962831E+02  0.38845962831E+02  0.00000000000E+00 0. -1.
         21   -1    0    0  503  504 -0.00000000000E+00 -0.00000000000E+00 -0.11517180001E+04  0.11517180001E+04  0.00000000000E+00 0. -1.
         25    2    1    2    0    0 -0.96870751041E+02 -0.13984229915E+03 -0.59349589072E+03  0.62992097035E+03  0.12499298195E+03 0.  0.
         25    2    1    2    0    0  0.96870751041E+02  0.13984229915E+03 -0.51937614651E+03  0.56064299254E+03  0.12501668885E+03 0.  0.
          5    1    3    3  501    0  0.57844050211E+01  0.96450790569E+01 -0.35209326764E+01  0.12687547374E+02  0.47000000000E+01 0. -1.
         -5    1    3    3    0  501 -0.10265515606E+03 -0.14948737821E+03 -0.58997495805E+03  0.61723342297E+03  0.47000000000E+01 0. -1.
          5    1    4    4  502    0  0.60531466198E+02  0.15572416878E+03 -0.45671001338E+03  0.48633342623E+03  0.47000000000E+01 0. -1.
         -5    1    4    4    0  502  0.36339284843E+02 -0.15881869625E+02 -0.62666133121E+02  0.74309566316E+02  0.47000000000E+01 0. -1.
<mgrwt>
<rscale>  0 0.42303472E+03</rscale>
<asrwt>0</asrwt>
<pdfrwt beam="1">  1       21 0.59763033E-02 0.42303472E+03</pdfrwt>
<pdfrwt beam="2">  1       21 0.17718735E+00 0.42303472E+03</pdfrwt>
<totfact> 0.34100747E+04</totfact>
</mgrwt>
</event>
<event>
 8    1  0.9478272E-006  0.2706745E+03  0.7546771E-02  0.1100894E+00
         21   -1    0    0  504  503  0.00000000000E+00  0.00000000000E+00  0.41821055070E+02  0.41821055070E+02  0.00000000000E+00 0.  1.
         21   -1    0    0  503  504 -0.00000000000E+00 -0.00000000000E+00 -0.43796522977E+03  0.43796522977E+03  0.00000000000E+00 0.  1.
         25    2    1    2    0    0 -0.38909759783E+02 -0.29962467622E+02 -0.16857581438E+03  0.21554323348E+03  0.12501744451E+03 0.  0.
         25    2    1    2    0    0  0.38909759783E+02  0.29962467622E+02 -0.22756836031E+03  0.26424305136E+03  0.12500125080E+03 0.  0.
          5    1    3    3  501    0  0.41827271629E+02 -0.26277421643E+02 -0.40612841749E+02  0.64121107719E+02  0.47000000000E+01 0. -1.
         -5    1    3    3    0  501 -0.80737031413E+02 -0.36850459786E+01 -0.12796297263E+03  0.15142212576E+03  0.47000000000E+01 0. -1.
          5    1    4    4  502    0  0.23135776837E+02 -0.22325223345E+02 -0.24925573794E+01  0.32588074653E+02  0.47000000000E+01 0. -1.
         -5    1    4    4    0  502  0.15773982946E+02  0.52287690967E+02 -0.22507580294E+03  0.23165497670E+03  0.47000000000E+01 0. -1.
<mgrwt>
<rscale>  0 0.27067448E+03</rscale>
<asrwt>0</asrwt>
<pdfrwt beam="1">  1       21 0.64340085E-02 0.27067448E+03</pdfrwt>
<pdfrwt beam="2">  1       21 0.67379266E-01 0.27067448E+03</pdfrwt>
<totfact> 0.34587680E+05</totfact>
</mgrwt>
</event>
<event>
 8    1  0.9478272E-006  0.5049170E+03  0.7546771E-02  0.1012503E+00
         21   -1    0    0  504  503  0.00000000000E+00  0.00000000000E+00  0.16413759464E+03  0.16413759464E+03  0.00000000000E+00 0. -1.
         21   -1    0    0  503  504 -0.00000000000E+00 -0.00000000000E+00 -0.38830401193E+03  0.38830401193E+03  0.00000000000E+00 0. -1.
         25    2    1    2    0    0  0.56139296943E+02 -0.55374791223E+02  0.11185765277E+03  0.18535103817E+03  0.12499953882E+03 0.  0.
         25    2    1    2    0    0 -0.56139296943E+02  0.55374791223E+02 -0.33602407005E+03  0.36709056839E+03  0.12500128632E+03 0.  0.
          5    1    3    3  501    0  0.18582752950E+02 -0.44058156439E+01  0.11977015877E+03  0.12137425942E+03  0.47000000000E+01 0. -1.
         -5    1    3    3    0  501  0.37556543993E+02 -0.50968975579E+02 -0.79125060038E+01  0.63976778752E+02  0.47000000000E+01 0. -1.
          5    1    4    4  502    0  0.67410844682E+01  0.32436770732E+02 -0.27297403094E+03  0.27501726834E+03  0.47000000000E+01 0.  1.
         -5    1    4    4    0  502 -0.62880381411E+02  0.22938020490E+02 -0.63050039112E+02  0.92073300051E+02  0.47000000000E+01 0.  1.
<mgrwt>
<rscale>  0 0.50491697E+03</rscale>
<asrwt>0</asrwt>
<pdfrwt beam="1">  1       21 0.25251938E-01 0.50491697E+03</pdfrwt>
<pdfrwt beam="2">  1       21 0.59739078E-01 0.50491697E+03</pdfrwt>
<totfact> 0.35116365E+04</totfact>
</mgrwt>
</event>
<event>
 8    1  0.9478272E-006  0.2990307E+03  0.7546771E-02  0.1085726E+00
         21   -1    0    0  504  503  0.00000000000E+00  0.00000000000E+00  0.60547197421E+02  0.60547197421E+02  0.00000000000E+00 0.  1.
         21   -1    0    0  503  504 -0.00000000000E+00 -0.00000000000E+00 -0.36921352145E+03  0.36921352145E+03  0.00000000000E+00 0.  1.
         25    2    1    2    0    0  0.65811514953E+01 -0.15755389626E+00 -0.27185600358E+03  0.29928940380E+03  0.12500049666E+03 0.  0.
         25    2    1    2    0    0 -0.65811514953E+01  0.15755389626E+00 -0.36810320450E+02  0.13047131507E+03  0.12499771193E+03 0.  0.
          5    1    3    3  501    0  0.62135650025E+02  0.66447832124E+01 -0.18958996792E+03  0.19967833654E+03  0.47000000000E+01 0. -1.
         -5    1    3    3    0  501 -0.55554498530E+02 -0.68023371086E+01 -0.82266035665E+02  0.99611067262E+02  0.47000000000E+01 0. -1.
          5    1    4    4  502    0  0.46679594342E+02 -0.95176314657E+00  0.21269072984E+02  0.51520421646E+02  0.47000000000E+01 0. -1.
         -5    1    4    4    0  502 -0.53260745837E+02  0.11093170428E+01 -0.58079393434E+02  0.78950893428E+02  0.47000000000E+01 0. -1.
<mgrwt>
<rscale>  0 0.29903073E+03</rscale>
<asrwt>0</asrwt>
<pdfrwt beam="1">  1       21 0.93149537E-02 0.29903073E+03</pdfrwt>
<pdfrwt beam="2">  1       21 0.56802079E-01 0.29903073E+03</pdfrwt>
<totfact> 0.26080859E+05</totfact>
</mgrwt>
</event>
<event>
 8    1  0.9478272E-006  0.2647190E+03  0.7546771E-02  0.1104341E+00
         21   -1    0    0  504  503  0.00000000000E+00  0.00000000000E+00  0.71847002834E+03  0.71847002834E+03  0.00000000000E+00 0.  1.
         21   -1    0    0  503  504 -0.00000000000E+00 -0.00000000000E+00 -0.24383804350E+02  0.24383804350E+02  0.00000000000E+00 0.  1.
         25    2    1    2    0    0 -0.16401082880E+01  0.10619801837E+01  0.22498293248E+03  0.25737844903E+03  0.12499011305E+03 0.  0.
         25    2    1    2    0    0  0.16401082880E+01 -0.10619801837E+01  0.46910329151E+03  0.48547538366E+03  0.12499852910E+03 0.  0.
          5    1    3    3  501    0 -0.22606254657E+02 -0.55865760047E+02  0.14325658906E+03  0.15548815454E+03  0.47000000000E+01 0.  1.
         -5    1    3    3    0  501  0.20966146369E+02  0.56927740231E+02  0.81726343423E+02  0.10189029449E+03  0.47000000000E+01 0.  1.
          5    1    4    4  502    0  0.39999119615E+02 -0.14885681904E+02  0.41672673396E+03  0.41893289904E+03  0.47000000000E+01 0.  1.
         -5    1    4    4    0  502 -0.38359011327E+02  0.13823701721E+02  0.52376557548E+02  0.66542484624E+02  0.47000000000E+01 0.  1.
<mgrwt>
<rscale>  0 0.26471896E+03</rscale>
<asrwt>0</asrwt>
<pdfrwt beam="1">  1       21 0.11053383E+00 0.26471896E+03</pdfrwt>
<pdfrwt beam="2">  1       21 0.37513551E-02 0.26471896E+03</pdfrwt>
<totfact> 0.27565205E+05</totfact>
</mgrwt>
</event>
<event>
 8    1  0.9478272E-006  0.2584122E+03  0.7546771E-02  0.1108101E+00
         21   -1    0    0  504  503  0.00000000000E+00  0.00000000000E+00  0.13679281229E+03  0.13679281229E+03  0.00000000000E+00 0. -1.
         21   -1    0    0  503  504 -0.00000000000E+00 -0.00000000000E+00 -0.12204011261E+03  0.12204011261E+03  0.00000000000E+00 0. -1.
         25    2    1    2    0    0  0.29493795209E+02 -0.10552831619E+02 -0.20513201896E+01  0.12887861450E+03  0.12499697256E+03 0.  0.
         25    2    1    2    0    0 -0.29493795209E+02  0.10552831619E+02  0.16804019876E+02  0.12995431040E+03  0.12499800597E+03 0.  0.
          5    1    3    3  501    0 -0.93094086741E+01  0.18898973051E+02  0.51796022919E+02  0.56113761792E+02  0.47000000000E+01 0. -1.
         -5    1    3    3    0  501  0.38803203883E+02 -0.29451804669E+02 -0.53847343109E+02  0.72764852709E+02  0.47000000000E+01 0. -1.
          5    1    4    4  502    0 -0.44769663438E+02  0.59121831109E+02  0.24508043849E+02  0.78246072690E+02  0.47000000000E+01 0. -1.
         -5    1    4    4    0  502  0.15275868229E+02 -0.48568999491E+02 -0.77040239734E+01  0.51708237710E+02  0.47000000000E+01 0. -1.
<mgrwt>
<rscale>  0 0.25841215E+03</rscale>
<asrwt>0</asrwt>
<pdfrwt beam="1">  1       21 0.21045048E-01 0.25841215E+03</pdfrwt>
<pdfrwt beam="2">  1       21 0.18775402E-01 0.25841215E+03</pdfrwt>
<totfact> 0.53826435E+05</totfact>
</mgrwt>
</event>
<event>
 8    1  0.9478272E-006  0.3142708E+03  0.7546771E-02  0.1078317E+00
         21   -1    0    0  504  503  0.00000000000E+00  0.00000000000E+00  0.27056067714E+03  0.27056067714E+03  0.00000000000E+00 0. -1.
         21   -1    0    0  503  504 -0.00000000000E+00 -0.00000000000E+00 -0.91260589322E+02  0.91260589322E+02  0.00000000000E+00 0. -1.
         25    2    1    2    0    0  0.46430069375E+02  0.78681948260E+02  0.58740477664E+02  0.16559268467E+03  0.12499557262E+03 0.  0.
         25    2    1    2    0    0 -0.46430069375E+02 -0.78681948260E+02  0.12055961015E+03  0.19622858179E+03  0.12499774553E+03 0.  0.
          5    1    3    3  501    0  0.12445557166E+02  0.10922689320E+02 -0.38520071287E+02  0.42191028989E+02  0.47000000000E+01 0.  1.
         -5    1    3    3    0  501  0.33984512209E+02  0.67759258939E+02  0.97260548951E+02  0.12340165568E+03  0.47000000000E+01 0.  1.
          5    1    4    4  502    0 -0.21174887809E+02  0.18822230084E+02 -0.10756097657E+02  0.30666526635E+02  0.47000000000E+01 0.  1.
         -5    1    4    4    0  502 -0.25255181566E+02 -0.97504178344E+02  0.13131570781E+03  0.16556205516E+03  0.47000000000E+01 0.  1.
<mgrwt>
<rscale>  0 0.31427075E+03</rscale>
<asrwt>0</asrwt>
<pdfrwt beam="1">  1       21 0.41624719E-01 0.31427075E+03</pdfrwt>
<pdfrwt beam="2">  1       21 0.14040091E-01 0.31427075E+03</pdfrwt>
<totfact> 0.23849186E+05</totfact>
</mgrwt>
</event>
<event>
 8    1  0.9478272E-006  0.2782519E+03  0.7546771E-02  0.1096648E+00
         21   -1    0    0  504  503  0.00000000000E+00  0.00000000000E+00  0.38985424071E+02  0.38985424071E+02  0.00000000000E+00 0. -1.
         21   -1    0    0  503  504 -0.00000000000E+00 -0.00000000000E+00 -0.49649414185E+03  0.49649414185E+03  0.00000000000E+00 0. -1.
         25    2    1    2    0    0 -0.40912617810E+02 -0.67307194025E+01 -0.31501806114E+03  0.34144744284E+03  0.12502332781E+03 0.  0.
         25    2    1    2    0    0  0.40912617810E+02  0.67307194025E+01 -0.14249065665E+03  0.19403212309E+03  0.12500293068E+03 0.  0.
          5    1    3    3  501    0 -0.54720253822E+01 -0.57382041818E+02 -0.82136174599E+02  0.10045438250E+03  0.47000000000E+01 0. -1.
         -5    1    3    3    0  501 -0.35440592427E+02  0.50651322416E+02 -0.23288188654E+03  0.24099306034E+03  0.47000000000E+01 0. -1.
          5    1    4    4  502    0  0.29507735445E+02  0.64740827252E+02 -0.65280048110E+02  0.96672932332E+02  0.47000000000E+01 0. -1.
         -5    1    4    4    0  502  0.11404882365E+02 -0.58010107849E+02 -0.77210608535E+02  0.97359190757E+02  0.47000000000E+01 0. -1.
<mgrwt>
<rscale>  0 0.27825193E+03</rscale>
<asrwt>0</asrwt>
<pdfrwt beam="1">  1       21 0.59977576E-02 0.27825193E+03</pdfrwt>
<pdfrwt beam="2">  1       21 0.76383714E-01 0.27825193E+03</pdfrwt>
<totfact> 0.29454415E+05</totfact>
</mgrwt>
</event>
<event>
 8    1  0.9478272E-006  0.2765738E+03  0.7546771E-02  0.1097575E+00
         21   -1    0    0  504  503  0.00000000000E+00  0.00000000000E+00  0.21566276539E+02  0.21566276539E+02  0.00000000000E+00 0. -1.
         21   -1    0    0  503  504 -0.00000000000E+00 -0.00000000000E+00 -0.88672089219E+03  0.88672089219E+03  0.00000000000E+00 0. -1.
         25    2    1    2    0    0 -0.33589832879E+02 -0.48506228984E+02 -0.41895045742E+03  0.44116393768E+03  0.12500001204E+03 0.  0.
         25    2    1    2    0    0  0.33589832879E+02  0.48506228984E+02 -0.44620415823E+03  0.46712323105E+03  0.12499932418E+03 0.  0.
          5    1    3    3  501    0  0.34007880160E+02  0.21418346443E+02 -0.13857224705E+03  0.14435940957E+03  0.47000000000E+01 0. -1.
         -5    1    3    3    0  501 -0.67597713039E+02 -0.69924575427E+02 -0.28037821037E+03  0.29680452811E+03  0.47000000000E+01 0. -1.
          5    1    4    4  502    0  0.27344916216E+02 -0.32044062284E+02 -0.26893178760E+03  0.27225165335E+03  0.47000000000E+01 0.  1.
         -5    1    4    4    0  502  0.62449166626E+01  0.80550291268E+02 -0.17727237063E+03  0.19487157770E+03  0.47000000000E+01 0.  1.
<mgrwt>
<rscale>  0 0.27657381E+03</rscale>
<asrwt>0</asrwt>
<pdfrwt beam="1">  1       21 0.33178890E-02 0.27657381E+03</pdfrwt>
<pdfrwt beam="2">  1       21 0.13641859E+00 0.27657381E+03</pdfrwt>
<totfact> 0.19890508E+05</totfact>
</mgrwt>
</event>
<event>
 8    1  0.9478272E-006  0.4615007E+03  0.7546771E-02  0.1024347E+00
         21   -1    0    0  504  503  0.00000000000E+00  0.00000000000E+00  0.15363850748E+03  0.15363850748E+03  0.00000000000E+00 0. -1.
         21   -1    0    0  503  504 -0.00000000000E+00 -0.00000000000E+00 -0.34656492488E+03  0.34656492488E+03  0.00000000000E+00 0. -1.
         25    2    1    2    0    0  0.11659270350E+03  0.13941517771E+03 -0.23030523048E+02  0.22177657097E+03  0.12499596856E+03 0.  0.
         25    2    1    2    0    0 -0.11659270350E+03 -0.13941517771E+03 -0.16989589435E+03  0.27842686138E+03  0.12500580760E+03 0.  0.
          5    1    3    3  501    0  0.75638902938E+02  0.55699279139E+02  0.46966435836E+02  0.10512654008E+03  0.47000000000E+01 0. -1.
         -5    1    3    3    0  501  0.40953800557E+02  0.83715898573E+02 -0.69996958884E+02  0.11665003089E+03  0.47000000000E+01 0. -1.
          5    1    4    4  502    0 -0.43818408964E+02 -0.14089747382E+03 -0.11226518561E+03  0.18546620445E+03  0.47000000000E+01 0.  1.
         -5    1    4    4    0  502 -0.72774294531E+02  0.14822961104E+01 -0.57630708741E+02  0.92960656926E+02  0.47000000000E+01 0.  1.
<mgrwt>
<rscale>  0 0.46150067E+03</rscale>
<asrwt>0</asrwt>
<pdfrwt beam="1">  1       21 0.23636694E-01 0.46150067E+03</pdfrwt>
<pdfrwt beam="2">  1       21 0.53317680E-01 0.46150067E+03</pdfrwt>
<totfact> 0.51586684E+04</totfact>
</mgrwt>
</event>
<event>
 8    1  0.9478272E-006  0.2902405E+03  0.7546771E-02  0.1090224E+00
         21   -1    0    0  504  503  0.00000000000E+00  0.00000000000E+00  0.22101815829E+02  0.22101815829E+02  0.00000000000E+00 0.  1.
         21   -1    0    0  503  504 -0.00000000000E+00 -0.00000000000E+00 -0.95285801704E+03  0.95285801704E+03  0.00000000000E+00 0.  1.
         25    2    1    2    0    0 -0.47188902095E+02 -0.39241456663E+02 -0.32814757826E+03  0.35647305297E+03  0.12500207986E+03 0.  0.
         25    2    1    2    0    0  0.47188902095E+02  0.39241456663E+02 -0.60260862295E+03  0.61848677990E+03  0.12498823969E+03 0.  0.
          5    1    3    3  501    0 -0.17859179491E+02 -0.80810223371E+02 -0.24741785942E+03  0.26093472298E+03  0.47000000000E+01 0.  1.
         -5    1    3    3    0  501 -0.29329722604E+02  0.41568766708E+02 -0.80729718843E+02  0.95538329994E+02  0.47000000000E+01 0.  1.
          5    1    4    4  502    0  0.78392348559E+02  0.16867066355E+02 -0.53151944795E+03  0.53755452913E+03  0.47000000000E+01 0. -1.
         -5    1    4    4    0  502 -0.31203446464E+02  0.22374390309E+02 -0.71089174996E+02  0.80932250769E+02  0.47000000000E+01 0. -1.
<mgrwt>
<rscale>  0 0.29024054E+03</rscale>
<asrwt>0</asrwt>
<pdfrwt beam="1">  1       21 0.34002792E-02 0.29024054E+03</pdfrwt>
<pdfrwt beam="2">  1       21 0.14659355E+00 0.29024054E+03</pdfrwt>
<totfact> 0.15736119E+05</totfact>
</mgrwt>
</event>
<event>
 8    1  0.9478272E-006  0.4463730E+03  0.7546771E-02  0.1028809E+00
         21   -1    0    0  504  503  0.00000000000E+00  0.00000000000E+00  0.48835984312E+03  0.48835984312E+03  0.00000000000E+00 0.  1.
         21   -1    0    0  503  504 -0.00000000000E+00 -0.00000000000E+00 -0.10199900013E+03  0.10199900013E+03  0.00000000000E+00 0.  1.
         25    2    1    2    0    0  0.10821261563E+03  0.10072308681E+03  0.34004650961E+03  0.39129400985E+03  0.12499705217E+03 0.  0.
         25    2    1    2    0    0 -0.10821261563E+03 -0.10072308681E+03  0.46314333385E+02  0.19906483339E+03  0.12500671989E+03 0.  0.
          5    1    3    3  501    0  0.80533048411E+02  0.12251079981E+03  0.20780739955E+03  0.25436287714E+03  0.47000000000E+01 0.  1.
         -5    1    3    3    0  501  0.27679567216E+02 -0.21787712995E+02  0.13223911006E+03  0.13693113272E+03  0.47000000000E+01 0.  1.
          5    1    4    4  502    0 -0.23534240397E+01  0.17520512913E+02  0.35482302883E+02  0.39919804550E+02  0.47000000000E+01 0. -1.
         -5    1    4    4    0  502 -0.10585919159E+03 -0.11824359973E+03  0.10832030502E+02  0.15914502884E+03  0.47000000000E+01 0. -1.
<mgrwt>
<rscale>  0 0.44637301E+03</rscale>
<asrwt>0</asrwt>
<pdfrwt beam="1">  1       21 0.75132282E-01 0.44637301E+03</pdfrwt>
<pdfrwt beam="2">  1       21 0.15692154E-01 0.44637301E+03</pdfrwt>
<totfact> 0.52700174E+04</totfact>
</mgrwt>
</event>
<event>
 8    1  0.9478272E-006  0.3519042E+03  0.7546771E-02  0.1061836E+00
         21   -1    0    0  504  503  0.00000000000E+00  0.00000000000E+00  0.26120364720E+03  0.26120364720E+03  0.00000000000E+00 0. -1.
         21   -1    0    0  503  504 -0.00000000000E+00 -0.00000000000E+00 -0.11852490737E+03  0.11852490737E+03  0.00000000000E+00 0. -1.
         25    2    1    2    0    0 -0.35011801519E+02  0.10045110270E+03  0.29451814893E+01  0.16417624900E+03  0.12501566447E+03 0.  0.
         25    2    1    2    0    0  0.35011801519E+02 -0.10045110270E+03  0.13973355834E+03  0.21555230557E+03  0.12498431434E+03 0.  0.
          5    1    3    3  501    0  0.26201478861E+02  0.19685891301E+02 -0.41777415309E+02  0.53305667998E+02  0.47000000000E+01 0. -1.
         -5    1    3    3    0  501 -0.61213280380E+02  0.80765211403E+02  0.44722596798E+02  0.11087058100E+03  0.47000000000E+01 0. -1.
          5    1    4    4  502    0  0.19954193866E+02 -0.10582889346E+03  0.15771587511E+03  0.19103484448E+03  0.47000000000E+01 0.  1.
         -5    1    4    4    0  502  0.15057607653E+02  0.53777907608E+01 -0.17982316773E+02  0.24517461089E+02  0.47000000000E+01 0.  1.
<mgrwt>
<rscale>  0 0.35190418E+03</rscale>
<asrwt>0</asrwt>
<pdfrwt beam="1">  1       21 0.40185176E-01 0.35190418E+03</pdfrwt>
<pdfrwt beam="2">  1       21 0.18234601E-01 0.35190418E+03</pdfrwt>
<totfact> 0.15670856E+05</totfact>
</mgrwt>
</event>
<event>
 8    1  0.9478272E-006  0.3106254E+03  0.7546771E-02  0.1080046E+00
         21   -1    0    0  504  503  0.00000000000E+00  0.00000000000E+00  0.55304169723E+02  0.55304169723E+02  0.00000000000E+00 0. -1.
         21   -1    0    0  503  504 -0.00000000000E+00 -0.00000000000E+00 -0.43617037265E+03  0.43617037265E+03  0.00000000000E+00 0. -1.
         25    2    1    2    0    0 -0.26488737323E+02  0.23826906515E+02 -0.55915421266E+02  0.14149240607E+03  0.12499676780E+03 0.  0.
         25    2    1    2    0    0  0.26488737323E+02 -0.23826906515E+02 -0.32495078166E+03  0.34998213630E+03  0.12500044220E+03 0.  0.
          5    1    3    3  501    0  0.24295972696E+02  0.26094216581E+02 -0.77982444309E+02  0.85875223717E+02  0.47000000000E+01 0. -1.
         -5    1    3    3    0  501 -0.50784710019E+02 -0.22673100660E+01  0.22067023043E+02  0.55617182350E+02  0.47000000000E+01 0. -1.
          5    1    4    4  502    0 -0.27895130444E+02 -0.51993620028E+01 -0.11026567868E+02  0.30803358042E+02  0.47000000000E+01 0.  1.
         -5    1    4    4    0  502  0.54383867767E+02 -0.18627544512E+02 -0.31392421379E+03  0.31917877826E+03  0.47000000000E+01 0.  1.
<mgrwt>
<rscale>  0 0.31062544E+03</rscale>
<asrwt>0</asrwt>
<pdfrwt beam="1">  1       21 0.85083336E-02 0.31062544E+03</pdfrwt>
<pdfrwt beam="2">  1       21 0.67103136E-01 0.31062544E+03</pdfrwt>
<totfact> 0.21228117E+05</totfact>
</mgrwt>
</event>
<event>
 8    1  0.9478272E-006  0.4055247E+03  0.7546771E-02  0.1041883E+00
         21   -1    0    0  504  503  0.00000000000E+00  0.00000000000E+00  0.52776393626E+03  0.52776393626E+03  0.00000000000E+00 0. -1.
         21   -1    0    0  503  504 -0.00000000000E+00 -0.00000000000E+00 -0.77899526487E+02  0.77899526487E+02  0.00000000000E+00 0. -1.
         25    2    1    2    0    0 -0.72190913648E+02 -0.76682207668E+01  0.12494006000E+02  0.14502394259E+03  0.12492203214E+03 0.  0.
         25    2    1    2    0    0  0.72190913648E+02  0.76682207668E+01  0.43737040378E+03  0.46063952016E+03  0.12500227123E+03 0.  0.
          5    1    3    3  501    0  0.21732981855E+02  0.27453744611E+02 -0.18608821156E+02  0.39930049065E+02  0.47000000000E+01 0. -1.
         -5    1    3    3    0  501 -0.93923895504E+02 -0.35121965378E+02  0.31102827156E+02  0.10509389352E+03  0.47000000000E+01 0. -1.
          5    1    4    4  502    0  0.50366889786E+02  0.26828324798E+02  0.63071254518E+02  0.85186006742E+02  0.47000000000E+01 0. -1.
         -5    1    4    4    0  502  0.21824023863E+02 -0.19160104032E+02  0.37429914926E+03  0.37545351342E+03  0.47000000000E+01 0. -1.
<mgrwt>
<rscale>  0 0.40552465E+03</rscale>
<asrwt>0</asrwt>
<pdfrwt beam="1">  1       21 0.81194449E-01 0.40552465E+03</pdfrwt>
<pdfrwt beam="2">  1       21 0.11984543E-01 0.40552465E+03</pdfrwt>
<totfact> 0.73073110E+04</totfact>
</mgrwt>
</event>
<event>
 8    1  0.9478272E-006  0.2548187E+03  0.7546771E-02  0.1110297E+00
         21   -1    0    0  504  503  0.00000000000E+00  0.00000000000E+00  0.54059820382E+03  0.54059820382E+03  0.00000000000E+00 0.  1.
         21   -1    0    0  503  504 -0.00000000000E+00 -0.00000000000E+00 -0.30028108852E+02  0.30028108852E+02  0.00000000000E+00 0.  1.
         25    2    1    2    0    0 -0.21983838352E+02 -0.11047579641E+02  0.25869449489E+03  0.28836404618E+03  0.12500257310E+03 0.  0.
         25    2    1    2    0    0  0.21983838352E+02  0.11047579641E+02  0.25187560008E+03  0.28226226649E+03  0.12500132401E+03 0.  0.
          5    1    3    3  501    0  0.31403774285E+02 -0.34429089013E+02  0.20038831653E+03  0.20578903423E+03  0.47000000000E+01 0. -1.
         -5    1    3    3    0  501 -0.53387612637E+02  0.23381509371E+02  0.58306178361E+02  0.82575011951E+02  0.47000000000E+01 0. -1.
          5    1    4    4  502    0 -0.51419397057E+02  0.79748555794E+01  0.12660531232E+03  0.13696184805E+03  0.47000000000E+01 0. -1.
         -5    1    4    4    0  502  0.73403235409E+02  0.30727240620E+01  0.12527028777E+03  0.14530041844E+03  0.47000000000E+01 0. -1.
<mgrwt>
<rscale>  0 0.25481869E+03</rscale>
<asrwt>0</asrwt>
<pdfrwt beam="1">  1       21 0.83168947E-01 0.25481869E+03</pdfrwt>
<pdfrwt beam="2">  1       21 0.46197095E-02 0.25481869E+03</pdfrwt>
<totfact> 0.38132891E+05</totfact>
</mgrwt>
</event>
<event>
 8    1  0.9478272E-006  0.3055197E+03  0.7546771E-02  0.1082513E+00
         21   -1    0    0  504  503  0.00000000000E+00  0.00000000000E+00  0.21492003245E+03  0.21492003245E+03  0.00000000000E+00 0.  1.
         21   -1    0    0  503  504 -0.00000000000E+00 -0.00000000000E+00 -0.10857794853E+03  0.10857794853E+03  0.00000000000E+00 0.  1.
         25    2    1    2    0    0 -0.61741693985E+01 -0.81148534618E+02  0.88113235872E+02  0.17322896872E+03  0.12498451196E+03 0.  0.
         25    2    1    2    0    0  0.61741693985E+01  0.81148534618E+02  0.18228848054E+02  0.15026901226E+03  0.12500112042E+03 0.  0.
          5    1    3    3  501    0 -0.32808582167E+02 -0.57934918882E+02 -0.11231738674E+02  0.67683822612E+02  0.47000000000E+01 0.  1.
         -5    1    3    3    0  501  0.26634412769E+02 -0.23213615736E+02  0.99344974546E+02  0.10554514611E+03  0.47000000000E+01 0.  1.
          5    1    4    4  502    0 -0.16235574033E+02  0.37034191795E+01  0.57801299918E+02  0.60335639966E+02  0.47000000000E+01 0. -1.
         -5    1    4    4    0  502  0.22409743431E+02  0.77445115438E+02 -0.39572451864E+02  0.89933372296E+02  0.47000000000E+01 0. -1.
<mgrwt>
<rscale>  0 0.30551973E+03</rscale>
<asrwt>0</asrwt>
<pdfrwt beam="1">  1       21 0.33064620E-01 0.30551973E+03</pdfrwt>
<pdfrwt beam="2">  1       21 0.16704300E-01 0.30551973E+03</pdfrwt>
<totfact> 0.27628372E+05</totfact>
</mgrwt>
</event>
<event>
 8    1  0.9478272E-006  0.2682965E+03  0.7546771E-02  0.1102259E+00
         21   -1    0    0  504  503  0.00000000000E+00  0.00000000000E+00  0.14097689702E+02  0.14097689702E+02  0.00000000000E+00 0. -1.
         21   -1    0    0  503  504 -0.00000000000E+00 -0.00000000000E+00 -0.12765041195E+04  0.12765041195E+04  0.00000000000E+00 0. -1.
         25    2    1    2    0    0  0.41766906786E+02  0.14026114215E+02 -0.73125691386E+03  0.74316994979E+03  0.12499477517E+03 0.  0.
         25    2    1    2    0    0 -0.41766906786E+02 -0.14026114215E+02 -0.53114951590E+03  0.54743185937E+03  0.12498250291E+03 0.  0.
          5    1    3    3  501    0 -0.20357404810E+02 -0.35932253311E+02 -0.41141095956E+03  0.41350528220E+03  0.47000000000E+01 0.  1.
         -5    1    3    3    0  501  0.62124311597E+02  0.49958367526E+02 -0.31984595430E+03  0.32966466759E+03  0.47000000000E+01 0.  1.
          5    1    4    4  502    0 -0.40941120679E+02  0.42973120660E+02 -0.14017838860E+03  0.15229883484E+03  0.47000000000E+01 0. -1.
         -5    1    4    4    0  502 -0.82578610722E+00 -0.56999234876E+02 -0.39097112729E+03  0.39513302453E+03  0.47000000000E+01 0. -1.
<mgrwt>
<rscale>  0 0.26829654E+03</rscale>
<asrwt>0</asrwt>
<pdfrwt beam="1">  1       21 0.21688750E-02 0.26829654E+03</pdfrwt>
<pdfrwt beam="2">  1       21 0.19638528E+00 0.26829654E+03</pdfrwt>
<totfact> 0.14747658E+05</totfact>
</mgrwt>
</event>
<event>
 8    1  0.9478272E-006  0.4036392E+03  0.7546771E-02  0.1042527E+00
         21   -1    0    0  504  503  0.00000000000E+00  0.00000000000E+00  0.99127411266E+03  0.99127411266E+03  0.00000000000E+00 0. -1.
         21   -1    0    0  503  504 -0.00000000000E+00 -0.00000000000E+00 -0.41089691086E+02  0.41089691086E+02  0.00000000000E+00 0. -1.
         25    2    1    2    0    0  0.14949922785E+03 -0.36375147057E+02  0.57188170858E+03  0.60526699606E+03  0.12500510976E+03 0.  0.
         25    2    1    2    0    0 -0.14949922785E+03  0.36375147057E+02  0.37830271300E+03  0.42709680769E+03  0.12500228006E+03 0.  0.
          5    1    3    3  501    0  0.20177277216E+02  0.20880031404E+02  0.20092153306E+02  0.35621381946E+02  0.47000000000E+01 0. -1.
         -5    1    3    3    0  501  0.12932195064E+03 -0.57255178461E+02  0.55178955527E+03  0.56964561412E+03  0.47000000000E+01 0. -1.
          5    1    4    4  502    0  0.31600420462E+01 -0.70317978430E+01 -0.62985413733E+01  0.11008799665E+02  0.47000000000E+01 0.  1.
         -5    1    4    4    0  502 -0.15265926990E+03  0.43406944900E+02  0.38460125438E+03  0.41608800802E+03  0.47000000000E+01 0.  1.
<mgrwt>
<rscale>  0 0.40363918E+03</rscale>
<asrwt>0</asrwt>
<pdfrwt beam="1">  1       21 0.15250369E+00 0.40363918E+03</pdfrwt>
<pdfrwt beam="2">  1       21 0.63214917E-02 0.40363918E+03</pdfrwt>
<totfact> 0.47374053E+04</totfact>
</mgrwt>
</event>
<event>
 8    1  0.9478272E-006  0.2858704E+03  0.7546771E-02  0.1092525E+00
         21   -1    0    0  504  503  0.00000000000E+00  0.00000000000E+00  0.32374344939E+03  0.32374344939E+03  0.00000000000E+00 0. -1.
         21   -1    0    0  503  504 -0.00000000000E+00 -0.00000000000E+00 -0.63106997369E+02  0.63106997369E+02  0.00000000000E+00 0. -1.
         25    2    1    2    0    0  0.31092746755E+02  0.52849115146E+02  0.17404545666E+03  0.22288905844E+03  0.12501169351E+03 0.  0.
         25    2    1    2    0    0 -0.31092746755E+02 -0.52849115146E+02  0.86590995359E+02  0.16396138832E+03  0.12500219402E+03 0.  0.
          5    1    3    3  501    0 -0.25054203806E+02  0.10570989041E+02  0.14346667129E+03  0.14609666221E+03  0.47000000000E+01 0.  1.
         -5    1    3    3    0  501  0.56146950561E+02  0.42278126105E+02  0.30578785373E+02  0.76792396232E+02  0.47000000000E+01 0.  1.
          5    1    4    4  502    0  0.12695938308E+02 -0.66052933192E+02  0.95723184330E+02  0.11708627098E+03  0.47000000000E+01 0.  1.
         -5    1    4    4    0  502 -0.43788685062E+02  0.13203818046E+02 -0.91321889713E+01  0.46875117343E+02  0.47000000000E+01 0.  1.
<mgrwt>
<rscale>  0 0.28587044E+03</rscale>
<asrwt>0</asrwt>
<pdfrwt beam="1">  1       21 0.49806683E-01 0.28587044E+03</pdfrwt>
<pdfrwt beam="2">  1       21 0.97087691E-02 0.28587044E+03</pdfrwt>
<totfact> 0.32130039E+05</totfact>
</mgrwt>
</event>
<event>
 8    1  0.9478272E-006  0.3067572E+03  0.7546771E-02  0.1081911E+00
         21   -1    0    0  504  503  0.00000000000E+00  0.00000000000E+00  0.93921586096E+03  0.93921586096E+03  0.00000000000E+00 0.  1.
         21   -1    0    0  503  504 -0.00000000000E+00 -0.00000000000E+00 -0.25047484300E+02  0.25047484300E+02  0.00000000000E+00 0.  1.
         25    2    1    2    0    0  0.15448312743E+02  0.53179229525E+01  0.73175806126E+03  0.74253051839E+03  0.12495911271E+03 0.  0.
         25    2    1    2    0    0 -0.15448312743E+02 -0.53179229525E+01  0.18241031539E+03  0.22173282686E+03  0.12499997070E+03 0.  0.
          5    1    3    3  501    0  0.42214195111E+02 -0.45168076604E+02  0.25947793537E+03  0.26678283745E+03  0.47000000000E+01 0. -1.
         -5    1    3    3    0  501 -0.26765882368E+02  0.50485999556E+02  0.47228012590E+03  0.47574768095E+03  0.47000000000E+01 0. -1.
          5    1    4    4  502    0 -0.19777103741E+01 -0.32780195946E+02  0.18746319862E+03  0.19037592658E+03  0.47000000000E+01 0. -1.
         -5    1    4    4    0  502 -0.13470602369E+02  0.27462272993E+02 -0.50528832308E+01  0.31356900278E+02  0.47000000000E+01 0. -1.
<mgrwt>
<rscale>  0 0.30675720E+03</rscale>
<asrwt>0</asrwt>
<pdfrwt beam="1">  1       21 0.14449472E+00 0.30675720E+03</pdfrwt>
<pdfrwt beam="2">  1       21 0.38534598E-02 0.30675720E+03</pdfrwt>
<totfact> 0.13176983E+05</totfact>
</mgrwt>
</event>
<event>
 8    1  0.9478272E-006  0.3043351E+03  0.7546771E-02  0.1083093E+00
         21   -1    0    0  504  503  0.00000000000E+00  0.00000000000E+00  0.15382100958E+03  0.15382100958E+03  0.00000000000E+00 0. -1.
         21   -1    0    0  503  504 -0.00000000000E+00 -0.00000000000E+00 -0.15053185612E+03  0.15053185612E+03  0.00000000000E+00 0. -1.
         25    2    1    2    0    0  0.49879399044E+02  0.11848160635E+02 -0.68373312721E+02  0.15142103508E+03  0.12500034645E+03 0.  0.
         25    2    1    2    0    0 -0.49879399044E+02 -0.11848160635E+02  0.71662466174E+02  0.15293183062E+03  0.12499720956E+03 0.  0.
          5    1    3    3  501    0  0.37479736038E+02  0.21440527377E+02 -0.10373207949E+03  0.11245826401E+03  0.47000000000E+01 0. -1.
         -5    1    3    3    0  501  0.12399663007E+02 -0.95923667419E+01  0.35358766771E+02  0.38962771077E+02  0.47000000000E+01 0. -1.
          5    1    4    4  502    0  0.23019958408E+02  0.12996687611E+02 -0.19732563514E+02  0.33321110978E+02  0.47000000000E+01 0.  1.
         -5    1    4    4    0  502 -0.72899357452E+02 -0.24844848246E+02  0.91395029688E+02  0.11961071964E+03  0.47000000000E+01 0.  1.
<mgrwt>
<rscale>  0 0.30433509E+03</rscale>
<asrwt>0</asrwt>
<pdfrwt beam="1">  1       21 0.23664771E-01 0.30433509E+03</pdfrwt>
<pdfrwt beam="2">  1       21 0.23158747E-01 0.30433509E+03</pdfrwt>
<totfact> 0.28704756E+05</totfact>
</mgrwt>
</event>
<event>
 8    1  0.9478272E-006  0.3023180E+03  0.7546771E-02  0.1084088E+00
         21   -1    0    0  504  503  0.00000000000E+00  0.00000000000E+00  0.16880567779E+03  0.16880567779E+03  0.00000000000E+00 0.  1.
         21   -1    0    0  503  504 -0.00000000000E+00 -0.00000000000E+00 -0.13535707159E+03  0.13535707159E+03  0.00000000000E+00 0.  1.
         25    2    1    2    0    0 -0.92058787619E+01 -0.25953397795E+02  0.97651131410E+02  0.16099216117E+03  0.12499762170E+03 0.  0.
         25    2    1    2    0    0  0.92058787619E+01  0.25953397795E+02 -0.64202525211E+02  0.14317058821E+03  0.12497010052E+03 0.  0.
          5    1    3    3  501    0 -0.45975190001E+02  0.29188382122E+02  0.70519129951E+02  0.89222852653E+02  0.47000000000E+01 0. -1.
         -5    1    3    3    0  501  0.36769311239E+02 -0.55141779917E+02  0.27132001459E+02  0.71769308514E+02  0.47000000000E+01 0. -1.
          5    1    4    4  502    0  0.38757710944E+02  0.14783624259E+01 -0.89030968016E+02  0.97226277204E+02  0.47000000000E+01 0.  1.
         -5    1    4    4    0  502 -0.29551832182E+02  0.24475035369E+02  0.24828442805E+02  0.45944311006E+02  0.47000000000E+01 0.  1.
<mgrwt>
<rscale>  0 0.30231799E+03</rscale>
<asrwt>0</asrwt>
<pdfrwt beam="1">  1       21 0.25970104E-01 0.30231799E+03</pdfrwt>
<pdfrwt beam="2">  1       21 0.20824165E-01 0.30231799E+03</pdfrwt>
<totfact> 0.29389107E+05</totfact>
</mgrwt>
</event>
<event>
 8    1  0.9478272E-006  0.2722912E+03  0.7546771E-02  0.1099975E+00
         21   -1    0    0  504  503  0.00000000000E+00  0.00000000000E+00  0.72379951119E+02  0.72379951119E+02  0.00000000000E+00 0.  1.
         21   -1    0    0  503  504 -0.00000000000E+00 -0.00000000000E+00 -0.25608790768E+03  0.25608790768E+03  0.00000000000E+00 0.  1.
         25    2    1    2    0    0 -0.62179133043E+01  0.50920181808E+02 -0.11198222973E+03  0.17548692127E+03  0.12499644956E+03 0.  0.
         25    2    1    2    0    0  0.62179133043E+01 -0.50920181808E+02 -0.71725726833E+02  0.15298093753E+03  0.12500823971E+03 0.  0.
          5    1    3    3  501    0  0.38858420456E+02  0.38122626345E+02 -0.11599888044E+03  0.12822301566E+03  0.47000000000E+01 0.  1.
         -5    1    3    3    0  501 -0.45076333760E+02  0.12797555463E+02  0.40166507165E+01  0.47263905616E+02  0.47000000000E+01 0.  1.
          5    1    4    4  502    0  0.46303062969E+02 -0.34206404457E+02 -0.88922171021E+02  0.10603440124E+03  0.47000000000E+01 0.  1.
         -5    1    4    4    0  502 -0.40085149665E+02 -0.16713777351E+02  0.17196444188E+02  0.46946536291E+02  0.47000000000E+01 0.  1.
<mgrwt>
<rscale>  0 0.27229124E+03</rscale>
<asrwt>0</asrwt>
<pdfrwt beam="1">  1       21 0.11135377E-01 0.27229124E+03</pdfrwt>
<pdfrwt beam="2">  1       21 0.39398140E-01 0.27229124E+03</pdfrwt>
<totfact> 0.40950222E+05</totfact>
</mgrwt>
</event>
<event>
 8    1  0.9478272E-006  0.3034080E+03  0.7546771E-02  0.1083549E+00
         21   -1    0    0  504  503  0.00000000000E+00  0.00000000000E+00  0.30019033355E+03  0.30019033355E+03  0.00000000000E+00 0.  1.
         21   -1    0    0  503  504 -0.00000000000E+00 -0.00000000000E+00 -0.76665060950E+02  0.76665060950E+02  0.00000000000E+00 0.  1.
         25    2    1    2    0    0  0.44081135389E+02 -0.70903439024E+02  0.86345725191E+02  0.17335258044E+03  0.12500035490E+03 0.  0.
         25    2    1    2    0    0 -0.44081135389E+02  0.70903439024E+02  0.13717954741E+03  0.20350281406E+03  0.12499889175E+03 0.  0.
          5    1    3    3  501    0  0.45738813548E+01 -0.92748033542E+02  0.87880627829E+02  0.12793831664E+03  0.47000000000E+01 0.  1.
         -5    1    3    3    0  501  0.39507254034E+02  0.21844594518E+02 -0.15349026378E+01  0.45414263807E+02  0.47000000000E+01 0.  1.
          5    1    4    4  502    0 -0.55225753592E+02 -0.18600565971E+02  0.40023486551E+02  0.70850789621E+02  0.47000000000E+01 0.  1.
         -5    1    4    4    0  502  0.11144618202E+02  0.89504004995E+02  0.97156060858E+02  0.13265202443E+03  0.47000000000E+01 0.  1.
<mgrwt>
<rscale>  0 0.30340804E+03</rscale>
<asrwt>0</asrwt>
<pdfrwt beam="1">  1       21 0.46183128E-01 0.30340804E+03</pdfrwt>
<pdfrwt beam="2">  1       21 0.11794625E-01 0.30340804E+03</pdfrwt>
<totfact> 0.26462103E+05</totfact>
</mgrwt>
</event>
<event>
 8    1  0.9478272E-006  0.3062967E+03  0.7546771E-02  0.1082135E+00
         21   -1    0    0  504  503  0.00000000000E+00  0.00000000000E+00  0.19791035983E+02  0.19791035983E+02  0.00000000000E+00 0.  1.
         21   -1    0    0  503  504 -0.00000000000E+00 -0.00000000000E+00 -0.11851031200E+04  0.11851031200E+04  0.00000000000E+00 0.  1.
         25    2    1    2    0    0 -0.57336519031E+02 -0.31594981918E+01 -0.84743254791E+03  0.85852468624E+03  0.12500101914E+03 0.  0.
         25    2    1    2    0    0  0.57336519031E+02  0.31594981918E+01 -0.31787953612E+03  0.34636946975E+03  0.12500780476E+03 0.  0.
          5    1    3    3  501    0 -0.62199817990E+02  0.12507774281E+02 -0.18066873841E+03  0.19154254048E+03  0.47000000000E+01 0.  1.
         -5    1    3    3    0  501  0.48632989585E+01 -0.15667272473E+02 -0.66676380950E+03  0.66698214576E+03  0.47000000000E+01 0.  1.
          5    1    4    4  502    0  0.72719737653E+02 -0.16886068637E+02 -0.31085094103E+03  0.31972440804E+03  0.47000000000E+01 0. -1.
         -5    1    4    4    0  502 -0.15383218622E+02  0.20045566829E+02 -0.70285950870E+01  0.26645061711E+02  0.47000000000E+01 0. -1.
<mgrwt>
<rscale>  0 0.30629671E+03</rscale>
<asrwt>0</asrwt>
<pdfrwt beam="1">  1       21 0.30447742E-02 0.30629671E+03</pdfrwt>
<pdfrwt beam="2">  1       21 0.18232359E+00 0.30629671E+03</pdfrwt>
<totfact> 0.10300484E+05</totfact>
</mgrwt>
</event>
<event>
 8    1  0.9478272E-006  0.2845877E+03  0.7546771E-02  0.1093209E+00
         21   -1    0    0  504  503  0.00000000000E+00  0.00000000000E+00  0.73568624191E+03  0.73568624191E+03  0.00000000000E+00 0. -1.
         21   -1    0    0  503  504 -0.00000000000E+00 -0.00000000000E+00 -0.27521978438E+02  0.27521978438E+02  0.00000000000E+00 0. -1.
         25    2    1    2    0    0  0.58513851047E+02 -0.34338274892E+02  0.34245699509E+03  0.37081707512E+03  0.12500208730E+03 0.  0.
         25    2    1    2    0    0 -0.58513851047E+02  0.34338274892E+02  0.36570726838E+03  0.39239114522E+03  0.12500406721E+03 0.  0.
          5    1    3    3  501    0  0.12854282353E+02 -0.56049704543E+02  0.57805852410E+02  0.81672569000E+02  0.47000000000E+01 0. -1.
         -5    1    3    3    0  501  0.45659568694E+02  0.21711429652E+02  0.28465114268E+03  0.28914450612E+03  0.47000000000E+01 0. -1.
          5    1    4    4  502    0  0.33536971163E+02 -0.51230716427E+01  0.46128440314E+02  0.57453435961E+02  0.47000000000E+01 0.  1.
         -5    1    4    4    0  502 -0.92050822210E+02  0.39461346534E+02  0.31957882806E+03  0.33493770926E+03  0.47000000000E+01 0.  1.
<mgrwt>
<rscale>  0 0.28458771E+03</rscale>
<asrwt>0</asrwt>
<pdfrwt beam="1">  1       21 0.11318248E+00 0.28458771E+03</pdfrwt>
<pdfrwt beam="2">  1       21 0.42341511E-02 0.28458771E+03</pdfrwt>
<totfact> 0.21088779E+05</totfact>
</mgrwt>
</event>
<event>
 8    1  0.9478272E-006  0.2564441E+03  0.7546771E-02  0.1109299E+00
         21   -1    0    0  504  503  0.00000000000E+00  0.00000000000E+00  0.62985332661E+03  0.62985332661E+03  0.00000000000E+00 0. -1.
         21   -1    0    0  503  504 -0.00000000000E+00 -0.00000000000E+00 -0.26102727333E+02  0.26102727333E+02  0.00000000000E+00 0. -1.
         25    2    1    2    0    0  0.18827164403E+02  0.24156226608E+01  0.24713747177E+03  0.27759550774E+03  0.12498815388E+03 0.  0.
         25    2    1    2    0    0 -0.18827164403E+02 -0.24156226608E+01  0.35661312751E+03  0.37836054621E+03  0.12499393130E+03 0.  0.
          5    1    3    3  501    0  0.26942412913E+02  0.58315724806E+02  0.91004211697E+02  0.11149203523E+03  0.47000000000E+01 0. -1.
         -5    1    3    3    0  501 -0.81152485102E+01 -0.55900102145E+02  0.15613326007E+03  0.16610347251E+03  0.47000000000E+01 0. -1.
          5    1    4    4  502    0 -0.64312496005E+02  0.31051914283E+00  0.10982589225E+03  0.12735780373E+03  0.47000000000E+01 0. -1.
         -5    1    4    4    0  502  0.45485331602E+02 -0.27261418036E+01  0.24678723526E+03  0.25100274247E+03  0.47000000000E+01 0. -1.
<mgrwt>
<rscale>  0 0.25644407E+03</rscale>
<asrwt>0</asrwt>
<pdfrwt beam="1">  1       21 0.96900500E-01 0.25644407E+03</pdfrwt>
<pdfrwt beam="2">  1       21 0.40158047E-02 0.25644407E+03</pdfrwt>
<totfact> 0.33834750E+05</totfact>
</mgrwt>
</event>
<event>
 8    1  0.9478272E-006  0.2519315E+03  0.7546771E-02  0.1112090E+00
         21   -1    0    0  504  503  0.00000000000E+00  0.00000000000E+00  0.13774312879E+03  0.13774312879E+03  0.00000000000E+00 0.  1.
         21   -1    0    0  503  504 -0.00000000000E+00 -0.00000000000E+00 -0.11519535512E+03  0.11519535512E+03  0.00000000000E+00 0.  1.
         25    2    1    2    0    0  0.20383225044E+01  0.15141586798E+02  0.85082815608E+01  0.12622052330E+03  0.12500322891E+03 0.  0.
         25    2    1    2    0    0 -0.20383225044E+01 -0.15141586798E+02  0.14039492111E+02  0.12671796062E+03  0.12500764694E+03 0.  0.
          5    1    3    3  501    0 -0.32405589024E+02  0.46285926969E+02  0.40463642978E+02  0.69655621729E+02  0.47000000000E+01 0. -1.
         -5    1    3    3    0  501  0.34443911528E+02 -0.31144340171E+02 -0.31955361418E+02  0.56564901568E+02  0.47000000000E+01 0. -1.
          5    1    4    4  502    0 -0.39546711447E+02  0.41317876598E+02  0.12617949768E+02  0.58757229081E+02  0.47000000000E+01 0. -1.
         -5    1    4    4    0  502  0.37508388943E+02 -0.56459463396E+02  0.14215423426E+01  0.67960731535E+02  0.47000000000E+01 0. -1.
<mgrwt>
<rscale>  0 0.25193149E+03</rscale>
<asrwt>0</asrwt>
<pdfrwt beam="1">  1       21 0.21191251E-01 0.25193149E+03</pdfrwt>
<pdfrwt beam="2">  1       21 0.17722362E-01 0.25193149E+03</pdfrwt>
<totfact> 0.59222127E+05</totfact>
</mgrwt>
</event>
<event>
 8    1  0.9478272E-006  0.3728996E+03  0.7546771E-02  0.1053590E+00
         21   -1    0    0  504  503  0.00000000000E+00  0.00000000000E+00  0.26016304118E+02  0.26016304118E+02  0.00000000000E+00 0.  1.
         21   -1    0    0  503  504 -0.00000000000E+00 -0.00000000000E+00 -0.13362207043E+04  0.13362207043E+04  0.00000000000E+00 0.  1.
         25    2    1    2    0    0 -0.28369020138E+02  0.29717867434E+00 -0.16044711103E+03  0.20535651529E+03  0.12499253305E+03 0.  0.
         25    2    1    2    0    0  0.28369020138E+02 -0.29717867434E+00 -0.11497572892E+04  0.11568804932E+04  0.12500304713E+03 0.  0.
          5    1    3    3  501    0 -0.42009672645E+02  0.24268822573E+02 -0.68381293060E+01  0.49220304319E+02  0.47000000000E+01 0.  1.
         -5    1    3    3    0  501  0.13640652508E+02 -0.23971643899E+02 -0.15360898172E+03  0.15613621098E+03  0.47000000000E+01 0.  1.
          5    1    4    4  502    0  0.16818649531E+00  0.44900653310E+02 -0.17743212366E+03  0.18308562330E+03  0.47000000000E+01 0. -1.
         -5    1    4    4    0  502  0.28200833642E+02 -0.45197831984E+02 -0.97232516553E+03  0.97379486986E+03  0.47000000000E+01 0. -1.
<mgrwt>
<rscale>  0 0.37289958E+03</rscale>
<asrwt>0</asrwt>
<pdfrwt beam="1">  1       21 0.40025068E-02 0.37289958E+03</pdfrwt>
<pdfrwt beam="2">  1       21 0.20557250E+00 0.37289958E+03</pdfrwt>
<totfact> 0.44310965E+04</totfact>
</mgrwt>
</event>
<event>
 8    1  0.9478272E-006  0.3492310E+03  0.7546771E-02  0.1062931E+00
         21   -1    0    0  504  503  0.00000000000E+00  0.00000000000E+00  0.95554833395E+02  0.95554833395E+02  0.00000000000E+00 0. -1.
         21   -1    0    0  503  504 -0.00000000000E+00 -0.00000000000E+00 -0.31908986846E+03  0.31908986846E+03  0.00000000000E+00 0. -1.
         25    2    1    2    0    0 -0.79863267719E+02 -0.91448749353E+02 -0.12502272816E+03  0.21446876943E+03  0.12500062087E+03 0.  0.
         25    2    1    2    0    0  0.79863267719E+02  0.91448749353E+02 -0.98512306907E+02  0.20017593242E+03  0.12499885607E+03 0.  0.
          5    1    3    3  501    0 -0.66764237208E+02 -0.69565421948E+02 -0.15005499527E+03  0.17842478221E+03  0.47000000000E+01 0.  1.
         -5    1    3    3    0  501 -0.13099030511E+02 -0.21883327404E+02  0.25032267110E+02  0.36043987228E+02  0.47000000000E+01 0.  1.
          5    1    4    4  502    0 -0.84120858715E+00 -0.24019136589E+02  0.53773526557E+01  0.25072544265E+02  0.47000000000E+01 0.  1.
         -5    1    4    4    0  502  0.80704476306E+02  0.11546788594E+03 -0.10388965956E+03  0.17510338816E+03  0.47000000000E+01 0.  1.
<mgrwt>
<rscale>  0 0.34923104E+03</rscale>
<asrwt>0</asrwt>
<pdfrwt beam="1">  1       21 0.14700744E-01 0.34923104E+03</pdfrwt>
<pdfrwt beam="2">  1       21 0.49090748E-01 0.34923104E+03</pdfrwt>
<totfact> 0.15433605E+05</totfact>
</mgrwt>
</event>
<event>
 8    1  0.9478272E-006  0.5111278E+03  0.7546771E-02  0.1010915E+00
         21   -1    0    0  504  503  0.00000000000E+00  0.00000000000E+00  0.21970882228E+03  0.21970882228E+03  0.00000000000E+00 0.  1.
         21   -1    0    0  503  504 -0.00000000000E+00 -0.00000000000E+00 -0.29727029725E+03  0.29727029725E+03  0.00000000000E+00 0.  1.
         25    2    1    2    0    0  0.73934186853E+02 -0.15728662666E+03  0.10239893073E+03  0.23731192629E+03  0.12500424967E+03 0.  0.
         25    2    1    2    0    0 -0.73934186853E+02  0.15728662666E+03 -0.17996040569E+03  0.27966719324E+03  0.12499057742E+03 0.  0.
          5    1    3    3  501    0  0.94327962957E+02 -0.15919830589E+03  0.68392790817E+02  0.19733608142E+03  0.47000000000E+01 0. -1.
         -5    1    3    3    0  501 -0.20393776104E+02  0.19116792347E+01  0.34006139915E+02  0.39975844872E+02  0.47000000000E+01 0. -1.
          5    1    4    4  502    0  0.80942708956E+01 -0.16679838567E+02 -0.53713427391E+01  0.19866443033E+02  0.47000000000E+01 0.  1.
         -5    1    4    4    0  502 -0.82028457749E+02  0.17396646523E+03 -0.17458906295E+03  0.25980075021E+03  0.47000000000E+01 0.  1.
<mgrwt>
<rscale>  0 0.51112780E+03</rscale>
<asrwt>0</asrwt>
<pdfrwt beam="1">  1       21 0.33801357E-01 0.51112780E+03</pdfrwt>
<pdfrwt beam="2">  1       21 0.45733892E-01 0.51112780E+03</pdfrwt>
<totfact> 0.34890900E+04</totfact>
</mgrwt>
</event>
<event>
 8    1  0.9478272E-006  0.2705928E+03  0.7546771E-02  0.1100941E+00
         21   -1    0    0  504  503  0.00000000000E+00  0.00000000000E+00  0.39245729901E+02  0.39245729901E+02  0.00000000000E+00 0.  1.
         21   -1    0    0  503  504 -0.00000000000E+00 -0.00000000000E+00 -0.46642316386E+03  0.46642316386E+03  0.00000000000E+00 0.  1.
         25    2    1    2    0    0  0.59857557450E+01 -0.50447344279E+02 -0.23231983841E+03  0.26865902908E+03  0.12499761107E+03 0.  0.
         25    2    1    2    0    0 -0.59857557450E+01  0.50447344279E+02 -0.19485759555E+03  0.23700986468E+03  0.12499371822E+03 0.  0.
          5    1    3    3  501    0 -0.31915979192E+02 -0.65618142446E+02 -0.70024656059E+02  0.10124185302E+03  0.47000000000E+01 0. -1.
         -5    1    3    3    0  501  0.37901734937E+02  0.15170798167E+02 -0.16229518235E+03  0.16741717607E+03  0.47000000000E+01 0. -1.
          5    1    4    4  502    0 -0.67620420939E+01  0.75618846953E+02 -0.19712447668E+03  0.21129146820E+03  0.47000000000E+01 0. -1.
         -5    1    4    4    0  502  0.77628634891E+00 -0.25171502673E+02  0.22668811309E+01  0.25718396478E+02  0.47000000000E+01 0. -1.
<mgrwt>
<rscale>  0 0.27059281E+03</rscale>
<asrwt>0</asrwt>
<pdfrwt beam="1">  1       21 0.60378043E-02 0.27059281E+03</pdfrwt>
<pdfrwt beam="2">  1       21 0.71757413E-01 0.27059281E+03</pdfrwt>
<totfact> 0.33565805E+05</totfact>
</mgrwt>
</event>
<event>
 8    1  0.9478272E-006  0.2559265E+03  0.7546771E-02  0.1109616E+00
         21   -1    0    0  504  503  0.00000000000E+00  0.00000000000E+00  0.28220317232E+03  0.28220317232E+03  0.00000000000E+00 0.  1.
         21   -1    0    0  503  504 -0.00000000000E+00 -0.00000000000E+00 -0.58024130331E+02  0.58024130331E+02  0.00000000000E+00 0.  1.
         25    2    1    2    0    0  0.20821552295E+02 -0.16778002500E+02  0.10424932115E+03  0.16494599850E+03  0.12499689218E+03 0.  0.
         25    2    1    2    0    0 -0.20821552295E+02  0.16778002500E+02  0.11992972084E+03  0.17528130415E+03  0.12500143693E+03 0.  0.
          5    1    3    3  501    0  0.29536787545E+02 -0.30166016313E+01 -0.22197541656E+02  0.37367667300E+02  0.47000000000E+01 0.  1.
         -5    1    3    3    0  501 -0.87152352497E+01 -0.13761400868E+02  0.12644686281E+03  0.12757833120E+03  0.47000000000E+01 0.  1.
          5    1    4    4  502    0 -0.25552828995E+02 -0.38717032812E+02  0.10868872378E+03  0.11826785013E+03  0.47000000000E+01 0. -1.
         -5    1    4    4    0  502  0.47312766998E+01  0.55495035311E+02  0.11240997061E+02  0.57013454012E+02  0.47000000000E+01 0. -1.
<mgrwt>
<rscale>  0 0.25592650E+03</rscale>
<asrwt>0</asrwt>
<pdfrwt beam="1">  1       21 0.43415872E-01 0.25592650E+03</pdfrwt>
<pdfrwt beam="2">  1       21 0.89267894E-02 0.25592650E+03</pdfrwt>
<totfact> 0.49898749E+05</totfact>
</mgrwt>
</event>
<event>
 8    1  0.9478272E-006  0.3787933E+03  0.7546771E-02  0.1051381E+00
         21   -1    0    0  504  503  0.00000000000E+00  0.00000000000E+00  0.61518660610E+02  0.61518660610E+02  0.00000000000E+00 0.  1.
         21   -1    0    0  503  504 -0.00000000000E+00 -0.00000000000E+00 -0.58309272435E+03  0.58309272435E+03  0.00000000000E+00 0.  1.
         25    2    1    2    0    0 -0.64623234073E+02  0.28382209243E+02 -0.50525825956E+02  0.15218526100E+03  0.12500312954E+03 0.  0.
         25    2    1    2    0    0  0.64623234073E+02 -0.28382209243E+02 -0.47104823778E+03  0.49242612395E+03  0.12496132623E+03 0.  0.
          5    1    3    3  501    0  0.19274292242E+02 -0.25628835147E+02  0.11747448810E+02  0.34473585336E+02  0.47000000000E+01 0.  1.
         -5    1    3    3    0  501 -0.83897526315E+02  0.54011044389E+02 -0.62273274766E+02  0.11771167566E+03  0.47000000000E+01 0.  1.
          5    1    4    4  502    0  0.87460908689E+02 -0.45672717764E+02 -0.43534831694E+03  0.44641421881E+03  0.47000000000E+01 0. -1.
         -5    1    4    4    0  502 -0.22837674616E+02  0.17290508521E+02 -0.35699920842E+02  0.46011905143E+02  0.47000000000E+01 0. -1.
<mgrwt>
<rscale>  0 0.37879326E+03</rscale>
<asrwt>0</asrwt>
<pdfrwt beam="1">  1       21 0.94644090E-02 0.37879326E+03</pdfrwt>
<pdfrwt beam="2">  1       21 0.89706576E-01 0.37879326E+03</pdfrwt>
<totfact> 0.89160120E+04</totfact>
</mgrwt>
</event>
<event>
 8    1  0.9478272E-006  0.4600755E+03  0.7546771E-02  0.1024759E+00
         21   -1    0    0  504  503  0.00000000000E+00  0.00000000000E+00  0.61985545332E+02  0.61985545332E+02  0.00000000000E+00 0.  1.
         21   -1    0    0  503  504 -0.00000000000E+00 -0.00000000000E+00 -0.85370497926E+03  0.85370497926E+03  0.00000000000E+00 0.  1.
         25    2    1    2    0    0 -0.18014557434E+03 -0.43990776944E+02 -0.28864095204E+03  0.36514251198E+03  0.12501135329E+03 0.  0.
         25    2    1    2    0    0  0.18014557434E+03  0.43990776944E+02 -0.50307848189E+03  0.55054801261E+03  0.12501015494E+03 0.  0.
          5    1    3    3  501    0 -0.16440966532E+03 -0.79000560385E+02 -0.25694659293E+03  0.31514325030E+03  0.47000000000E+01 0.  1.
         -5    1    3    3    0  501 -0.15735909015E+02  0.35009783441E+02 -0.31694359109E+02  0.49999261679E+02  0.47000000000E+01 0.  1.
          5    1    4    4  502    0  0.18144096732E+03  0.36304640430E+01 -0.43326753918E+03  0.46976255215E+03  0.47000000000E+01 0. -1.
         -5    1    4    4    0  502 -0.12953929803E+01  0.40360312901E+02 -0.69810942703E+02  0.80785460459E+02  0.47000000000E+01 0. -1.
<mgrwt>
<rscale>  0 0.46007551E+03</rscale>
<asrwt>0</asrwt>
<pdfrwt beam="1">  1       21 0.95362386E-02 0.46007551E+03</pdfrwt>
<pdfrwt beam="2">  1       21 0.13133922E+00 0.46007551E+03</pdfrwt>
<totfact> 0.33574954E+04</totfact>
</mgrwt>
</event>
<event>
 8    1  0.9478272E-006  0.2844686E+03  0.7546771E-02  0.1093273E+00
         21   -1    0    0  504  503  0.00000000000E+00  0.00000000000E+00  0.48598132242E+02  0.48598132242E+02  0.00000000000E+00 0.  1.
         21   -1    0    0  503  504 -0.00000000000E+00 -0.00000000000E+00 -0.41628346129E+03  0.41628346129E+03  0.00000000000E+00 0.  1.
         25    2    1    2    0    0 -0.65054490453E+02  0.14222531964E+02 -0.20524057140E+03  0.24936594911E+03  0.12500126912E+03 0.  0.
         25    2    1    2    0    0  0.65054490453E+02 -0.14222531964E+02 -0.16244475764E+03  0.21551564442E+03  0.12499730621E+03 0.  0.
          5    1    3    3  501    0  0.19206268202E+02  0.19395334634E+02 -0.33252569902E+00  0.27699464203E+02  0.47000000000E+01 0.  1.
         -5    1    3    3    0  501 -0.84260758655E+02 -0.51728026700E+01 -0.20490804570E+03  0.22166648490E+03  0.47000000000E+01 0.  1.
          5    1    4    4  502    0  0.12889352533E+02 -0.62406253985E+02 -0.10962668868E+03  0.12688883645E+03  0.47000000000E+01 0. -1.
         -5    1    4    4    0  502  0.52165137920E+02  0.48183722021E+02 -0.52818068968E+02  0.88626807973E+02  0.47000000000E+01 0. -1.
<mgrwt>
<rscale>  0 0.28446862E+03</rscale>
<asrwt>0</asrwt>
<pdfrwt beam="1">  1       21 0.74766354E-02 0.28446862E+03</pdfrwt>
<pdfrwt beam="2">  1       21 0.64043613E-01 0.28446862E+03</pdfrwt>
<totfact> 0.29694767E+05</totfact>
</mgrwt>
</event>
<event>
 8    1  0.9478272E-006  0.3018876E+03  0.7546771E-02  0.1084301E+00
         21   -1    0    0  504  503  0.00000000000E+00  0.00000000000E+00  0.14655384472E+03  0.14655384472E+03  0.00000000000E+00 0.  1.
         21   -1    0    0  503  504 -0.00000000000E+00 -0.00000000000E+00 -0.15546529334E+03  0.15546529334E+03  0.00000000000E+00 0.  1.
         25    2    1    2    0    0 -0.12695147219E+02 -0.65103232196E+02 -0.57068582822E+02  0.15254119354E+03  0.12494956973E+03 0.  0.
         25    2    1    2    0    0  0.12695147219E+02  0.65103232196E+02  0.48157134201E+02  0.14947794452E+03  0.12499979488E+03 0.  0.
          5    1    3    3  501    0 -0.28794800461E+02 -0.92922159959E+02 -0.67413988421E+02  0.11845000709E+03  0.47000000000E+01 0. -1.
         -5    1    3    3    0  501  0.16099653242E+02  0.27818927764E+02  0.10345405599E+02  0.34091186448E+02  0.47000000000E+01 0. -1.
          5    1    4    4  502    0 -0.98749820828E+01  0.99439701209E+02  0.31366080376E+02  0.10484126309E+03  0.47000000000E+01 0.  1.
         -5    1    4    4    0  502  0.22570129302E+02 -0.34336469013E+02  0.16791053824E+02  0.44636681435E+02  0.47000000000E+01 0.  1.
<mgrwt>
<rscale>  0 0.30188764E+03</rscale>
<asrwt>0</asrwt>
<pdfrwt beam="1">  1       21 0.22546745E-01 0.30188764E+03</pdfrwt>
<pdfrwt beam="2">  1       21 0.23917738E-01 0.30188764E+03</pdfrwt>
<totfact> 0.29616368E+05</totfact>
</mgrwt>
</event>
<event>
 8    1  0.9478272E-006  0.3057448E+03  0.7546771E-02  0.1082404E+00
         21   -1    0    0  504  503  0.00000000000E+00  0.00000000000E+00  0.84121747328E+03  0.84121747328E+03  0.00000000000E+00 0. -1.
         21   -1    0    0  503  504 -0.00000000000E+00 -0.00000000000E+00 -0.27781135519E+02  0.27781135519E+02  0.00000000000E+00 0. -1.
         25    2    1    2    0    0  0.21958688301E+02  0.15816636595E+02  0.16872332261E+03  0.21171927560E+03  0.12500056833E+03 0.  0.
         25    2    1    2    0    0 -0.21958688301E+02 -0.15816636595E+02  0.64471301514E+03  0.65727933319E+03  0.12501559888E+03 0.  0.
          5    1    3    3  501    0  0.24336890075E+01  0.67664953858E+02  0.11964619352E+03  0.13755642641E+03  0.47000000000E+01 0. -1.
         -5    1    3    3    0  501  0.19524999294E+02 -0.51848317263E+02  0.49077129095E+02  0.74162849195E+02  0.47000000000E+01 0. -1.
          5    1    4    4  502    0 -0.61494059898E+02 -0.97286150717E+00  0.17319499871E+03  0.18385065527E+03  0.47000000000E+01 0. -1.
         -5    1    4    4    0  502  0.39535371597E+02 -0.14843775088E+02  0.47151801643E+03  0.47342867792E+03  0.47000000000E+01 0. -1.
<mgrwt>
<rscale>  0 0.30574484E+03</rscale>
<asrwt>0</asrwt>
<pdfrwt beam="1">  1       21 0.12941805E+00 0.30574484E+03</pdfrwt>
<pdfrwt beam="2">  1       21 0.42740215E-02 0.30574484E+03</pdfrwt>
<totfact> 0.14734706E+05</totfact>
</mgrwt>
</event>
<event>
 8    1  0.9478272E-006  0.2588296E+03  0.7546771E-02  0.1107848E+00
         21   -1    0    0  504  503  0.00000000000E+00  0.00000000000E+00  0.10235296015E+04  0.10235296015E+04  0.00000000000E+00 0.  1.
         21   -1    0    0  503  504 -0.00000000000E+00 -0.00000000000E+00 -0.16363177168E+02  0.16363177168E+02  0.00000000000E+00 0.  1.
         25    2    1    2    0    0  0.19235424066E+01 -0.26288033493E+02  0.42042035501E+03  0.43940109364E+03  0.12500114185E+03 0.  0.
         25    2    1    2    0    0 -0.19235424066E+01  0.26288033493E+02  0.58674606936E+03  0.60049168507E+03  0.12499821281E+03 0.  0.
          5    1    3    3  501    0 -0.24677568635E+02  0.21640726283E+02  0.34201606235E+03  0.34361952845E+03  0.47000000000E+01 0. -1.
         -5    1    3    3    0  501  0.26601111042E+02 -0.47928759776E+02  0.78404292658E+02  0.95781565186E+02  0.47000000000E+01 0. -1.
          5    1    4    4  502    0  0.36240366614E+02 -0.37613140860E+02  0.27431425090E+03  0.27928213474E+03  0.47000000000E+01 0.  1.
         -5    1    4    4    0  502 -0.38163909021E+02  0.63901174353E+02  0.31243181846E+03  0.32120955033E+03  0.47000000000E+01 0.  1.
<mgrwt>
<rscale>  0 0.25882964E+03</rscale>
<asrwt>0</asrwt>
<pdfrwt beam="1">  1       21 0.15746604E+00 0.25882964E+03</pdfrwt>
<pdfrwt beam="2">  1       21 0.25174127E-02 0.25882964E+03</pdfrwt>
<totfact> 0.21649250E+05</totfact>
</mgrwt>
</event>
<event>
 8    1  0.9478272E-006  0.3356600E+03  0.7546771E-02  0.1068660E+00
         21   -1    0    0  504  503  0.00000000000E+00  0.00000000000E+00  0.87465942662E+02  0.87465942662E+02  0.00000000000E+00 0.  1.
         21   -1    0    0  503  504 -0.00000000000E+00 -0.00000000000E+00 -0.32203287292E+03  0.32203287292E+03  0.00000000000E+00 0.  1.
         25    2    1    2    0    0 -0.74689103731E+01 -0.31123073532E+02  0.13628333267E+02  0.12976067079E+03  0.12501067910E+03 0.  0.
         25    2    1    2    0    0  0.74689103731E+01  0.31123073532E+02 -0.24819526352E+03  0.27973814478E+03  0.12501244132E+03 0.  0.
          5    1    3    3  501    0  0.40599253940E+02  0.13155336244E+02  0.40423906277E+02  0.58970708753E+02  0.47000000000E+01 0.  1.
         -5    1    3    3    0  501 -0.48068164313E+02 -0.44278409776E+02 -0.26795573010E+02  0.70789962040E+02  0.47000000000E+01 0.  1.
          5    1    4    4  502    0  0.55390664502E+02  0.24308950837E+02 -0.20792954149E+03  0.21660063487E+03  0.47000000000E+01 0.  1.
         -5    1    4    4    0  502 -0.47921754128E+02  0.68141226949E+01 -0.40265722032E+02  0.63137509910E+02  0.47000000000E+01 0.  1.
<mgrwt>
<rscale>  0 0.33566000E+03</rscale>
<asrwt>0</asrwt>
<pdfrwt beam="1">  1       21 0.13456299E-01 0.33566000E+03</pdfrwt>
<pdfrwt beam="2">  1       21 0.49543519E-01 0.33566000E+03</pdfrwt>
<totfact> 0.17856434E+05</totfact>
</mgrwt>
</event>
<event>
 8    1  0.9478272E-006  0.2763680E+03  0.7546771E-02  0.1097689E+00
         21   -1    0    0  504  503  0.00000000000E+00  0.00000000000E+00  0.42080904325E+02  0.42080904325E+02  0.00000000000E+00 0. -1.
         21   -1    0    0  503  504 -0.00000000000E+00 -0.00000000000E+00 -0.45376436454E+03  0.45376436454E+03  0.00000000000E+00 0. -1.
         25    2    1    2    0    0  0.37398417805E+02  0.23213576376E+02 -0.27606881069E+03  0.30622994699E+03  0.12500112164E+03 0.  0.
         25    2    1    2    0    0 -0.37398417805E+02 -0.23213576376E+02 -0.13561464952E+03  0.18961532187E+03  0.12500050137E+03 0.  0.
          5    1    3    3  501    0  0.57391592025E+02 -0.12418058770E+02 -0.25153580895E+03  0.25834154951E+03  0.47000000000E+01 0. -1.
         -5    1    3    3    0  501 -0.19993174220E+02  0.35631635146E+02 -0.24533001746E+02  0.47888397480E+02  0.47000000000E+01 0. -1.
          5    1    4    4  502    0 -0.72228042851E-01 -0.45076800238E+02  0.19198003616E+01  0.45361864711E+02  0.47000000000E+01 0.  1.
         -5    1    4    4    0  502 -0.37326189762E+02  0.21863223863E+02 -0.13753444988E+03  0.14425345716E+03  0.47000000000E+01 0.  1.
<mgrwt>
<rscale>  0 0.27636798E+03</rscale>
<asrwt>0</asrwt>
<pdfrwt beam="1">  1       21 0.64739858E-02 0.27636798E+03</pdfrwt>
<pdfrwt beam="2">  1       21 0.69809897E-01 0.27636798E+03</pdfrwt>
<totfact> 0.31594728E+05</totfact>
</mgrwt>
</event>
<event>
 8    1  0.9478272E-006  0.2881262E+03  0.7546771E-02  0.1091332E+00
         21   -1    0    0  504  503  0.00000000000E+00  0.00000000000E+00  0.82703819891E+02  0.82703819891E+02  0.00000000000E+00 0.  1.
         21   -1    0    0  503  504 -0.00000000000E+00 -0.00000000000E+00 -0.25094582097E+03  0.25094582097E+03  0.00000000000E+00 0.  1.
         25    2    1    2    0    0 -0.53593630105E+02  0.19393011788E+02 -0.33939314280E+02  0.14152475773E+03  0.12501605459E+03 0.  0.
         25    2    1    2    0    0  0.53593630105E+02 -0.19393011788E+02 -0.13430268680E+03  0.19212488313E+03  0.12500557164E+03 0.  0.
          5    1    3    3  501    0  0.19797140789E+02  0.46930239339E+02  0.91327313810E+01  0.51960282238E+02  0.47000000000E+01 0.  1.
         -5    1    3    3    0  501 -0.73390770894E+02 -0.27537227551E+02 -0.43072045661E+02  0.89564475497E+02  0.47000000000E+01 0.  1.
          5    1    4    4  502    0  0.34130138856E+02 -0.53125216293E+02 -0.13002919893E+02  0.64639932784E+02  0.47000000000E+01 0. -1.
         -5    1    4    4    0  502  0.19463491249E+02  0.33732204506E+02 -0.12129976691E+03  0.12748495034E+03  0.47000000000E+01 0. -1.
<mgrwt>
<rscale>  0 0.28812621E+03</rscale>
<asrwt>0</asrwt>
<pdfrwt beam="1">  1       21 0.12723665E-01 0.28812621E+03</pdfrwt>
<pdfrwt beam="2">  1       21 0.38607049E-01 0.28812621E+03</pdfrwt>
<totfact> 0.33451730E+05</totfact>
</mgrwt>
</event>
<event>
 8    1  0.9478272E-006  0.3271842E+03  0.7546771E-02  0.1072390E+00
         21   -1    0    0  504  503  0.00000000000E+00  0.00000000000E+00  0.12539283954E+04  0.12539283954E+04  0.00000000000E+00 0.  1.
         21   -1    0    0  503  504 -0.00000000000E+00 -0.00000000000E+00 -0.21342829990E+02  0.21342829990E+02  0.00000000000E+00 0.  1.
         25    2    1    2    0    0  0.41908588606E+02  0.85148194770E+02  0.43649784669E+03  0.46385618635E+03  0.12500258628E+03 0.  0.
         25    2    1    2    0    0 -0.41908588606E+02 -0.85148194770E+02  0.79608771874E+03  0.81141503906E+03  0.12502865598E+03 0.  0.
          5    1    3    3  501    0  0.57210830273E+02  0.10777743707E+03  0.39872210863E+03  0.41700175654E+03  0.47000000000E+01 0. -1.
         -5    1    3    3    0  501 -0.15302241667E+02 -0.22629242303E+02  0.37775738059E+02  0.46854429813E+02  0.47000000000E+01 0. -1.
          5    1    4    4  502    0 -0.46017977289E+01 -0.10488387430E+03  0.42044808351E+03  0.43338260759E+03  0.47000000000E+01 0.  1.
         -5    1    4    4    0  502 -0.37306790877E+02  0.19735679532E+02  0.37563963523E+03  0.37803243147E+03  0.47000000000E+01 0.  1.
<mgrwt>
<rscale>  0 0.32718423E+03</rscale>
<asrwt>0</asrwt>
<pdfrwt beam="1">  1       21 0.19291200E+00 0.32718423E+03</pdfrwt>
<pdfrwt beam="2">  1       21 0.32835133E-02 0.32718423E+03</pdfrwt>
<totfact> 0.76335835E+04</totfact>
</mgrwt>
</event>
<event>
 8    1  0.9478272E-006  0.2849882E+03  0.7546771E-02  0.1092995E+00
         21   -1    0    0  504  503  0.00000000000E+00  0.00000000000E+00  0.65342301728E+02  0.65342301728E+02  0.00000000000E+00 0.  1.
         21   -1    0    0  503  504 -0.00000000000E+00 -0.00000000000E+00 -0.31074152099E+03  0.31074152099E+03  0.00000000000E+00 0.  1.
         25    2    1    2    0    0 -0.45248578578E+02  0.34139444427E+01 -0.55110938346E+02  0.14395075263E+03  0.12500205910E+03 0.  0.
         25    2    1    2    0    0  0.45248578578E+02 -0.34139444427E+01 -0.19028828091E+03  0.23213307008E+03  0.12496816992E+03 0.  0.
          5    1    3    3  501    0 -0.85351960353E+01 -0.44028244065E+02  0.18616569886E+02  0.48785269509E+02  0.47000000000E+01 0.  1.
         -5    1    3    3    0  501 -0.36713382542E+02  0.47442188507E+02 -0.73727508232E+02  0.95165483124E+02  0.47000000000E+01 0.  1.
          5    1    4    4  502    0 -0.33602041574E+02 -0.19105066080E+02 -0.20028513920E+02  0.43787351115E+02  0.47000000000E+01 0. -1.
         -5    1    4    4    0  502  0.78850620151E+02  0.15691121637E+02 -0.17025976699E+03  0.18834571896E+03  0.47000000000E+01 0. -1.
<mgrwt>
<rscale>  0 0.28498818E+03</rscale>
<asrwt>0</asrwt>
<pdfrwt beam="1">  1       21 0.10052662E-01 0.28498818E+03</pdfrwt>
<pdfrwt beam="2">  1       21 0.47806388E-01 0.28498818E+03</pdfrwt>
<totfact> 0.32916338E+05</totfact>
</mgrwt>
</event>
<event>
 8    1  0.9478272E-006  0.2753762E+03  0.7546771E-02  0.1098242E+00
         21   -1    0    0  504  503  0.00000000000E+00  0.00000000000E+00  0.23899971005E+03  0.23899971005E+03  0.00000000000E+00 0. -1.
         21   -1    0    0  503  504 -0.00000000000E+00 -0.00000000000E+00 -0.79322298515E+02  0.79322298515E+02  0.00000000000E+00 0. -1.
         25    2    1    2    0    0 -0.14476682446E+02 -0.52231159671E+02  0.56873453939E+02  0.14763808550E+03  0.12499898460E+03 0.  0.
         25    2    1    2    0    0  0.14476682446E+02  0.52231159671E+02  0.10280395760E+03  0.17068392307E+03  0.12500671791E+03 0.  0.
          5    1    3    3  501    0 -0.58783700529E+02 -0.66470158585E+02  0.43815004328E+02  0.99073962445E+02  0.47000000000E+01 0.  1.
         -5    1    3    3    0  501  0.44307018083E+02  0.14238998914E+02  0.13058449612E+02  0.48564123051E+02  0.47000000000E+01 0.  1.
          5    1    4    4  502    0  0.59287003724E+02  0.42566148963E+02  0.10082858888E+03  0.12456050812E+03  0.47000000000E+01 0.  1.
         -5    1    4    4    0  502 -0.44810321277E+02  0.96650107084E+01  0.19753687178E+01  0.46123414949E+02  0.47000000000E+01 0.  1.
<mgrwt>
<rscale>  0 0.27537615E+03</rscale>
<asrwt>0</asrwt>
<pdfrwt beam="1">  1       21 0.36769186E-01 0.27537615E+03</pdfrwt>
<pdfrwt beam="2">  1       21 0.12203431E-01 0.27537615E+03</pdfrwt>
<totfact> 0.39911345E+05</totfact>
</mgrwt>
</event>
<event>
 8    1  0.9478272E-006  0.2528542E+03  0.7546771E-02  0.1111514E+00
         21   -1    0    0  504  503  0.00000000000E+00  0.00000000000E+00  0.11585248951E+02  0.11585248951E+02  0.00000000000E+00 0.  1.
         21   -1    0    0  503  504 -0.00000000000E+00 -0.00000000000E+00 -0.13796688496E+04  0.13796688496E+04  0.00000000000E+00 0.  1.
         25    2    1    2    0    0 -0.53725518002E+01  0.13874531402E+02 -0.61973252836E+03  0.63238882515E+03  0.12500341009E+03 0.  0.
         25    2    1    2    0    0  0.53725518002E+01 -0.13874531402E+02 -0.74835107228E+03  0.75886527339E+03  0.12500323532E+03 0.  0.
          5    1    3    3  501    0 -0.45535406253E+01 -0.20028662502E+02 -0.57811184865E+03  0.57849570578E+03  0.47000000000E+01 0.  1.
         -5    1    3    3    0  501 -0.81901117489E+00  0.33903193904E+02 -0.41620679706E+02  0.53893119370E+02  0.47000000000E+01 0.  1.
          5    1    4    4  502    0  0.39433758632E+02 -0.54520506589E+02 -0.30747565492E+03  0.31478703170E+03  0.47000000000E+01 0. -1.
         -5    1    4    4    0  502 -0.34061206832E+02  0.40645975187E+02 -0.44087541736E+03  0.44407824169E+03  0.47000000000E+01 0. -1.
<mgrwt>
<rscale>  0 0.25285416E+03</rscale>
<asrwt>0</asrwt>
<pdfrwt beam="1">  1       21 0.17823471E-02 0.25285416E+03</pdfrwt>
<pdfrwt beam="2">  1       21 0.21225662E+00 0.25285416E+03</pdfrwt>
<totfact> 0.16174533E+05</totfact>
</mgrwt>
</event>
<event>
 8    1  0.9478272E-006  0.2664323E+03  0.7546771E-02  0.1103339E+00
         21   -1    0    0  504  503  0.00000000000E+00  0.00000000000E+00  0.34937781282E+02  0.34937781282E+02  0.00000000000E+00 0. -1.
         21   -1    0    0  503  504 -0.00000000000E+00 -0.00000000000E+00 -0.50794719303E+03  0.50794719303E+03  0.00000000000E+00 0. -1.
         25    2    1    2    0    0  0.18416505066E+02 -0.35365591900E+02 -0.18945935878E+03  0.23045544616E+03  0.12499988514E+03 0.  0.
         25    2    1    2    0    0 -0.18416505066E+02  0.35365591900E+02 -0.28355005297E+03  0.31242952815E+03  0.12498673840E+03 0.  0.
          5    1    3    3  501    0 -0.16043746542E+02  0.12081326172E+02 -0.16575047810E+03  0.16702895328E+03  0.47000000000E+01 0. -1.
         -5    1    3    3    0  501  0.34460251608E+02 -0.47446918072E+02 -0.23708880686E+02  0.63426492878E+02  0.47000000000E+01 0. -1.
          5    1    4    4  502    0 -0.24060678561E+02  0.77208919443E+02 -0.13054995485E+03  0.15364086112E+03  0.47000000000E+01 0.  1.
         -5    1    4    4    0  502  0.56441734948E+01 -0.41843327543E+02 -0.15300009812E+03  0.15878866703E+03  0.47000000000E+01 0.  1.
<mgrwt>
<rscale>  0 0.26643234E+03</rscale>
<asrwt>0</asrwt>
<pdfrwt beam="1">  1       21 0.53750440E-02 0.26643234E+03</pdfrwt>
<pdfrwt beam="2">  1       21 0.78145711E-01 0.26643234E+03</pdfrwt>
<totfact> 0.33861426E+05</totfact>
</mgrwt>
</event>
<event>
 8    1  0.9478272E-006  0.3138055E+03  0.7546771E-02  0.1078536E+00
         21   -1    0    0  504  503  0.00000000000E+00  0.00000000000E+00  0.15563738761E+03  0.15563738761E+03  0.00000000000E+00 0. -1.
         21   -1    0    0  503  504 -0.00000000000E+00 -0.00000000000E+00 -0.15817842479E+03  0.15817842479E+03  0.00000000000E+00 0. -1.
         25    2    1    2    0    0 -0.26756198397E+02 -0.13885718342E+02 -0.91200949632E+02  0.15764279023E+03  0.12499971508E+03 0.  0.
         25    2    1    2    0    0  0.26756198397E+02  0.13885718342E+02  0.88659912447E+02  0.15617302218E+03  0.12498290065E+03 0.  0.
          5    1    3    3  501    0 -0.10582501139E+01 -0.22023538008E+02 -0.11752852855E+03  0.11967122103E+03  0.47000000000E+01 0. -1.
         -5    1    3    3    0  501 -0.25697948284E+02  0.81378196662E+01  0.26327578923E+02  0.37971569191E+02  0.47000000000E+01 0. -1.
          5    1    4    4  502    0  0.54504592164E+02  0.55578433700E+02  0.48839148782E+02  0.92016657804E+02  0.47000000000E+01 0. -1.
         -5    1    4    4    0  502 -0.27748393767E+02 -0.41692715359E+02  0.39820763665E+02  0.64156364372E+02  0.47000000000E+01 0. -1.
<mgrwt>
<rscale>  0 0.31380552E+03</rscale>
<asrwt>0</asrwt>
<pdfrwt beam="1">  1       21 0.23944214E-01 0.31380552E+03</pdfrwt>
<pdfrwt beam="2">  1       21 0.24335142E-01 0.31380552E+03</pdfrwt>
<totfact> 0.25471049E+05</totfact>
</mgrwt>
</event>
<event>
 8    1  0.9478272E-006  0.3149241E+03  0.7546771E-02  0.1078009E+00
         21   -1    0    0  504  503  0.00000000000E+00  0.00000000000E+00  0.70651256299E+02  0.70651256299E+02  0.00000000000E+00 0. -1.
         21   -1    0    0  503  504 -0.00000000000E+00 -0.00000000000E+00 -0.35093932330E+03  0.35093932330E+03  0.00000000000E+00 0. -1.
         25    2    1    2    0    0  0.22276895311E+02  0.62435241298E+02 -0.47644826332E+02  0.14929399485E+03  0.12499699197E+03 0.  0.
         25    2    1    2    0    0 -0.22276895311E+02 -0.62435241298E+02 -0.23264324067E+03  0.27229658474E+03  0.12501253223E+03 0.  0.
          5    1    3    3  501    0 -0.13119888476E+01 -0.31573675149E+02  0.13408277716E+02  0.34648090690E+02  0.47000000000E+01 0. -1.
         -5    1    3    3    0  501  0.23588884158E+02  0.94008916447E+02 -0.61053104047E+02  0.11464590416E+03  0.47000000000E+01 0. -1.
          5    1    4    4  502    0 -0.40727267832E+02 -0.40369129059E+02 -0.25195375645E+02  0.62811415204E+02  0.47000000000E+01 0. -1.
         -5    1    4    4    0  502  0.18450372521E+02 -0.22066112239E+02 -0.20744786502E+03  0.20948516954E+03  0.47000000000E+01 0. -1.
<mgrwt>
<rscale>  0 0.31492414E+03</rscale>
<asrwt>0</asrwt>
<pdfrwt beam="1">  1       21 0.10869424E-01 0.31492414E+03</pdfrwt>
<pdfrwt beam="2">  1       21 0.53990665E-01 0.31492414E+03</pdfrwt>
<totfact> 0.21999053E+05</totfact>
</mgrwt>
</event>
<event>
 8    1  0.9478272E-006  0.2935517E+03  0.7546771E-02  0.1088509E+00
         21   -1    0    0  504  503  0.00000000000E+00  0.00000000000E+00  0.71706323937E+02  0.71706323937E+02  0.00000000000E+00 0. -1.
         21   -1    0    0  503  504 -0.00000000000E+00 -0.00000000000E+00 -0.30043580517E+03  0.30043580517E+03  0.00000000000E+00 0. -1.
         25    2    1    2    0    0  0.68581749167E+02  0.18135021562E+02 -0.15210497201E+03  0.20926860474E+03  0.12500036438E+03 0.  0.
         25    2    1    2    0    0 -0.68581749167E+02 -0.18135021562E+02 -0.76624509228E+02  0.16287352437E+03  0.12499653676E+03 0.  0.
          5    1    3    3  501    0  0.37536742933E+02 -0.47900543653E+02 -0.10749276418E+03  0.12361332252E+03  0.47000000000E+01 0.  1.
         -5    1    3    3    0  501  0.31045006233E+02  0.66035565215E+02 -0.44612207826E+02  0.85655282222E+02  0.47000000000E+01 0.  1.
          5    1    4    4  502    0  0.33429446609E+02  0.85042352113E+01 -0.46312123503E+01  0.35119624783E+02  0.47000000000E+01 0.  1.
         -5    1    4    4    0  502 -0.10201119578E+03 -0.26639256773E+02 -0.71993296878E+02  0.12775389959E+03  0.47000000000E+01 0.  1.
<mgrwt>
<rscale>  0 0.29355168E+03</rscale>
<asrwt>0</asrwt>
<pdfrwt beam="1">  1       21 0.11031742E-01 0.29355168E+03</pdfrwt>
<pdfrwt beam="2">  1       21 0.46220894E-01 0.29355168E+03</pdfrwt>
<totfact> 0.29855624E+05</totfact>
</mgrwt>
</event>
<event>
 8    1  0.9478272E-006  0.2903349E+03  0.7546771E-02  0.1090174E+00
         21   -1    0    0  504  503  0.00000000000E+00  0.00000000000E+00  0.89086537178E+02  0.89086537178E+02  0.00000000000E+00 0. -1.
         21   -1    0    0  503  504 -0.00000000000E+00 -0.00000000000E+00 -0.23655180759E+03  0.23655180759E+03  0.00000000000E+00 0. -1.
         25    2    1    2    0    0 -0.52164321946E+02  0.14176791087E+02 -0.17315439843E+02  0.13728000997E+03  0.12499551508E+03 0.  0.
         25    2    1    2    0    0  0.52164321946E+02 -0.14176791087E+02 -0.13014983056E+03  0.18835833479E+03  0.12497114067E+03 0.  0.
          5    1    3    3  501    0 -0.33077215973E+02  0.55500587437E+02 -0.49336356834E+02  0.81428395097E+02  0.47000000000E+01 0.  1.
         -5    1    3    3    0  501 -0.19087105973E+02 -0.41323796350E+02  0.32020916991E+02  0.55851614875E+02  0.47000000000E+01 0.  1.
          5    1    4    4  502    0  0.16030489894E+02  0.41120426292E+02 -0.23819052343E+01  0.44448054369E+02  0.47000000000E+01 0. -1.
         -5    1    4    4    0  502  0.36133832051E+02 -0.55297217378E+02 -0.12776792533E+03  0.14391028042E+03  0.47000000000E+01 0. -1.
<mgrwt>
<rscale>  0 0.29033485E+03</rscale>
<asrwt>0</asrwt>
<pdfrwt beam="1">  1       21 0.13705621E-01 0.29033485E+03</pdfrwt>
<pdfrwt beam="2">  1       21 0.36392585E-01 0.29033485E+03</pdfrwt>
<totfact> 0.32911773E+05</totfact>
</mgrwt>
</event>
<event>
 8    1  0.9478272E-006  0.4270479E+03  0.7546771E-02  0.1034797E+00
         21   -1    0    0  504  503  0.00000000000E+00  0.00000000000E+00  0.11430388467E+04  0.11430388467E+04  0.00000000000E+00 0. -1.
         21   -1    0    0  503  504 -0.00000000000E+00 -0.00000000000E+00 -0.39887085156E+02  0.39887085156E+02  0.00000000000E+00 0. -1.
         25    2    1    2    0    0 -0.15329315707E+02  0.48731898165E+02  0.93402268410E+02  0.16418711291E+03  0.12499455381E+03 0.  0.
         25    2    1    2    0    0  0.15329315707E+02 -0.48731898165E+02  0.10097494932E+04  0.10187388190E+04  0.12499982610E+03 0.  0.
          5    1    3    3  501    0 -0.17933498342E+02  0.80911735530E+02  0.22291838521E+02  0.85949609504E+02  0.47000000000E+01 0.  1.
         -5    1    3    3    0  501  0.26041826350E+01 -0.32179837365E+02  0.71110429889E+02  0.78237503405E+02  0.47000000000E+01 0.  1.
          5    1    4    4  502    0 -0.52631129495E+02 -0.33098488778E+02  0.58013258253E+03  0.58347360614E+03  0.47000000000E+01 0.  1.
         -5    1    4    4    0  502  0.67960445203E+02 -0.15633409387E+02  0.42961691064E+03  0.43526521284E+03  0.47000000000E+01 0.  1.
<mgrwt>
<rscale>  0 0.42704795E+03</rscale>
<asrwt>0</asrwt>
<pdfrwt beam="1">  1       21 0.17585211E+00 0.42704795E+03</pdfrwt>
<pdfrwt beam="2">  1       21 0.61364755E-02 0.42704795E+03</pdfrwt>
<totfact> 0.33246633E+04</totfact>
</mgrwt>
</event>
<event>
 8    1  0.9478272E-006  0.3385356E+03  0.7546771E-02  0.1067421E+00
         21   -1    0    0  504  503  0.00000000000E+00  0.00000000000E+00  0.25666922223E+03  0.25666922223E+03  0.00000000000E+00 0. -1.
         21   -1    0    0  503  504 -0.00000000000E+00 -0.00000000000E+00 -0.11162844618E+03  0.11162844618E+03  0.00000000000E+00 0. -1.
         25    2    1    2    0    0 -0.86262470754E+02  0.33822807680E+02  0.14501889943E+03  0.21269956937E+03  0.12500171773E+03 0.  0.
         25    2    1    2    0    0  0.86262470754E+02 -0.33822807680E+02  0.21876617026E-01  0.15559809904E+03  0.12500228704E+03 0.  0.
          5    1    3    3  501    0  0.26600688650E+02  0.20750844254E+01  0.12434783054E+01  0.27120819499E+02  0.47000000000E+01 0. -1.
         -5    1    3    3    0  501 -0.11286315940E+03  0.31747723254E+02  0.14377542113E+03  0.18557874987E+03  0.47000000000E+01 0. -1.
          5    1    4    4  502    0  0.14482518550E+02 -0.66150271078E+02 -0.25795111459E+02  0.72615972640E+02  0.47000000000E+01 0.  1.
         -5    1    4    4    0  502  0.71779952204E+02  0.32327463398E+02  0.25816988076E+02  0.82982126398E+02  0.47000000000E+01 0.  1.
<mgrwt>
<rscale>  0 0.33853559E+03</rscale>
<asrwt>0</asrwt>
<pdfrwt beam="1">  1       21 0.39487572E-01 0.33853559E+03</pdfrwt>
<pdfrwt beam="2">  1       21 0.17173607E-01 0.33853559E+03</pdfrwt>
<totfact> 0.18220838E+05</totfact>
</mgrwt>
</event>
<event>
 8    1  0.9478272E-006  0.3036659E+03  0.7546771E-02  0.1083422E+00
         21   -1    0    0  504  503  0.00000000000E+00  0.00000000000E+00  0.11497581722E+04  0.11497581722E+04  0.00000000000E+00 0. -1.
         21   -1    0    0  503  504 -0.00000000000E+00 -0.00000000000E+00 -0.20050515453E+02  0.20050515453E+02  0.00000000000E+00 0. -1.
         25    2    1    2    0    0  0.85016783773E+01 -0.12446618541E+02  0.23794632379E+03  0.26920316907E+03  0.12499878553E+03 0.  0.
         25    2    1    2    0    0 -0.85016783773E+01  0.12446618541E+02  0.89176133296E+03  0.90060551859E+03  0.12499931318E+03 0.  0.
          5    1    3    3  501    0 -0.35060245241E+02 -0.17012482422E+02  0.15119231170E+02  0.42063362986E+02  0.47000000000E+01 0. -1.
         -5    1    3    3    0  501  0.43561923619E+02  0.45658638808E+01  0.22282709262E+03  0.22713980608E+03  0.47000000000E+01 0. -1.
          5    1    4    4  502    0  0.57774478395E+02  0.52040717339E+00  0.44941591822E+03  0.45313896183E+03  0.47000000000E+01 0. -1.
         -5    1    4    4    0  502 -0.66276156773E+02  0.11926211368E+02  0.44234541474E+03  0.44746655676E+03  0.47000000000E+01 0. -1.
<mgrwt>
<rscale>  0 0.30366590E+03</rscale>
<asrwt>0</asrwt>
<pdfrwt beam="1">  1       21 0.17688582E+00 0.30366590E+03</pdfrwt>
<pdfrwt beam="2">  1       21 0.30846956E-02 0.30366590E+03</pdfrwt>
<totfact> 0.11005281E+05</totfact>
</mgrwt>
</event>
<event>
 8    1  0.9478272E-006  0.3223509E+03  0.7546771E-02  0.1074572E+00
         21   -1    0    0  504  503  0.00000000000E+00  0.00000000000E+00  0.15209575436E+03  0.15209575436E+03  0.00000000000E+00 0. -1.
         21   -1    0    0  503  504 -0.00000000000E+00 -0.00000000000E+00 -0.17079717690E+03  0.17079717690E+03  0.00000000000E+00 0. -1.
         25    2    1    2    0    0 -0.95237038091E+02  0.35298461143E+02 -0.15335896221E+02  0.16179311343E+03  0.12500298819E+03 0.  0.
         25    2    1    2    0    0  0.95237038091E+02 -0.35298461143E+02 -0.33655263131E+01  0.16109981782E+03  0.12500299897E+03 0.  0.
          5    1    3    3  501    0  0.12535400408E+02 -0.18644402014E+02 -0.32687284033E+02  0.39941188356E+02  0.47000000000E+01 0. -1.
         -5    1    3    3    0  501 -0.10777243850E+03  0.53942863157E+02  0.17351387811E+02  0.12185192508E+03  0.47000000000E+01 0. -1.
          5    1    4    4  502    0  0.83586496800E+02 -0.72788222863E+02 -0.28128048326E+02  0.11444695250E+03  0.47000000000E+01 0. -1.
         -5    1    4    4    0  502  0.11650541291E+02  0.37489761720E+02  0.24762522013E+02  0.46652865321E+02  0.47000000000E+01 0. -1.
<mgrwt>
<rscale>  0 0.32235090E+03</rscale>
<asrwt>0</asrwt>
<pdfrwt beam="1">  1       21 0.23399347E-01 0.32235090E+03</pdfrwt>
<pdfrwt beam="2">  1       21 0.26276489E-01 0.32235090E+03</pdfrwt>
<totfact> 0.22911810E+05</totfact>
</mgrwt>
</event>
<event>
 8    1  0.9478272E-006  0.2513450E+03  0.7546771E-02  0.1112458E+00
         21   -1    0    0  504  503  0.00000000000E+00  0.00000000000E+00  0.30707325321E+02  0.30707325321E+02  0.00000000000E+00 0. -1.
         21   -1    0    0  503  504 -0.00000000000E+00 -0.00000000000E+00 -0.51432617454E+03  0.51432617454E+03  0.00000000000E+00 0. -1.
         25    2    1    2    0    0  0.11279878547E+02 -0.51783457229E+01 -0.23369708745E+03  0.26531879617E+03  0.12500273595E+03 0.  0.
         25    2    1    2    0    0 -0.11279878547E+02  0.51783457229E+01 -0.24992176178E+03  0.27971470370E+03  0.12500151011E+03 0.  0.
          5    1    3    3  501    0  0.30155809767E+02 -0.34524803190E+02 -0.22415239460E+03  0.22883994604E+03  0.47000000000E+01 0. -1.
         -5    1    3    3    0  501 -0.18875931220E+02  0.29346457467E+02 -0.95446928461E+01  0.36478850130E+02  0.47000000000E+01 0. -1.
          5    1    4    4  502    0 -0.40148697910E+02 -0.24870820763E+02 -0.22703292515E+03  0.23194075703E+03  0.47000000000E+01 0.  1.
         -5    1    4    4    0  502  0.28868819363E+02  0.30049166486E+02 -0.22888836624E+02  0.47773946664E+02  0.47000000000E+01 0.  1.
<mgrwt>
<rscale>  0 0.25134503E+03</rscale>
<asrwt>0</asrwt>
<pdfrwt beam="1">  1       21 0.47242041E-02 0.25134503E+03</pdfrwt>
<pdfrwt beam="2">  1       21 0.79127100E-01 0.25134503E+03</pdfrwt>
<totfact> 0.41164092E+05</totfact>
</mgrwt>
</event>
<event>
 8    1  0.9478272E-006  0.2718446E+03  0.7546771E-02  0.1100229E+00
         21   -1    0    0  504  503  0.00000000000E+00  0.00000000000E+00  0.25726037212E+03  0.25726037212E+03  0.00000000000E+00 0. -1.
         21   -1    0    0  503  504 -0.00000000000E+00 -0.00000000000E+00 -0.71813897028E+02  0.71813897028E+02  0.00000000000E+00 0. -1.
         25    2    1    2    0    0 -0.11821219951E+02  0.43952021951E+02  0.59022322986E+02  0.14553626058E+03  0.12500258821E+03 0.  0.
         25    2    1    2    0    0  0.11821219951E+02 -0.43952021951E+02  0.12642415211E+03  0.18353800857E+03  0.12502644871E+03 0.  0.
          5    1    3    3  501    0  0.57445068644E+01 -0.21710431782E+00  0.88891074024E+02  0.89200670034E+02  0.47000000000E+01 0.  1.
         -5    1    3    3    0  501 -0.17565726815E+02  0.44169126268E+02 -0.29868751038E+02  0.56335590548E+02  0.47000000000E+01 0.  1.
          5    1    4    4  502    0  0.32056448636E+00 -0.33153796097E+02 -0.18109554438E+02  0.38069973984E+02  0.47000000000E+01 0. -1.
         -5    1    4    4    0  502  0.11500655465E+02 -0.10798225854E+02  0.14453370654E+03  0.14546803458E+03  0.47000000000E+01 0. -1.
<mgrwt>
<rscale>  0 0.27184459E+03</rscale>
<asrwt>0</asrwt>
<pdfrwt beam="1">  1       21 0.39578518E-01 0.27184459E+03</pdfrwt>
<pdfrwt beam="2">  1       21 0.11048292E-01 0.27184459E+03</pdfrwt>
<totfact> 0.41150160E+05</totfact>
</mgrwt>
</event>
<event>
 8    1  0.9478272E-006  0.2631583E+03  0.7546771E-02  0.1105260E+00
         21   -1    0    0  504  503  0.00000000000E+00  0.00000000000E+00  0.95403088071E+02  0.95403088071E+02  0.00000000000E+00 0. -1.
         21   -1    0    0  503  504 -0.00000000000E+00 -0.00000000000E+00 -0.18147286695E+03  0.18147286695E+03  0.00000000000E+00 0. -1.
         25    2    1    2    0    0 -0.63468367348E+01 -0.29802349929E+02 -0.14043643777E+02  0.12942402325E+03  0.12499956586E+03 0.  0.
         25    2    1    2    0    0  0.63468367348E+01  0.29802349929E+02 -0.72026135097E+02  0.14745193177E+03  0.12500338254E+03 0.  0.
          5    1    3    3  501    0 -0.36240677206E+02 -0.62762028120E+02 -0.34287556263E+02  0.80313046092E+02  0.47000000000E+01 0.  1.
         -5    1    3    3    0  501  0.29893840471E+02  0.32959678191E+02  0.20243912486E+02  0.49110977157E+02  0.47000000000E+01 0.  1.
          5    1    4    4  502    0 -0.51151143301E+02 -0.80847570082E+01 -0.56349242215E+02  0.76675484055E+02  0.47000000000E+01 0. -1.
         -5    1    4    4    0  502  0.57497980036E+02  0.37887106937E+02 -0.15676892883E+02  0.70776447713E+02  0.47000000000E+01 0. -1.
<mgrwt>
<rscale>  0 0.26315829E+03</rscale>
<asrwt>0</asrwt>
<pdfrwt beam="1">  1       21 0.14677398E-01 0.26315829E+03</pdfrwt>
<pdfrwt beam="2">  1       21 0.27918903E-01 0.26315829E+03</pdfrwt>
<totfact> 0.49324431E+05</totfact>
</mgrwt>
</event>
<event>
 8    1  0.9478272E-006  0.2840692E+03  0.7546771E-02  0.1093487E+00
         21   -1    0    0  504  503  0.00000000000E+00  0.00000000000E+00  0.15111727853E+04  0.15111727853E+04  0.00000000000E+00 0. -1.
         21   -1    0    0  503  504 -0.00000000000E+00 -0.00000000000E+00 -0.13349785426E+02  0.13349785426E+02  0.00000000000E+00 0. -1.
         25    2    1    2    0    0 -0.63813165791E+02  0.17841492298E+02  0.68250888524E+03  0.69702363835E+03  0.12503253581E+03 0.  0.
         25    2    1    2    0    0  0.63813165791E+02 -0.17841492298E+02  0.81531411468E+03  0.82749893242E+03  0.12500775411E+03 0.  0.
          5    1    3    3  501    0  0.15904904058E+02 -0.17064251890E+02  0.41488153708E+03  0.41556339405E+03  0.47000000000E+01 0.  1.
         -5    1    3    3    0  501 -0.79718069849E+02  0.34905744189E+02  0.26762734816E+03  0.28146024430E+03  0.47000000000E+01 0.  1.
          5    1    4    4  502    0 -0.21637552520E+02 -0.13525269129E+00  0.29734956411E+02  0.37073705036E+02  0.47000000000E+01 0.  1.
         -5    1    4    4    0  502  0.85450718311E+02 -0.17706239607E+02  0.78557915827E+03  0.79042522738E+03  0.47000000000E+01 0.  1.
<mgrwt>
<rscale>  0 0.28406923E+03</rscale>
<asrwt>0</asrwt>
<pdfrwt beam="1">  1       21 0.23248799E+00 0.28406923E+03</pdfrwt>
<pdfrwt beam="2">  1       21 0.20538143E-02 0.28406923E+03</pdfrwt>
<totfact> 0.94632599E+04</totfact>
</mgrwt>
</event>
<event>
 8    1  0.9478272E-006  0.3937300E+03  0.7546771E-02  0.1045973E+00
         21   -1    0    0  504  503  0.00000000000E+00  0.00000000000E+00  0.37860634679E+03  0.37860634679E+03  0.00000000000E+00 0.  1.
         21   -1    0    0  503  504 -0.00000000000E+00 -0.00000000000E+00 -0.10236443611E+03  0.10236443611E+03  0.00000000000E+00 0.  1.
         25    2    1    2    0    0 -0.14856362303E+03  0.27174360070E+02  0.16003682527E+03  0.25307305633E+03  0.12499836186E+03 0.  0.
         25    2    1    2    0    0  0.14856362303E+03 -0.27174360070E+02  0.11620508540E+03  0.22789772657E+03  0.12499662383E+03 0.  0.
          5    1    3    3  501    0 -0.13155221129E+03  0.66035740830E+02  0.14785808018E+03  0.20868829683E+03  0.47000000000E+01 0. -1.
         -5    1    3    3    0  501 -0.17011411743E+02 -0.38861380760E+02  0.12178745097E+02  0.44384759503E+02  0.47000000000E+01 0. -1.
          5    1    4    4  502    0  0.66928029558E+02 -0.58725001583E+02  0.92854709082E+01  0.89645395428E+02  0.47000000000E+01 0.  1.
         -5    1    4    4    0  502  0.81635593471E+02  0.31550641514E+02  0.10691961450E+03  0.13825233114E+03  0.47000000000E+01 0.  1.
<mgrwt>
<rscale>  0 0.39372998E+03</rscale>
<asrwt>0</asrwt>
<pdfrwt beam="1">  1       21 0.58247129E-01 0.39372998E+03</pdfrwt>
<pdfrwt beam="2">  1       21 0.15748375E-01 0.39372998E+03</pdfrwt>
<totfact> 0.93334396E+04</totfact>
</mgrwt>
</event>
<event>
 8    1  0.9478272E-006  0.3197273E+03  0.7546771E-02  0.1075775E+00
         21   -1    0    0  504  503  0.00000000000E+00  0.00000000000E+00  0.60253617697E+03  0.60253617697E+03  0.00000000000E+00 0.  1.
         21   -1    0    0  503  504 -0.00000000000E+00 -0.00000000000E+00 -0.42414680853E+02  0.42414680853E+02  0.00000000000E+00 0.  1.
         25    2    1    2    0    0  0.88033936730E+02  0.39492849029E+02  0.22978024223E+03  0.27880819547E+03  0.12500156399E+03 0.  0.
         25    2    1    2    0    0 -0.88033936730E+02 -0.39492849029E+02  0.33034125388E+03  0.36614266236E+03  0.12500178414E+03 0.  0.
          5    1    3    3  501    0 -0.27793412121E+02  0.27349371559E+02  0.39753194412E+02  0.55882630109E+02  0.47000000000E+01 0.  1.
         -5    1    3    3    0  501  0.11582734885E+03  0.12143477469E+02  0.19002704782E+03  0.22292556536E+03  0.47000000000E+01 0.  1.
          5    1    4    4  502    0 -0.36137248948E+01 -0.66050373096E+02  0.17725412858E+03  0.18925334050E+03  0.47000000000E+01 0. -1.
         -5    1    4    4    0  502 -0.84420211835E+02  0.26557524067E+02  0.15308712531E+03  0.17688932185E+03  0.47000000000E+01 0. -1.
<mgrwt>
<rscale>  0 0.31972726E+03</rscale>
<asrwt>0</asrwt>
<pdfrwt beam="1">  1       21 0.92697867E-01 0.31972726E+03</pdfrwt>
<pdfrwt beam="2">  1       21 0.65253360E-02 0.31972726E+03</pdfrwt>
<totfact> 0.16115094E+05</totfact>
</mgrwt>
</event>
<event>
 8    1  0.9478272E-006  0.2678790E+03  0.7546771E-02  0.1102500E+00
         21   -1    0    0  504  503  0.00000000000E+00  0.00000000000E+00  0.23224409429E+03  0.23224409429E+03  0.00000000000E+00 0.  1.
         21   -1    0    0  503  504 -0.00000000000E+00 -0.00000000000E+00 -0.77245397745E+02  0.77245397745E+02  0.00000000000E+00 0.  1.
         25    2    1    2    0    0  0.62477121511E+01  0.23504997996E+02  0.29525027633E+02  0.13072385938E+03  0.12500192525E+03 0.  0.
         25    2    1    2    0    0 -0.62477121511E+01 -0.23504997996E+02  0.12547366891E+03  0.17876563265E+03  0.12498796338E+03 0.  0.
          5    1    3    3  501    0 -0.10687206297E+02  0.64620053510E+02 -0.15284091159E+02  0.67421518350E+02  0.47000000000E+01 0.  1.
         -5    1    3    3    0  501  0.16934918448E+02 -0.41115055514E+02  0.44809118792E+02  0.63302341029E+02  0.47000000000E+01 0.  1.
          5    1    4    4  502    0 -0.58321343302E+02 -0.11662319921E+02  0.24605548930E+02  0.64536128088E+02  0.47000000000E+01 0.  1.
         -5    1    4    4    0  502  0.52073631151E+02 -0.11842678074E+02  0.10086811998E+03  0.11422950457E+03  0.47000000000E+01 0.  1.
<mgrwt>
<rscale>  0 0.26787898E+03</rscale>
<asrwt>0</asrwt>
<pdfrwt beam="1">  1       21 0.35729860E-01 0.26787898E+03</pdfrwt>
<pdfrwt beam="2">  1       21 0.11883907E-01 0.26787898E+03</pdfrwt>
<totfact> 0.44411962E+05</totfact>
</mgrwt>
</event>
<event>
 8    1  0.9478272E-006  0.3695551E+03  0.7546771E-02  0.1054863E+00
         21   -1    0    0  504  503  0.00000000000E+00  0.00000000000E+00  0.60008638229E+03  0.60008638229E+03  0.00000000000E+00 0. -1.
         21   -1    0    0  503  504 -0.00000000000E+00 -0.00000000000E+00 -0.56896373634E+02  0.56896373634E+02  0.00000000000E+00 0. -1.
         25    2    1    2    0    0 -0.13683705302E+02 -0.13407212414E+03  0.23811381516E+03  0.30080838206E+03  0.12499966193E+03 0.  0.
         25    2    1    2    0    0  0.13683705302E+02  0.13407212414E+03  0.30507619349E+03  0.35617437387E+03  0.12500448992E+03 0.  0.
          5    1    3    3  501    0  0.42516006031E+02 -0.42653864822E+02  0.15057865630E+03  0.16224359675E+03  0.47000000000E+01 0.  1.
         -5    1    3    3    0  501 -0.56199711333E+02 -0.91418259317E+02  0.87535158860E+02  0.13856478531E+03  0.47000000000E+01 0.  1.
          5    1    4    4  502    0 -0.38057397422E+02 -0.14544671791E+01  0.55812463950E+02  0.67731839673E+02  0.47000000000E+01 0.  1.
         -5    1    4    4    0  502  0.51741102724E+02  0.13552659132E+03  0.24926372954E+03  0.28844253419E+03  0.47000000000E+01 0.  1.
<mgrwt>
<rscale>  0 0.36955508E+03</rscale>
<asrwt>0</asrwt>
<pdfrwt beam="1">  1       21 0.92320978E-01 0.36955508E+03</pdfrwt>
<pdfrwt beam="2">  1       21 0.87532886E-02 0.36955508E+03</pdfrwt>
<totfact> 0.95954187E+04</totfact>
</mgrwt>
</event>
<event>
 8    1  0.9478272E-006  0.2532091E+03  0.7546771E-02  0.1111293E+00
         21   -1    0    0  504  503  0.00000000000E+00  0.00000000000E+00  0.59010042398E+03  0.59010042398E+03  0.00000000000E+00 0. -1.
         21   -1    0    0  503  504 -0.00000000000E+00 -0.00000000000E+00 -0.27162680623E+02  0.27162680623E+02  0.00000000000E+00 0. -1.
         25    2    1    2    0    0 -0.14892712759E+02  0.10788602883E+02  0.30110764848E+03  0.32654294138E+03  0.12500515887E+03 0.  0.
         25    2    1    2    0    0  0.14892712759E+02 -0.10788602883E+02  0.26183009487E+03  0.29072016322E+03  0.12500011151E+03 0.  0.
          5    1    3    3  501    0  0.31256978446E+02  0.20975599861E+02  0.26280446154E+03  0.26552824613E+03  0.47000000000E+01 0. -1.
         -5    1    3    3    0  501 -0.46149691205E+02 -0.10186996978E+02  0.38303186950E+02  0.61014695248E+02  0.47000000000E+01 0. -1.
          5    1    4    4  502    0  0.19236070395E+02 -0.43583625505E+02  0.30000390629E+02  0.56494886975E+02  0.47000000000E+01 0.  1.
         -5    1    4    4    0  502 -0.43433576362E+01  0.32795022622E+02  0.23182970424E+03  0.23422527625E+03  0.47000000000E+01 0.  1.
<mgrwt>
<rscale>  0 0.25320908E+03</rscale>
<asrwt>0</asrwt>
<pdfrwt beam="1">  1       21 0.90784671E-01 0.25320908E+03</pdfrwt>
<pdfrwt beam="2">  1       21 0.41788744E-02 0.25320908E+03</pdfrwt>
<totfact> 0.36910397E+05</totfact>
</mgrwt>
</event>
<event>
 8    1  0.9478272E-006  0.3017797E+03  0.7546771E-02  0.1084354E+00
         21   -1    0    0  504  503  0.00000000000E+00  0.00000000000E+00  0.85977589622E+03  0.85977589622E+03  0.00000000000E+00 0. -1.
         21   -1    0    0  503  504 -0.00000000000E+00 -0.00000000000E+00 -0.26481030567E+02  0.26481030567E+02  0.00000000000E+00 0. -1.
         25    2    1    2    0    0  0.26481721502E+02 -0.41380509733E+02  0.61858979545E+03  0.63300433939E+03  0.12501012154E+03 0.  0.
         25    2    1    2    0    0 -0.26481721502E+02  0.41380509733E+02  0.21470507021E+03  0.25325258740E+03  0.12499991078E+03 0.  0.
          5    1    3    3  501    0  0.27145718228E+02 -0.85336709245E+02  0.38977245296E+03  0.39995487126E+03  0.47000000000E+01 0.  1.
         -5    1    3    3    0  501 -0.66399672674E+00  0.43956199512E+02  0.22881734249E+03  0.23304946812E+03  0.47000000000E+01 0.  1.
          5    1    4    4  502    0  0.58110304764E+01  0.47479838692E+01 -0.15514688940E+02  0.17863566243E+02  0.47000000000E+01 0. -1.
         -5    1    4    4    0  502 -0.32292751978E+02  0.36632525864E+02  0.23021975915E+03  0.23538902116E+03  0.47000000000E+01 0. -1.
<mgrwt>
<rscale>  0 0.30177973E+03</rscale>
<asrwt>0</asrwt>
<pdfrwt beam="1">  1       21 0.13227319E+00 0.30177973E+03</pdfrwt>
<pdfrwt beam="2">  1       21 0.40740054E-02 0.30177973E+03</pdfrwt>
<totfact> 0.15129366E+05</totfact>
</mgrwt>
</event>
<event>
 8    1  0.9478272E-006  0.2803488E+03  0.7546771E-02  0.1095499E+00
         21   -1    0    0  504  503  0.00000000000E+00  0.00000000000E+00  0.49666708562E+03  0.49666708562E+03  0.00000000000E+00 0. -1.
         21   -1    0    0  503  504 -0.00000000000E+00 -0.00000000000E+00 -0.39561448648E+02  0.39561448648E+02  0.00000000000E+00 0. -1.
         25    2    1    2    0    0  0.47855415041E+02  0.33684163176E+02  0.27542842023E+03  0.30807698677E+03  0.12500340598E+03 0.  0.
         25    2    1    2    0    0 -0.47855415041E+02 -0.33684163176E+02  0.18167721674E+03  0.22815154750E+03  0.12498701512E+03 0.  0.
          5    1    3    3  501    0 -0.41864069345E+01 -0.42045395066E+02  0.12177241868E+03  0.12898043728E+03  0.47000000000E+01 0.  1.
         -5    1    3    3    0  501  0.52041821975E+02  0.75729558242E+02  0.15365600156E+03  0.17909654949E+03  0.47000000000E+01 0.  1.
          5    1    4    4  502    0 -0.15125917536E+02 -0.62418107680E+02  0.17148235327E+03  0.18317505570E+03  0.47000000000E+01 0. -1.
         -5    1    4    4    0  502 -0.32729497505E+02  0.28733944504E+02  0.10194863471E+02  0.44976491803E+02  0.47000000000E+01 0. -1.
<mgrwt>
<rscale>  0 0.28034885E+03</rscale>
<asrwt>0</asrwt>
<pdfrwt beam="1">  1       21 0.76410316E-01 0.28034885E+03</pdfrwt>
<pdfrwt beam="2">  1       21 0.60863771E-02 0.28034885E+03</pdfrwt>
<totfact> 0.28682030E+05</totfact>
</mgrwt>
</event>
<event>
 8    1  0.9478272E-006  0.3901937E+03  0.7546771E-02  0.1047229E+00
         21   -1    0    0  504  503  0.00000000000E+00  0.00000000000E+00  0.27316797834E+03  0.27316797834E+03  0.00000000000E+00 0. -1.
         21   -1    0    0  503  504 -0.00000000000E+00 -0.00000000000E+00 -0.13933836482E+03  0.13933836482E+03  0.00000000000E+00 0. -1.
         25    2    1    2    0    0  0.11392253969E+03  0.57312613418E+02  0.14998502798E+03  0.23320443433E+03  0.12500287542E+03 0.  0.
         25    2    1    2    0    0 -0.11392253969E+03 -0.57312613418E+02 -0.16155414465E+02  0.17930190884E+03  0.12500038556E+03 0.  0.
          5    1    3    3  501    0  0.11248619500E+03  0.55622452148E+02  0.53363485461E+02  0.13644322200E+03  0.47000000000E+01 0. -1.
         -5    1    3    3    0  501  0.14363446867E+01  0.16901612701E+01  0.96621542522E+02  0.96761212325E+02  0.47000000000E+01 0. -1.
          5    1    4    4  502    0 -0.10282033562E+02 -0.40807759657E+02  0.41650935635E+02  0.59395992303E+02  0.47000000000E+01 0.  1.
         -5    1    4    4    0  502 -0.10364050613E+03 -0.16504853761E+02 -0.57806350100E+02  0.11990591654E+03  0.47000000000E+01 0.  1.
<mgrwt>
<rscale>  0 0.39019369E+03</rscale>
<asrwt>0</asrwt>
<pdfrwt beam="1">  1       21 0.42025843E-01 0.39019369E+03</pdfrwt>
<pdfrwt beam="2">  1       21 0.21436671E-01 0.39019369E+03</pdfrwt>
<totfact> 0.10435379E+05</totfact>
</mgrwt>
</event>
<event>
 8    1  0.9478272E-006  0.2886494E+03  0.7546771E-02  0.1091056E+00
         21   -1    0    0  504  503  0.00000000000E+00  0.00000000000E+00  0.29722437468E+03  0.29722437468E+03  0.00000000000E+00 0.  1.
         21   -1    0    0  503  504 -0.00000000000E+00 -0.00000000000E+00 -0.70080467805E+02  0.70080467805E+02  0.00000000000E+00 0.  1.
         25    2    1    2    0    0 -0.50541183686E+02  0.33378776025E+02  0.63725445569E+02  0.15282954901E+03  0.12500953844E+03 0.  0.
         25    2    1    2    0    0  0.50541183686E+02 -0.33378776025E+02  0.16341846131E+03  0.21447529347E+03  0.12500201629E+03 0.  0.
          5    1    3    3  501    0  0.61414399568E+01  0.25620637480E+02  0.86897502621E+02  0.90925245732E+02  0.47000000000E+01 0. -1.
         -5    1    3    3    0  501 -0.56682623643E+02  0.77581385441E+01 -0.23172057052E+02  0.61904303281E+02  0.47000000000E+01 0. -1.
          5    1    4    4  502    0  0.91089325519E+02 -0.31252254530E+02  0.99070698759E+02  0.13824276469E+03  0.47000000000E+01 0.  1.
         -5    1    4    4    0  502 -0.40548141832E+02 -0.21265214947E+01  0.64347762550E+02  0.76232528785E+02  0.47000000000E+01 0.  1.
<mgrwt>
<rscale>  0 0.28864943E+03</rscale>
<asrwt>0</asrwt>
<pdfrwt beam="1">  1       21 0.45726826E-01 0.28864943E+03</pdfrwt>
<pdfrwt beam="2">  1       21 0.10781611E-01 0.28864943E+03</pdfrwt>
<totfact> 0.31843981E+05</totfact>
</mgrwt>
</event>
<event>
 8    1  0.9478272E-006  0.2654586E+03  0.7546771E-02  0.1103907E+00
         21   -1    0    0  504  503  0.00000000000E+00  0.00000000000E+00  0.43424875795E+02  0.43424875795E+02  0.00000000000E+00 0. -1.
         21   -1    0    0  503  504 -0.00000000000E+00 -0.00000000000E+00 -0.40569062581E+03  0.40569062581E+03  0.00000000000E+00 0. -1.
         25    2    1    2    0    0  0.22801138761E+02 -0.14696928660E+02 -0.12120681226E+03  0.17622468079E+03  0.12501261993E+03 0.  0.
         25    2    1    2    0    0 -0.22801138761E+02  0.14696928660E+02 -0.24105893775E+03  0.27289082081E+03  0.12499638784E+03 0.  0.
          5    1    3    3  501    0  0.67178720049E+02 -0.38257888550E+02 -0.72494532693E+02  0.10608578479E+03  0.47000000000E+01 0.  1.
         -5    1    3    3    0  501 -0.44377581288E+02  0.23560959890E+02 -0.48712279569E+02  0.70138896005E+02  0.47000000000E+01 0.  1.
          5    1    4    4  502    0 -0.64594136402E+02  0.37784516698E+02 -0.18172929170E+03  0.19659017682E+03  0.47000000000E+01 0.  1.
         -5    1    4    4    0  502  0.41792997641E+02 -0.23087588038E+02 -0.59329646051E+02  0.76300643993E+02  0.47000000000E+01 0.  1.
<mgrwt>
<rscale>  0 0.26545858E+03</rscale>
<asrwt>0</asrwt>
<pdfrwt beam="1">  1       21 0.66807501E-02 0.26545858E+03</pdfrwt>
<pdfrwt beam="2">  1       21 0.62413942E-01 0.26545858E+03</pdfrwt>
<totfact> 0.38371119E+05</totfact>
</mgrwt>
</event>
<event>
 8    1  0.9478272E-006  0.2760373E+03  0.7546771E-02  0.1097873E+00
         21   -1    0    0  504  503  0.00000000000E+00  0.00000000000E+00  0.23653915018E+02  0.23653915018E+02  0.00000000000E+00 0. -1.
         21   -1    0    0  503  504 -0.00000000000E+00 -0.00000000000E+00 -0.80532746417E+03  0.80532746417E+03  0.00000000000E+00 0. -1.
         25    2    1    2    0    0 -0.50410917880E+02  0.11145502683E+02 -0.30812798082E+03  0.33650185543E+03  0.12500065309E+03 0.  0.
         25    2    1    2    0    0  0.50410917880E+02 -0.11145502683E+02 -0.47354556833E+03  0.49247952375E+03  0.12500077265E+03 0.  0.
          5    1    3    3  501    0 -0.57048078572E+02  0.30027131908E+02 -0.30923010592E+03  0.31591369126E+03  0.47000000000E+01 0. -1.
         -5    1    3    3    0  501  0.66371606919E+01 -0.18881629226E+02  0.11021250953E+01  0.20588164173E+02  0.47000000000E+01 0. -1.
          5    1    4    4  502    0  0.31045425173E+02 -0.44066134997E+02 -0.77221283341E+02  0.94291353148E+02  0.47000000000E+01 0.  1.
         -5    1    4    4    0  502  0.19365492706E+02  0.32920632314E+02 -0.39632428499E+03  0.39818817060E+03  0.47000000000E+01 0.  1.
<mgrwt>
<rscale>  0 0.27603730E+03</rscale>
<asrwt>0</asrwt>
<pdfrwt beam="1">  1       21 0.36390639E-02 0.27603730E+03</pdfrwt>
<pdfrwt beam="2">  1       21 0.12389653E+00 0.27603730E+03</pdfrwt>
<totfact> 0.21786515E+05</totfact>
</mgrwt>
</event>
<event>
 8    1  0.9478272E-006  0.3036444E+03  0.7546771E-02  0.1083433E+00
         21   -1    0    0  504  503  0.00000000000E+00  0.00000000000E+00  0.46374885260E+02  0.46374885260E+02  0.00000000000E+00 0.  1.
         21   -1    0    0  503  504 -0.00000000000E+00 -0.00000000000E+00 -0.49703579078E+03  0.49703579078E+03  0.00000000000E+00 0.  1.
         25    2    1    2    0    0 -0.70072332039E+02 -0.22295296947E+02 -0.30572667376E+03  0.33838006747E+03  0.12500023611E+03 0.  0.
         25    2    1    2    0    0  0.70072332039E+02  0.22295296947E+02 -0.14493423176E+03  0.20503060857E+03  0.12499762771E+03 0.  0.
          5    1    3    3  501    0  0.34966742314E+02 -0.91990626116E+01 -0.52894537456E+02  0.64243427008E+02  0.47000000000E+01 0.  1.
         -5    1    3    3    0  501 -0.10503907435E+03 -0.13096234335E+02 -0.25283213630E+03  0.27413664046E+03  0.47000000000E+01 0.  1.
          5    1    4    4  502    0  0.48107971790E+02 -0.15290816312E+02  0.29663854102E+01  0.50784598607E+02  0.47000000000E+01 0. -1.
         -5    1    4    4    0  502  0.21964360249E+02  0.37586113259E+02 -0.14790061717E+03  0.15424600996E+03  0.47000000000E+01 0. -1.
<mgrwt>
<rscale>  0 0.30364438E+03</rscale>
<asrwt>0</asrwt>
<pdfrwt beam="1">  1       21 0.71345972E-02 0.30364438E+03</pdfrwt>
<pdfrwt beam="2">  1       21 0.76467050E-01 0.30364438E+03</pdfrwt>
<totfact> 0.21614042E+05</totfact>
</mgrwt>
</event>
<event>
 8    1  0.9478272E-006  0.4169888E+03  0.7546771E-02  0.1038051E+00
         21   -1    0    0  504  503  0.00000000000E+00  0.00000000000E+00  0.97682314130E+03  0.97682314130E+03  0.00000000000E+00 0.  1.
         21   -1    0    0  503  504 -0.00000000000E+00 -0.00000000000E+00 -0.44501312831E+02  0.44501312831E+02  0.00000000000E+00 0.  1.
         25    2    1    2    0    0  0.13198385848E+03  0.68861041773E+02  0.28152606449E+03  0.34211702274E+03  0.12500220112E+03 0.  0.
         25    2    1    2    0    0 -0.13198385848E+03 -0.68861041773E+02  0.65079576398E+03  0.67920743140E+03  0.12500410585E+03 0.  0.
          5    1    3    3  501    0  0.30864865946E+02  0.54148207705E+01 -0.46304602142E+01  0.32023294578E+02  0.47000000000E+01 0. -1.
         -5    1    3    3    0  501  0.10111899253E+03  0.63446221002E+02  0.28615652471E+03  0.31009372816E+03  0.47000000000E+01 0. -1.
          5    1    4    4  502    0 -0.26026558691E+02 -0.53760106417E+02  0.42595877776E+03  0.43015171876E+03  0.47000000000E+01 0.  1.
         -5    1    4    4    0  502 -0.10595729979E+03 -0.15100935356E+02  0.22483698622E+03  0.24905571264E+03  0.47000000000E+01 0.  1.
<mgrwt>
<rscale>  0 0.41698879E+03</rscale>
<asrwt>0</asrwt>
<pdfrwt beam="1">  1       21 0.15028047E+00 0.41698879E+03</pdfrwt>
<pdfrwt beam="2">  1       21 0.68463565E-02 0.41698879E+03</pdfrwt>
<totfact> 0.42719913E+04</totfact>
</mgrwt>
</event>
<event>
 8    1  0.9478272E-006  0.3877374E+03  0.7546771E-02  0.1048110E+00
         21   -1    0    0  504  503  0.00000000000E+00  0.00000000000E+00  0.58872635767E+03  0.58872635767E+03  0.00000000000E+00 0.  1.
         21   -1    0    0  503  504 -0.00000000000E+00 -0.00000000000E+00 -0.63841329795E+02  0.63841329795E+02  0.00000000000E+00 0.  1.
         25    2    1    2    0    0  0.13196650393E+03 -0.59844906392E+00  0.14893337894E+03  0.23497974651E+03  0.12497525198E+03 0.  0.
         25    2    1    2    0    0 -0.13196650393E+03  0.59844906392E+00  0.37595164894E+03  0.41758794096E+03  0.12499811915E+03 0.  0.
          5    1    3    3  501    0  0.14403497987E+03  0.29447971326E+02  0.13414723838E+03  0.19907493566E+03  0.47000000000E+01 0. -1.
         -5    1    3    3    0  501 -0.12068475941E+02 -0.30046420390E+02  0.14786140556E+02  0.35904810852E+02  0.47000000000E+01 0. -1.
          5    1    4    4  502    0 -0.10119260499E+03  0.99690805856E+01  0.11083446109E+03  0.15048486182E+03  0.47000000000E+01 0.  1.
         -5    1    4    4    0  502 -0.30773898944E+02 -0.93706315217E+01  0.26511718785E+03  0.26710307914E+03  0.47000000000E+01 0.  1.
<mgrwt>
<rscale>  0 0.38773740E+03</rscale>
<asrwt>0</asrwt>
<pdfrwt beam="1">  1       21 0.90573282E-01 0.38773740E+03</pdfrwt>
<pdfrwt beam="2">  1       21 0.98217434E-02 0.38773740E+03</pdfrwt>
<totfact> 0.81396236E+04</totfact>
</mgrwt>
</event>
<event>
 8    1  0.9478272E-006  0.2547980E+03  0.7546771E-02  0.1110310E+00
         21   -1    0    0  504  503  0.00000000000E+00  0.00000000000E+00  0.33396513154E+03  0.33396513154E+03  0.00000000000E+00 0. -1.
         21   -1    0    0  503  504 -0.00000000000E+00 -0.00000000000E+00 -0.48599390563E+02  0.48599390563E+02  0.00000000000E+00 0. -1.
         25    2    1    2    0    0  0.16746184084E+02 -0.75996265889E+01  0.11817238012E+03  0.17299775856E+03  0.12500129615E+03 0.  0.
         25    2    1    2    0    0 -0.16746184084E+02  0.75996265889E+01  0.16719336085E+03  0.20956676354E+03  0.12500567771E+03 0.  0.
          5    1    3    3  501    0  0.45969409792E+02 -0.48150385915E+02  0.33773038675E+02  0.74795417250E+02  0.47000000000E+01 0. -1.
         -5    1    3    3    0  501 -0.29223225708E+02  0.40550759326E+02  0.84399341446E+02  0.98202341312E+02  0.47000000000E+01 0. -1.
          5    1    4    4  502    0  0.14617843374E+02  0.11453779522E+02 -0.15164240478E+02  0.24431835778E+02  0.47000000000E+01 0. -1.
         -5    1    4    4    0  502 -0.31364027458E+02 -0.38541529333E+01  0.18235760133E+03  0.18513492776E+03  0.47000000000E+01 0. -1.
<mgrwt>
<rscale>  0 0.25479797E+03</rscale>
<asrwt>0</asrwt>
<pdfrwt beam="1">  1       21 0.51379250E-01 0.25479797E+03</pdfrwt>
<pdfrwt beam="2">  1       21 0.74768295E-02 0.25479797E+03</pdfrwt>
<totfact> 0.47961909E+05</totfact>
</mgrwt>
</event>
<event>
 8    1  0.9478272E-006  0.3363823E+03  0.7546771E-02  0.1068347E+00
         21   -1    0    0  504  503  0.00000000000E+00  0.00000000000E+00  0.94947918973E+02  0.94947918973E+02  0.00000000000E+00 0. -1.
         21   -1    0    0  503  504 -0.00000000000E+00 -0.00000000000E+00 -0.29793448273E+03  0.29793448273E+03  0.00000000000E+00 0. -1.
         25    2    1    2    0    0  0.76174718187E+02  0.16888565784E+02 -0.67925963298E+01  0.14751147150E+03  0.12500273403E+03 0.  0.
         25    2    1    2    0    0 -0.76174718187E+02 -0.16888565784E+02 -0.19619396743E+03  0.24537093020E+03  0.12500803649E+03 0.  0.
          5    1    3    3  501    0  0.48468099382E+02  0.49558010645E+02  0.42962783289E+02  0.81688700716E+02  0.47000000000E+01 0. -1.
         -5    1    3    3    0  501  0.27706618805E+02 -0.32669444860E+02 -0.49755379619E+02  0.65822770787E+02  0.47000000000E+01 0. -1.
          5    1    4    4  502    0  0.29535896727E+02 -0.27063528525E+02 -0.65240494140E+02  0.76702124138E+02  0.47000000000E+01 0. -1.
         -5    1    4    4    0  502 -0.10571061491E+03  0.10174962740E+02 -0.13095347329E+03  0.16866880606E+03  0.47000000000E+01 0. -1.
<mgrwt>
<rscale>  0 0.33638228E+03</rscale>
<asrwt>0</asrwt>
<pdfrwt beam="1">  1       21 0.14607372E-01 0.33638228E+03</pdfrwt>
<pdfrwt beam="2">  1       21 0.45836075E-01 0.33638228E+03</pdfrwt>
<totfact> 0.18081693E+05</totfact>
</mgrwt>
</event>
<event>
 8    1  0.9478272E-006  0.3247821E+03  0.7546771E-02  0.1073469E+00
         21   -1    0    0  504  503  0.00000000000E+00  0.00000000000E+00  0.36268784763E+02  0.36268784763E+02  0.00000000000E+00 0. -1.
         21   -1    0    0  503  504 -0.00000000000E+00 -0.00000000000E+00 -0.72709508628E+03  0.72709508628E+03  0.00000000000E+00 0. -1.
         25    2    1    2    0    0  0.83323579291E+02  0.61010927389E+02 -0.32422190245E+03  0.36250468309E+03  0.12499860441E+03 0.  0.
         25    2    1    2    0    0 -0.83323579291E+02 -0.61010927389E+02 -0.36660439906E+03  0.40085918795E+03  0.12499660406E+03 0.  0.
          5    1    3    3  501    0  0.56445985457E+02  0.48732830377E+02 -0.32408143410E+03  0.33258367963E+03  0.47000000000E+01 0.  1.
         -5    1    3    3    0  501  0.26877593834E+02  0.12278097012E+02 -0.14046835699E+00  0.29921003457E+02  0.47000000000E+01 0.  1.
          5    1    4    4  502    0 -0.21208198491E+01 -0.48603249651E+02 -0.26806794335E+03  0.27248722173E+03  0.47000000000E+01 0.  1.
         -5    1    4    4    0  502 -0.81202759442E+02 -0.12407677738E+02 -0.98536455709E+02  0.12837196622E+03  0.47000000000E+01 0.  1.
<mgrwt>
<rscale>  0 0.32478211E+03</rscale>
<asrwt>0</asrwt>
<pdfrwt beam="1">  1       21 0.55798129E-02 0.32478211E+03</pdfrwt>
<pdfrwt beam="2">  1       21 0.11186079E+00 0.32478211E+03</pdfrwt>
<totfact> 0.13400018E+05</totfact>
</mgrwt>
</event>
<event>
 8    1  0.9478272E-006  0.2576185E+03  0.7546771E-02  0.1108583E+00
         21   -1    0    0  504  503  0.00000000000E+00  0.00000000000E+00  0.12778746881E+03  0.12778746881E+03  0.00000000000E+00 0.  1.
         21   -1    0    0  503  504 -0.00000000000E+00 -0.00000000000E+00 -0.12983917497E+03  0.12983917497E+03  0.00000000000E+00 0.  1.
         25    2    1    2    0    0  0.15704767838E+02 -0.55792734767E+00 -0.27866216170E+02  0.12902946937E+03  0.12500050778E+03 0.  0.
         25    2    1    2    0    0 -0.15704767838E+02  0.55792734767E+00  0.25814510008E+02  0.12859717441E+03  0.12499557322E+03 0.  0.
          5    1    3    3  501    0  0.25634797052E+02  0.58310735948E+02 -0.26443211337E+02  0.69127550025E+02  0.47000000000E+01 0.  1.
         -5    1    3    3    0  501 -0.99300292139E+01 -0.58868663296E+02 -0.14230048334E+01  0.59901919344E+02  0.47000000000E+01 0.  1.
          5    1    4    4  502    0 -0.25714236708E+01  0.61124055072E+02  0.25495955296E+02  0.66444684246E+02  0.47000000000E+01 0.  1.
         -5    1    4    4    0  502 -0.13133344167E+02 -0.60566127724E+02  0.31855471256E+00  0.62152490164E+02  0.47000000000E+01 0.  1.
<mgrwt>
<rscale>  0 0.25761847E+03</rscale>
<asrwt>0</asrwt>
<pdfrwt beam="1">  1       21 0.19659611E-01 0.25761847E+03</pdfrwt>
<pdfrwt beam="2">  1       21 0.19975258E-01 0.25761847E+03</pdfrwt>
<totfact> 0.54490091E+05</totfact>
</mgrwt>
</event>
<event>
 8    1  0.9478272E-006  0.4127952E+03  0.7546771E-02  0.1039437E+00
         21   -1    0    0  504  503  0.00000000000E+00  0.00000000000E+00  0.21918809319E+03  0.21918809319E+03  0.00000000000E+00 0. -1.
         21   -1    0    0  503  504 -0.00000000000E+00 -0.00000000000E+00 -0.19435348207E+03  0.19435348207E+03  0.00000000000E+00 0. -1.
         25    2    1    2    0    0 -0.36119018692E+02 -0.15172321438E+03  0.63989918689E+02  0.20986600637E+03  0.12499805456E+03 0.  0.
         25    2    1    2    0    0  0.36119018692E+02  0.15172321438E+03 -0.39155307578E+02  0.20367556889E+03  0.12500432776E+03 0.  0.
          5    1    3    3  501    0  0.29027180964E+02 -0.80453709197E+02 -0.12535305967E+02  0.86571360472E+02  0.47000000000E+01 0. -1.
         -5    1    3    3    0  501 -0.65146199656E+02 -0.71269505182E+02  0.76525224656E+02  0.12329464590E+03  0.47000000000E+01 0. -1.
          5    1    4    4  502    0 -0.33883863111E+02  0.39379037507E+02 -0.48055490072E+02  0.70924219420E+02  0.47000000000E+01 0.  1.
         -5    1    4    4    0  502  0.70002881803E+02  0.11234417687E+03  0.89001824939E+01  0.13275134947E+03  0.47000000000E+01 0.  1.
<mgrwt>
<rscale>  0 0.41279520E+03</rscale>
<asrwt>0</asrwt>
<pdfrwt beam="1">  1       21 0.33721245E-01 0.41279520E+03</pdfrwt>
<pdfrwt beam="2">  1       21 0.29900536E-01 0.41279520E+03</pdfrwt>
<totfact> 0.85168354E+04</totfact>
</mgrwt>
</event>
<event>
 8    1  0.9478272E-006  0.4722313E+03  0.7546771E-02  0.1021292E+00
         21   -1    0    0  504  503  0.00000000000E+00  0.00000000000E+00  0.17104465664E+03  0.17104465664E+03  0.00000000000E+00 0.  1.
         21   -1    0    0  503  504 -0.00000000000E+00 -0.00000000000E+00 -0.32594175922E+03  0.32594175922E+03  0.00000000000E+00 0.  1.
         25    2    1    2    0    0 -0.85570191898E+02 -0.17642877110E+03 -0.34358625361E+02  0.23506307810E+03  0.12499906613E+03 0.  0.
         25    2    1    2    0    0  0.85570191898E+02  0.17642877110E+03 -0.12053847722E+03  0.26192333776E+03  0.12499976544E+03 0.  0.
          5    1    3    3  501    0 -0.30872232161E+02 -0.53106365559E+02 -0.72158280055E+02  0.94880388711E+02  0.47000000000E+01 0.  1.
         -5    1    3    3    0  501 -0.54697959737E+02 -0.12332240554E+03  0.37799654693E+02  0.14018268939E+03  0.47000000000E+01 0.  1.
          5    1    4    4  502    0  0.10267152944E+03  0.12329489695E+03 -0.12814569678E+03  0.20539348620E+03  0.47000000000E+01 0. -1.
         -5    1    4    4    0  502 -0.17101337539E+02  0.53133874148E+02  0.76072195603E+01  0.56529851557E+02  0.47000000000E+01 0. -1.
<mgrwt>
<rscale>  0 0.47223128E+03</rscale>
<asrwt>0</asrwt>
<pdfrwt beam="1">  1       21 0.26314563E-01 0.47223128E+03</pdfrwt>
<pdfrwt beam="2">  1       21 0.50144885E-01 0.47223128E+03</pdfrwt>
<totfact> 0.47624725E+04</totfact>
</mgrwt>
</event>
<event>
 8    1  0.9478272E-006  0.2777262E+03  0.7546771E-02  0.1096937E+00
         21   -1    0    0  504  503  0.00000000000E+00  0.00000000000E+00  0.11874498047E+03  0.11874498047E+03  0.00000000000E+00 0. -1.
         21   -1    0    0  503  504 -0.00000000000E+00 -0.00000000000E+00 -0.16238963692E+03  0.16238963692E+03  0.00000000000E+00 0. -1.
         25    2    1    2    0    0 -0.10218080643E+02 -0.59574087164E+02 -0.24240517173E+02  0.14093799309E+03  0.12498973634E+03 0.  0.
         25    2    1    2    0    0  0.10218080643E+02  0.59574087164E+02 -0.19404139275E+02  0.14019662431E+03  0.12500036725E+03 0.  0.
          5    1    3    3  501    0 -0.62016952643E+02 -0.36018454506E+02 -0.39264072824E+02  0.81897429110E+02  0.47000000000E+01 0.  1.
         -5    1    3    3    0  501  0.51798872000E+02 -0.23555632658E+02  0.15023555651E+02  0.59040563978E+02  0.47000000000E+01 0.  1.
          5    1    4    4  502    0  0.49985813776E+02  0.31614203294E+02 -0.54095626331E+02  0.80289888635E+02  0.47000000000E+01 0. -1.
         -5    1    4    4    0  502 -0.39767733133E+02  0.27959883869E+02  0.34691487056E+02  0.59906735671E+02  0.47000000000E+01 0. -1.
<mgrwt>
<rscale>  0 0.27772615E+03</rscale>
<asrwt>0</asrwt>
<pdfrwt beam="1">  1       21 0.18268459E-01 0.27772615E+03</pdfrwt>
<pdfrwt beam="2">  1       21 0.24983021E-01 0.27772615E+03</pdfrwt>
<totfact> 0.40706076E+05</totfact>
</mgrwt>
</event>
<event>
 8    1  0.9478272E-006  0.2515220E+03  0.7546771E-02  0.1112347E+00
         21   -1    0    0  504  503  0.00000000000E+00  0.00000000000E+00  0.37219305664E+02  0.37219305664E+02  0.00000000000E+00 0.  1.
         21   -1    0    0  503  504 -0.00000000000E+00 -0.00000000000E+00 -0.42493632844E+03  0.42493632844E+03  0.00000000000E+00 0.  1.
         25    2    1    2    0    0  0.95667065194E+01 -0.98973969771E+01 -0.19264492630E+03  0.23005822103E+03  0.12500094837E+03 0.  0.
         25    2    1    2    0    0 -0.95667065194E+01  0.98973969771E+01 -0.19507209647E+03  0.23209741307E+03  0.12500642380E+03 0.  0.
          5    1    3    3  501    0 -0.49808177356E+02 -0.29139974004E+02 -0.59957049360E+02  0.83348247639E+02  0.47000000000E+01 0.  1.
         -5    1    3    3    0  501  0.59374883876E+02  0.19242577027E+02 -0.13268787694E+03  0.14670997339E+03  0.47000000000E+01 0.  1.
          5    1    4    4  502    0 -0.57983442442E+02  0.24036268845E+02 -0.15569056032E+03  0.16793291038E+03  0.47000000000E+01 0.  1.
         -5    1    4    4    0  502  0.48416735922E+02 -0.14138871868E+02 -0.39381536154E+02  0.64164502686E+02  0.47000000000E+01 0.  1.
<mgrwt>
<rscale>  0 0.25152205E+03</rscale>
<asrwt>0</asrwt>
<pdfrwt beam="1">  1       21 0.57260468E-02 0.25152205E+03</pdfrwt>
<pdfrwt beam="2">  1       21 0.65374822E-01 0.25152205E+03</pdfrwt>
<totfact> 0.45374504E+05</totfact>
</mgrwt>
</event>
<event>
 8    1  0.9478272E-006  0.2659896E+03  0.7546771E-02  0.1103597E+00
         21   -1    0    0  504  503  0.00000000000E+00  0.00000000000E+00  0.30594050440E+02  0.30594050440E+02  0.00000000000E+00 0.  1.
         21   -1    0    0  503  504 -0.00000000000E+00 -0.00000000000E+00 -0.57813928372E+03  0.57813928372E+03  0.00000000000E+00 0.  1.
         25    2    1    2    0    0 -0.34367104102E+02  0.27904935266E+02 -0.24992480102E+03  0.28290978061E+03  0.12496301271E+03 0.  0.
         25    2    1    2    0    0  0.34367104102E+02 -0.27904935266E+02 -0.29762043226E+03  0.32582355355E+03  0.12499313217E+03 0.  0.
          5    1    3    3  501    0 -0.44856185614E+02 -0.24206299826E+02 -0.36379858457E+02  0.62798140422E+02  0.47000000000E+01 0. -1.
         -5    1    3    3    0  501  0.10489081513E+02  0.52111235092E+02 -0.21354494256E+03  0.22011164019E+03  0.47000000000E+01 0. -1.
          5    1    4    4  502    0 -0.22173171337E+02 -0.43355060781E+01 -0.24154185523E+03  0.24264171935E+03  0.47000000000E+01 0. -1.
         -5    1    4    4    0  502  0.56540275439E+02 -0.23569429187E+02 -0.56078577029E+02  0.83181834198E+02  0.47000000000E+01 0. -1.
<mgrwt>
<rscale>  0 0.26598964E+03</rscale>
<asrwt>0</asrwt>
<pdfrwt beam="1">  1       21 0.47067775E-02 0.26598964E+03</pdfrwt>
<pdfrwt beam="2">  1       21 0.88944496E-01 0.26598964E+03</pdfrwt>
<totfact> 0.31548074E+05</totfact>
</mgrwt>
</event>
<event>
 8    1  0.9478272E-006  0.5749189E+03  0.7546771E-02  0.9958853E-01
         21   -1    0    0  504  503  0.00000000000E+00  0.00000000000E+00  0.18816211655E+03  0.18816211655E+03  0.00000000000E+00 0. -1.
         21   -1    0    0  503  504 -0.00000000000E+00 -0.00000000000E+00 -0.43915815613E+03  0.43915815613E+03  0.00000000000E+00 0. -1.
         25    2    1    2    0    0  0.20755667703E+03 -0.75574286563E+02 -0.27277278187E+03  0.37258363435E+03  0.12498930789E+03 0.  0.
         25    2    1    2    0    0 -0.20755667703E+03  0.75574286563E+02  0.21776742293E+02  0.25473663833E+03  0.12500112573E+03 0.  0.
          5    1    3    3  501    0  0.18505955232E+03 -0.42638871267E+02 -0.14596601931E+03  0.23956894632E+03  0.47000000000E+01 0.  1.
         -5    1    3    3    0  501  0.22497124713E+02 -0.32935415296E+02 -0.12680676256E+03  0.13301468803E+03  0.47000000000E+01 0.  1.
          5    1    4    4  502    0 -0.12263425475E+03 -0.15517002139E+02  0.37167233633E+02  0.12916435673E+03  0.47000000000E+01 0.  1.
         -5    1    4    4    0  502 -0.84922422286E+02  0.91091288702E+02 -0.15390491340E+02  0.12557228161E+03  0.47000000000E+01 0.  1.
<mgrwt>
<rscale>  0 0.57491887E+03</rscale>
<asrwt>0</asrwt>
<pdfrwt beam="1">  1       21 0.28948018E-01 0.57491887E+03</pdfrwt>
<pdfrwt beam="2">  1       21 0.67562793E-01 0.57491887E+03</pdfrwt>
<totfact> 0.20118662E+04</totfact>
</mgrwt>
</event>
<event>
 8    1  0.9478272E-006  0.5372033E+03  0.7546771E-02  0.1004500E+00
         21   -1    0    0  504  503  0.00000000000E+00  0.00000000000E+00  0.64308635942E+02  0.64308635942E+02  0.00000000000E+00 0. -1.
         21   -1    0    0  503  504 -0.00000000000E+00 -0.00000000000E+00 -0.11218842755E+04  0.11218842755E+04  0.00000000000E+00 0. -1.
         25    2    1    2    0    0 -0.81068521351E+01 -0.22446093169E+03 -0.35670437532E+03  0.43967186524E+03  0.12499962721E+03 0.  0.
         25    2    1    2    0    0  0.81068521351E+01  0.22446093169E+03 -0.70087126421E+03  0.74652104618E+03  0.12499884993E+03 0.  0.
          5    1    3    3  501    0  0.91641286566E+00  0.15507759554E+02 -0.15777429181E+02  0.22635098641E+02  0.47000000000E+01 0. -1.
         -5    1    3    3    0  501 -0.90232650007E+01 -0.23996869124E+03 -0.34092694614E+03  0.41703676660E+03  0.47000000000E+01 0. -1.
          5    1    4    4  502    0  0.24996627475E+02  0.44601238411E+02 -0.32994183310E+03  0.33391287049E+03  0.47000000000E+01 0.  1.
         -5    1    4    4    0  502 -0.16889775340E+02  0.17985969328E+03 -0.37092943111E+03  0.41260817568E+03  0.47000000000E+01 0.  1.
<mgrwt>
<rscale>  0 0.53720330E+03</rscale>
<asrwt>0</asrwt>
<pdfrwt beam="1">  1       21 0.98936361E-02 0.53720330E+03</pdfrwt>
<pdfrwt beam="2">  1       21 0.17259758E+00 0.53720330E+03</pdfrwt>
<totfact> 0.14588851E+04</totfact>
</mgrwt>
</event>
<event>
 8    1  0.9478272E-006  0.3172555E+03  0.7546771E-02  0.1076919E+00
         21   -1    0    0  504  503  0.00000000000E+00  0.00000000000E+00  0.40379575441E+03  0.40379575441E+03  0.00000000000E+00 0.  1.
         21   -1    0    0  503  504 -0.00000000000E+00 -0.00000000000E+00 -0.62315569523E+02  0.62315569523E+02  0.00000000000E+00 0.  1.
         25    2    1    2    0    0 -0.66500854077E+02 -0.66865855446E+02  0.13323470216E+03  0.20558388545E+03  0.12497936583E+03 0.  0.
         25    2    1    2    0    0  0.66500854077E+02  0.66865855446E+02  0.20824548273E+03  0.26052743848E+03  0.12495982917E+03 0.  0.
          5    1    3    3  501    0 -0.42057930705E+02 -0.87937604953E+02  0.14154701222E+03  0.17192887648E+03  0.47000000000E+01 0.  1.
         -5    1    3    3    0  501 -0.24442923371E+02  0.21071749507E+02 -0.83123100656E+01  0.33655008971E+02  0.47000000000E+01 0.  1.
          5    1    4    4  502    0  0.27192411498E+02  0.52022513922E+01 -0.10387411638E+02  0.29941258877E+02  0.47000000000E+01 0. -1.
         -5    1    4    4    0  502  0.39308442579E+02  0.61663604054E+02  0.21863289437E+03  0.23058617960E+03  0.47000000000E+01 0. -1.
<mgrwt>
<rscale>  0 0.31725550E+03</rscale>
<asrwt>0</asrwt>
<pdfrwt beam="1">  1       21 0.62122422E-01 0.31725550E+03</pdfrwt>
<pdfrwt beam="2">  1       21 0.95870109E-02 0.31725550E+03</pdfrwt>
<totfact> 0.20326551E+05</totfact>
</mgrwt>
</event>
<event>
 8    1  0.9478272E-006  0.3426732E+03  0.7546771E-02  0.1065663E+00
         21   -1    0    0  504  503  0.00000000000E+00  0.00000000000E+00  0.12532389185E+03  0.12532389185E+03  0.00000000000E+00 0.  1.
         21   -1    0    0  503  504 -0.00000000000E+00 -0.00000000000E+00 -0.23424292110E+03  0.23424292110E+03  0.00000000000E+00 0.  1.
         25    2    1    2    0    0  0.89955026109E+02  0.73289686166E+02 -0.37292719898E+02  0.17458202276E+03  0.12499940358E+03 0.  0.
         25    2    1    2    0    0 -0.89955026109E+02 -0.73289686166E+02 -0.71626309354E+02  0.18498479019E+03  0.12500303833E+03 0.  0.
          5    1    3    3  501    0  0.65661851651E+02  0.10115121508E+03 -0.55817093808E+02  0.13296873706E+03  0.47000000000E+01 0. -1.
         -5    1    3    3    0  501  0.24293174458E+02 -0.27861528910E+02  0.18524373910E+02  0.41613285705E+02  0.47000000000E+01 0. -1.
          5    1    4    4  502    0  0.94045360835E+01  0.43257913209E+00  0.25523820879E+02  0.27607749925E+02  0.47000000000E+01 0. -1.
         -5    1    4    4    0  502 -0.99359562192E+02 -0.73722265298E+02 -0.97150130233E+02  0.15737704027E+03  0.47000000000E+01 0. -1.
<mgrwt>
<rscale>  0 0.34267322E+03</rscale>
<asrwt>0</asrwt>
<pdfrwt beam="1">  1       21 0.19280599E-01 0.34267322E+03</pdfrwt>
<pdfrwt beam="2">  1       21 0.36037372E-01 0.34267322E+03</pdfrwt>
<totfact> 0.17643819E+05</totfact>
</mgrwt>
</event>
<event>
 8    1  0.9478272E-006  0.4251610E+03  0.7546771E-02  0.1035400E+00
         21   -1    0    0  504  503  0.00000000000E+00  0.00000000000E+00  0.98745509408E+03  0.98745509408E+03  0.00000000000E+00 0.  1.
         21   -1    0    0  503  504 -0.00000000000E+00 -0.00000000000E+00 -0.45764588088E+02  0.45764588088E+02  0.00000000000E+00 0.  1.
         25    2    1    2    0    0 -0.16228981091E+03  0.30468033428E+02  0.58738153452E+03  0.62282324208E+03  0.12500175995E+03 0.  0.
         25    2    1    2    0    0  0.16228981091E+03 -0.30468033428E+02  0.35430897147E+03  0.41039644009E+03  0.12499642791E+03 0.  0.
          5    1    3    3  501    0 -0.15472742226E+03  0.28550005757E+02  0.59202905181E+03  0.61259788296E+03  0.47000000000E+01 0.  1.
         -5    1    3    3    0  501 -0.75623886418E+01  0.19180276712E+01 -0.46475172838E+01  0.10225359114E+02  0.47000000000E+01 0.  1.
          5    1    4    4  502    0  0.17835173945E+02  0.18861385697E+02  0.20529561247E+01  0.26460346349E+02  0.47000000000E+01 0. -1.
         -5    1    4    4    0  502  0.14445463696E+03 -0.49329419125E+02  0.35225601534E+03  0.38393609374E+03  0.47000000000E+01 0. -1.
<mgrwt>
<rscale>  0 0.42516103E+03</rscale>
<asrwt>0</asrwt>
<pdfrwt beam="1">  1       21 0.15191615E+00 0.42516103E+03</pdfrwt>
<pdfrwt beam="2">  1       21 0.70407066E-02 0.42516103E+03</pdfrwt>
<totfact> 0.39404798E+04</totfact>
</mgrwt>
</event>
<event>
 8    1  0.9478272E-006  0.3219205E+03  0.7546771E-02  0.1074769E+00
         21   -1    0    0  504  503  0.00000000000E+00  0.00000000000E+00  0.88715229258E+02  0.88715229258E+02  0.00000000000E+00 0. -1.
         21   -1    0    0  503  504 -0.00000000000E+00 -0.00000000000E+00 -0.29203773360E+03  0.29203773360E+03  0.00000000000E+00 0. -1.
         25    2    1    2    0    0 -0.35794474730E+02  0.61631516887E+02 -0.18697714278E+03  0.23593148529E+03  0.12499410200E+03 0.  0.
         25    2    1    2    0    0  0.35794474730E+02 -0.61631516887E+02 -0.16345361564E+02  0.14482147757E+03  0.12500560478E+03 0.  0.
          5    1    3    3  501    0  0.70350865154E+01  0.71632219516E+02 -0.40076154042E+02  0.82515789021E+02  0.47000000000E+01 0. -1.
         -5    1    3    3    0  501 -0.42829561246E+02 -0.10000702629E+02 -0.14690098874E+03  0.15341569627E+03  0.47000000000E+01 0. -1.
          5    1    4    4  502    0 -0.18653024047E+02  0.14078348553E+02  0.31818961251E+02  0.39757659629E+02  0.47000000000E+01 0.  1.
         -5    1    4    4    0  502  0.54447498777E+02 -0.75709865440E+02 -0.48164322814E+02  0.10506381794E+03  0.47000000000E+01 0.  1.
<mgrwt>
<rscale>  0 0.32192045E+03</rscale>
<asrwt>0</asrwt>
<pdfrwt beam="1">  1       21 0.13648497E-01 0.32192045E+03</pdfrwt>
<pdfrwt beam="2">  1       21 0.44928881E-01 0.32192045E+03</pdfrwt>
<totfact> 0.21414368E+05</totfact>
</mgrwt>
</event>
<event>
 8    1  0.9478272E-006  0.3739124E+03  0.7546771E-02  0.1053207E+00
         21   -1    0    0  504  503  0.00000000000E+00  0.00000000000E+00  0.26533076046E+03  0.26533076046E+03  0.00000000000E+00 0.  1.
         21   -1    0    0  503  504 -0.00000000000E+00 -0.00000000000E+00 -0.13173227072E+03  0.13173227072E+03  0.00000000000E+00 0.  1.
         25    2    1    2    0    0  0.10084054060E+03 -0.53986242899E+02  0.15071371729E+03  0.22676645026E+03  0.12500027733E+03 0.  0.
         25    2    1    2    0    0 -0.10084054060E+03  0.53986242899E+02 -0.17115227546E+02  0.17029658092E+03  0.12499866163E+03 0.  0.
          5    1    3    3  501    0  0.31376020144E+02 -0.11757590760E+02  0.14071542649E+03  0.14472600607E+03  0.47000000000E+01 0. -1.
         -5    1    3    3    0  501  0.69464520456E+02 -0.42228652139E+02  0.99982908015E+01  0.82040444189E+02  0.47000000000E+01 0. -1.
          5    1    4    4  502    0  0.15364800541E+02  0.18675079140E+02  0.30982200072E+02  0.39583107481E+02  0.47000000000E+01 0.  1.
         -5    1    4    4    0  502 -0.11620534114E+03  0.35311163759E+02 -0.48097427618E+02  0.13071347344E+03  0.47000000000E+01 0.  1.
<mgrwt>
<rscale>  0 0.37391242E+03</rscale>
<asrwt>0</asrwt>
<pdfrwt beam="1">  1       21 0.40820117E-01 0.37391242E+03</pdfrwt>
<pdfrwt beam="2">  1       21 0.20266503E-01 0.37391242E+03</pdfrwt>
<totfact> 0.12373773E+05</totfact>
</mgrwt>
</event>
<event>
 8    1  0.9478272E-006  0.3102838E+03  0.7546771E-02  0.1080210E+00
         21   -1    0    0  504  503  0.00000000000E+00  0.00000000000E+00  0.66991343538E+02  0.66991343538E+02  0.00000000000E+00 0.  1.
         21   -1    0    0  503  504 -0.00000000000E+00 -0.00000000000E+00 -0.35928537952E+03  0.35928537952E+03  0.00000000000E+00 0.  1.
         25    2    1    2    0    0  0.28312575111E+02  0.31260694182E+02 -0.25830185428E+03  0.29004512280E+03  0.12500996931E+03 0.  0.
         25    2    1    2    0    0 -0.28312575111E+02 -0.31260694182E+02 -0.33992181700E+02  0.13623160025E+03  0.12499899032E+03 0.  0.
          5    1    3    3  501    0  0.14257768903E+02 -0.48517941061E+02 -0.10024053803E+03  0.11237228325E+03  0.47000000000E+01 0.  1.
         -5    1    3    3    0  501  0.14054806208E+02  0.79778635243E+02 -0.15806131626E+03  0.17767283955E+03  0.47000000000E+01 0.  1.
          5    1    4    4  502    0 -0.75664974514E+02 -0.20687930140E+01 -0.15361432326E+02  0.77379143675E+02  0.47000000000E+01 0. -1.
         -5    1    4    4    0  502  0.47352399403E+02 -0.29191901168E+02 -0.18630749374E+02  0.58852456578E+02  0.47000000000E+01 0. -1.
<mgrwt>
<rscale>  0 0.31028381E+03</rscale>
<asrwt>0</asrwt>
<pdfrwt beam="1">  1       21 0.10306360E-01 0.31028381E+03</pdfrwt>
<pdfrwt beam="2">  1       21 0.55274675E-01 0.31028381E+03</pdfrwt>
<totfact> 0.23036166E+05</totfact>
</mgrwt>
</event>
<event>
 8    1  0.9478272E-006  0.3264669E+03  0.7546771E-02  0.1072711E+00
         21   -1    0    0  504  503  0.00000000000E+00  0.00000000000E+00  0.31635782564E+03  0.31635782564E+03  0.00000000000E+00 0.  1.
         21   -1    0    0  503  504 -0.00000000000E+00 -0.00000000000E+00 -0.84224757804E+02  0.84224757804E+02  0.00000000000E+00 0.  1.
         25    2    1    2    0    0 -0.21400086502E+02 -0.22395900400E+02 -0.69955345869E+01  0.12898389070E+03  0.12501346527E+03 0.  0.
         25    2    1    2    0    0  0.21400086502E+02  0.22395900400E+02  0.23912860242E+03  0.27159869275E+03  0.12499528530E+03 0.  0.
          5    1    3    3  501    0  0.34209917731E+02  0.28403831732E+02 -0.25238760949E+02  0.51343755048E+02  0.47000000000E+01 0.  1.
         -5    1    3    3    0  501 -0.55610004234E+02 -0.50799732132E+02  0.18243226362E+02  0.77640135650E+02  0.47000000000E+01 0.  1.
          5    1    4    4  502    0  0.67980409484E+02  0.39128698737E+02  0.15769184032E+03  0.17618512321E+03  0.47000000000E+01 0.  1.
         -5    1    4    4    0  502 -0.46580322982E+02 -0.16732798336E+02  0.81436762106E+02  0.95413569536E+02  0.47000000000E+01 0.  1.
<mgrwt>
<rscale>  0 0.32646691E+03</rscale>
<asrwt>0</asrwt>
<pdfrwt beam="1">  1       21 0.48670434E-01 0.32646691E+03</pdfrwt>
<pdfrwt beam="2">  1       21 0.12957655E-01 0.32646691E+03</pdfrwt>
<totfact> 0.19898764E+05</totfact>
</mgrwt>
</event>
<event>
 8    1  0.9478272E-006  0.2655843E+03  0.7546771E-02  0.1103834E+00
         21   -1    0    0  504  503  0.00000000000E+00  0.00000000000E+00  0.27039991057E+02  0.27039991057E+02  0.00000000000E+00 0. -1.
         21   -1    0    0  503  504 -0.00000000000E+00 -0.00000000000E+00 -0.65213636226E+03  0.65213636226E+03  0.00000000000E+00 0. -1.
         25    2    1    2    0    0 -0.40310757839E+02 -0.23193566585E+01 -0.26308403349E+03  0.29406630716E+03  0.12502578821E+03 0.  0.
         25    2    1    2    0    0  0.40310757839E+02  0.23193566585E+01 -0.36201233772E+03  0.38511004616E+03  0.12500591338E+03 0.  0.
          5    1    3    3  501    0 -0.45521845878E+02 -0.36051434749E+02 -0.45903672698E+02  0.74169950565E+02  0.47000000000E+01 0.  1.
         -5    1    3    3    0  501  0.52110880384E+01  0.33732078091E+02 -0.21718036079E+03  0.21989635660E+03  0.47000000000E+01 0.  1.
          5    1    4    4  502    0  0.25243573485E+02  0.20836895431E+02 -0.35908377877E+03  0.36060319520E+03  0.47000000000E+01 0.  1.
         -5    1    4    4    0  502  0.15067184354E+02 -0.18517538772E+02 -0.29285589513E+01  0.24506850962E+02  0.47000000000E+01 0.  1.
<mgrwt>
<rscale>  0 0.26558435E+03</rscale>
<asrwt>0</asrwt>
<pdfrwt beam="1">  1       21 0.41599986E-02 0.26558435E+03</pdfrwt>
<pdfrwt beam="2">  1       21 0.10032867E+00 0.26558435E+03</pdfrwt>
<totfact> 0.29278022E+05</totfact>
</mgrwt>
</event>
<event>
 8    1  0.9478272E-006  0.3664629E+03  0.7546771E-02  0.1056054E+00
         21   -1    0    0  504  503  0.00000000000E+00  0.00000000000E+00  0.10010668479E+03  0.10010668479E+03  0.00000000000E+00 0.  1.
         21   -1    0    0  503  504 -0.00000000000E+00 -0.00000000000E+00 -0.33537981318E+03  0.33537981318E+03  0.00000000000E+00 0.  1.
         25    2    1    2    0    0 -0.10315478108E+03 -0.79152245879E+02 -0.79263817042E+02  0.19701068070E+03  0.12499787491E+03 0.  0.
         25    2    1    2    0    0  0.10315478108E+03  0.79152245879E+02 -0.15600931136E+03  0.23847581727E+03  0.12500329317E+03 0.  0.
          5    1    3    3  501    0 -0.53761983407E+02  0.68191768411E+01 -0.81193082811E+02  0.97730541434E+02  0.47000000000E+01 0. -1.
         -5    1    3    3    0  501 -0.49392797675E+02 -0.85971422720E+02  0.19292657693E+01  0.99280139268E+02  0.47000000000E+01 0. -1.
          5    1    4    4  502    0 -0.70192755628E+01  0.26872123298E+02 -0.10055881651E+03  0.10442962615E+03  0.47000000000E+01 0. -1.
         -5    1    4    4    0  502  0.11017405664E+03  0.52280122581E+02 -0.55450494851E+02  0.13404619112E+03  0.47000000000E+01 0. -1.
<mgrwt>
<rscale>  0 0.36646288E+03</rscale>
<asrwt>0</asrwt>
<pdfrwt beam="1">  1       21 0.15401028E-01 0.36646288E+03</pdfrwt>
<pdfrwt beam="2">  1       21 0.51596895E-01 0.36646288E+03</pdfrwt>
<totfact> 0.12698243E+05</totfact>
</mgrwt>
</event>
<event>
 8    1  0.9478272E-006  0.3239058E+03  0.7546771E-02  0.1073866E+00
         21   -1    0    0  504  503  0.00000000000E+00  0.00000000000E+00  0.80187161381E+02  0.80187161381E+02  0.00000000000E+00 0.  1.
         21   -1    0    0  503  504 -0.00000000000E+00 -0.00000000000E+00 -0.32709403128E+03  0.32709403128E+03  0.00000000000E+00 0.  1.
         25    2    1    2    0    0 -0.68207598542E+02  0.63301985057E+02 -0.68016754858E+02  0.17003176476E+03  0.12500041710E+03 0.  0.
         25    2    1    2    0    0  0.68207598542E+02 -0.63301985057E+02 -0.17889011504E+03  0.23724942790E+03  0.12500479978E+03 0.  0.
          5    1    3    3  501    0 -0.25162463154E+02  0.22869071058E+02  0.36366894096E+02  0.50007848876E+02  0.47000000000E+01 0. -1.
         -5    1    3    3    0  501 -0.43045135388E+02  0.40432913999E+02 -0.10438364895E+03  0.12002391588E+03  0.47000000000E+01 0. -1.
          5    1    4    4  502    0  0.77065500823E+02 -0.81639751493E+02 -0.18412441358E+03  0.21570357001E+03  0.47000000000E+01 0. -1.
         -5    1    4    4    0  502 -0.88579022810E+01  0.18337766435E+02  0.52342985442E+01  0.21545857883E+02  0.47000000000E+01 0. -1.
<mgrwt>
<rscale>  0 0.32390580E+03</rscale>
<asrwt>0</asrwt>
<pdfrwt beam="1">  1       21 0.12336486E-01 0.32390580E+03</pdfrwt>
<pdfrwt beam="2">  1       21 0.50322158E-01 0.32390580E+03</pdfrwt>
<totfact> 0.20289200E+05</totfact>
</mgrwt>
</event>
<event>
 8    1  0.9478272E-006  0.3488748E+03  0.7546771E-02  0.1063078E+00
         21   -1    0    0  504  503  0.00000000000E+00  0.00000000000E+00  0.31489558132E+03  0.31489558132E+03  0.00000000000E+00 0. -1.
         21   -1    0    0  503  504 -0.00000000000E+00 -0.00000000000E+00 -0.96630132622E+02  0.96630132622E+02  0.00000000000E+00 0. -1.
         25    2    1    2    0    0  0.96805417515E+02 -0.72905975580E+02  0.12189130571E+03  0.21253056574E+03  0.12500072333E+03 0.  0.
         25    2    1    2    0    0 -0.96805417515E+02  0.72905975580E+02  0.96374142991E+02  0.19899514820E+03  0.12499809372E+03 0.  0.
          5    1    3    3  501    0  0.46173245136E+02 -0.97226422284E+02  0.43979147119E+02  0.11636666678E+03  0.47000000000E+01 0.  1.
         -5    1    3    3    0  501  0.50632172378E+02  0.24320446704E+02  0.77912158588E+02  0.96163898962E+02  0.47000000000E+01 0.  1.
          5    1    4    4  502    0 -0.19925279761E+02 -0.35522337498E+02  0.25603303180E+02  0.48337070335E+02  0.47000000000E+01 0. -1.
         -5    1    4    4    0  502 -0.76880137753E+02  0.10842831308E+03  0.70770839811E+02  0.15065807786E+03  0.47000000000E+01 0. -1.
<mgrwt>
<rscale>  0 0.34887477E+03</rscale>
<asrwt>0</asrwt>
<pdfrwt beam="1">  1       21 0.48445474E-01 0.34887477E+03</pdfrwt>
<pdfrwt beam="2">  1       21 0.14866174E-01 0.34887477E+03</pdfrwt>
<totfact> 0.15547199E+05</totfact>
</mgrwt>
</event>
<event>
 8    1  0.9478272E-006  0.5105436E+03  0.7546771E-02  0.1011063E+00
         21   -1    0    0  504  503  0.00000000000E+00  0.00000000000E+00  0.83843407819E+03  0.83843407819E+03  0.00000000000E+00 0.  1.
         21   -1    0    0  503  504 -0.00000000000E+00 -0.00000000000E+00 -0.77720697810E+02  0.77720697810E+02  0.00000000000E+00 0.  1.
         25    2    1    2    0    0  0.81070645171E+02  0.43572791138E+02  0.16704949334E+02  0.15612536466E+03  0.12500014609E+03 0.  0.
         25    2    1    2    0    0 -0.81070645171E+02 -0.43572791138E+02  0.74400843105E+03  0.76002941134E+03  0.12500049197E+03 0.  0.
          5    1    3    3  501    0  0.69217416580E+02  0.31913173689E+02  0.67842387603E+02  0.10214783879E+03  0.47000000000E+01 0.  1.
         -5    1    3    3    0  501  0.11853228591E+02  0.11659617448E+02 -0.51137438269E+02  0.53977525877E+02  0.47000000000E+01 0.  1.
          5    1    4    4  502    0 -0.73414073375E+02 -0.43668648043E+02  0.74594824306E+03  0.75083783091E+03  0.47000000000E+01 0.  1.
         -5    1    4    4    0  502 -0.76565717966E+01  0.95856905492E-01 -0.19398120135E+01  0.91915804338E+01  0.47000000000E+01 0.  1.
<mgrwt>
<rscale>  0 0.51054356E+03</rscale>
<asrwt>0</asrwt>
<pdfrwt beam="1">  1       21 0.12898985E+00 0.51054356E+03</pdfrwt>
<pdfrwt beam="2">  1       21 0.11957031E-01 0.51054356E+03</pdfrwt>
<totfact> 0.23076095E+04</totfact>
</mgrwt>
</event>
<event>
 8    1  0.9478272E-006  0.3015339E+03  0.7546771E-02  0.1084476E+00
         21   -1    0    0  504  503  0.00000000000E+00  0.00000000000E+00  0.16647635607E+02  0.16647635607E+02  0.00000000000E+00 0.  1.
         21   -1    0    0  503  504 -0.00000000000E+00 -0.00000000000E+00 -0.13653997210E+04  0.13653997210E+04  0.00000000000E+00 0.  1.
         25    2    1    2    0    0  0.78469024247E+02  0.27203300128E+02 -0.60826801895E+03  0.62650811754E+03  0.12500012463E+03 0.  0.
         25    2    1    2    0    0 -0.78469024247E+02 -0.27203300128E+02 -0.74048406644E+03  0.75553923907E+03  0.12500192725E+03 0.  0.
          5    1    3    3  501    0  0.90216932014E+02  0.64280664003E+01 -0.58774469394E+03  0.59468170488E+03  0.47000000000E+01 0.  1.
         -5    1    3    3    0  501 -0.11747907767E+02  0.20775233728E+02 -0.20523325010E+02  0.31826412661E+02  0.47000000000E+01 0.  1.
          5    1    4    4  502    0 -0.54566531947E+02 -0.72310136350E+02 -0.58043887761E+03  0.58748416393E+03  0.47000000000E+01 0. -1.
         -5    1    4    4    0  502 -0.23902492300E+02  0.45106836221E+02 -0.16004518883E+03  0.16805507514E+03  0.47000000000E+01 0. -1.
<mgrwt>
<rscale>  0 0.30153393E+03</rscale>
<asrwt>0</asrwt>
<pdfrwt beam="1">  1       21 0.25611735E-02 0.30153393E+03</pdfrwt>
<pdfrwt beam="2">  1       21 0.21006159E+00 0.30153393E+03</pdfrwt>
<totfact> 0.90138407E+04</totfact>
</mgrwt>
</event>
<event>
 8    1  0.9478272E-006  0.2596739E+03  0.7546771E-02  0.1107339E+00
         21   -1    0    0  504  503  0.00000000000E+00  0.00000000000E+00  0.35682822120E+03  0.35682822120E+03  0.00000000000E+00 0. -1.
         21   -1    0    0  503  504 -0.00000000000E+00 -0.00000000000E+00 -0.47242980576E+02  0.47242980576E+02  0.00000000000E+00 0. -1.
         25    2    1    2    0    0 -0.24870562696E+02  0.10161203709E+02  0.18998552952E+03  0.22900202663E+03  0.12500252727E+03 0.  0.
         25    2    1    2    0    0  0.24870562696E+02 -0.10161203709E+02  0.11959971111E+03  0.17506917515E+03  0.12499332078E+03 0.  0.
          5    1    3    3  501    0  0.13437663598E+02  0.18843113626E+02  0.18790948098E+03  0.18938768908E+03  0.47000000000E+01 0. -1.
         -5    1    3    3    0  501 -0.38308226294E+02 -0.86819099170E+01  0.20760485354E+01  0.39614337545E+02  0.47000000000E+01 0. -1.
          5    1    4    4  502    0 -0.18530236415E+02  0.12377947487E+02 -0.17956961244E+02  0.29002167207E+02  0.47000000000E+01 0.  1.
         -5    1    4    4    0  502  0.43400799111E+02 -0.22539151196E+02  0.13755667235E+03  0.14606700794E+03  0.47000000000E+01 0.  1.
<mgrwt>
<rscale>  0 0.25967386E+03</rscale>
<asrwt>0</asrwt>
<pdfrwt beam="1">  1       21 0.54896648E-01 0.25967386E+03</pdfrwt>
<pdfrwt beam="2">  1       21 0.72681511E-02 0.25967386E+03</pdfrwt>
<totfact> 0.43749944E+05</totfact>
</mgrwt>
</event>
<event>
 8    1  0.9478272E-006  0.2907826E+03  0.7546771E-02  0.1089941E+00
         21   -1    0    0  504  503  0.00000000000E+00  0.00000000000E+00  0.47113452574E+03  0.47113452574E+03  0.00000000000E+00 0. -1.
         21   -1    0    0  503  504 -0.00000000000E+00 -0.00000000000E+00 -0.44867507942E+02  0.44867507942E+02  0.00000000000E+00 0. -1.
         25    2    1    2    0    0  0.17207631746E+02  0.14326881845E+02  0.87522762574E+02  0.15423584603E+03  0.12500840011E+03 0.  0.
         25    2    1    2    0    0 -0.17207631746E+02 -0.14326881845E+02  0.33874425522E+03  0.36176618765E+03  0.12500296777E+03 0.  0.
          5    1    3    3  501    0  0.20128709494E+02 -0.14096157449E+01  0.11783195106E+03  0.11963950289E+03  0.47000000000E+01 0.  1.
         -5    1    3    3    0  501 -0.29210777477E+01  0.15736497590E+02 -0.30309188484E+02  0.34596343133E+02  0.47000000000E+01 0.  1.
          5    1    4    4  502    0  0.11096487963E+02 -0.65601142966E+02  0.15182834299E+03  0.16583298146E+03  0.47000000000E+01 0.  1.
         -5    1    4    4    0  502 -0.28304119709E+02  0.51274261120E+02  0.18691591223E+03  0.19593320619E+03  0.47000000000E+01 0.  1.
<mgrwt>
<rscale>  0 0.29078261E+03</rscale>
<asrwt>0</asrwt>
<pdfrwt beam="1">  1       21 0.72482231E-01 0.29078261E+03</pdfrwt>
<pdfrwt beam="2">  1       21 0.69026939E-02 0.29078261E+03</pdfrwt>
<totfact> 0.25907694E+05</totfact>
</mgrwt>
</event>
<event>
 8    1  0.9478272E-006  0.3098617E+03  0.7546771E-02  0.1080412E+00
         21   -1    0    0  504  503  0.00000000000E+00  0.00000000000E+00  0.10519278856E+03  0.10519278856E+03  0.00000000000E+00 0.  1.
         21   -1    0    0  503  504 -0.00000000000E+00 -0.00000000000E+00 -0.22818643337E+03  0.22818643337E+03  0.00000000000E+00 0.  1.
         25    2    1    2    0    0  0.31995402880E+02  0.68993952580E+02 -0.67233657180E+01  0.14648924578E+03  0.12502009513E+03 0.  0.
         25    2    1    2    0    0 -0.31995402880E+02 -0.68993952580E+02 -0.11627027909E+03  0.18688997615E+03  0.12500085635E+03 0.  0.
          5    1    3    3  501    0 -0.27319773574E+02 -0.20725448533E+02  0.13126957091E+02  0.37017850390E+02  0.47000000000E+01 0. -1.
         -5    1    3    3    0  501  0.59315176454E+02  0.89719401113E+02 -0.19850322809E+02  0.10947139539E+03  0.47000000000E+01 0. -1.
          5    1    4    4  502    0 -0.60393253190E+01 -0.67021952753E+02 -0.13737946263E+03  0.15304777801E+03  0.47000000000E+01 0. -1.
         -5    1    4    4    0  502 -0.25956077561E+02 -0.19719998265E+01  0.21109183538E+02  0.33842198145E+02  0.47000000000E+01 0. -1.
<mgrwt>
<rscale>  0 0.30986169E+03</rscale>
<asrwt>0</asrwt>
<pdfrwt beam="1">  1       21 0.16183506E-01 0.30986169E+03</pdfrwt>
<pdfrwt beam="2">  1       21 0.35105604E-01 0.30986169E+03</pdfrwt>
<totfact> 0.25969028E+05</totfact>
</mgrwt>
</event>
<event>
 8    1  0.9478272E-006  0.3130219E+03  0.7546771E-02  0.1078906E+00
         21   -1    0    0  504  503  0.00000000000E+00  0.00000000000E+00  0.19798280342E+03  0.19798280342E+03  0.00000000000E+00 0. -1.
         21   -1    0    0  503  504 -0.00000000000E+00 -0.00000000000E+00 -0.12372629423E+03  0.12372629423E+03  0.00000000000E+00 0. -1.
         25    2    1    2    0    0 -0.11768768280E+02 -0.88442935043E+02  0.60910943291E+01  0.15369758954E+03  0.12500076374E+03 0.  0.
         25    2    1    2    0    0  0.11768768280E+02  0.88442935043E+02  0.68165414858E+02  0.16801150811E+03  0.12498274445E+03 0.  0.
          5    1    3    3  501    0  0.15941146796E+02 -0.25554770064E+01  0.50341945333E+02  0.53075908695E+02  0.47000000000E+01 0. -1.
         -5    1    3    3    0  501 -0.27709915076E+02 -0.85887458037E+02 -0.44250851004E+02  0.10062168084E+03  0.47000000000E+01 0. -1.
          5    1    4    4  502    0 -0.32117547926E+02  0.58376921278E+02 -0.15673009370E+02  0.68608563936E+02  0.47000000000E+01 0.  1.
         -5    1    4    4    0  502  0.43886316206E+02  0.30066013765E+02  0.83838424229E+02  0.99402944177E+02  0.47000000000E+01 0.  1.
<mgrwt>
<rscale>  0 0.31302191E+03</rscale>
<asrwt>0</asrwt>
<pdfrwt beam="1">  1       21 0.30458893E-01 0.31302191E+03</pdfrwt>
<pdfrwt beam="2">  1       21 0.19034814E-01 0.31302191E+03</pdfrwt>
<totfact> 0.25439000E+05</totfact>
</mgrwt>
</event>
<event>
 8    1  0.9478272E-006  0.2508615E+03  0.7546771E-02  0.1112762E+00
         21   -1    0    0  504  503  0.00000000000E+00  0.00000000000E+00  0.70678749055E+01  0.70678749055E+01  0.00000000000E+00 0. -1.
         21   -1    0    0  503  504 -0.00000000000E+00 -0.00000000000E+00 -0.22259696683E+04  0.22259696683E+04  0.00000000000E+00 0. -1.
         25    2    1    2    0    0  0.71845195863E+01 -0.81826299841E+00 -0.10429346453E+04  0.10504235720E+04  0.12499887728E+03 0.  0.
         25    2    1    2    0    0 -0.71845195863E+01  0.81826299841E+00 -0.11759671481E+04  0.11826139712E+04  0.12499913868E+03 0.  0.
          5    1    3    3  501    0 -0.98358984414E+01  0.28955924030E+02 -0.96072611359E+03  0.96122419121E+03  0.47000000000E+01 0.  1.
         -5    1    3    3    0  501  0.17020418028E+02 -0.29774187029E+02 -0.82208531701E+02  0.89199380757E+02  0.47000000000E+01 0.  1.
          5    1    4    4  502    0 -0.25780124877E+02  0.48318761338E+02 -0.91599914344E+03  0.91764690286E+03  0.47000000000E+01 0.  1.
         -5    1    4    4    0  502  0.18595605290E+02 -0.47500498340E+02 -0.25996800466E+03  0.26496706838E+03  0.47000000000E+01 0.  1.
<mgrwt>
<rscale>  0 0.25086152E+03</rscale>
<asrwt>0</asrwt>
<pdfrwt beam="1">  1       21 0.10873649E-02 0.25086152E+03</pdfrwt>
<pdfrwt beam="2">  1       21 0.34245701E+00 0.25086152E+03</pdfrwt>
<totfact> 0.60470942E+04</totfact>
</mgrwt>
</event>
<event>
 8    1  0.9478272E-006  0.3071681E+03  0.7546771E-02  0.1081711E+00
         21   -1    0    0  504  503  0.00000000000E+00  0.00000000000E+00  0.51362683266E+03  0.51362683266E+03  0.00000000000E+00 0.  1.
         21   -1    0    0  503  504 -0.00000000000E+00 -0.00000000000E+00 -0.45924523630E+02  0.45924523630E+02  0.00000000000E+00 0.  1.
         25    2    1    2    0    0  0.73043871528E+01 -0.20531624140E+02  0.39149696557E+03  0.41154291690E+03  0.12499118664E+03 0.  0.
         25    2    1    2    0    0 -0.73043871528E+01  0.20531624140E+02  0.76205343463E+02  0.14800843939E+03  0.12499736836E+03 0.  0.
          5    1    3    3  501    0 -0.53646916808E+02  0.15340861575E+02  0.17386121703E+03  0.18265581431E+03  0.47000000000E+01 0.  1.
         -5    1    3    3    0  501  0.60951303961E+02 -0.35872485715E+02  0.21763574854E+03  0.22888710258E+03  0.47000000000E+01 0.  1.
          5    1    4    4  502    0  0.30171468683E+02  0.62078276433E+02  0.30488418071E+02  0.75602007671E+02  0.47000000000E+01 0.  1.
         -5    1    4    4    0  502 -0.37475855836E+02 -0.41546652293E+02  0.45716925392E+02  0.72406431722E+02  0.47000000000E+01 0.  1.
<mgrwt>
<rscale>  0 0.30716815E+03</rscale>
<asrwt>0</asrwt>
<pdfrwt beam="1">  1       21 0.79019509E-01 0.30716815E+03</pdfrwt>
<pdfrwt beam="2">  1       21 0.70653117E-02 0.30716815E+03</pdfrwt>
<totfact> 0.20386465E+05</totfact>
</mgrwt>
</event>
<event>
 8    1  0.9478272E-006  0.3394830E+03  0.7546771E-02  0.1067016E+00
         21   -1    0    0  504  503  0.00000000000E+00  0.00000000000E+00  0.14608055461E+02  0.14608055461E+02  0.00000000000E+00 0. -1.
         21   -1    0    0  503  504 -0.00000000000E+00 -0.00000000000E+00 -0.19723488380E+04  0.19723488380E+04  0.00000000000E+00 0. -1.
         25    2    1    2    0    0  0.11335018745E+02  0.10264399148E+03 -0.12728263367E+04  0.12831123471E+04  0.12500456158E+03 0.  0.
         25    2    1    2    0    0 -0.11335018745E+02 -0.10264399148E+03 -0.68491444584E+03  0.70384454630E+03  0.12500030237E+03 0.  0.
          5    1    3    3  501    0 -0.47360183058E+02  0.75751208563E+02 -0.92479427007E+03  0.92911127671E+03  0.47000000000E+01 0.  1.
         -5    1    3    3    0  501  0.58695201803E+02  0.26892782916E+02 -0.34803206660E+03  0.35400107044E+03  0.47000000000E+01 0.  1.
          5    1    4    4  502    0 -0.53228980958E+02 -0.39933742605E+02 -0.49459227637E+03  0.49907077460E+03  0.47000000000E+01 0. -1.
         -5    1    4    4    0  502  0.41893962214E+02 -0.62710248875E+02 -0.19032216947E+03  0.20477377170E+03  0.47000000000E+01 0. -1.
<mgrwt>
<rscale>  0 0.33948303E+03</rscale>
<asrwt>0</asrwt>
<pdfrwt beam="1">  1       21 0.22473933E-02 0.33948303E+03</pdfrwt>
<pdfrwt beam="2">  1       21 0.30343826E+00 0.33948303E+03</pdfrwt>
<totfact> 0.29865229E+04</totfact>
</mgrwt>
</event>
<event>
 8    1  0.9478272E-006  0.4159738E+03  0.7546771E-02  0.1038385E+00
         21   -1    0    0  504  503  0.00000000000E+00  0.00000000000E+00  0.14748168238E+03  0.14748168238E+03  0.00000000000E+00 0. -1.
         21   -1    0    0  503  504 -0.00000000000E+00 -0.00000000000E+00 -0.29331478928E+03  0.29331478928E+03  0.00000000000E+00 0. -1.
         25    2    1    2    0    0  0.16686354812E+02 -0.11575390033E+03 -0.19809599042E+03  0.26181126235E+03  0.12500286313E+03 0.  0.
         25    2    1    2    0    0 -0.16686354812E+02  0.11575390033E+03  0.52262883528E+02  0.17898520932E+03  0.12500758489E+03 0.  0.
          5    1    3    3  501    0  0.62717517272E+02 -0.66201375574E+02 -0.15952386743E+03  0.18380985659E+03  0.47000000000E+01 0.  1.
         -5    1    3    3    0  501 -0.46031162461E+02 -0.49552524759E+02 -0.38572122996E+02  0.78001405756E+02  0.47000000000E+01 0.  1.
          5    1    4    4  502    0 -0.67917421124E+02  0.52234238223E+02  0.45079199432E+02  0.96929953865E+02  0.47000000000E+01 0. -1.
         -5    1    4    4    0  502  0.51231066312E+02  0.63519662111E+02  0.71836840959E+01  0.82055255453E+02  0.47000000000E+01 0. -1.
<mgrwt>
<rscale>  0 0.41597384E+03</rscale>
<asrwt>0</asrwt>
<pdfrwt beam="1">  1       21 0.22689490E-01 0.41597384E+03</pdfrwt>
<pdfrwt beam="2">  1       21 0.45125352E-01 0.41597384E+03</pdfrwt>
<totfact> 0.80274871E+04</totfact>
</mgrwt>
</event>
<event>
 8    1  0.9478272E-006  0.3079692E+03  0.7546771E-02  0.1081323E+00
         21   -1    0    0  504  503  0.00000000000E+00  0.00000000000E+00  0.16363825268E+02  0.16363825268E+02  0.00000000000E+00 0. -1.
         21   -1    0    0  503  504 -0.00000000000E+00 -0.00000000000E+00 -0.14490046498E+04  0.14490046498E+04  0.00000000000E+00 0. -1.
         25    2    1    2    0    0 -0.14842682801E+02  0.16306354998E+01 -0.11382862113E+04  0.11452242226E+04  0.12498022581E+03 0.  0.
         25    2    1    2    0    0  0.14842682801E+02 -0.16306354998E+01 -0.29435461315E+03  0.32014425245E+03  0.12499895955E+03 0.  0.
          5    1    3    3  501    0  0.51893949483E+02  0.17455489359E+01 -0.69079192208E+03  0.69275652184E+03  0.47000000000E+01 0. -1.
         -5    1    3    3    0  501 -0.66736632284E+02 -0.11491343609E+00 -0.44749428925E+03  0.45246770074E+03  0.47000000000E+01 0. -1.
          5    1    4    4  502    0 -0.47879979431E+02 -0.27150577795E+02 -0.99522951117E+02  0.11382686020E+03  0.47000000000E+01 0.  1.
         -5    1    4    4    0  502  0.62722662232E+02  0.25519942296E+02 -0.19483166203E+03  0.20631739224E+03  0.47000000000E+01 0.  1.
<mgrwt>
<rscale>  0 0.30796921E+03</rscale>
<asrwt>0</asrwt>
<pdfrwt beam="1">  1       21 0.25175107E-02 0.30796921E+03</pdfrwt>
<pdfrwt beam="2">  1       21 0.22292387E+00 0.30796921E+03</pdfrwt>
<totfact> 0.76694155E+04</totfact>
</mgrwt>
</event>
<event>
 8    1  0.9478272E-006  0.4263604E+03  0.7546771E-02  0.1035016E+00
         21   -1    0    0  504  503  0.00000000000E+00  0.00000000000E+00  0.56480474818E+03  0.56480474818E+03  0.00000000000E+00 0. -1.
         21   -1    0    0  503  504 -0.00000000000E+00 -0.00000000000E+00 -0.80462848377E+02  0.80462848377E+02  0.00000000000E+00 0. -1.
         25    2    1    2    0    0 -0.31180902845E+02 -0.74462459038E+02  0.47320513288E+03  0.49604900290E+03  0.12499843595E+03 0.  0.
         25    2    1    2    0    0  0.31180902845E+02  0.74462459038E+02  0.11136766925E+02  0.14921859366E+03  0.12500101842E+03 0.  0.
          5    1    3    3  501    0 -0.22924220280E+01  0.33461262551E+02  0.15821372263E+03  0.16179797068E+03  0.47000000000E+01 0. -1.
         -5    1    3    3    0  501 -0.28888480817E+02 -0.10792372159E+03  0.31499141025E+03  0.33425103222E+03  0.47000000000E+01 0. -1.
          5    1    4    4  502    0 -0.98136045397E+01  0.24439971189E+02 -0.52148280639E+02  0.58610171467E+02  0.47000000000E+01 0. -1.
         -5    1    4    4    0  502  0.40994507385E+02  0.50022487849E+02  0.63285047564E+02  0.90608422189E+02  0.47000000000E+01 0. -1.
<mgrwt>
<rscale>  0 0.42636041E+03</rscale>
<asrwt>0</asrwt>
<pdfrwt beam="1">  1       21 0.86893036E-01 0.42636041E+03</pdfrwt>
<pdfrwt beam="2">  1       21 0.12378900E-01 0.42636041E+03</pdfrwt>
<totfact> 0.58541735E+04</totfact>
</mgrwt>
</event>
<event>
 8    1  0.9478272E-006  0.2786637E+03  0.7546771E-02  0.1096421E+00
         21   -1    0    0  504  503  0.00000000000E+00  0.00000000000E+00  0.18388822426E+03  0.18388822426E+03  0.00000000000E+00 0. -1.
         21   -1    0    0  503  504 -0.00000000000E+00 -0.00000000000E+00 -0.10557152189E+03  0.10557152189E+03  0.00000000000E+00 0. -1.
         25    2    1    2    0    0 -0.32998143722E+02  0.49507392376E+02  0.55546687884E+02  0.14916444789E+03  0.12499895436E+03 0.  0.
         25    2    1    2    0    0  0.32998143722E+02 -0.49507392376E+02  0.22770014478E+02  0.14029529826E+03  0.12499775104E+03 0.  0.
          5    1    3    3  501    0  0.13651505674E-01  0.56788328657E+02  0.86171927723E+02  0.10330830356E+03  0.47000000000E+01 0. -1.
         -5    1    3    3    0  501 -0.33011795228E+02 -0.72809362808E+01 -0.30625239839E+02  0.45856144327E+02  0.47000000000E+01 0. -1.
          5    1    4    4  502    0  0.35702984472E+01 -0.88806105354E+02  0.17360556688E+02  0.90679381932E+02  0.47000000000E+01 0.  1.
         -5    1    4    4    0  502  0.29427845275E+02  0.39298712978E+02  0.54094577903E+01  0.49615916326E+02  0.47000000000E+01 0.  1.
<mgrwt>
<rscale>  0 0.27866367E+03</rscale>
<asrwt>0</asrwt>
<pdfrwt beam="1">  1       21 0.28290496E-01 0.27866367E+03</pdfrwt>
<pdfrwt beam="2">  1       21 0.16241773E-01 0.27866367E+03</pdfrwt>
<totfact> 0.39789057E+05</totfact>
</mgrwt>
</event>
<event>
 8    1  0.9478272E-006  0.2870125E+03  0.7546771E-02  0.1091919E+00
         21   -1    0    0  504  503  0.00000000000E+00  0.00000000000E+00  0.14018948389E+04  0.14018948389E+04  0.00000000000E+00 0. -1.
         21   -1    0    0  503  504 -0.00000000000E+00 -0.00000000000E+00 -0.14690148157E+02  0.14690148157E+02  0.00000000000E+00 0. -1.
         25    2    1    2    0    0  0.25115361325E+02  0.65852106573E+02  0.69367591796E+03  0.70836591083E+03  0.12501481176E+03 0.  0.
         25    2    1    2    0    0 -0.25115361325E+02 -0.65852106573E+02  0.69352877277E+03  0.70821907621E+03  0.12499927973E+03 0.  0.
          5    1    3    3  501    0  0.71198639721E+02  0.59269928261E+02  0.37653539646E+03  0.38779268364E+03  0.47000000000E+01 0. -1.
         -5    1    3    3    0  501 -0.46083278396E+02  0.65821783119E+01  0.31714052150E+03  0.32057322719E+03  0.47000000000E+01 0. -1.
          5    1    4    4  502    0 -0.11640688628E+02 -0.81081783498E+02  0.22957481052E+03  0.24379590824E+03  0.47000000000E+01 0.  1.
         -5    1    4    4    0  502 -0.13474672697E+02  0.15229676925E+02  0.46395396225E+03  0.46442316798E+03  0.47000000000E+01 0.  1.
<mgrwt>
<rscale>  0 0.28701249E+03</rscale>
<asrwt>0</asrwt>
<pdfrwt beam="1">  1       21 0.21567602E+00 0.28701249E+03</pdfrwt>
<pdfrwt beam="2">  1       21 0.22600239E-02 0.28701249E+03</pdfrwt>
<totfact> 0.10271676E+05</totfact>
</mgrwt>
</event>
<event>
 8    1  0.9478272E-006  0.2798552E+03  0.7546771E-02  0.1095768E+00
         21   -1    0    0  504  503  0.00000000000E+00  0.00000000000E+00  0.23367648943E+02  0.23367648943E+02  0.00000000000E+00 0.  1.
         21   -1    0    0  503  504 -0.00000000000E+00 -0.00000000000E+00 -0.83789902497E+03  0.83789902497E+03  0.00000000000E+00 0.  1.
         25    2    1    2    0    0  0.37304638046E+02 -0.25003372864E+02 -0.27179096685E+03  0.30250942302E+03  0.12499926671E+03 0.  0.
         25    2    1    2    0    0 -0.37304638046E+02  0.25003372864E+02 -0.54274040918E+03  0.55875725090E+03  0.12500283599E+03 0.  0.
          5    1    3    3  501    0  0.61673974832E+02  0.29485151090E+02 -0.10580783163E+03  0.12605729071E+03  0.47000000000E+01 0. -1.
         -5    1    3    3    0  501 -0.24369336786E+02 -0.54488523954E+02 -0.16598313522E+03  0.17645213231E+03  0.47000000000E+01 0. -1.
          5    1    4    4  502    0 -0.66221067200E+02 -0.27181694444E+02 -0.25746649521E+03  0.26727356849E+03  0.47000000000E+01 0. -1.
         -5    1    4    4    0  502  0.28916429153E+02  0.52185067308E+02 -0.28527391396E+03  0.29148368241E+03  0.47000000000E+01 0. -1.
<mgrwt>
<rscale>  0 0.27985518E+03</rscale>
<asrwt>0</asrwt>
<pdfrwt beam="1">  1       21 0.35950234E-02 0.27985518E+03</pdfrwt>
<pdfrwt beam="2">  1       21 0.12890752E+00 0.27985518E+03</pdfrwt>
<totfact> 0.20085333E+05</totfact>
</mgrwt>
</event>
<event>
 8    1  0.9478272E-006  0.2913896E+03  0.7546771E-02  0.1089626E+00
         21   -1    0    0  504  503  0.00000000000E+00  0.00000000000E+00  0.82572598358E+02  0.82572598358E+02  0.00000000000E+00 0. -1.
         21   -1    0    0  503  504 -0.00000000000E+00 -0.00000000000E+00 -0.25707050353E+03  0.25707050353E+03  0.00000000000E+00 0. -1.
         25    2    1    2    0    0 -0.70424129137E+02 -0.24204072947E+01 -0.11651864307E+03  0.18487302562E+03  0.12504409256E+03 0.  0.
         25    2    1    2    0    0  0.70424129137E+02  0.24204072947E+01 -0.57979262111E+02  0.15477007627E+03  0.12500706116E+03 0.  0.
          5    1    3    3  501    0 -0.20013689395E+02  0.48748504679E+02 -0.63684909823E+01  0.53288011307E+02  0.47000000000E+01 0. -1.
         -5    1    3    3    0  501 -0.50410439742E+02 -0.51168911974E+02 -0.11015015208E+03  0.13158501431E+03  0.47000000000E+01 0. -1.
          5    1    4    4  502    0  0.75580981100E+02  0.19830410552E+02  0.14752890371E+02  0.79658443752E+02  0.47000000000E+01 0. -1.
         -5    1    4    4    0  502 -0.51568519627E+01 -0.17410003257E+02 -0.72732152482E+02  0.75111632523E+02  0.47000000000E+01 0. -1.
<mgrwt>
<rscale>  0 0.29138963E+03</rscale>
<asrwt>0</asrwt>
<pdfrwt beam="1">  1       21 0.12703477E-01 0.29138963E+03</pdfrwt>
<pdfrwt beam="2">  1       21 0.39549308E-01 0.29138963E+03</pdfrwt>
<totfact> 0.31923181E+05</totfact>
</mgrwt>
</event>
<event>
 8    1  0.9478272E-006  0.2866107E+03  0.7546771E-02  0.1092132E+00
         21   -1    0    0  504  503  0.00000000000E+00  0.00000000000E+00  0.35190265263E+03  0.35190265263E+03  0.00000000000E+00 0.  1.
         21   -1    0    0  503  504 -0.00000000000E+00 -0.00000000000E+00 -0.58358257986E+02  0.58358257986E+02  0.00000000000E+00 0.  1.
         25    2    1    2    0    0  0.56309745290E+02  0.41072740157E+02  0.15688155172E+03  0.21235621998E+03  0.12500234195E+03 0.  0.
         25    2    1    2    0    0 -0.56309745290E+02 -0.41072740157E+02  0.13666284292E+03  0.19790469064E+03  0.12502710323E+03 0.  0.
          5    1    3    3  501    0 -0.34853464858E+02  0.20913511911E+02  0.17442751415E+02  0.44480091839E+02  0.47000000000E+01 0. -1.
         -5    1    3    3    0  501  0.91163210149E+02  0.20159228246E+02  0.13943880031E+03  0.16787612814E+03  0.47000000000E+01 0. -1.
          5    1    4    4  502    0 -0.24732474550E+02  0.43429533417E+02  0.31463281618E+02  0.59243968134E+02  0.47000000000E+01 0.  1.
         -5    1    4    4    0  502 -0.31577270741E+02 -0.84502273573E+02  0.10519956130E+03  0.13866072250E+03  0.47000000000E+01 0.  1.
<mgrwt>
<rscale>  0 0.28661072E+03</rscale>
<asrwt>0</asrwt>
<pdfrwt beam="1">  1       21 0.54138868E-01 0.28661072E+03</pdfrwt>
<pdfrwt beam="2">  1       21 0.89781937E-02 0.28661072E+03</pdfrwt>
<totfact> 0.30933245E+05</totfact>
</mgrwt>
</event>
<event>
 8    1  0.9478272E-006  0.3301904E+03  0.7546771E-02  0.1071053E+00
         21   -1    0    0  504  503  0.00000000000E+00  0.00000000000E+00  0.77894409553E+03  0.77894409553E+03  0.00000000000E+00 0. -1.
         21   -1    0    0  503  504 -0.00000000000E+00 -0.00000000000E+00 -0.34991500537E+02  0.34991500537E+02  0.00000000000E+00 0. -1.
         25    2    1    2    0    0 -0.76398994833E+02  0.75507551191E+02  0.34832604416E+03  0.38535074556E+03  0.12500386939E+03 0.  0.
         25    2    1    2    0    0  0.76398994833E+02 -0.75507551191E+02  0.39562655083E+03  0.42858485051E+03  0.12500563853E+03 0.  0.
          5    1    3    3  501    0 -0.71097240937E+02  0.10851764617E+03  0.25577967538E+03  0.28683833345E+03  0.47000000000E+01 0. -1.
         -5    1    3    3    0  501 -0.53017538964E+01 -0.33010094979E+02  0.92546368777E+02  0.98512412104E+02  0.47000000000E+01 0. -1.
          5    1    4    4  502    0 -0.18808188832E+02  0.16176448205E+02  0.27078809070E+02  0.37024010376E+02  0.47000000000E+01 0.  1.
         -5    1    4    4    0  502  0.95207183666E+02 -0.91683999396E+02  0.36854774176E+03  0.39156084013E+03  0.47000000000E+01 0.  1.
<mgrwt>
<rscale>  0 0.33019039E+03</rscale>
<asrwt>0</asrwt>
<pdfrwt beam="1">  1       21 0.11983754E+00 0.33019039E+03</pdfrwt>
<pdfrwt beam="2">  1       21 0.53833084E-02 0.33019039E+03</pdfrwt>
<totfact> 0.11993281E+05</totfact>
</mgrwt>
</event>
<event>
 8    1  0.9478272E-006  0.3026647E+03  0.7546771E-02  0.1083916E+00
         21   -1    0    0  504  503  0.00000000000E+00  0.00000000000E+00  0.58809958538E+03  0.58809958538E+03  0.00000000000E+00 0. -1.
         21   -1    0    0  503  504 -0.00000000000E+00 -0.00000000000E+00 -0.38941494355E+02  0.38941494355E+02  0.00000000000E+00 0. -1.
         25    2    1    2    0    0  0.81068138357E+02  0.21876990497E+02  0.30580251669E+03  0.34086992282E+03  0.12500591705E+03 0.  0.
         25    2    1    2    0    0 -0.81068138357E+02 -0.21876990497E+02  0.24335557433E+03  0.28617115691E+03  0.12498539803E+03 0.  0.
          5    1    3    3  501    0  0.40756841487E+02 -0.36812807707E+02  0.23102574101E+03  0.23751060176E+03  0.47000000000E+01 0.  1.
         -5    1    3    3    0  501  0.40311296870E+02  0.58689798204E+02  0.74776775680E+02  0.10335932106E+03  0.47000000000E+01 0.  1.
          5    1    4    4  502    0 -0.81796643068E+02 -0.26047604948E+02  0.25707169838E+03  0.27106662770E+03  0.47000000000E+01 0. -1.
         -5    1    4    4    0  502  0.72850471112E+00  0.41706144502E+01 -0.13716124049E+02  0.15104529219E+02  0.47000000000E+01 0. -1.
<mgrwt>
<rscale>  0 0.30266468E+03</rscale>
<asrwt>0</asrwt>
<pdfrwt beam="1">  1       21 0.90476853E-01 0.30266468E+03</pdfrwt>
<pdfrwt beam="2">  1       21 0.59909996E-02 0.30266468E+03</pdfrwt>
<totfact> 0.19868081E+05</totfact>
</mgrwt>
</event>
<event>
 8    1  0.9478272E-006  0.2752690E+03  0.7546771E-02  0.1098301E+00
         21   -1    0    0  504  503  0.00000000000E+00  0.00000000000E+00  0.44383972042E+03  0.44383972042E+03  0.00000000000E+00 0. -1.
         21   -1    0    0  503  504 -0.00000000000E+00 -0.00000000000E+00 -0.42680394415E+02  0.42680394415E+02  0.00000000000E+00 0. -1.
         25    2    1    2    0    0  0.14927468612E+02 -0.49937468260E+02  0.24392517917E+03  0.27900139188E+03  0.12500281430E+03 0.  0.
         25    2    1    2    0    0 -0.14927468612E+02  0.49937468260E+02  0.15723414683E+03  0.20751872295E+03  0.12499945356E+03 0.  0.
          5    1    3    3  501    0 -0.52762648110E+02 -0.85180840254E+01  0.12413387061E+03  0.13523225438E+03  0.47000000000E+01 0.  1.
         -5    1    3    3    0  501  0.67690116722E+02 -0.41419384234E+02  0.11979130855E+03  0.14376913750E+03  0.47000000000E+01 0.  1.
          5    1    4    4  502    0 -0.59320923291E+02 -0.83450502820E+01  0.53636271400E+02  0.80545337631E+02  0.47000000000E+01 0. -1.
         -5    1    4    4    0  502  0.44393454679E+02  0.58282518542E+02  0.10359787543E+03  0.12697338532E+03  0.47000000000E+01 0. -1.
<mgrwt>
<rscale>  0 0.27526899E+03</rscale>
<asrwt>0</asrwt>
<pdfrwt beam="1">  1       21 0.68283031E-01 0.27526899E+03</pdfrwt>
<pdfrwt beam="2">  1       21 0.65662148E-02 0.27526899E+03</pdfrwt>
<totfact> 0.32388176E+05</totfact>
</mgrwt>
</event>
<event>
 8    1  0.9478272E-006  0.6744183E+03  0.7546771E-02  0.9762009E-01
         21   -1    0    0  504  503  0.00000000000E+00  0.00000000000E+00  0.55594547110E+03  0.55594547110E+03  0.00000000000E+00 0. -1.
         21   -1    0    0  503  504 -0.00000000000E+00 -0.00000000000E+00 -0.20453447866E+03  0.20453447866E+03  0.00000000000E+00 0. -1.
         25    2    1    2    0    0 -0.18659371565E+03  0.22007951509E+03  0.31304208270E+03  0.44370113797E+03  0.12499258622E+03 0.  0.
         25    2    1    2    0    0  0.18659371565E+03 -0.22007951509E+03  0.38368909743E+02  0.31677881179E+03  0.12499773872E+03 0.  0.
          5    1    3    3  501    0 -0.14727212402E+03  0.89324731129E+02  0.21507875115E+03  0.27558836205E+03  0.47000000000E+01 0. -1.
         -5    1    3    3    0  501 -0.39321591633E+02  0.13075478396E+03  0.97963331552E+02  0.16811277591E+03  0.47000000000E+01 0. -1.
          5    1    4    4  502    0  0.51134683071E+02 -0.21782767339E+02 -0.34730949037E+02  0.65708245957E+02  0.47000000000E+01 0.  1.
         -5    1    4    4    0  502  0.13545903258E+03 -0.19829674775E+03  0.73099858780E+02  0.25107056584E+03  0.47000000000E+01 0.  1.
<mgrwt>
<rscale>  0 0.67441832E+03</rscale>
<asrwt>0</asrwt>
<pdfrwt beam="1">  1       21 0.85530072E-01 0.67441832E+03</pdfrwt>
<pdfrwt beam="2">  1       21 0.31466843E-01 0.67441832E+03</pdfrwt>
<totfact> 0.96918985E+03</totfact>
</mgrwt>
</event>
<event>
 8    1  0.9478272E-006  0.2832585E+03  0.7546771E-02  0.1093922E+00
         21   -1    0    0  504  503  0.00000000000E+00  0.00000000000E+00  0.86909840345E+01  0.86909840345E+01  0.00000000000E+00 0. -1.
         21   -1    0    0  503  504 -0.00000000000E+00 -0.00000000000E+00 -0.23080058976E+04  0.23080058976E+04  0.00000000000E+00 0. -1.
         25    2    1    2    0    0 -0.12655004090E+02  0.61278364476E+02 -0.13358818569E+04  0.13431755213E+04  0.12499983334E+03 0.  0.
         25    2    1    2    0    0  0.12655004090E+02 -0.61278364476E+02 -0.96343305672E+03  0.97352136039E+03  0.12500158910E+03 0.  0.
          5    1    3    3  501    0  0.17144306634E+02 -0.19984084109E+02 -0.79014590819E+03  0.79059846768E+03  0.47000000000E+01 0.  1.
         -5    1    3    3    0  501 -0.29799310723E+02  0.81262448586E+02 -0.54573594871E+03  0.55257705362E+03  0.47000000000E+01 0.  1.
          5    1    4    4  502    0  0.17965091122E+02 -0.92734863017E+02 -0.85983934874E+03  0.86502502562E+03  0.47000000000E+01 0. -1.
         -5    1    4    4    0  502 -0.53100870320E+01  0.31456498541E+02 -0.10359370798E+03  0.10849633477E+03  0.47000000000E+01 0. -1.
<mgrwt>
<rscale>  0 0.28325849E+03</rscale>
<asrwt>0</asrwt>
<pdfrwt beam="1">  1       21 0.13370735E-02 0.28325849E+03</pdfrwt>
<pdfrwt beam="2">  1       21 0.35507808E+00 0.28325849E+03</pdfrwt>
<totfact> 0.35555552E+04</totfact>
</mgrwt>
</event>
<event>
 8    1  0.9478272E-006  0.7648484E+03  0.7546771E-02  0.9612339E-01
         21   -1    0    0  504  503  0.00000000000E+00  0.00000000000E+00  0.73872923681E+03  0.73872923681E+03  0.00000000000E+00 0.  1.
         21   -1    0    0  503  504 -0.00000000000E+00 -0.00000000000E+00 -0.19797275903E+03  0.19797275903E+03  0.00000000000E+00 0.  1.
         25    2    1    2    0    0  0.93373594407E+02 -0.34819475016E+03  0.30192127068E+03  0.48656188698E+03  0.12501121551E+03 0.  0.
         25    2    1    2    0    0 -0.93373594407E+02  0.34819475016E+03  0.23883520710E+03  0.45014010885E+03  0.12500259706E+03 0.  0.
          5    1    3    3  501    0 -0.79372275611E+01 -0.20430588071E+03  0.17978124415E+03  0.27229997837E+03  0.47000000000E+01 0. -1.
         -5    1    3    3    0  501  0.10131082197E+03 -0.14388886945E+03  0.12214002652E+03  0.21426190861E+03  0.47000000000E+01 0. -1.
          5    1    4    4  502    0 -0.43067697801E+02  0.17005833146E+03  0.19000272330E+03  0.25864606619E+03  0.47000000000E+01 0.  1.
         -5    1    4    4    0  502 -0.50305896606E+02  0.17813641870E+03  0.48832483798E+02  0.19149404266E+03  0.47000000000E+01 0.  1.
<mgrwt>
<rscale>  0 0.76484839E+03</rscale>
<asrwt>0</asrwt>
<pdfrwt beam="1">  1       21 0.11365065E+00 0.76484839E+03</pdfrwt>
<pdfrwt beam="2">  1       21 0.30457348E-01 0.76484839E+03</pdfrwt>
<totfact> 0.50684451E+03</totfact>
</mgrwt>
</event>
<event>
 8    1  0.9478272E-006  0.2834767E+03  0.7546771E-02  0.1093805E+00
         21   -1    0    0  504  503  0.00000000000E+00  0.00000000000E+00  0.30230644229E+03  0.30230644229E+03  0.00000000000E+00 0.  1.
         21   -1    0    0  503  504 -0.00000000000E+00 -0.00000000000E+00 -0.66454946337E+02  0.66454946337E+02  0.00000000000E+00 0.  1.
         25    2    1    2    0    0 -0.97155442518E+01  0.11361606641E+02  0.33223876561E+02  0.13019960135E+03  0.12499852924E+03 0.  0.
         25    2    1    2    0    0  0.97155442518E+01 -0.11361606641E+02  0.20262761939E+03  0.23856178728E+03  0.12502118342E+03 0.  0.
          5    1    3    3  501    0 -0.35936407876E+02 -0.27911971814E+02  0.60203179149E+02  0.75610953977E+02  0.47000000000E+01 0. -1.
         -5    1    3    3    0  501  0.26220863624E+02  0.39273578455E+02 -0.26979302588E+02  0.54588647373E+02  0.47000000000E+01 0. -1.
          5    1    4    4  502    0  0.52698255539E+00  0.56769494753E+02  0.94594419408E+02  0.11042303849E+03  0.47000000000E+01 0.  1.
         -5    1    4    4    0  502  0.91885616964E+01 -0.68131101394E+02  0.10803319998E+03  0.12813874879E+03  0.47000000000E+01 0.  1.
<mgrwt>
<rscale>  0 0.28347669E+03</rscale>
<asrwt>0</asrwt>
<pdfrwt beam="1">  1       21 0.46508683E-01 0.28347669E+03</pdfrwt>
<pdfrwt beam="2">  1       21 0.10223838E-01 0.28347669E+03</pdfrwt>
<totfact> 0.33838168E+05</totfact>
</mgrwt>
</event>
<event>
 8    1  0.9478272E-006  0.2771375E+03  0.7546771E-02  0.1097263E+00
         21   -1    0    0  504  503  0.00000000000E+00  0.00000000000E+00  0.10312404205E+03  0.10312404205E+03  0.00000000000E+00 0.  1.
         21   -1    0    0  503  504 -0.00000000000E+00 -0.00000000000E+00 -0.18619617810E+03  0.18619617810E+03  0.00000000000E+00 0.  1.
         25    2    1    2    0    0  0.46946703015E+02 -0.36918225597E+02 -0.38404952352E+02  0.14377021449E+03  0.12501194305E+03 0.  0.
         25    2    1    2    0    0 -0.46946703015E+02  0.36918225597E+02 -0.44667183700E+02  0.14555000565E+03  0.12499079383E+03 0.  0.
          5    1    3    3  501    0  0.62898245778E+02 -0.62816179972E+02 -0.58948433861E+02  0.10676642564E+03  0.47000000000E+01 0. -1.
         -5    1    3    3    0  501 -0.15951542763E+02  0.25897954375E+02  0.20543481509E+02  0.37003788858E+02  0.47000000000E+01 0. -1.
          5    1    4    4  502    0  0.38971736354E+02  0.13600318887E+01  0.57093114284E+01  0.39690454245E+02  0.47000000000E+01 0. -1.
         -5    1    4    4    0  502 -0.85918439369E+02  0.35558193708E+02 -0.50376495128E+02  0.10585955141E+03  0.47000000000E+01 0. -1.
<mgrwt>
<rscale>  0 0.27713753E+03</rscale>
<asrwt>0</asrwt>
<pdfrwt beam="1">  1       21 0.15865237E-01 0.27713753E+03</pdfrwt>
<pdfrwt beam="2">  1       21 0.28645566E-01 0.27713753E+03</pdfrwt>
<totfact> 0.40560757E+05</totfact>
</mgrwt>
</event>
<event>
 8    1  0.9478272E-006  0.2713542E+03  0.7546771E-02  0.1100507E+00
         21   -1    0    0  504  503  0.00000000000E+00  0.00000000000E+00  0.16040145559E+02  0.16040145559E+02  0.00000000000E+00 0.  1.
         21   -1    0    0  503  504 -0.00000000000E+00 -0.00000000000E+00 -0.11476378515E+04  0.11476378515E+04  0.00000000000E+00 0.  1.
         25    2    1    2    0    0 -0.50047463684E+02  0.12796777366E+02 -0.52027594075E+03  0.53757142856E+03  0.12500992024E+03 0.  0.
         25    2    1    2    0    0  0.50047463684E+02 -0.12796777366E+02 -0.61132176516E+03  0.62610656846E+03  0.12500651334E+03 0.  0.
          5    1    3    3  501    0 -0.69802190875E+02  0.13508515631E+02 -0.50971696897E+03  0.51467300716E+03  0.47000000000E+01 0. -1.
         -5    1    3    3    0  501  0.19754727191E+02 -0.71173826552E+00 -0.10558971775E+02  0.22898421401E+02  0.47000000000E+01 0. -1.
          5    1    4    4  502    0 -0.16213841147E+02 -0.42448387580E+02 -0.40029701758E+03  0.40289520540E+03  0.47000000000E+01 0. -1.
         -5    1    4    4    0  502  0.66261304832E+02  0.29651610215E+02 -0.21102474758E+03  0.22321136305E+03  0.47000000000E+01 0. -1.
<mgrwt>
<rscale>  0 0.27135422E+03</rscale>
<asrwt>0</asrwt>
<pdfrwt beam="1">  1       21 0.24677147E-02 0.27135422E+03</pdfrwt>
<pdfrwt beam="2">  1       21 0.17655967E+00 0.27135422E+03</pdfrwt>
<totfact> 0.16219413E+05</totfact>
</mgrwt>
</event>
<event>
 8    1  0.9478272E-006  0.3373530E+03  0.7546771E-02  0.1067929E+00
         21   -1    0    0  504  503  0.00000000000E+00  0.00000000000E+00  0.22619891502E+03  0.22619891502E+03  0.00000000000E+00 0.  1.
         21   -1    0    0  503  504 -0.00000000000E+00 -0.00000000000E+00 -0.12578206360E+03  0.12578206360E+03  0.00000000000E+00 0.  1.
         25    2    1    2    0    0  0.31496410522E+02  0.47727358095E+02  0.15221545086E+03  0.20509433981E+03  0.12499688057E+03 0.  0.
         25    2    1    2    0    0 -0.31496410522E+02 -0.47727358095E+02 -0.51798599448E+02  0.14688663882E+03  0.12499066034E+03 0.  0.
          5    1    3    3  501    0  0.76963944752E+02  0.13737525561E+02  0.10568547621E+03  0.13154344637E+03  0.47000000000E+01 0. -1.
         -5    1    3    3    0  501 -0.45467534230E+02  0.33989832534E+02  0.46529974649E+02  0.73550893438E+02  0.47000000000E+01 0. -1.
          5    1    4    4  502    0  0.48693705294E+01  0.40711741062E+02 -0.10274630211E+02  0.42530161717E+02  0.47000000000E+01 0.  1.
         -5    1    4    4    0  502 -0.36365781051E+02 -0.88439099158E+02 -0.41523969237E+02  0.10435647710E+03  0.47000000000E+01 0.  1.
<mgrwt>
<rscale>  0 0.33735303E+03</rscale>
<asrwt>0</asrwt>
<pdfrwt beam="1">  1       21 0.34799833E-01 0.33735303E+03</pdfrwt>
<pdfrwt beam="2">  1       21 0.19351087E-01 0.33735303E+03</pdfrwt>
<totfact> 0.18821135E+05</totfact>
</mgrwt>
</event>
<event>
 8    1  0.9478272E-006  0.2734014E+03  0.7546771E-02  0.1099349E+00
         21   -1    0    0  504  503  0.00000000000E+00  0.00000000000E+00  0.16772329480E+03  0.16772329480E+03  0.00000000000E+00 0. -1.
         21   -1    0    0  503  504 -0.00000000000E+00 -0.00000000000E+00 -0.11141617052E+03  0.11141617052E+03  0.00000000000E+00 0. -1.
         25    2    1    2    0    0  0.35241944914E+02 -0.18839322605E+02  0.67268023797E+02  0.14747217078E+03  0.12500455741E+03 0.  0.
         25    2    1    2    0    0 -0.35241944914E+02  0.18839322605E+02 -0.10960899520E+02  0.13166729454E+03  0.12497687936E+03 0.  0.
          5    1    3    3  501    0  0.62537787962E+02 -0.22464231034E+02 -0.80880548229E+01  0.67105314469E+02  0.47000000000E+01 0. -1.
         -5    1    3    3    0  501 -0.27295843049E+02  0.36249084294E+01  0.75356078620E+02  0.80366856314E+02  0.47000000000E+01 0. -1.
          5    1    4    4  502    0 -0.42699096024E+02 -0.47484528196E+02 -0.95912278213E+01  0.64746234411E+02  0.47000000000E+01 0.  1.
         -5    1    4    4    0  502  0.74571511106E+01  0.66323850801E+02 -0.13696716990E+01  0.66921060125E+02  0.47000000000E+01 0.  1.
<mgrwt>
<rscale>  0 0.27340144E+03</rscale>
<asrwt>0</asrwt>
<pdfrwt beam="1">  1       21 0.25803584E-01 0.27340144E+03</pdfrwt>
<pdfrwt beam="2">  1       21 0.17140949E-01 0.27340144E+03</pdfrwt>
<totfact> 0.43095296E+05</totfact>
</mgrwt>
</event>
<event>
 8    1  0.9478272E-006  0.4929550E+03  0.7546771E-02  0.1015634E+00
         21   -1    0    0  504  503  0.00000000000E+00  0.00000000000E+00  0.10417359864E+04  0.10417359864E+04  0.00000000000E+00 0.  1.
         21   -1    0    0  503  504 -0.00000000000E+00 -0.00000000000E+00 -0.58317236541E+02  0.58317236541E+02  0.00000000000E+00 0.  1.
         25    2    1    2    0    0  0.57009941255E+02 -0.14707322976E+02  0.94717722195E+03  0.95720227031E+03  0.12500023102E+03 0.  0.
         25    2    1    2    0    0 -0.57009941255E+02  0.14707322976E+02  0.36241527890E+02  0.14285095261E+03  0.12500603012E+03 0.  0.
          5    1    3    3  501    0  0.58001335649E+01 -0.42419573367E+02  0.11218573704E+03  0.12016984376E+03  0.47000000000E+01 0.  1.
         -5    1    3    3    0  501  0.51209807690E+02  0.27712250391E+02  0.83499148491E+03  0.83703242655E+03  0.47000000000E+01 0.  1.
          5    1    4    4  502    0 -0.53366393563E+02 -0.48092263064E+02  0.42400356316E+01  0.72117304654E+02  0.47000000000E+01 0. -1.
         -5    1    4    4    0  502 -0.36435476926E+01  0.62799586040E+02  0.32001492258E+02  0.70733647957E+02  0.47000000000E+01 0. -1.
<mgrwt>
<rscale>  0 0.49295502E+03</rscale>
<asrwt>0</asrwt>
<pdfrwt beam="1">  1       21 0.16026706E+00 0.49295502E+03</pdfrwt>
<pdfrwt beam="2">  1       21 0.89718833E-02 0.49295502E+03</pdfrwt>
<totfact> 0.21715721E+04</totfact>
</mgrwt>
</event>
<event>
 8    1  0.9478272E-006  0.3644399E+03  0.7546771E-02  0.1056840E+00
         21   -1    0    0  504  503  0.00000000000E+00  0.00000000000E+00  0.32945340425E+02  0.32945340425E+02  0.00000000000E+00 0. -1.
         21   -1    0    0  503  504 -0.00000000000E+00 -0.00000000000E+00 -0.10078546376E+04  0.10078546376E+04  0.00000000000E+00 0. -1.
         25    2    1    2    0    0 -0.69456872705E+02  0.10896046328E+03 -0.57222658554E+03  0.59980417723E+03  0.12500058444E+03 0.  0.
         25    2    1    2    0    0  0.69456872705E+02 -0.10896046328E+03 -0.40268271162E+03  0.44099580078E+03  0.12500916101E+03 0.  0.
          5    1    3    3  501    0 -0.45023601020E+02  0.13578897541E+03 -0.44956091103E+03  0.47179749175E+03  0.47000000000E+01 0. -1.
         -5    1    3    3    0  501 -0.24433271685E+02 -0.26828512124E+02 -0.12266567450E+03  0.12800668548E+03  0.47000000000E+01 0. -1.
          5    1    4    4  502    0  0.70617408862E+02 -0.54023058802E-01 -0.15920617960E+03  0.17422835296E+03  0.47000000000E+01 0.  1.
         -5    1    4    4    0  502 -0.11605361570E+01 -0.10890644022E+03 -0.24347653203E+03  0.26676744782E+03  0.47000000000E+01 0.  1.
<mgrwt>
<rscale>  0 0.36443992E+03</rscale>
<asrwt>0</asrwt>
<pdfrwt beam="1">  1       21 0.50685143E-02 0.36443992E+03</pdfrwt>
<pdfrwt beam="2">  1       21 0.15505455E+00 0.36443992E+03</pdfrwt>
<totfact> 0.67152375E+04</totfact>
</mgrwt>
</event>
<event>
 8    1  0.9478272E-006  0.5785027E+03  0.7546771E-02  0.9951038E-01
         21   -1    0    0  504  503  0.00000000000E+00  0.00000000000E+00  0.12374864731E+04  0.12374864731E+04  0.00000000000E+00 0. -1.
         21   -1    0    0  503  504 -0.00000000000E+00 -0.00000000000E+00 -0.67609897693E+02  0.67609897693E+02  0.00000000000E+00 0. -1.
         25    2    1    2    0    0  0.12947439541E+03  0.14518771367E+02  0.10947434125E+04  0.11095326523E+04  0.12500061414E+03 0.  0.
         25    2    1    2    0    0 -0.12947439541E+03 -0.14518771367E+02  0.75133162886E+02  0.19556371846E+03  0.12500304806E+03 0.  0.
          5    1    3    3  501    0  0.65999099562E+02 -0.52783871264E+02  0.41842998337E+03  0.42690485964E+03  0.47000000000E+01 0. -1.
         -5    1    3    3    0  501  0.63475295850E+02  0.67302642631E+02  0.67631342912E+03  0.68262779265E+03  0.47000000000E+01 0. -1.
          5    1    4    4  502    0 -0.80880249526E+02 -0.68521035603E+02  0.31477395431E+02  0.11067819797E+03  0.47000000000E+01 0. -1.
         -5    1    4    4    0  502 -0.48594145887E+02  0.54002264236E+02  0.43655767455E+02  0.84885520492E+02  0.47000000000E+01 0. -1.
<mgrwt>
<rscale>  0 0.57850267E+03</rscale>
<asrwt>0</asrwt>
<pdfrwt beam="1">  1       21 0.19038252E+00 0.57850267E+03</pdfrwt>
<pdfrwt beam="2">  1       21 0.10401524E-01 0.57850267E+03</pdfrwt>
<totfact> 0.98638259E+03</totfact>
</mgrwt>
</event>
<event>
 8    1  0.9478272E-006  0.2823432E+03  0.7546771E-02  0.1094416E+00
         21   -1    0    0  504  503  0.00000000000E+00  0.00000000000E+00  0.80174140222E+02  0.80174140222E+02  0.00000000000E+00 0. -1.
         21   -1    0    0  503  504 -0.00000000000E+00 -0.00000000000E+00 -0.24857658882E+03  0.24857658882E+03  0.00000000000E+00 0. -1.
         25    2    1    2    0    0 -0.30971956281E+02 -0.47014977682E+02 -0.44830652417E+02  0.14422318347E+03  0.12498347511E+03 0.  0.
         25    2    1    2    0    0  0.30971956281E+02  0.47014977682E+02 -0.12357179618E+03  0.18452754558E+03  0.12494301126E+03 0.  0.
          5    1    3    3  501    0 -0.69480462828E+01 -0.87573241726E+02 -0.39883042548E+02  0.96592417386E+02  0.47000000000E+01 0.  1.
         -5    1    3    3    0  501 -0.24023909998E+02  0.40558264044E+02 -0.49476098694E+01  0.47630766079E+02  0.47000000000E+01 0.  1.
          5    1    4    4  502    0 -0.27332136540E+02  0.68877237706E+02 -0.60572964788E+02  0.95824285153E+02  0.47000000000E+01 0.  1.
         -5    1    4    4    0  502  0.58304092821E+02 -0.21862260024E+02 -0.62998831395E+02  0.88703260426E+02  0.47000000000E+01 0.  1.
<mgrwt>
<rscale>  0 0.28234315E+03</rscale>
<asrwt>0</asrwt>
<pdfrwt beam="1">  1       21 0.12334483E-01 0.28234315E+03</pdfrwt>
<pdfrwt beam="2">  1       21 0.38242551E-01 0.28234315E+03</pdfrwt>
<totfact> 0.36114641E+05</totfact>
</mgrwt>
</event>
<event>
 8    1  0.9478272E-006  0.2947715E+03  0.7546771E-02  0.1087884E+00
         21   -1    0    0  504  503  0.00000000000E+00  0.00000000000E+00  0.15480707711E+03  0.15480707711E+03  0.00000000000E+00 0.  1.
         21   -1    0    0  503  504 -0.00000000000E+00 -0.00000000000E+00 -0.14032019383E+03  0.14032019383E+03  0.00000000000E+00 0.  1.
         25    2    1    2    0    0 -0.41397415907E+02  0.56684711033E+02  0.41503933896E+02  0.14924727642E+03  0.12500108192E+03 0.  0.
         25    2    1    2    0    0  0.41397415907E+02 -0.56684711033E+02 -0.27017050619E+02  0.14587999452E+03  0.12499659703E+03 0.  0.
          5    1    3    3  501    0 -0.46742374875E+02 -0.97516778315E+01 -0.25743157920E+02  0.54449472074E+02  0.47000000000E+01 0. -1.
         -5    1    3    3    0  501  0.53449589681E+01  0.66436388864E+02  0.67247091816E+02  0.94797804349E+02  0.47000000000E+01 0. -1.
          5    1    4    4  502    0 -0.15442110424E+02 -0.73488116915E+02  0.99083228174E+01  0.75889570846E+02  0.47000000000E+01 0.  1.
         -5    1    4    4    0  502  0.56839526331E+02  0.16803405883E+02 -0.36925373436E+02  0.69990423675E+02  0.47000000000E+01 0.  1.
<mgrwt>
<rscale>  0 0.29477150E+03</rscale>
<asrwt>0</asrwt>
<pdfrwt beam="1">  1       21 0.23816473E-01 0.29477150E+03</pdfrwt>
<pdfrwt beam="2">  1       21 0.21587722E-01 0.29477150E+03</pdfrwt>
<totfact> 0.32479801E+05</totfact>
</mgrwt>
</event>
<event>
 8    1  0.9478272E-006  0.3133249E+03  0.7546771E-02  0.1078763E+00
         21   -1    0    0  504  503  0.00000000000E+00  0.00000000000E+00  0.67072107639E+02  0.67072107639E+02  0.00000000000E+00 0.  1.
         21   -1    0    0  503  504 -0.00000000000E+00 -0.00000000000E+00 -0.36592153816E+03  0.36592153816E+03  0.00000000000E+00 0.  1.
         25    2    1    2    0    0 -0.61653808947E+02  0.70489830891E+02 -0.13261855127E+03  0.20489931961E+03  0.12500417042E+03 0.  0.
         25    2    1    2    0    0  0.61653808947E+02 -0.70489830891E+02 -0.16623087925E+03  0.22809432618E+03  0.12499723198E+03 0.  0.
          5    1    3    3  501    0 -0.49218864857E+01 -0.30864155406E+02 -0.45349235723E+01  0.31929243451E+02  0.47000000000E+01 0. -1.
         -5    1    3    3    0  501 -0.56731922461E+02  0.10135398630E+03 -0.12808362769E+03  0.17297007616E+03  0.47000000000E+01 0. -1.
          5    1    4    4  502    0  0.46053520427E+02  0.27536344580E+02 -0.38243683463E+02  0.66059415236E+02  0.47000000000E+01 0. -1.
         -5    1    4    4    0  502  0.15600288520E+02 -0.98026175472E+02 -0.12798719579E+03  0.16203491095E+03  0.47000000000E+01 0. -1.
<mgrwt>
<rscale>  0 0.31332494E+03</rscale>
<asrwt>0</asrwt>
<pdfrwt beam="1">  1       21 0.10318786E-01 0.31332494E+03</pdfrwt>
<pdfrwt beam="2">  1       21 0.56295621E-01 0.31332494E+03</pdfrwt>
<totfact> 0.22087249E+05</totfact>
</mgrwt>
</event>
<event>
 8    1  0.9478272E-006  0.4115886E+03  0.7546771E-02  0.1039839E+00
         21   -1    0    0  504  503  0.00000000000E+00  0.00000000000E+00  0.14152562798E+03  0.14152562798E+03  0.00000000000E+00 0. -1.
         21   -1    0    0  503  504 -0.00000000000E+00 -0.00000000000E+00 -0.29924826844E+03  0.29924826844E+03  0.00000000000E+00 0. -1.
         25    2    1    2    0    0 -0.10021663144E+03  0.12430647977E+03 -0.11643708732E+03  0.23383200411E+03  0.12499734682E+03 0.  0.
         25    2    1    2    0    0  0.10021663144E+03 -0.12430647977E+03 -0.41285553147E+02  0.20694189232E+03  0.12499990307E+03 0.  0.
          5    1    3    3  501    0 -0.15988980111E+02  0.52374420475E+02 -0.10977919032E+03  0.12276924709E+03  0.47000000000E+01 0. -1.
         -5    1    3    3    0  501 -0.84227651333E+02  0.71932059294E+02 -0.66578969968E+01  0.11106275701E+03  0.47000000000E+01 0. -1.
          5    1    4    4  502    0  0.17218417740E+02  0.23780565474E+02  0.66767822267E+01  0.30473900712E+02  0.47000000000E+01 0. -1.
         -5    1    4    4    0  502  0.82998213704E+02 -0.14808704524E+03 -0.47962335374E+02  0.17646799160E+03  0.47000000000E+01 0. -1.
<mgrwt>
<rscale>  0 0.41158863E+03</rscale>
<asrwt>0</asrwt>
<pdfrwt beam="1">  1       21 0.21773174E-01 0.41158863E+03</pdfrwt>
<pdfrwt beam="2">  1       21 0.46038195E-01 0.41158863E+03</pdfrwt>
<totfact> 0.83392352E+04</totfact>
</mgrwt>
</event>
<event>
 8    1  0.9478272E-006  0.3240228E+03  0.7546771E-02  0.1073813E+00
         21   -1    0    0  504  503  0.00000000000E+00  0.00000000000E+00  0.40236648396E+03  0.40236648396E+03  0.00000000000E+00 0.  1.
         21   -1    0    0  503  504 -0.00000000000E+00 -0.00000000000E+00 -0.65233308553E+02  0.65233308553E+02  0.00000000000E+00 0.  1.
         25    2    1    2    0    0  0.37370599527E+02  0.30585158350E+02  0.37150721087E+02  0.13904875115E+03  0.12498946155E+03 0.  0.
         25    2    1    2    0    0 -0.37370599527E+02 -0.30585158350E+02  0.29998245432E+03  0.32855104136E+03  0.12499720100E+03 0.  0.
          5    1    3    3  501    0  0.78438548921E+02  0.25179503560E+02 -0.10261188425E+01  0.82521247423E+02  0.47000000000E+01 0.  1.
         -5    1    3    3    0  501 -0.41067949393E+02  0.54056547900E+01  0.38176839930E+02  0.56527503731E+02  0.47000000000E+01 0.  1.
          5    1    4    4  502    0  0.32205011101E+02 -0.19422913752E+02  0.21377894148E+03  0.21711273141E+03  0.47000000000E+01 0. -1.
         -5    1    4    4    0  502 -0.69575610629E+02 -0.11162244598E+02  0.86203512838E+02  0.11143830995E+03  0.47000000000E+01 0. -1.
<mgrwt>
<rscale>  0 0.32402282E+03</rscale>
<asrwt>0</asrwt>
<pdfrwt beam="1">  1       21 0.61902534E-01 0.32402282E+03</pdfrwt>
<pdfrwt beam="2">  1       21 0.10035894E-01 0.32402282E+03</pdfrwt>
<totfact> 0.18850935E+05</totfact>
</mgrwt>
</event>
<event>
 8    1  0.9478272E-006  0.2943149E+03  0.7546771E-02  0.1088118E+00
         21   -1    0    0  504  503  0.00000000000E+00  0.00000000000E+00  0.27977519355E+03  0.27977519355E+03  0.00000000000E+00 0.  1.
         21   -1    0    0  503  504 -0.00000000000E+00 -0.00000000000E+00 -0.77402567615E+02  0.77402567615E+02  0.00000000000E+00 0.  1.
         25    2    1    2    0    0 -0.28665067064E+02  0.35474276629E+02  0.17746800364E+03  0.22181237661E+03  0.12500291088E+03 0.  0.
         25    2    1    2    0    0  0.28665067064E+02 -0.35474276629E+02  0.24904622293E+02  0.13536538455E+03  0.12499374685E+03 0.  0.
          5    1    3    3  501    0  0.37702544857E+02 -0.94874239569E+01  0.11055692934E+03  0.11728775609E+03  0.47000000000E+01 0. -1.
         -5    1    3    3    0  501 -0.66367611921E+02  0.44961700586E+02  0.66911074295E+02  0.10452462052E+03  0.47000000000E+01 0. -1.
          5    1    4    4  502    0  0.66344299046E+02  0.45238105382E+01  0.40562059459E+02  0.78034617608E+02  0.47000000000E+01 0. -1.
         -5    1    4    4    0  502 -0.37679231982E+02 -0.39998087168E+02 -0.15657437167E+02  0.57330766944E+02  0.47000000000E+01 0. -1.
<mgrwt>
<rscale>  0 0.29431492E+03</rscale>
<asrwt>0</asrwt>
<pdfrwt beam="1">  1       21 0.43042337E-01 0.29431492E+03</pdfrwt>
<pdfrwt beam="2">  1       21 0.11908087E-01 0.29431492E+03</pdfrwt>
<totfact> 0.30152025E+05</totfact>
</mgrwt>
</event>
<event>
 8    1  0.9478272E-006  0.2973723E+03  0.7546771E-02  0.1086562E+00
         21   -1    0    0  504  503  0.00000000000E+00  0.00000000000E+00  0.22880993080E+03  0.22880993080E+03  0.00000000000E+00 0.  1.
         21   -1    0    0  503  504 -0.00000000000E+00 -0.00000000000E+00 -0.96619835721E+02  0.96619835721E+02  0.00000000000E+00 0.  1.
         25    2    1    2    0    0  0.68646069763E+02  0.35758886920E+02  0.41828146684E+02  0.15285803919E+03  0.12500002161E+03 0.  0.
         25    2    1    2    0    0 -0.68646069763E+02 -0.35758886920E+02  0.90361948393E+02  0.17257172733E+03  0.12499895387E+03 0.  0.
          5    1    3    3  501    0  0.85040120727E+02 -0.12682811110E+02 -0.80371816601E+00  0.86112785310E+02  0.47000000000E+01 0. -1.
         -5    1    3    3    0  501 -0.16394050963E+02  0.48441698030E+02  0.42631864850E+02  0.66745253881E+02  0.47000000000E+01 0. -1.
          5    1    4    4  502    0 -0.10111372739E+03 -0.27664473890E+02  0.40801572443E+02  0.11258848652E+03  0.47000000000E+01 0.  1.
         -5    1    4    4    0  502  0.32467657627E+02 -0.80944130300E+01  0.49560375950E+02  0.59983240813E+02  0.47000000000E+01 0.  1.
<mgrwt>
<rscale>  0 0.29737235E+03</rscale>
<asrwt>0</asrwt>
<pdfrwt beam="1">  1       21 0.35201528E-01 0.29737235E+03</pdfrwt>
<pdfrwt beam="2">  1       21 0.14864590E-01 0.29737235E+03</pdfrwt>
<totfact> 0.30286708E+05</totfact>
</mgrwt>
</event>
<event>
 8    1  0.9478272E-006  0.3163531E+03  0.7546771E-02  0.1077340E+00
         21   -1    0    0  504  503  0.00000000000E+00  0.00000000000E+00  0.14237914158E+03  0.14237914158E+03  0.00000000000E+00 0. -1.
         21   -1    0    0  503  504 -0.00000000000E+00 -0.00000000000E+00 -0.17572668129E+03  0.17572668129E+03  0.00000000000E+00 0. -1.
         25    2    1    2    0    0  0.20124950173E+02  0.89079479625E+02  0.15947694528E+02  0.15563162519E+03  0.12500682577E+03 0.  0.
         25    2    1    2    0    0 -0.20124950173E+02 -0.89079479625E+02 -0.49295234242E+02  0.16247419768E+03  0.12501070947E+03 0.  0.
          5    1    3    3  501    0 -0.30012700828E+01 -0.30124510505E+02  0.14997879519E+02  0.34110411099E+02  0.47000000000E+01 0. -1.
         -5    1    3    3    0  501  0.23126220256E+02  0.11920399013E+03  0.94981500894E+00  0.12152121409E+03  0.47000000000E+01 0. -1.
          5    1    4    4  502    0 -0.39488090225E+02 -0.11116855909E+03 -0.57909180110E+02  0.13150407195E+03  0.47000000000E+01 0.  1.
         -5    1    4    4    0  502  0.19363140052E+02  0.22089079461E+02  0.86139458680E+01  0.30970125726E+02  0.47000000000E+01 0.  1.
<mgrwt>
<rscale>  0 0.31635306E+03</rscale>
<asrwt>0</asrwt>
<pdfrwt beam="1">  1       21 0.21904483E-01 0.31635306E+03</pdfrwt>
<pdfrwt beam="2">  1       21 0.27034874E-01 0.31635306E+03</pdfrwt>
<totfact> 0.24624722E+05</totfact>
</mgrwt>
</event>
<event>
 8    1  0.9478272E-006  0.2891483E+03  0.7546771E-02  0.1090795E+00
         21   -1    0    0  504  503  0.00000000000E+00  0.00000000000E+00  0.16572580644E+03  0.16572580644E+03  0.00000000000E+00 0.  1.
         21   -1    0    0  503  504 -0.00000000000E+00 -0.00000000000E+00 -0.12612207901E+03  0.12612207901E+03  0.00000000000E+00 0.  1.
         25    2    1    2    0    0 -0.86908839453E+01 -0.16816255104E+02 -0.50978286097E+02  0.13632074401E+03  0.12500496668E+03 0.  0.
         25    2    1    2    0    0  0.86908839453E+01  0.16816255104E+02  0.90582013519E+02  0.15552714144E+03  0.12500109060E+03 0.  0.
          5    1    3    3  501    0  0.51359820652E+02 -0.28638648342E+02 -0.41944286384E+01  0.59141242698E+02  0.47000000000E+01 0.  1.
         -5    1    3    3    0  501 -0.60050704597E+02  0.11822393238E+02 -0.46783857459E+02  0.77179501315E+02  0.47000000000E+01 0.  1.
          5    1    4    4  502    0 -0.58096864414E+02  0.97875605859E+01  0.42850266382E+02  0.73001899468E+02  0.47000000000E+01 0. -1.
         -5    1    4    4    0  502  0.66787748359E+02  0.70286945180E+01  0.47731747136E+02  0.82525241970E+02  0.47000000000E+01 0. -1.
<mgrwt>
<rscale>  0 0.28914829E+03</rscale>
<asrwt>0</asrwt>
<pdfrwt beam="1">  1       21 0.25496278E-01 0.28914829E+03</pdfrwt>
<pdfrwt beam="2">  1       21 0.19403397E-01 0.28914829E+03</pdfrwt>
<totfact> 0.34887297E+05</totfact>
</mgrwt>
</event>
<event>
 8    1  0.9478272E-006  0.2918878E+03  0.7546771E-02  0.1089368E+00
         21   -1    0    0  504  503  0.00000000000E+00  0.00000000000E+00  0.44730174621E+03  0.44730174621E+03  0.00000000000E+00 0. -1.
         21   -1    0    0  503  504 -0.00000000000E+00 -0.00000000000E+00 -0.47618000315E+02  0.47618000315E+02  0.00000000000E+00 0. -1.
         25    2    1    2    0    0  0.75129780890E+01 -0.21495879313E+02  0.32159128149E+03  0.34578063794E+03  0.12499911830E+03 0.  0.
         25    2    1    2    0    0 -0.75129780890E+01  0.21495879313E+02  0.78092464406E+02  0.14913910858E+03  0.12500209216E+03 0.  0.
          5    1    3    3  501    0 -0.48877832919E+01 -0.33388578749E+02  0.32571863987E+03  0.32749566406E+03  0.47000000000E+01 0.  1.
         -5    1    3    3    0  501  0.12400761381E+02  0.11892699437E+02 -0.41273583813E+01  0.18284973884E+02  0.47000000000E+01 0.  1.
          5    1    4    4  502    0  0.15006971402E+02  0.69496349006E+02  0.29681147352E+02  0.77188161164E+02  0.47000000000E+01 0.  1.
         -5    1    4    4    0  502 -0.22519949491E+02 -0.48000469693E+02  0.48411317054E+02  0.71950947421E+02  0.47000000000E+01 0.  1.
<mgrwt>
<rscale>  0 0.29188775E+03</rscale>
<asrwt>0</asrwt>
<pdfrwt beam="1">  1       21 0.68815650E-01 0.29188775E+03</pdfrwt>
<pdfrwt beam="2">  1       21 0.73258465E-02 0.29188775E+03</pdfrwt>
<totfact> 0.26216157E+05</totfact>
</mgrwt>
</event>
<event>
 8    1  0.9478272E-006  0.2645048E+03  0.7546771E-02  0.1104467E+00
         21   -1    0    0  504  503  0.00000000000E+00  0.00000000000E+00  0.17277944643E+03  0.17277944643E+03  0.00000000000E+00 0.  1.
         21   -1    0    0  503  504 -0.00000000000E+00 -0.00000000000E+00 -0.10123131793E+03  0.10123131793E+03  0.00000000000E+00 0.  1.
         25    2    1    2    0    0 -0.42083294576E+02 -0.72375904391E+01  0.42559486055E+02  0.13877903933E+03  0.12499970203E+03 0.  0.
         25    2    1    2    0    0  0.42083294576E+02  0.72375904391E+01  0.28988642449E+02  0.13523172503E+03  0.12499556658E+03 0.  0.
          5    1    3    3  501    0 -0.32656544879E+01 -0.18966975522E+02 -0.41136235158E+02  0.45658411084E+02  0.47000000000E+01 0. -1.
         -5    1    3    3    0  501 -0.38817640088E+02  0.11729385083E+02  0.83695721213E+02  0.93120628251E+02  0.47000000000E+01 0. -1.
          5    1    4    4  502    0 -0.25942983818E+02 -0.16718413018E+02  0.50898069195E+02  0.59709690930E+02  0.47000000000E+01 0.  1.
         -5    1    4    4    0  502  0.68026278395E+02  0.23956003457E+02 -0.21909426746E+02  0.75522034097E+02  0.47000000000E+01 0.  1.
<mgrwt>
<rscale>  0 0.26450475E+03</rscale>
<asrwt>0</asrwt>
<pdfrwt beam="1">  1       21 0.26581453E-01 0.26450475E+03</pdfrwt>
<pdfrwt beam="2">  1       21 0.15574049E-01 0.26450475E+03</pdfrwt>
<totfact> 0.48651474E+05</totfact>
</mgrwt>
</event>
<event>
 8    1  0.9478272E-006  0.2818894E+03  0.7546771E-02  0.1094661E+00
         21   -1    0    0  504  503  0.00000000000E+00  0.00000000000E+00  0.12466790536E+03  0.12466790536E+03  0.00000000000E+00 0.  1.
         21   -1    0    0  503  504 -0.00000000000E+00 -0.00000000000E+00 -0.15934658163E+03  0.15934658163E+03  0.00000000000E+00 0.  1.
         25    2    1    2    0    0 -0.39621931114E+02  0.43954074016E+02  0.10032261808E+02  0.13866534687E+03  0.12500229637E+03 0.  0.
         25    2    1    2    0    0  0.39621931114E+02 -0.43954074016E+02 -0.44710938085E+02  0.14534914012E+03  0.12500178599E+03 0.  0.
          5    1    3    3  501    0 -0.81416402525E+02  0.43726283097E+02  0.21645748840E+02  0.95032872610E+02  0.47000000000E+01 0.  1.
         -5    1    3    3    0  501  0.41794471412E+02  0.22779091853E+00 -0.11613487032E+02  0.43632474263E+02  0.47000000000E+01 0.  1.
          5    1    4    4  502    0  0.21287420254E+02  0.42594070750E+01  0.40176189496E+02  0.45907657445E+02  0.47000000000E+01 0.  1.
         -5    1    4    4    0  502  0.18334510860E+02 -0.48213481091E+02 -0.84887127581E+02  0.99441482673E+02  0.47000000000E+01 0.  1.
<mgrwt>
<rscale>  0 0.28188937E+03</rscale>
<asrwt>0</asrwt>
<pdfrwt beam="1">  1       21 0.19179678E-01 0.28188937E+03</pdfrwt>
<pdfrwt beam="2">  1       21 0.24514859E-01 0.28188937E+03</pdfrwt>
<totfact> 0.38509247E+05</totfact>
</mgrwt>
</event>
<event>
 8    1  0.9478272E-006  0.5372187E+03  0.7546771E-02  0.1004496E+00
         21   -1    0    0  504  503  0.00000000000E+00  0.00000000000E+00  0.50108256221E+03  0.50108256221E+03  0.00000000000E+00 0.  1.
         21   -1    0    0  503  504 -0.00000000000E+00 -0.00000000000E+00 -0.14399018294E+03  0.14399018294E+03  0.00000000000E+00 0.  1.
         25    2    1    2    0    0 -0.15036922826E+03 -0.12747414515E+03  0.18949779777E+02  0.23418881799E+03  0.12499898332E+03 0.  0.
         25    2    1    2    0    0  0.15036922826E+03  0.12747414515E+03  0.33814259949E+03  0.41088392715E+03  0.12499848605E+03 0.  0.
          5    1    3    3  501    0 -0.45212216010E+02 -0.20863634320E+02 -0.48695979094E+02  0.69805616490E+02  0.47000000000E+01 0. -1.
         -5    1    3    3    0  501 -0.10515701225E+03 -0.10661051083E+03  0.67645758871E+02  0.16438320150E+03  0.47000000000E+01 0. -1.
          5    1    4    4  502    0  0.56721228522E+02  0.24614048979E+02  0.22585927504E+02  0.65995176289E+02  0.47000000000E+01 0. -1.
         -5    1    4    4    0  502  0.93647999734E+02  0.10286009617E+03  0.31555667199E+03  0.34488875086E+03  0.47000000000E+01 0. -1.
<mgrwt>
<rscale>  0 0.53721865E+03</rscale>
<asrwt>0</asrwt>
<pdfrwt beam="1">  1       21 0.77089624E-01 0.53721865E+03</pdfrwt>
<pdfrwt beam="2">  1       21 0.22152336E-01 0.53721865E+03</pdfrwt>
<totfact> 0.25355422E+04</totfact>
</mgrwt>
</event>
<event>
 8    1  0.9478272E-006  0.2940570E+03  0.7546771E-02  0.1088250E+00
         21   -1    0    0  504  503  0.00000000000E+00  0.00000000000E+00  0.10246445107E+03  0.10246445107E+03  0.00000000000E+00 0. -1.
         21   -1    0    0  503  504 -0.00000000000E+00 -0.00000000000E+00 -0.21097444897E+03  0.21097444897E+03  0.00000000000E+00 0. -1.
         25    2    1    2    0    0  0.55917302171E+02  0.28652832004E+01  0.27090496632E+01  0.13699202795E+03  0.12499808895E+03 0.  0.
         25    2    1    2    0    0 -0.55917302171E+02 -0.28652832004E+01 -0.11121904756E+03  0.17644687209E+03  0.12501546945E+03 0.  0.
          5    1    3    3  501    0 -0.12989349432E+02  0.44128353459E+02 -0.24158302938E+02  0.52170378362E+02  0.47000000000E+01 0.  1.
         -5    1    3    3    0  501  0.68906651603E+02 -0.41263070258E+02  0.26867352601E+02  0.84821649584E+02  0.47000000000E+01 0.  1.
          5    1    4    4  502    0  0.16767950875E+02 -0.11706049253E+02 -0.10005405374E+03  0.10223061887E+03  0.47000000000E+01 0.  1.
         -5    1    4    4    0  502 -0.72685253046E+02  0.88407660529E+01 -0.11164993824E+02  0.74216253219E+02  0.47000000000E+01 0.  1.
<mgrwt>
<rscale>  0 0.29405701E+03</rscale>
<asrwt>0</asrwt>
<pdfrwt beam="1">  1       21 0.15763762E-01 0.29405701E+03</pdfrwt>
<pdfrwt beam="2">  1       21 0.32457607E-01 0.29405701E+03</pdfrwt>
<totfact> 0.31983438E+05</totfact>
</mgrwt>
</event>
<event>
 8    1  0.9478272E-006  0.2821142E+03  0.7546771E-02  0.1094540E+00
         21   -1    0    0  504  503  0.00000000000E+00  0.00000000000E+00  0.15961959480E+03  0.15961959480E+03  0.00000000000E+00 0. -1.
         21   -1    0    0  503  504 -0.00000000000E+00 -0.00000000000E+00 -0.12465326120E+03  0.12465326120E+03  0.00000000000E+00 0. -1.
         25    2    1    2    0    0  0.53005047860E+02  0.22937061251E+02  0.48332365382E+02  0.14592849422E+03  0.12499385587E+03 0.  0.
         25    2    1    2    0    0 -0.53005047860E+02 -0.22937061251E+02 -0.13366031785E+02  0.13834436177E+03  0.12499947100E+03 0.  0.
          5    1    3    3  501    0  0.92433819455E+02  0.71374980638E+01  0.20918467713E+02  0.95155804600E+02  0.47000000000E+01 0.  1.
         -5    1    3    3    0  501 -0.39428771594E+02  0.15799563188E+02  0.27413897668E+02  0.50772689625E+02  0.47000000000E+01 0.  1.
          5    1    4    4  502    0  0.36075185065E+02 -0.22079229687E+02 -0.23414402732E+02  0.48571963275E+02  0.47000000000E+01 0.  1.
         -5    1    4    4    0  502 -0.89080232926E+02 -0.85783156385E+00  0.10048370947E+02  0.89772398496E+02  0.47000000000E+01 0.  1.
<mgrwt>
<rscale>  0 0.28211418E+03</rscale>
<asrwt>0</asrwt>
<pdfrwt beam="1">  1       21 0.24556861E-01 0.28211418E+03</pdfrwt>
<pdfrwt beam="2">  1       21 0.19177425E-01 0.28211418E+03</pdfrwt>
<totfact> 0.38389583E+05</totfact>
</mgrwt>
</event>
<event>
 8    1  0.9478272E-006  0.2530093E+03  0.7546771E-02  0.1111418E+00
         21   -1    0    0  504  503  0.00000000000E+00  0.00000000000E+00  0.19341691971E+03  0.19341691971E+03  0.00000000000E+00 0. -1.
         21   -1    0    0  503  504 -0.00000000000E+00 -0.00000000000E+00 -0.82740577026E+02  0.82740577026E+02  0.00000000000E+00 0. -1.
         25    2    1    2    0    0  0.17952077295E+02  0.44880215710E+01  0.61707287685E+02  0.14063693194E+03  0.12501415062E+03 0.  0.
         25    2    1    2    0    0 -0.17952077295E+02 -0.44880215710E+01  0.48969055001E+02  0.13552056480E+03  0.12500174286E+03 0.  0.
          5    1    3    3  501    0 -0.43970296774E+02 -0.21380034736E+02 -0.33998100718E+00  0.49119227098E+02  0.47000000000E+01 0.  1.
         -5    1    3    3    0  501  0.61922374068E+02  0.25868056307E+02  0.62047268692E+02  0.91517704842E+02  0.47000000000E+01 0.  1.
          5    1    4    4  502    0 -0.56788575052E+02 -0.14157485361E+02  0.68932713388E+02  0.90549354626E+02  0.47000000000E+01 0.  1.
         -5    1    4    4    0  502  0.38836497758E+02  0.96694637900E+01 -0.19963658388E+02  0.44971210171E+02  0.47000000000E+01 0.  1.
<mgrwt>
<rscale>  0 0.25300931E+03</rscale>
<asrwt>0</asrwt>
<pdfrwt beam="1">  1       21 0.29756449E-01 0.25300931E+03</pdfrwt>
<pdfrwt beam="2">  1       21 0.12729320E-01 0.25300931E+03</pdfrwt>
<totfact> 0.56528249E+05</totfact>
</mgrwt>
</event>
<event>
 8    1  0.9478272E-006  0.2663836E+03  0.7546771E-02  0.1103367E+00
         21   -1    0    0  504  503  0.00000000000E+00  0.00000000000E+00  0.92800773124E+03  0.92800773124E+03  0.00000000000E+00 0. -1.
         21   -1    0    0  503  504 -0.00000000000E+00 -0.00000000000E+00 -0.19116275946E+02  0.19116275946E+02  0.00000000000E+00 0. -1.
         25    2    1    2    0    0  0.39843926368E+02  0.15667421204E+02  0.51439150342E+03  0.53108506123E+03  0.12497886585E+03 0.  0.
         25    2    1    2    0    0 -0.39843926368E+02 -0.15667421204E+02  0.39449995187E+03  0.41603894596E+03  0.12500074389E+03 0.  0.
          5    1    3    3  501    0  0.20514081919E+02 -0.10139175900E+02  0.48956191936E+03  0.49011895834E+03  0.47000000000E+01 0.  1.
         -5    1    3    3    0  501  0.19329844449E+02  0.25806597104E+02  0.24829584067E+02  0.40966102884E+02  0.47000000000E+01 0.  1.
          5    1    4    4  502    0 -0.79628462232E+02 -0.35386118829E+02  0.27197771702E+03  0.28563409803E+03  0.47000000000E+01 0. -1.
         -5    1    4    4    0  502  0.39784535864E+02  0.19718697625E+02  0.12252223485E+03  0.13040484793E+03  0.47000000000E+01 0. -1.
<mgrwt>
<rscale>  0 0.26638357E+03</rscale>
<asrwt>0</asrwt>
<pdfrwt beam="1">  1       21 0.14277038E+00 0.26638357E+03</pdfrwt>
<pdfrwt beam="2">  1       21 0.29409663E-02 0.26638357E+03</pdfrwt>
<totfact> 0.21667160E+05</totfact>
</mgrwt>
</event>
<event>
 8    1  0.9478272E-006  0.2512812E+03  0.7546771E-02  0.1112498E+00
         21   -1    0    0  504  503  0.00000000000E+00  0.00000000000E+00  0.29361410692E+02  0.29361410692E+02  0.00000000000E+00 0.  1.
         21   -1    0    0  503  504 -0.00000000000E+00 -0.00000000000E+00 -0.53762966181E+03  0.53762966181E+03  0.00000000000E+00 0.  1.
         25    2    1    2    0    0  0.12518552991E+02 -0.16828399212E+01 -0.25110423728E+03  0.28077930629E+03  0.12499653894E+03 0.  0.
         25    2    1    2    0    0 -0.12518552991E+02  0.16828399212E+01 -0.25716401384E+03  0.28621176621E+03  0.12499719589E+03 0.  0.
          5    1    3    3  501    0  0.52519289708E+02 -0.15442083795E+02 -0.22325440797E+03  0.22991597252E+03  0.47000000000E+01 0. -1.
         -5    1    3    3    0  501 -0.40000736717E+02  0.13759243874E+02 -0.27849829307E+02  0.50863333772E+02  0.47000000000E+01 0. -1.
          5    1    4    4  502    0  0.39967284082E+01 -0.58240076098E+02 -0.85977054520E+02  0.10402895850E+03  0.47000000000E+01 0. -1.
         -5    1    4    4    0  502 -0.16515281399E+02  0.59922916019E+02 -0.17118695932E+03  0.18218280771E+03  0.47000000000E+01 0. -1.
<mgrwt>
<rscale>  0 0.25128124E+03</rscale>
<asrwt>0</asrwt>
<pdfrwt beam="1">  1       21 0.45171405E-02 0.25128124E+03</pdfrwt>
<pdfrwt beam="2">  1       21 0.82712248E-01 0.25128124E+03</pdfrwt>
<totfact> 0.40149571E+05</totfact>
</mgrwt>
</event>
<event>
 8    1  0.9478272E-006  0.2624761E+03  0.7546771E-02  0.1105665E+00
         21   -1    0    0  504  503  0.00000000000E+00  0.00000000000E+00  0.66996275409E+02  0.66996275409E+02  0.00000000000E+00 0.  1.
         21   -1    0    0  503  504 -0.00000000000E+00 -0.00000000000E+00 -0.25708041425E+03  0.25708041425E+03  0.00000000000E+00 0.  1.
         25    2    1    2    0    0 -0.57867987966E+00  0.30156907294E+02 -0.62656194903E+02  0.14304299882E+03  0.12500290726E+03 0.  0.
         25    2    1    2    0    0  0.57867987966E+00 -0.30156907294E+02 -0.12742794393E+03  0.18103369084E+03  0.12500216956E+03 0.  0.
          5    1    3    3  501    0 -0.60870637299E+02  0.96126598560E+00 -0.35318119869E+02  0.70538061417E+02  0.47000000000E+01 0. -1.
         -5    1    3    3    0  501  0.60291957419E+02  0.29195641308E+02 -0.27338075033E+02  0.72504937400E+02  0.47000000000E+01 0. -1.
          5    1    4    4  502    0  0.54820082257E+02 -0.16523319765E+02 -0.21848334076E+02  0.61463006895E+02  0.47000000000E+01 0.  1.
         -5    1    4    4    0  502 -0.54241402377E+02 -0.13633587529E+02 -0.10557960986E+03  0.11957068394E+03  0.47000000000E+01 0.  1.
<mgrwt>
<rscale>  0 0.26247613E+03</rscale>
<asrwt>0</asrwt>
<pdfrwt beam="1">  1       21 0.10307119E-01 0.26247613E+03</pdfrwt>
<pdfrwt beam="2">  1       21 0.39550833E-01 0.26247613E+03</pdfrwt>
<totfact> 0.46734904E+05</totfact>
</mgrwt>
</event>
<event>
 8    1  0.9478272E-006  0.2939477E+03  0.7546771E-02  0.1088306E+00
         21   -1    0    0  504  503  0.00000000000E+00  0.00000000000E+00  0.22173670754E+02  0.22173670754E+02  0.00000000000E+00 0.  1.
         21   -1    0    0  503  504 -0.00000000000E+00 -0.00000000000E+00 -0.97418739017E+03  0.97418739017E+03  0.00000000000E+00 0.  1.
         25    2    1    2    0    0 -0.69737089612E+02 -0.22520623723E+02 -0.55942333817E+03  0.57788414211E+03  0.12500068101E+03 0.  0.
         25    2    1    2    0    0  0.69737089612E+02  0.22520623723E+02 -0.39259038124E+03  0.41847691881E+03  0.12500113588E+03 0.  0.
          5    1    3    3  501    0 -0.68054113388E+01 -0.13740681903E+02 -0.45685987004E+03  0.45714128102E+03  0.47000000000E+01 0.  1.
         -5    1    3    3    0  501 -0.62931678273E+02 -0.87799418207E+01 -0.10256346813E+03  0.12074286108E+03  0.47000000000E+01 0.  1.
          5    1    4    4  502    0 -0.12210598439E+02  0.36335899624E+02 -0.37751755364E+02  0.54006308417E+02  0.47000000000E+01 0.  1.
         -5    1    4    4    0  502  0.81947688050E+02 -0.13815275900E+02 -0.35483862588E+03  0.36447061040E+03  0.47000000000E+01 0.  1.
<mgrwt>
<rscale>  0 0.29394769E+03</rscale>
<asrwt>0</asrwt>
<pdfrwt beam="1">  1       21 0.34113338E-02 0.29394769E+03</pdfrwt>
<pdfrwt beam="2">  1       21 0.14987499E+00 0.29394769E+03</pdfrwt>
<totfact> 0.14737085E+05</totfact>
</mgrwt>
</event>
<event>
 8    1  0.9478272E-006  0.2570383E+03  0.7546771E-02  0.1108936E+00
         21   -1    0    0  504  503  0.00000000000E+00  0.00000000000E+00  0.53686495475E+02  0.53686495475E+02  0.00000000000E+00 0.  1.
         21   -1    0    0  503  504 -0.00000000000E+00 -0.00000000000E+00 -0.30765971911E+03  0.30765971911E+03  0.00000000000E+00 0.  1.
         25    2    1    2    0    0  0.28499529849E+02 -0.86754224995E+01 -0.12449004284E+03  0.17891106807E+03  0.12499565335E+03 0.  0.
         25    2    1    2    0    0 -0.28499529849E+02  0.86754224995E+01 -0.12948318080E+03  0.18243514652E+03  0.12501680854E+03 0.  0.
          5    1    3    3  501    0  0.53572830680E+02 -0.51428762460E+02 -0.96296694825E+02  0.12169679219E+03  0.47000000000E+01 0. -1.
         -5    1    3    3    0  501 -0.25073300831E+02  0.42753339960E+02 -0.28193348014E+02  0.57214275881E+02  0.47000000000E+01 0. -1.
          5    1    4    4  502    0  0.13241997951E+02  0.33347350094E+02 -0.12872457994E+03  0.13371426157E+03  0.47000000000E+01 0. -1.
         -5    1    4    4    0  502 -0.41741527800E+02 -0.24671927595E+02 -0.75860086086E+00  0.48720884942E+02  0.47000000000E+01 0. -1.
<mgrwt>
<rscale>  0 0.25703830E+03</rscale>
<asrwt>0</asrwt>
<pdfrwt beam="1">  1       21 0.82594609E-02 0.25703830E+03</pdfrwt>
<pdfrwt beam="2">  1       21 0.47332264E-01 0.25703830E+03</pdfrwt>
<totfact> 0.47832490E+05</totfact>
</mgrwt>
</event>
<event>
 8    1  0.9478272E-006  0.3858872E+03  0.7546771E-02  0.1048779E+00
         21   -1    0    0  504  503  0.00000000000E+00  0.00000000000E+00  0.41426891781E+02  0.41426891781E+02  0.00000000000E+00 0. -1.
         21   -1    0    0  503  504 -0.00000000000E+00 -0.00000000000E+00 -0.89862468322E+03  0.89862468322E+03  0.00000000000E+00 0. -1.
         25    2    1    2    0    0 -0.74843999005E+02  0.12269542245E+03 -0.35359635957E+03  0.40162999354E+03  0.12498190001E+03 0.  0.
         25    2    1    2    0    0  0.74843999005E+02 -0.12269542245E+03 -0.50360143187E+03  0.53842158147E+03  0.12501042490E+03 0.  0.
          5    1    3    3  501    0 -0.10516270205E+03  0.61532942012E+02 -0.23281418707E+03  0.26281178162E+03  0.47000000000E+01 0.  1.
         -5    1    3    3    0  501  0.30318703041E+02  0.61162480433E+02 -0.12078217250E+03  0.13881821192E+03  0.47000000000E+01 0.  1.
          5    1    4    4  502    0  0.61501447732E+02 -0.35264252725E+02 -0.37868570525E+03  0.38529332846E+03  0.47000000000E+01 0.  1.
         -5    1    4    4    0  502  0.13342551272E+02 -0.87431169720E+02 -0.12491572662E+03  0.15312825301E+03  0.47000000000E+01 0.  1.
<mgrwt>
<rscale>  0 0.38588717E+03</rscale>
<asrwt>0</asrwt>
<pdfrwt beam="1">  1       21 0.63733686E-02 0.38588717E+03</pdfrwt>
<pdfrwt beam="2">  1       21 0.13824994E+00 0.38588717E+03</pdfrwt>
<totfact> 0.61048181E+04</totfact>
</mgrwt>
</event>
<event>
 8    1  0.9478272E-006  0.3035897E+03  0.7546771E-02  0.1083460E+00
         21   -1    0    0  504  503  0.00000000000E+00  0.00000000000E+00  0.50428028273E+02  0.50428028273E+02  0.00000000000E+00 0.  1.
         21   -1    0    0  503  504 -0.00000000000E+00 -0.00000000000E+00 -0.45692195597E+03  0.45692195597E+03  0.00000000000E+00 0.  1.
         25    2    1    2    0    0  0.73806583697E+02 -0.41402698072E+02 -0.22999044170E+03  0.27510351767E+03  0.12499898783E+03 0.  0.
         25    2    1    2    0    0 -0.73806583697E+02  0.41402698072E+02 -0.17650348600E+03  0.23224646657E+03  0.12499338166E+03 0.  0.
          5    1    3    3  501    0 -0.27523979718E+01 -0.65891154249E+02 -0.13685405501E+03  0.15198796754E+03  0.47000000000E+01 0.  1.
         -5    1    3    3    0  501  0.76558981669E+02  0.24488456177E+02 -0.93136386684E+02  0.12311555013E+03  0.47000000000E+01 0.  1.
          5    1    4    4  502    0  0.29751537044E+02  0.36266927359E+02 -0.56445445495E+02  0.73543336161E+02  0.47000000000E+01 0.  1.
         -5    1    4    4    0  502 -0.10355812074E+03  0.51357707134E+01 -0.12005804051E+03  0.15870313041E+03  0.47000000000E+01 0.  1.
<mgrwt>
<rscale>  0 0.30358968E+03</rscale>
<asrwt>0</asrwt>
<pdfrwt beam="1">  1       21 0.77581584E-02 0.30358968E+03</pdfrwt>
<pdfrwt beam="2">  1       21 0.70295683E-01 0.30358968E+03</pdfrwt>
<totfact> 0.22555955E+05</totfact>
</mgrwt>
</event>
<event>
 8    1  0.9478272E-006  0.1014315E+04  0.7546771E-02  0.9292982E-01
         21   -1    0    0  504  503  0.00000000000E+00  0.00000000000E+00  0.17879312586E+03  0.17879312586E+03  0.00000000000E+00 0. -1.
         21   -1    0    0  503  504 -0.00000000000E+00 -0.00000000000E+00 -0.14385832367E+04  0.14385832367E+04  0.00000000000E+00 0. -1.
         25    2    1    2    0    0  0.37503761638E+03 -0.30942095536E+03 -0.51500770256E+03  0.71920226125E+03  0.12499767026E+03 0.  0.
         25    2    1    2    0    0 -0.37503761638E+03  0.30942095536E+03 -0.74478240830E+03  0.89817410132E+03  0.12498535617E+03 0.  0.
          5    1    3    3  501    0  0.19586221928E+03 -0.20780007957E+03 -0.22564392263E+03  0.36397822989E+03  0.47000000000E+01 0.  1.
         -5    1    3    3    0  501  0.17917539710E+03 -0.10162087579E+03 -0.28936377993E+03  0.35522403136E+03  0.47000000000E+01 0.  1.
          5    1    4    4  502    0 -0.14694745089E+02 -0.10472479172E+02 -0.43132348172E+02  0.46990401276E+02  0.47000000000E+01 0. -1.
         -5    1    4    4    0  502 -0.36034287129E+03  0.31989343454E+03 -0.70165006012E+03  0.85118370004E+03  0.47000000000E+01 0. -1.
<mgrwt>
<rscale>  0 0.10143151E+04</rscale>
<asrwt>0</asrwt>
<pdfrwt beam="1">  1       21 0.27506635E-01 0.10143151E+04</pdfrwt>
<pdfrwt beam="2">  1       21 0.22132050E+00 0.10143151E+04</pdfrwt>
<totfact> 0.87322466E+02</totfact>
</mgrwt>
</event>
<event>
 8    1  0.9478272E-006  0.3289621E+03  0.7546771E-02  0.1071597E+00
         21   -1    0    0  504  503  0.00000000000E+00  0.00000000000E+00  0.10116248316E+03  0.10116248316E+03  0.00000000000E+00 0. -1.
         21   -1    0    0  503  504 -0.00000000000E+00 -0.00000000000E+00 -0.26743125959E+03  0.26743125959E+03  0.00000000000E+00 0. -1.
         25    2    1    2    0    0  0.17810106778E+02 -0.10397574115E+03 -0.10244512050E+03  0.19299836377E+03  0.12500084421E+03 0.  0.
         25    2    1    2    0    0 -0.17810106778E+02  0.10397574115E+03 -0.63823655932E+02  0.17559537897E+03  0.12502849039E+03 0.  0.
          5    1    3    3  501    0 -0.35140353862E+02  0.71394239331E+01 -0.43125516494E+02  0.56282466333E+02  0.47000000000E+01 0.  1.
         -5    1    3    3    0  501  0.52950460641E+02 -0.11111516508E+03 -0.59319604010E+02  0.13671589744E+03  0.47000000000E+01 0.  1.
          5    1    4    4  502    0  0.29736140503E+02  0.22674872363E+02 -0.71663167258E+02  0.80969669817E+02  0.47000000000E+01 0.  1.
         -5    1    4    4    0  502 -0.47546247282E+02  0.81300868785E+02  0.78395113265E+01  0.94625709158E+02  0.47000000000E+01 0.  1.
<mgrwt>
<rscale>  0 0.32896207E+03</rscale>
<asrwt>0</asrwt>
<pdfrwt beam="1">  1       21 0.15563459E-01 0.32896207E+03</pdfrwt>
<pdfrwt beam="2">  1       21 0.41143272E-01 0.32896207E+03</pdfrwt>
<totfact> 0.20148622E+05</totfact>
</mgrwt>
</event>
<event>
 8    1  0.9478272E-006  0.3143711E+03  0.7546771E-02  0.1078269E+00
         21   -1    0    0  504  503  0.00000000000E+00  0.00000000000E+00  0.98247094916E+03  0.98247094916E+03  0.00000000000E+00 0.  1.
         21   -1    0    0  503  504 -0.00000000000E+00 -0.00000000000E+00 -0.25148114187E+02  0.25148114187E+02  0.00000000000E+00 0.  1.
         25    2    1    2    0    0  0.39752271882E+02 -0.27148312695E+02  0.74224350101E+03  0.75423274547E+03  0.12499738216E+03 0.  0.
         25    2    1    2    0    0 -0.39752271882E+02  0.27148312695E+02  0.21507933396E+03  0.25338631788E+03  0.12501292808E+03 0.  0.
          5    1    3    3  501    0  0.29487865272E+02 -0.75538079733E+02  0.37898854268E+03  0.38759507371E+03  0.47000000000E+01 0. -1.
         -5    1    3    3    0  501  0.10264406610E+02  0.48389767037E+02  0.36325495833E+03  0.36663767175E+03  0.47000000000E+01 0. -1.
          5    1    4    4  502    0 -0.15031777107E+02 -0.28790945181E+02  0.17950144356E+03  0.18247665902E+03  0.47000000000E+01 0.  1.
         -5    1    4    4    0  502 -0.24720494775E+02  0.55939257877E+02  0.35577890408E+02  0.70909658860E+02  0.47000000000E+01 0.  1.
<mgrwt>
<rscale>  0 0.31437106E+03</rscale>
<asrwt>0</asrwt>
<pdfrwt beam="1">  1       21 0.15114935E+00 0.31437106E+03</pdfrwt>
<pdfrwt beam="2">  1       21 0.38689414E-02 0.31437106E+03</pdfrwt>
<totfact> 0.11579015E+05</totfact>
</mgrwt>
</event>
<event>
 8    1  0.9478272E-006  0.3424402E+03  0.7546771E-02  0.1065761E+00
         21   -1    0    0  504  503  0.00000000000E+00  0.00000000000E+00  0.49583710645E+03  0.49583710645E+03  0.00000000000E+00 0.  1.
         21   -1    0    0  503  504 -0.00000000000E+00 -0.00000000000E+00 -0.59124920138E+02  0.59124920138E+02  0.00000000000E+00 0.  1.
         25    2    1    2    0    0  0.44495547150E+02 -0.10819825732E+03  0.21600741785E+03  0.27563444957E+03  0.12501371373E+03 0.  0.
         25    2    1    2    0    0 -0.44495547150E+02  0.10819825732E+03  0.22070476846E+03  0.27932757702E+03  0.12500633527E+03 0.  0.
          5    1    3    3  501    0 -0.24369000061E+02 -0.51600824580E+02  0.16077368790E+03  0.17066564383E+03  0.47000000000E+01 0. -1.
         -5    1    3    3    0  501  0.68864547211E+02 -0.56597432739E+02  0.55233729944E+02  0.10496880574E+03  0.47000000000E+01 0. -1.
          5    1    4    4  502    0  0.15147049987E+02  0.39851933919E+02  0.24911345204E+01  0.42964002510E+02  0.47000000000E+01 0. -1.
         -5    1    4    4    0  502 -0.59642597137E+02  0.68346323399E+02  0.21821363394E+03  0.23636357451E+03  0.47000000000E+01 0. -1.
<mgrwt>
<rscale>  0 0.34244024E+03</rscale>
<asrwt>0</asrwt>
<pdfrwt beam="1">  1       21 0.76282629E-01 0.34244024E+03</pdfrwt>
<pdfrwt beam="2">  1       21 0.90961419E-02 0.34244024E+03</pdfrwt>
<totfact> 0.14042919E+05</totfact>
</mgrwt>
</event>
<event>
 8    1  0.9478272E-006  0.2852639E+03  0.7546771E-02  0.1092848E+00
         21   -1    0    0  504  503  0.00000000000E+00  0.00000000000E+00  0.51693549910E+03  0.51693549910E+03  0.00000000000E+00 0. -1.
         21   -1    0    0  503  504 -0.00000000000E+00 -0.00000000000E+00 -0.39354771413E+02  0.39354771413E+02  0.00000000000E+00 0. -1.
         25    2    1    2    0    0  0.49838994475E+02  0.38630749766E+02  0.29193462740E+03  0.32377065518E+03  0.12500140111E+03 0.  0.
         25    2    1    2    0    0 -0.49838994475E+02 -0.38630749766E+02  0.18564610028E+03  0.23251961533E+03  0.12499854706E+03 0.  0.
          5    1    3    3  501    0  0.47563059014E+02 -0.39266393977E+02  0.12371720695E+03  0.13831894872E+03  0.47000000000E+01 0.  1.
         -5    1    3    3    0  501  0.22759354619E+01  0.77897143743E+02  0.16821742045E+03  0.18545170646E+03  0.47000000000E+01 0.  1.
          5    1    4    4  502    0 -0.61496307635E+02 -0.24831861958E+02  0.19884046163E+03  0.20966171897E+03  0.47000000000E+01 0. -1.
         -5    1    4    4    0  502  0.11657313160E+02 -0.13798887808E+02 -0.13194361345E+02  0.22857896363E+02  0.47000000000E+01 0. -1.
<mgrwt>
<rscale>  0 0.28526394E+03</rscale>
<asrwt>0</asrwt>
<pdfrwt beam="1">  1       21 0.79528533E-01 0.28526394E+03</pdfrwt>
<pdfrwt beam="2">  1       21 0.60545806E-02 0.28526394E+03</pdfrwt>
<totfact> 0.26399160E+05</totfact>
</mgrwt>
</event>
<event>
 8    1  0.9478272E-006  0.2927069E+03  0.7546771E-02  0.1088944E+00
         21   -1    0    0  504  503  0.00000000000E+00  0.00000000000E+00  0.15255880801E+03  0.15255880801E+03  0.00000000000E+00 0.  1.
         21   -1    0    0  503  504 -0.00000000000E+00 -0.00000000000E+00 -0.14040047834E+03  0.14040047834E+03  0.00000000000E+00 0.  1.
         25    2    1    2    0    0  0.48078645759E+02  0.58892782859E+02  0.24120070758E+01  0.14632441048E+03  0.12500039709E+03 0.  0.
         25    2    1    2    0    0 -0.48078645759E+02 -0.58892782859E+02  0.97463225850E+01  0.14663487587E+03  0.12500751965E+03 0.  0.
          5    1    3    3  501    0  0.47277344128E+02 -0.18666935881E+02 -0.33151946907E+02  0.60866602884E+02  0.47000000000E+01 0. -1.
         -5    1    3    3    0  501  0.80130163113E+00  0.77559718740E+02  0.35563953982E+02  0.85457807591E+02  0.47000000000E+01 0. -1.
          5    1    4    4  502    0  0.29187321954E+02 -0.34495228456E+02 -0.31802597553E+02  0.55455529573E+02  0.47000000000E+01 0. -1.
         -5    1    4    4    0  502 -0.77265967713E+02 -0.24397554402E+02  0.41548920138E+02  0.91179346302E+02  0.47000000000E+01 0. -1.
<mgrwt>
<rscale>  0 0.29270688E+03</rscale>
<asrwt>0</asrwt>
<pdfrwt beam="1">  1       21 0.23470586E-01 0.29270688E+03</pdfrwt>
<pdfrwt beam="2">  1       21 0.21600074E-01 0.29270688E+03</pdfrwt>
<totfact> 0.33380386E+05</totfact>
</mgrwt>
</event>
<event>
 8    1  0.9478272E-006  0.2781069E+03  0.7546771E-02  0.1096727E+00
         21   -1    0    0  504  503  0.00000000000E+00  0.00000000000E+00  0.22970406689E+04  0.22970406689E+04  0.00000000000E+00 0.  1.
         21   -1    0    0  503  504 -0.00000000000E+00 -0.00000000000E+00 -0.84177292272E+01  0.84177292272E+01  0.00000000000E+00 0.  1.
         25    2    1    2    0    0  0.40357363628E+02 -0.20674521402E+02  0.14815862230E+04  0.14875410531E+04  0.12499798391E+03 0.  0.
         25    2    1    2    0    0 -0.40357363628E+02  0.20674521402E+02  0.80703671669E+03  0.81791734499E+03  0.12499747408E+03 0.  0.
          5    1    3    3  501    0  0.75694148226E+02 -0.41322769494E+02  0.78479205025E+03  0.78953013083E+03  0.47000000000E+01 0.  1.
         -5    1    3    3    0  501 -0.35336784597E+02  0.20648248092E+02  0.69679417274E+03  0.69801092231E+03  0.47000000000E+01 0.  1.
          5    1    4    4  502    0 -0.78211144942E+02  0.10834138290E+02  0.33378749452E+03  0.34303140271E+03  0.47000000000E+01 0. -1.
         -5    1    4    4    0  502  0.37853781313E+02  0.98403831119E+01  0.47324922216E+03  0.47488594228E+03  0.47000000000E+01 0. -1.
<mgrwt>
<rscale>  0 0.27810693E+03</rscale>
<asrwt>0</asrwt>
<pdfrwt beam="1">  1       21 0.35339037E+00 0.27810693E+03</pdfrwt>
<pdfrwt beam="2">  1       21 0.12950371E-02 0.27810693E+03</pdfrwt>
<totfact> 0.38470379E+04</totfact>
</mgrwt>
</event>
<event>
 8    1  0.9478272E-006  0.3794470E+03  0.7546771E-02  0.1051138E+00
         21   -1    0    0  504  503  0.00000000000E+00  0.00000000000E+00  0.29882906027E+02  0.29882906027E+02  0.00000000000E+00 0.  1.
         21   -1    0    0  503  504 -0.00000000000E+00 -0.00000000000E+00 -0.12045350798E+04  0.12045350798E+04  0.00000000000E+00 0.  1.
         25    2    1    2    0    0  0.14218145400E+03  0.10656778378E+02 -0.56648829288E+03  0.59738034761E+03  0.12500064380E+03 0.  0.
         25    2    1    2    0    0 -0.14218145400E+03 -0.10656778378E+02 -0.60816388089E+03  0.63703763822E+03  0.12499805478E+03 0.  0.
          5    1    3    3  501    0  0.14490428147E+03  0.17239012884E+02 -0.56981378606E+03  0.58822128076E+03  0.47000000000E+01 0. -1.
         -5    1    3    3    0  501 -0.27228274682E+01 -0.65822345055E+01  0.33254931854E+01  0.91590668429E+01  0.47000000000E+01 0. -1.
          5    1    4    4  502    0 -0.57930863208E+02  0.34136865122E+02 -0.10421533828E+03  0.12411380747E+03  0.47000000000E+01 0. -1.
         -5    1    4    4    0  502 -0.84250590795E+02 -0.44793643500E+02 -0.50394854261E+03  0.51292383075E+03  0.47000000000E+01 0. -1.
<mgrwt>
<rscale>  0 0.37944701E+03</rscale>
<asrwt>0</asrwt>
<pdfrwt beam="1">  1       21 0.45973713E-02 0.37944701E+03</pdfrwt>
<pdfrwt beam="2">  1       21 0.18531304E+00 0.37944701E+03</pdfrwt>
<totfact> 0.47707523E+04</totfact>
</mgrwt>
</event>
<event>
 8    1  0.9478272E-006  0.2747945E+03  0.7546771E-02  0.1098567E+00
         21   -1    0    0  504  503  0.00000000000E+00  0.00000000000E+00  0.25002577878E+02  0.25002577878E+02  0.00000000000E+00 0. -1.
         21   -1    0    0  503  504 -0.00000000000E+00 -0.00000000000E+00 -0.75504213184E+03  0.75504213184E+03  0.00000000000E+00 0. -1.
         25    2    1    2    0    0 -0.47602749689E+02  0.26109828993E+02 -0.41510779981E+03  0.43689070781E+03  0.12494502853E+03 0.  0.
         25    2    1    2    0    0  0.47602749689E+02 -0.26109828993E+02 -0.31493175416E+03  0.34315400192E+03  0.12499965723E+03 0.  0.
          5    1    3    3  501    0  0.20542907094E+02 -0.35901102924E+02 -0.16922069675E+03  0.17426598759E+03  0.47000000000E+01 0.  1.
         -5    1    3    3    0  501 -0.68145656783E+02  0.62010931917E+02 -0.24588710306E+03  0.26262472021E+03  0.47000000000E+01 0.  1.
          5    1    4    4  502    0  0.19042418628E+02 -0.73540867834E+02 -0.22412308147E+03  0.23669414567E+03  0.47000000000E+01 0.  1.
         -5    1    4    4    0  502  0.28560331062E+02  0.47431038841E+02 -0.90808672685E+02  0.10645985624E+03  0.47000000000E+01 0.  1.
<mgrwt>
<rscale>  0 0.27479447E+03</rscale>
<asrwt>0</asrwt>
<pdfrwt beam="1">  1       21 0.38465506E-02 0.27479447E+03</pdfrwt>
<pdfrwt beam="2">  1       21 0.11616032E+00 0.27479447E+03</pdfrwt>
<totfact> 0.23327657E+05</totfact>
</mgrwt>
</event>
<event>
 8    1  0.9478272E-006  0.3859540E+03  0.7546771E-02  0.1048755E+00
         21   -1    0    0  504  503  0.00000000000E+00  0.00000000000E+00  0.17341175143E+03  0.17341175143E+03  0.00000000000E+00 0.  1.
         21   -1    0    0  503  504 -0.00000000000E+00 -0.00000000000E+00 -0.21474974209E+03  0.21474974209E+03  0.00000000000E+00 0.  1.
         25    2    1    2    0    0 -0.38235405202E+02  0.24022131242E+02  0.12004352762E+03  0.17909412939E+03  0.12500099863E+03 0.  0.
         25    2    1    2    0    0  0.38235405202E+02 -0.24022131242E+02 -0.16138151829E+03  0.20906736413E+03  0.12500463710E+03 0.  0.
          5    1    3    3  501    0 -0.18738667698E+02 -0.28951480297E+02 -0.10860725579E+02  0.36460543586E+02  0.47000000000E+01 0.  1.
         -5    1    3    3    0  501 -0.19496737503E+02  0.52973611539E+02  0.13090425320E+03  0.14263358580E+03  0.47000000000E+01 0.  1.
          5    1    4    4  502    0 -0.38634430532E+02 -0.26479497148E+02 -0.10010289410E+03  0.11061854455E+03  0.47000000000E+01 0.  1.
         -5    1    4    4    0  502  0.76869835733E+02  0.24573659061E+01 -0.61278624188E+02  0.98448819573E+02  0.47000000000E+01 0.  1.
<mgrwt>
<rscale>  0 0.38595403E+03</rscale>
<asrwt>0</asrwt>
<pdfrwt beam="1">  1       21 0.26678731E-01 0.38595403E+03</pdfrwt>
<pdfrwt beam="2">  1       21 0.33038422E-01 0.38595403E+03</pdfrwt>
<totfact> 0.11168285E+05</totfact>
</mgrwt>
</event>
<event>
 8    1  0.9478272E-006  0.3022306E+03  0.7546771E-02  0.1084131E+00
         21   -1    0    0  504  503  0.00000000000E+00  0.00000000000E+00  0.32931360168E+02  0.32931360168E+02  0.00000000000E+00 0. -1.
         21   -1    0    0  503  504 -0.00000000000E+00 -0.00000000000E+00 -0.69343744524E+03  0.69343744524E+03  0.00000000000E+00 0. -1.
         25    2    1    2    0    0  0.12707108958E+02  0.61538942675E+02 -0.19296004191E+03  0.23834003515E+03  0.12499552992E+03 0.  0.
         25    2    1    2    0    0 -0.12707108958E+02 -0.61538942675E+02 -0.46754604317E+03  0.48802877026E+03  0.12499706410E+03 0.  0.
          5    1    3    3  501    0  0.59596284816E+02  0.37357793669E+02 -0.51537335682E+02  0.87324159778E+02  0.47000000000E+01 0. -1.
         -5    1    3    3    0  501 -0.46889175858E+02  0.24181149006E+02 -0.14142270623E+03  0.15101587538E+03  0.47000000000E+01 0. -1.
          5    1    4    4  502    0 -0.28300420420E+02 -0.20455199208E+02 -0.42573549056E+03  0.42719097239E+03  0.47000000000E+01 0. -1.
         -5    1    4    4    0  502  0.15593311462E+02 -0.41083743467E+02 -0.41810552606E+02  0.60837797863E+02  0.47000000000E+01 0. -1.
<mgrwt>
<rscale>  0 0.30223063E+03</rscale>
<asrwt>0</asrwt>
<pdfrwt beam="1">  1       21 0.50663632E-02 0.30223063E+03</pdfrwt>
<pdfrwt beam="2">  1       21 0.10668268E+00 0.30223063E+03</pdfrwt>
<totfact> 0.17872959E+05</totfact>
</mgrwt>
</event>
<event>
 8    1  0.9478272E-006  0.2659849E+03  0.7546771E-02  0.1103600E+00
         21   -1    0    0  504  503  0.00000000000E+00  0.00000000000E+00  0.10206757406E+04  0.10206757406E+04  0.00000000000E+00 0.  1.
         21   -1    0    0  503  504 -0.00000000000E+00 -0.00000000000E+00 -0.17328709420E+02  0.17328709420E+02  0.00000000000E+00 0.  1.
         25    2    1    2    0    0  0.17496328742E+01 -0.44210651124E+02  0.54118054807E+03  0.55719182699E+03  0.12501481337E+03 0.  0.
         25    2    1    2    0    0 -0.17496328742E+01  0.44210651124E+02  0.46216648311E+03  0.48081262304E+03  0.12500110988E+03 0.  0.
          5    1    3    3  501    0 -0.54889364870E+02 -0.23982571027E+02  0.15340554542E+03  0.16475241259E+03  0.47000000000E+01 0. -1.
         -5    1    3    3    0  501  0.56638997744E+02 -0.20228080097E+02  0.38777500265E+03  0.39243941440E+03  0.47000000000E+01 0. -1.
          5    1    4    4  502    0 -0.83701629944E+01  0.65609826232E+02  0.11390341265E+03  0.13179827897E+03  0.47000000000E+01 0. -1.
         -5    1    4    4    0  502  0.66205301203E+01 -0.21399175108E+02  0.34826307047E+03  0.34901434407E+03  0.47000000000E+01 0. -1.
<mgrwt>
<rscale>  0 0.26598491E+03</rscale>
<asrwt>0</asrwt>
<pdfrwt beam="1">  1       21 0.15702699E+00 0.26598491E+03</pdfrwt>
<pdfrwt beam="2">  1       21 0.26659561E-02 0.26598491E+03</pdfrwt>
<totfact> 0.19791765E+05</totfact>
</mgrwt>
</event>
<event>
 8    1  0.9478272E-006  0.4217454E+03  0.7546771E-02  0.1036500E+00
         21   -1    0    0  504  503  0.00000000000E+00  0.00000000000E+00  0.11779714783E+03  0.11779714783E+03  0.00000000000E+00 0.  1.
         21   -1    0    0  503  504 -0.00000000000E+00 -0.00000000000E+00 -0.37749037909E+03  0.37749037909E+03  0.00000000000E+00 0.  1.
         25    2    1    2    0    0 -0.27359285189E+01 -0.82857957070E+02  0.44211840132E+02  0.15637938022E+03  0.12500758935E+03 0.  0.
         25    2    1    2    0    0  0.27359285189E+01  0.82857957070E+02 -0.30390507140E+03  0.33890814670E+03  0.12501005210E+03 0.  0.
          5    1    3    3  501    0  0.56588107625E+02 -0.13525599431E+02  0.12778048126E+02  0.59753864130E+02  0.47000000000E+01 0. -1.
         -5    1    3    3    0  501 -0.59324036144E+02 -0.69332357639E+02  0.31433792005E+02  0.96625516092E+02  0.47000000000E+01 0. -1.
          5    1    4    4  502    0 -0.26462696283E+02 -0.22660308468E+02 -0.11782664428E+03  0.12295922892E+03  0.47000000000E+01 0.  1.
         -5    1    4    4    0  502  0.29198624802E+02  0.10551826554E+03 -0.18607842712E+03  0.21594891778E+03  0.47000000000E+01 0.  1.
<mgrwt>
<rscale>  0 0.42174537E+03</rscale>
<asrwt>0</asrwt>
<pdfrwt beam="1">  1       21 0.18122638E-01 0.42174537E+03</pdfrwt>
<pdfrwt beam="2">  1       21 0.58075443E-01 0.42174537E+03</pdfrwt>
<totfact> 0.71808715E+04</totfact>
</mgrwt>
</event>
<event>
 8    1  0.9478272E-006  0.2770388E+03  0.7546771E-02  0.1097317E+00
         21   -1    0    0  504  503  0.00000000000E+00  0.00000000000E+00  0.13460301167E+03  0.13460301167E+03  0.00000000000E+00 0. -1.
         21   -1    0    0  503  504 -0.00000000000E+00 -0.00000000000E+00 -0.14254972454E+03  0.14254972454E+03  0.00000000000E+00 0. -1.
         25    2    1    2    0    0 -0.24652790559E+02  0.31700766372E+02  0.40197304129E+02  0.13730785217E+03  0.12499969734E+03 0.  0.
         25    2    1    2    0    0  0.24652790559E+02 -0.31700766372E+02 -0.48144016997E+02  0.13984488405E+03  0.12500418613E+03 0.  0.
          5    1    3    3  501    0  0.44002184581E+02  0.40479117015E+02  0.30424819450E+02  0.67249615618E+02  0.47000000000E+01 0. -1.
         -5    1    3    3    0  501 -0.68654975139E+02 -0.87783506437E+01  0.97724846790E+01  0.70058236548E+02  0.47000000000E+01 0. -1.
          5    1    4    4  502    0 -0.41471836958E+02 -0.43874075815E+02 -0.38501720080E+02  0.71758764192E+02  0.47000000000E+01 0.  1.
         -5    1    4    4    0  502  0.66124627516E+02  0.12173309443E+02 -0.96422969172E+01  0.68086119854E+02  0.47000000000E+01 0.  1.
<mgrwt>
<rscale>  0 0.27703879E+03</rscale>
<asrwt>0</asrwt>
<pdfrwt beam="1">  1       21 0.20708156E-01 0.27703879E+03</pdfrwt>
<pdfrwt beam="2">  1       21 0.21930727E-01 0.27703879E+03</pdfrwt>
<totfact> 0.41274370E+05</totfact>
</mgrwt>
</event>
<event>
 8    1  0.9478272E-006  0.3280447E+03  0.7546771E-02  0.1072005E+00
         21   -1    0    0  504  503  0.00000000000E+00  0.00000000000E+00  0.23635131423E+03  0.23635131423E+03  0.00000000000E+00 0.  1.
         21   -1    0    0  503  504 -0.00000000000E+00 -0.00000000000E+00 -0.11382772315E+03  0.11382772315E+03  0.00000000000E+00 0.  1.
         25    2    1    2    0    0 -0.36494474057E+02 -0.99438299663E+02  0.69408952662E+02  0.17794185834E+03  0.12500352060E+03 0.  0.
         25    2    1    2    0    0  0.36494474057E+02  0.99438299663E+02  0.53114638416E+02  0.17223717904E+03  0.12499863581E+03 0.  0.
          5    1    3    3  501    0 -0.18079272892E+01 -0.75551761547E+01 -0.34034201996E+02  0.35224511257E+02  0.47000000000E+01 0.  1.
         -5    1    3    3    0  501 -0.34686546768E+02 -0.91883123509E+02  0.10344315466E+03  0.14271734708E+03  0.47000000000E+01 0.  1.
          5    1    4    4  502    0 -0.39874034428E+02  0.68992583140E+01  0.28360944608E+02  0.49638408172E+02  0.47000000000E+01 0.  1.
         -5    1    4    4    0  502  0.76368508485E+02  0.92539041349E+02  0.24753693808E+02  0.12259877087E+03  0.47000000000E+01 0.  1.
<mgrwt>
<rscale>  0 0.32804470E+03</rscale>
<asrwt>0</asrwt>
<pdfrwt beam="1">  1       21 0.36361740E-01 0.32804470E+03</pdfrwt>
<pdfrwt beam="2">  1       21 0.17511958E-01 0.32804470E+03</pdfrwt>
<totfact> 0.20817219E+05</totfact>
</mgrwt>
</event>
<event>
 8    1  0.9478272E-006  0.2785214E+03  0.7546771E-02  0.1096499E+00
         21   -1    0    0  504  503  0.00000000000E+00  0.00000000000E+00  0.10947148007E+04  0.10947148007E+04  0.00000000000E+00 0. -1.
         21   -1    0    0  503  504 -0.00000000000E+00 -0.00000000000E+00 -0.17715607121E+02  0.17715607121E+02  0.00000000000E+00 0. -1.
         25    2    1    2    0    0  0.47129041383E+02  0.39181513182E+02  0.52943586755E+03  0.54744405270E+03  0.12504525370E+03 0.  0.
         25    2    1    2    0    0 -0.47129041383E+02 -0.39181513182E+02  0.54756332599E+03  0.56498635508E+03  0.12501059131E+03 0.  0.
          5    1    3    3  501    0  0.30920545117E+02 -0.44974320035E+01  0.23581294697E+02  0.39426824175E+02  0.47000000000E+01 0.  1.
         -5    1    3    3    0  501  0.16208496266E+02  0.43678945185E+02  0.50585457285E+03  0.50801722852E+03  0.47000000000E+01 0.  1.
          5    1    4    4  502    0 -0.57090859789E+02  0.77497409209E+01  0.10546830843E+03  0.12027085615E+03  0.47000000000E+01 0. -1.
         -5    1    4    4    0  502  0.99618184062E+01 -0.46931254103E+02  0.44209501756E+03  0.44471549893E+03  0.47000000000E+01 0. -1.
<mgrwt>
<rscale>  0 0.27852136E+03</rscale>
<asrwt>0</asrwt>
<pdfrwt beam="1">  1       21 0.16841761E+00 0.27852136E+03</pdfrwt>
<pdfrwt beam="2">  1       21 0.27254789E-02 0.27852136E+03</pdfrwt>
<totfact> 0.15669921E+05</totfact>
</mgrwt>
</event>
<event>
 8    1  0.9478272E-006  0.2982833E+03  0.7546771E-02  0.1086102E+00
         21   -1    0    0  504  503  0.00000000000E+00  0.00000000000E+00  0.57223507229E+02  0.57223507229E+02  0.00000000000E+00 0. -1.
         21   -1    0    0  503  504 -0.00000000000E+00 -0.00000000000E+00 -0.38870803506E+03  0.38870803506E+03  0.00000000000E+00 0. -1.
         25    2    1    2    0    0 -0.57916250273E+02 -0.53709515131E+02 -0.19481641108E+03  0.24458156882E+03  0.12501082241E+03 0.  0.
         25    2    1    2    0    0  0.57916250273E+02  0.53709515131E+02 -0.13666811675E+03  0.20134997347E+03  0.12499853447E+03 0.  0.
          5    1    3    3  501    0 -0.58081377724E+02 -0.92108912363E+02 -0.13814964185E+03  0.17596849638E+03  0.47000000000E+01 0. -1.
         -5    1    3    3    0  501  0.16512745124E+00  0.38399397232E+02 -0.56666769233E+02  0.68613072444E+02  0.47000000000E+01 0. -1.
          5    1    4    4  502    0  0.63139106088E+02  0.88667151018E+02 -0.83216079870E+02  0.13709637609E+03  0.47000000000E+01 0.  1.
         -5    1    4    4    0  502 -0.52228558154E+01 -0.34957635888E+02 -0.53452036885E+02  0.64253597385E+02  0.47000000000E+01 0.  1.
<mgrwt>
<rscale>  0 0.29828334E+03</rscale>
<asrwt>0</asrwt>
<pdfrwt beam="1">  1       21 0.88036167E-02 0.29828334E+03</pdfrwt>
<pdfrwt beam="2">  1       21 0.59801235E-01 0.29828334E+03</pdfrwt>
<totfact> 0.25796968E+05</totfact>
</mgrwt>
</event>
<event>
 8    1  0.9478272E-006  0.3036388E+03  0.7546771E-02  0.1083436E+00
         21   -1    0    0  504  503  0.00000000000E+00  0.00000000000E+00  0.16272933076E+03  0.16272933076E+03  0.00000000000E+00 0. -1.
         21   -1    0    0  503  504 -0.00000000000E+00 -0.00000000000E+00 -0.14164089825E+03  0.14164089825E+03  0.00000000000E+00 0. -1.
         25    2    1    2    0    0  0.69957429726E+02 -0.11889747351E+02 -0.38450377831E+02  0.14879170313E+03  0.12500052519E+03 0.  0.
         25    2    1    2    0    0 -0.69957429726E+02  0.11889747351E+02  0.59538810334E+02  0.15557852588E+03  0.12499759883E+03 0.  0.
          5    1    3    3  501    0 -0.13112718950E+02 -0.48397341180E+02 -0.60684472547E+00  0.50365705515E+02  0.47000000000E+01 0. -1.
         -5    1    3    3    0  501  0.83070148676E+02  0.36507593828E+02 -0.37843533105E+02  0.98425997613E+02  0.47000000000E+01 0. -1.
          5    1    4    4  502    0 -0.76415229266E+02  0.52722496625E+02  0.14188526700E+02  0.94033787567E+02  0.47000000000E+01 0. -1.
         -5    1    4    4    0  502  0.64577995402E+01 -0.40832749274E+02  0.45350283635E+02  0.61544738312E+02  0.47000000000E+01 0. -1.
<mgrwt>
<rscale>  0 0.30363879E+03</rscale>
<asrwt>0</asrwt>
<pdfrwt beam="1">  1       21 0.25035282E-01 0.30363879E+03</pdfrwt>
<pdfrwt beam="2">  1       21 0.21790907E-01 0.30363879E+03</pdfrwt>
<totfact> 0.28935707E+05</totfact>
</mgrwt>
</event>
<event>
 8    1  0.9478272E-006  0.4429766E+03  0.7546771E-02  0.1029837E+00
         21   -1    0    0  504  503  0.00000000000E+00  0.00000000000E+00  0.19805242699E+03  0.19805242699E+03  0.00000000000E+00 0.  1.
         21   -1    0    0  503  504 -0.00000000000E+00 -0.00000000000E+00 -0.24769736205E+03  0.24769736205E+03  0.00000000000E+00 0.  1.
         25    2    1    2    0    0 -0.52585135378E+02 -0.14208639455E+03 -0.12784611478E+03  0.23433986361E+03  0.12496720624E+03 0.  0.
         25    2    1    2    0    0  0.52585135378E+02  0.14208639455E+03  0.78201179720E+02  0.21140992543E+03  0.12499996832E+03 0.  0.
          5    1    3    3  501    0 -0.48835875674E+02 -0.82147082197E+02 -0.14315267191E+03  0.17218554916E+03  0.47000000000E+01 0.  1.
         -5    1    3    3    0  501 -0.37492597033E+01 -0.59939312351E+02  0.15306557131E+02  0.62154314449E+02  0.47000000000E+01 0.  1.
          5    1    4    4  502    0  0.23228287485E+02  0.11447035319E+02  0.72700029770E+02  0.77317347896E+02  0.47000000000E+01 0.  1.
         -5    1    4    4    0  502  0.29356847893E+02  0.13063935923E+03  0.55011499499E+01  0.13409257753E+03  0.47000000000E+01 0.  1.
<mgrwt>
<rscale>  0 0.44297658E+03</rscale>
<asrwt>0</asrwt>
<pdfrwt beam="1">  1       21 0.30469604E-01 0.44297658E+03</pdfrwt>
<pdfrwt beam="2">  1       21 0.38107286E-01 0.44297658E+03</pdfrwt>
<totfact> 0.63622653E+04</totfact>
</mgrwt>
</event>
<event>
 8    1  0.9478272E-006  0.2958484E+03  0.7546771E-02  0.1087335E+00
         21   -1    0    0  504  503  0.00000000000E+00  0.00000000000E+00  0.76378738290E+02  0.76378738290E+02  0.00000000000E+00 0. -1.
         21   -1    0    0  503  504 -0.00000000000E+00 -0.00000000000E+00 -0.28648764079E+03  0.28648764079E+03  0.00000000000E+00 0. -1.
         25    2    1    2    0    0 -0.33243066212E+02  0.38505633461E+02 -0.17933521205E+03  0.22444223865E+03  0.12500165979E+03 0.  0.
         25    2    1    2    0    0  0.33243066212E+02 -0.38505633461E+02 -0.30773690457E+02  0.13842414043E+03  0.12500574935E+03 0.  0.
          5    1    3    3  501    0  0.24968465338E+02  0.76763680859E+01 -0.14974199273E+03  0.15207598520E+03  0.47000000000E+01 0. -1.
         -5    1    3    3    0  501 -0.58211531550E+02  0.30829265375E+02 -0.29593219319E+02  0.72366253452E+02  0.47000000000E+01 0. -1.
          5    1    4    4  502    0  0.65820043102E+00 -0.46014520634E+02  0.39261175174E+02  0.60673711054E+02  0.47000000000E+01 0.  1.
         -5    1    4    4    0  502  0.32584865781E+02  0.75088871736E+01 -0.70034865631E+02  0.77750429379E+02  0.47000000000E+01 0.  1.
<mgrwt>
<rscale>  0 0.29584837E+03</rscale>
<asrwt>0</asrwt>
<pdfrwt beam="1">  1       21 0.11750575E-01 0.29584837E+03</pdfrwt>
<pdfrwt beam="2">  1       21 0.44075022E-01 0.29584837E+03</pdfrwt>
<totfact> 0.29400242E+05</totfact>
</mgrwt>
</event>
<event>
 8    1  0.9478272E-006  0.3397864E+03  0.7546771E-02  0.1066887E+00
         21   -1    0    0  504  503  0.00000000000E+00  0.00000000000E+00  0.40206771188E+02  0.40206771188E+02  0.00000000000E+00 0.  1.
         21   -1    0    0  503  504 -0.00000000000E+00 -0.00000000000E+00 -0.71788146726E+03  0.71788146726E+03  0.00000000000E+00 0.  1.
         25    2    1    2    0    0  0.54969567545E+02  0.76536743203E+02 -0.48613039445E+03  0.51071424346E+03  0.12500700639E+03 0.  0.
         25    2    1    2    0    0 -0.54969567545E+02 -0.76536743203E+02 -0.19154430162E+03  0.24737399499E+03  0.12500058999E+03 0.  0.
          5    1    3    3  501    0  0.30385542174E+02  0.57343507218E+02 -0.78919354587E+02  0.10228349584E+03  0.47000000000E+01 0.  1.
         -5    1    3    3    0  501  0.24584025371E+02  0.19193235984E+02 -0.40721103987E+03  0.40843074762E+03  0.47000000000E+01 0.  1.
          5    1    4    4  502    0 -0.47474045919E+02 -0.26951372248E+02 -0.18917446418E+03  0.19694981442E+03  0.47000000000E+01 0. -1.
         -5    1    4    4    0  502 -0.74955216264E+01 -0.49585370955E+02 -0.23698374464E+01  0.50424180576E+02  0.47000000000E+01 0. -1.
<mgrwt>
<rscale>  0 0.33978638E+03</rscale>
<asrwt>0</asrwt>
<pdfrwt beam="1">  1       21 0.61856570E-02 0.33978638E+03</pdfrwt>
<pdfrwt beam="2">  1       21 0.11044330E+00 0.33978638E+03</pdfrwt>
<totfact> 0.11524279E+05</totfact>
</mgrwt>
</event>
<event>
 8    1  0.9478272E-006  0.3294636E+03  0.7546771E-02  0.1071374E+00
         21   -1    0    0  504  503  0.00000000000E+00  0.00000000000E+00  0.10014979270E+02  0.10014979270E+02  0.00000000000E+00 0. -1.
         21   -1    0    0  503  504 -0.00000000000E+00 -0.00000000000E+00 -0.27095971653E+04  0.27095971653E+04  0.00000000000E+00 0. -1.
         25    2    1    2    0    0 -0.62218299485E+02  0.78435775330E+02 -0.10313847072E+04  0.10437442398E+04  0.12499734481E+03 0.  0.
         25    2    1    2    0    0  0.62218299485E+02 -0.78435775330E+02 -0.16681974788E+04  0.16758679048E+04  0.12500847272E+03 0.  0.
          5    1    3    3  501    0 -0.71441237635E+02  0.97039309022E+02 -0.98887981503E+03  0.99620573001E+03  0.47000000000E+01 0. -1.
         -5    1    3    3    0  501  0.92229381496E+01 -0.18603533693E+02 -0.42504892178E+02  0.47538509789E+02  0.47000000000E+01 0. -1.
          5    1    4    4  502    0  0.55258200106E+02 -0.62877029250E+02 -0.16427109161E+04  0.16448490002E+04  0.47000000000E+01 0. -1.
         -5    1    4    4    0  502  0.69600993788E+01 -0.15558746079E+02 -0.25486562691E+02  0.31018904570E+02  0.47000000000E+01 0. -1.
<mgrwt>
<rscale>  0 0.32946356E+03</rscale>
<asrwt>0</asrwt>
<pdfrwt beam="1">  1       21 0.15407646E-02 0.32946356E+03</pdfrwt>
<pdfrwt beam="2">  1       21 0.41686149E+00 0.32946356E+03</pdfrwt>
<totfact> 0.11238402E+04</totfact>
</mgrwt>
</event>
<event>
 8    1  0.9478272E-006  0.4460475E+03  0.7546771E-02  0.1028907E+00
         21   -1    0    0  504  503  0.00000000000E+00  0.00000000000E+00  0.68943030669E+02  0.68943030669E+02  0.00000000000E+00 0.  1.
         21   -1    0    0  503  504 -0.00000000000E+00 -0.00000000000E+00 -0.72145917359E+03  0.72145917359E+03  0.00000000000E+00 0.  1.
         25    2    1    2    0    0 -0.16581645119E+03 -0.22321140332E+02 -0.18762806886E+03  0.28075329493E+03  0.12499916640E+03 0.  0.
         25    2    1    2    0    0  0.16581645119E+03  0.22321140332E+02 -0.46488807406E+03  0.50964890933E+03  0.12501104184E+03 0.  0.
          5    1    3    3  501    0 -0.36163705688E+02  0.23611519085E+02  0.52995866115E+01  0.43766346213E+02  0.47000000000E+01 0.  1.
         -5    1    3    3    0  501 -0.12965274550E+03 -0.45932659417E+02 -0.19292765547E+03  0.23698694872E+03  0.47000000000E+01 0.  1.
          5    1    4    4  502    0  0.75137183060E+02  0.93635727503E+00 -0.66397865224E+02  0.10038545487E+03  0.47000000000E+01 0. -1.
         -5    1    4    4    0  502  0.90679268130E+02  0.21384783057E+02 -0.39849020884E+03  0.40926345446E+03  0.47000000000E+01 0. -1.
<mgrwt>
<rscale>  0 0.44604745E+03</rscale>
<asrwt>0</asrwt>
<pdfrwt beam="1">  1       21 0.10606620E-01 0.44604745E+03</pdfrwt>
<pdfrwt beam="2">  1       21 0.11099372E+00 0.44604745E+03</pdfrwt>
<totfact> 0.42686550E+04</totfact>
</mgrwt>
</event>
<event>
 8    1  0.9478272E-006  0.3138147E+03  0.7546771E-02  0.1078532E+00
         21   -1    0    0  504  503  0.00000000000E+00  0.00000000000E+00  0.18175509979E+03  0.18175509979E+03  0.00000000000E+00 0. -1.
         21   -1    0    0  503  504 -0.00000000000E+00 -0.00000000000E+00 -0.13545650202E+03  0.13545650202E+03  0.00000000000E+00 0. -1.
         25    2    1    2    0    0  0.27328687993E+02  0.85886323403E+02 -0.67084455139E+01  0.15424797880E+03  0.12499647190E+03 0.  0.
         25    2    1    2    0    0 -0.27328687993E+02 -0.85886323403E+02  0.53007043281E+02  0.16296362301E+03  0.12499631215E+03 0.  0.
          5    1    3    3  501    0  0.38453620381E+02 -0.20848115482E+02  0.11085682263E+02  0.45368570517E+02  0.47000000000E+01 0.  1.
         -5    1    3    3    0  501 -0.11124932388E+02  0.10673443888E+03 -0.17794127777E+02  0.10887940828E+03  0.47000000000E+01 0.  1.
          5    1    4    4  502    0  0.21043719793E+02 -0.63852855276E+02 -0.22014975658E+02  0.70899749103E+02  0.47000000000E+01 0.  1.
         -5    1    4    4    0  502 -0.48372407786E+02 -0.22033468127E+02  0.75022018939E+02  0.92063873905E+02  0.47000000000E+01 0.  1.
<mgrwt>
<rscale>  0 0.31381466E+03</rscale>
<asrwt>0</asrwt>
<pdfrwt beam="1">  1       21 0.27962323E-01 0.31381466E+03</pdfrwt>
<pdfrwt beam="2">  1       21 0.20839462E-01 0.31381466E+03</pdfrwt>
<totfact> 0.25359644E+05</totfact>
</mgrwt>
</event>
<event>
 8    1  0.9478272E-006  0.3037651E+03  0.7546771E-02  0.1083373E+00
         21   -1    0    0  504  503  0.00000000000E+00  0.00000000000E+00  0.10665928410E+03  0.10665928410E+03  0.00000000000E+00 0.  1.
         21   -1    0    0  503  504 -0.00000000000E+00 -0.00000000000E+00 -0.21628041861E+03  0.21628041861E+03  0.00000000000E+00 0.  1.
         25    2    1    2    0    0 -0.57162408113E+02 -0.34264198279E+02  0.34351713740E+01  0.14169804470E+03  0.12499983714E+03 0.  0.
         25    2    1    2    0    0  0.57162408113E+02  0.34264198279E+02 -0.11305630588E+03  0.18124165800E+03  0.12500093644E+03 0.  0.
          5    1    3    3  501    0 -0.56002991356E+02 -0.76020819026E+02  0.19797610024E+02  0.96589519767E+02  0.47000000000E+01 0.  1.
         -5    1    3    3    0  501 -0.11594167575E+01  0.41756620747E+02 -0.16362438650E+02  0.45108524938E+02  0.47000000000E+01 0.  1.
          5    1    4    4  502    0 -0.32096059110E+02 -0.18460597258E+02 -0.23008033429E+02  0.43845299221E+02  0.47000000000E+01 0.  1.
         -5    1    4    4    0  502  0.89258467223E+02  0.52724795537E+02 -0.90048272451E+02  0.13739635878E+03  0.47000000000E+01 0.  1.
<mgrwt>
<rscale>  0 0.30376514E+03</rscale>
<asrwt>0</asrwt>
<pdfrwt beam="1">  1       21 0.16409121E-01 0.30376514E+03</pdfrwt>
<pdfrwt beam="2">  1       21 0.33273910E-01 0.30376514E+03</pdfrwt>
<totfact> 0.28210099E+05</totfact>
</mgrwt>
</event>
<event>
 8    1  0.9478272E-006  0.2852525E+03  0.7546771E-02  0.1092854E+00
         21   -1    0    0  504  503  0.00000000000E+00  0.00000000000E+00  0.65904481690E+02  0.65904481690E+02  0.00000000000E+00 0.  1.
         21   -1    0    0  503  504 -0.00000000000E+00 -0.00000000000E+00 -0.30866247165E+03  0.30866247165E+03  0.00000000000E+00 0.  1.
         25    2    1    2    0    0 -0.14138783066E+02  0.37955013351E+02 -0.19421010383E+03  0.23448237558E+03  0.12499572713E+03 0.  0.
         25    2    1    2    0    0  0.14138783066E+02 -0.37955013351E+02 -0.48547886131E+02  0.14008457777E+03  0.12500521371E+03 0.  0.
          5    1    3    3  501    0  0.12213145568E+02  0.78009063186E+02 -0.90931875193E+02  0.12052083135E+03  0.47000000000E+01 0.  1.
         -5    1    3    3    0  501 -0.26351928634E+02 -0.40054049836E+02 -0.10327822864E+03  0.11396154422E+03  0.47000000000E+01 0.  1.
          5    1    4    4  502    0 -0.39890294011E+01 -0.32023280029E+02 -0.89178574186E+02  0.94954256951E+02  0.47000000000E+01 0.  1.
         -5    1    4    4    0  502  0.18127812467E+02 -0.59317333220E+01  0.40630688055E+02  0.45130320815E+02  0.47000000000E+01 0.  1.
<mgrwt>
<rscale>  0 0.28525245E+03</rscale>
<asrwt>0</asrwt>
<pdfrwt beam="1">  1       21 0.10139151E-01 0.28525245E+03</pdfrwt>
<pdfrwt beam="2">  1       21 0.47486533E-01 0.28525245E+03</pdfrwt>
<totfact> 0.32873661E+05</totfact>
</mgrwt>
</event>
<event>
 8    1  0.9478272E-006  0.8035876E+03  0.7546771E-02  0.9554839E-01
         21   -1    0    0  504  503  0.00000000000E+00  0.00000000000E+00  0.28304691003E+03  0.28304691003E+03  0.00000000000E+00 0.  1.
         21   -1    0    0  503  504 -0.00000000000E+00 -0.00000000000E+00 -0.57035872749E+03  0.57035872749E+03  0.00000000000E+00 0.  1.
         25    2    1    2    0    0 -0.27265337848E+03  0.23916982752E+02 -0.42644717139E+03  0.52191435748E+03  0.12500207878E+03 0.  0.
         25    2    1    2    0    0  0.27265337848E+03 -0.23916982752E+02  0.13913535393E+03  0.33149128004E+03  0.12496373542E+03 0.  0.
          5    1    3    3  501    0 -0.24930723391E+03 -0.22057859651E+01 -0.29737285468E+03  0.38808719004E+03  0.47000000000E+01 0.  1.
         -5    1    3    3    0  501 -0.23346144567E+02  0.26122768717E+02 -0.12907431671E+03  0.13382716744E+03  0.47000000000E+01 0.  1.
          5    1    4    4  502    0  0.48546148616E+01  0.13165455864E+02 -0.14314809829E+02  0.20588839064E+02  0.47000000000E+01 0. -1.
         -5    1    4    4    0  502  0.26779876362E+03 -0.37082438616E+02  0.15345016376E+03  0.31090244098E+03  0.47000000000E+01 0. -1.
<mgrwt>
<rscale>  0 0.80358764E+03</rscale>
<asrwt>0</asrwt>
<pdfrwt beam="1">  1       21 0.43545679E-01 0.80358764E+03</pdfrwt>
<pdfrwt beam="2">  1       21 0.87747495E-01 0.80358764E+03</pdfrwt>
<totfact> 0.45587414E+03</totfact>
</mgrwt>
</event>
<event>
 8    1  0.9478272E-006  0.3058286E+03  0.7546771E-02  0.1082363E+00
         21   -1    0    0  504  503  0.00000000000E+00  0.00000000000E+00  0.10997835061E+02  0.10997835061E+02  0.00000000000E+00 0. -1.
         21   -1    0    0  503  504 -0.00000000000E+00 -0.00000000000E+00 -0.21261265232E+04  0.21261265232E+04  0.00000000000E+00 0. -1.
         25    2    1    2    0    0  0.79907243922E+01  0.29011720298E+02 -0.16360291556E+04  0.16410736025E+04  0.12500255793E+03 0.  0.
         25    2    1    2    0    0 -0.79907243922E+01 -0.29011720298E+02 -0.47909953261E+03  0.49605075576E+03  0.12499783420E+03 0.  0.
          5    1    3    3  501    0 -0.57214621430E+02  0.19863199273E+02 -0.92227752995E+03  0.92427592841E+03  0.47000000000E+01 0. -1.
         -5    1    3    3    0  501  0.65205345822E+02  0.91485210246E+01 -0.71375162561E+03  0.71679767412E+03  0.47000000000E+01 0. -1.
          5    1    4    4  502    0  0.99372094472E+01 -0.14683579835E+02 -0.47086068063E+03  0.47121781186E+03  0.47000000000E+01 0. -1.
         -5    1    4    4    0  502 -0.17927933839E+02 -0.14328140463E+02 -0.82388519752E+01  0.24832943900E+02  0.47000000000E+01 0. -1.
<mgrwt>
<rscale>  0 0.30582864E+03</rscale>
<asrwt>0</asrwt>
<pdfrwt beam="1">  1       21 0.16919778E-02 0.30582864E+03</pdfrwt>
<pdfrwt beam="2">  1       21 0.32709578E+00 0.30582864E+03</pdfrwt>
<totfact> 0.35150827E+04</totfact>
</mgrwt>
</event>
<event>
 8    1  0.9478272E-006  0.2563402E+03  0.7546771E-02  0.1109362E+00
         21   -1    0    0  504  503  0.00000000000E+00  0.00000000000E+00  0.53219704276E+02  0.53219704276E+02  0.00000000000E+00 0. -1.
         21   -1    0    0  503  504 -0.00000000000E+00 -0.00000000000E+00 -0.30867457046E+03  0.30867457046E+03  0.00000000000E+00 0. -1.
         25    2    1    2    0    0  0.23056021220E+02 -0.13329537351E+02 -0.14141444675E+03  0.19060799650E+03  0.12499642355E+03 0.  0.
         25    2    1    2    0    0 -0.23056021220E+02  0.13329537351E+02 -0.11404041944E+03  0.17128627824E+03  0.12499806065E+03 0.  0.
          5    1    3    3  501    0  0.39102402308E+02 -0.63582011178E+02 -0.80169282572E+02  0.10963974589E+03  0.47000000000E+01 0.  1.
         -5    1    3    3    0  501 -0.16046381088E+02  0.50252473827E+02 -0.61245164178E+02  0.80968250611E+02  0.47000000000E+01 0.  1.
          5    1    4    4  502    0 -0.94774291455E+01  0.48322470237E+02  0.17251405587E+01  0.49496958522E+02  0.47000000000E+01 0.  1.
         -5    1    4    4    0  502 -0.13578592075E+02 -0.34992932886E+02 -0.11576556000E+03  0.12178931971E+03  0.47000000000E+01 0.  1.
<mgrwt>
<rscale>  0 0.25634016E+03</rscale>
<asrwt>0</asrwt>
<pdfrwt beam="1">  1       21 0.81876469E-02 0.25634016E+03</pdfrwt>
<pdfrwt beam="2">  1       21 0.47488395E-01 0.25634016E+03</pdfrwt>
<totfact> 0.48245254E+05</totfact>
</mgrwt>
</event>
<event>
 8    1  0.9478272E-006  0.2777152E+03  0.7546771E-02  0.1096943E+00
         21   -1    0    0  504  503  0.00000000000E+00  0.00000000000E+00  0.37130475630E+03  0.37130475630E+03  0.00000000000E+00 0. -1.
         21   -1    0    0  503  504 -0.00000000000E+00 -0.00000000000E+00 -0.51928842741E+02  0.51928842741E+02  0.00000000000E+00 0. -1.
         25    2    1    2    0    0  0.57817470345E+01 -0.36681920768E+02  0.23246283323E+03  0.26653014726E+03  0.12498143323E+03 0.  0.
         25    2    1    2    0    0 -0.57817470345E+01  0.36681920768E+02  0.86913080326E+02  0.15670345178E+03  0.12499238520E+03 0.  0.
          5    1    3    3  501    0  0.61737351727E+02 -0.29524276154E+02  0.89462446062E+02  0.11273332576E+03  0.47000000000E+01 0.  1.
         -5    1    3    3    0  501 -0.55955604692E+02 -0.71576446138E+01  0.14300038717E+03  0.15379682150E+03  0.47000000000E+01 0.  1.
          5    1    4    4  502    0  0.36757489625E+02  0.64092837550E+02  0.28640438332E+02  0.79381166384E+02  0.47000000000E+01 0.  1.
         -5    1    4    4    0  502 -0.42539236659E+02 -0.27410916782E+02  0.58272641995E+02  0.77322285399E+02  0.47000000000E+01 0.  1.
<mgrwt>
<rscale>  0 0.27771515E+03</rscale>
<asrwt>0</asrwt>
<pdfrwt beam="1">  1       21 0.57123807E-01 0.27771515E+03</pdfrwt>
<pdfrwt beam="2">  1       21 0.79890530E-02 0.27771515E+03</pdfrwt>
<totfact> 0.33935902E+05</totfact>
</mgrwt>
</event>
<event>
 8    1  0.9478272E-006  0.3201664E+03  0.7546771E-02  0.1075573E+00
         21   -1    0    0  504  503  0.00000000000E+00  0.00000000000E+00  0.21842096651E+02  0.21842096651E+02  0.00000000000E+00 0.  1.
         21   -1    0    0  503  504 -0.00000000000E+00 -0.00000000000E+00 -0.11732681476E+04  0.11732681476E+04  0.00000000000E+00 0.  1.
         25    2    1    2    0    0 -0.91891042352E+02  0.29348021533E+02 -0.47725985327E+03  0.50270045993E+03  0.12500205934E+03 0.  0.
         25    2    1    2    0    0  0.91891042352E+02 -0.29348021533E+02 -0.67416619765E+03  0.69240978429E+03  0.12500390912E+03 0.  0.
          5    1    3    3  501    0 -0.90725849897E+02  0.42983973960E+01 -0.46603560274E+03  0.47482726236E+03  0.47000000000E+01 0.  1.
         -5    1    3    3    0  501 -0.11651924542E+01  0.25049624137E+02 -0.11224250530E+02  0.27873197571E+02  0.47000000000E+01 0.  1.
          5    1    4    4  502    0 -0.29208516133E+02 -0.21085730443E+02 -0.16552466939E+03  0.16946460285E+03  0.47000000000E+01 0. -1.
         -5    1    4    4    0  502  0.12109955848E+03 -0.82622910901E+01 -0.50864152826E+03  0.52294518144E+03  0.47000000000E+01 0. -1.
<mgrwt>
<rscale>  0 0.32016643E+03</rscale>
<asrwt>0</asrwt>
<pdfrwt beam="1">  1       21 0.33603223E-02 0.32016643E+03</pdfrwt>
<pdfrwt beam="2">  1       21 0.18050280E+00 0.32016643E+03</pdfrwt>
<totfact> 0.89435356E+04</totfact>
</mgrwt>
</event>
<event>
 8    1  0.9478272E-006  0.4355641E+03  0.7546771E-02  0.1032117E+00
         21   -1    0    0  504  503  0.00000000000E+00  0.00000000000E+00  0.21050148712E+03  0.21050148712E+03  0.00000000000E+00 0.  1.
         21   -1    0    0  503  504 -0.00000000000E+00 -0.00000000000E+00 -0.22531442669E+03  0.22531442669E+03  0.00000000000E+00 0.  1.
         25    2    1    2    0    0 -0.16758866002E+03 -0.20483407713E+02  0.50059857698E+02  0.21595265432E+03  0.12499612232E+03 0.  0.
         25    2    1    2    0    0  0.16758866002E+03  0.20483407713E+02 -0.64872797262E+02  0.21986325949E+03  0.12500337631E+03 0.  0.
          5    1    3    3  501    0 -0.16139796401E+03 -0.13269349806E+02  0.82511661147E+02  0.18181210811E+03  0.47000000000E+01 0. -1.
         -5    1    3    3    0  501 -0.61906960196E+01 -0.72140579072E+01 -0.32451803449E+02  0.34140546214E+02  0.47000000000E+01 0. -1.
          5    1    4    4  502    0  0.57564622902E+02 -0.49016730424E+02 -0.45066138772E+02  0.88144044240E+02  0.47000000000E+01 0. -1.
         -5    1    4    4    0  502  0.11002403712E+03  0.69500138136E+02 -0.19806658490E+02  0.13171921525E+03  0.47000000000E+01 0. -1.
<mgrwt>
<rscale>  0 0.43556410E+03</rscale>
<asrwt>0</asrwt>
<pdfrwt beam="1">  1       21 0.32384844E-01 0.43556410E+03</pdfrwt>
<pdfrwt beam="2">  1       21 0.34663758E-01 0.43556410E+03</pdfrwt>
<totfact> 0.68393386E+04</totfact>
</mgrwt>
</event>
<event>
 8    1  0.9478272E-006  0.3862319E+03  0.7546771E-02  0.1048654E+00
         21   -1    0    0  504  503  0.00000000000E+00  0.00000000000E+00  0.21051773591E+03  0.21051773591E+03  0.00000000000E+00 0.  1.
         21   -1    0    0  503  504 -0.00000000000E+00 -0.00000000000E+00 -0.17715265854E+03  0.17715265854E+03  0.00000000000E+00 0.  1.
         25    2    1    2    0    0  0.60253977808E+02 -0.19814376094E+01  0.15146537611E+03  0.20542945844E+03  0.12500013718E+03 0.  0.
         25    2    1    2    0    0 -0.60253977808E+02  0.19814376094E+01 -0.11810029874E+03  0.18224093601E+03  0.12501843967E+03 0.  0.
          5    1    3    3  501    0  0.31532640063E+02  0.59770455731E+02  0.55029690284E+02  0.87276409072E+02  0.47000000000E+01 0.  1.
         -5    1    3    3    0  501  0.28721337745E+02 -0.61751893341E+02  0.96435685828E+02  0.11815304936E+03  0.47000000000E+01 0.  1.
          5    1    4    4  502    0 -0.91068569813E+02 -0.21139613483E+02 -0.10637765329E+03  0.14169919825E+03  0.47000000000E+01 0. -1.
         -5    1    4    4    0  502  0.30814592005E+02  0.23121051093E+02 -0.11722645451E+02  0.40541737758E+02  0.47000000000E+01 0. -1.
<mgrwt>
<rscale>  0 0.38623193E+03</rscale>
<asrwt>0</asrwt>
<pdfrwt beam="1">  1       21 0.32387344E-01 0.38623193E+03</pdfrwt>
<pdfrwt beam="2">  1       21 0.27254255E-01 0.38623193E+03</pdfrwt>
<totfact> 0.11146285E+05</totfact>
</mgrwt>
</event>
<event>
 8    1  0.9478272E-006  0.3312131E+03  0.7546771E-02  0.1070601E+00
         21   -1    0    0  504  503  0.00000000000E+00  0.00000000000E+00  0.68397992878E+02  0.68397992878E+02  0.00000000000E+00 0.  1.
         21   -1    0    0  503  504 -0.00000000000E+00 -0.00000000000E+00 -0.40096983951E+03  0.40096983951E+03  0.00000000000E+00 0.  1.
         25    2    1    2    0    0 -0.92536850592E+02  0.13779895904E+02 -0.88072022576E+02  0.17926757447E+03  0.12500891108E+03 0.  0.
         25    2    1    2    0    0  0.92536850592E+02 -0.13779895904E+02 -0.24449982406E+03  0.29010025792E+03  0.12500016572E+03 0.  0.
          5    1    3    3  501    0 -0.11577715827E+03  0.15394115056E+02 -0.98933026691E+02  0.15313772535E+03  0.47000000000E+01 0.  1.
         -5    1    3    3    0  501  0.23240307682E+02 -0.16142191518E+01  0.10861004115E+02  0.26129849119E+02  0.47000000000E+01 0.  1.
          5    1    4    4  502    0  0.10988101097E+03 -0.20700102571E+02 -0.24652503592E+03  0.27073790676E+03  0.47000000000E+01 0.  1.
         -5    1    4    4    0  502 -0.17344160374E+02  0.69202066671E+01  0.20252118653E+01  0.19362351162E+02  0.47000000000E+01 0.  1.
<mgrwt>
<rscale>  0 0.33121312E+03</rscale>
<asrwt>0</asrwt>
<pdfrwt beam="1">  1       21 0.10522768E-01 0.33121312E+03</pdfrwt>
<pdfrwt beam="2">  1       21 0.61687668E-01 0.33121312E+03</pdfrwt>
<totfact> 0.17422549E+05</totfact>
</mgrwt>
</event>
<event>
 8    1  0.9478272E-006  0.3896272E+03  0.7546771E-02  0.1047432E+00
         21   -1    0    0  504  503  0.00000000000E+00  0.00000000000E+00  0.12410677281E+03  0.12410677281E+03  0.00000000000E+00 0. -1.
         21   -1    0    0  503  504 -0.00000000000E+00 -0.00000000000E+00 -0.30580389795E+03  0.30580389795E+03  0.00000000000E+00 0. -1.
         25    2    1    2    0    0  0.33787886353E+02  0.67250932342E+02  0.51597132267E+02  0.15476098080E+03  0.12499755180E+03 0.  0.
         25    2    1    2    0    0 -0.33787886353E+02 -0.67250932342E+02 -0.23329425741E+03  0.27514968996E+03  0.12496732445E+03 0.  0.
          5    1    3    3  501    0  0.20659486280E+02  0.20844228599E+02  0.88818116551E+02  0.93659191043E+02  0.47000000000E+01 0. -1.
         -5    1    3    3    0  501  0.13128400074E+02  0.46406703743E+02 -0.37220984283E+02  0.61101789760E+02  0.47000000000E+01 0. -1.
          5    1    4    4  502    0  0.35761125650E+02 -0.12189918753E+02 -0.17727691961E+02  0.41997777194E+02  0.47000000000E+01 0.  1.
         -5    1    4    4    0  502 -0.69549012003E+02 -0.55061013589E+02 -0.21556656545E+03  0.23315191277E+03  0.47000000000E+01 0.  1.
<mgrwt>
<rscale>  0 0.38962718E+03</rscale>
<asrwt>0</asrwt>
<pdfrwt beam="1">  1       21 0.19093350E-01 0.38962718E+03</pdfrwt>
<pdfrwt beam="2">  1       21 0.47046753E-01 0.38962718E+03</pdfrwt>
<totfact> 0.10277826E+05</totfact>
</mgrwt>
</event>
<event>
 8    1  0.9478272E-006  0.3618465E+03  0.7546771E-02  0.1057855E+00
         21   -1    0    0  504  503  0.00000000000E+00  0.00000000000E+00  0.60038764911E+03  0.60038764911E+03  0.00000000000E+00 0. -1.
         21   -1    0    0  503  504 -0.00000000000E+00 -0.00000000000E+00 -0.54520149190E+02  0.54520149190E+02  0.00000000000E+00 0. -1.
         25    2    1    2    0    0 -0.11444132215E+03  0.48621437486E+02  0.19947985762E+03  0.26622971196E+03  0.12500074215E+03 0.  0.
         25    2    1    2    0    0  0.11444132215E+03 -0.48621437486E+02  0.34638764230E+03  0.38867808634E+03  0.12500158264E+03 0.  0.
          5    1    3    3  501    0 -0.73742755098E+02 -0.38590121092E+01  0.18336153765E+03  0.19772817046E+03  0.47000000000E+01 0. -1.
         -5    1    3    3    0  501 -0.40698567051E+02  0.52480449595E+02  0.16118319971E+02  0.68501541504E+02  0.47000000000E+01 0. -1.
          5    1    4    4  502    0  0.48152071046E+02 -0.15216309451E+02  0.29241263811E+03  0.29677836671E+03  0.47000000000E+01 0.  1.
         -5    1    4    4    0  502  0.66289251102E+02 -0.33405128036E+02  0.53975004194E+02  0.91899719632E+02  0.47000000000E+01 0.  1.
<mgrwt>
<rscale>  0 0.36184651E+03</rscale>
<asrwt>0</asrwt>
<pdfrwt beam="1">  1       21 0.92367326E-01 0.36184651E+03</pdfrwt>
<pdfrwt beam="2">  1       21 0.83877157E-02 0.36184651E+03</pdfrwt>
<totfact> 0.10355953E+05</totfact>
</mgrwt>
</event>
<event>
 8    1  0.9478272E-006  0.2566211E+03  0.7546771E-02  0.1109191E+00
         21   -1    0    0  504  503  0.00000000000E+00  0.00000000000E+00  0.55962241484E+03  0.55962241484E+03  0.00000000000E+00 0.  1.
         21   -1    0    0  503  504 -0.00000000000E+00 -0.00000000000E+00 -0.29419112740E+02  0.29419112740E+02  0.00000000000E+00 0.  1.
         25    2    1    2    0    0  0.19372317573E+02 -0.14730178764E+02  0.30121243791E+03  0.32702164807E+03  0.12498784223E+03 0.  0.
         25    2    1    2    0    0 -0.19372317573E+02  0.14730178764E+02  0.22899086419E+03  0.26201987951E+03  0.12500134606E+03 0.  0.
          5    1    3    3  501    0  0.58516901479E+02  0.28832839863E+02  0.19451905690E+03  0.20522015962E+03  0.47000000000E+01 0.  1.
         -5    1    3    3    0  501 -0.39144583906E+02 -0.43563018627E+02  0.10669338100E+03  0.12180148846E+03  0.47000000000E+01 0.  1.
          5    1    4    4  502    0 -0.56276883322E+02 -0.19726732455E+02  0.18651297642E+03  0.19587090632E+03  0.47000000000E+01 0.  1.
         -5    1    4    4    0  502  0.36904565749E+02  0.34456911220E+02  0.42477887775E+02  0.66148973187E+02  0.47000000000E+01 0.  1.
<mgrwt>
<rscale>  0 0.25662108E+03</rscale>
<asrwt>0</asrwt>
<pdfrwt beam="1">  1       21 0.86095749E-01 0.25662108E+03</pdfrwt>
<pdfrwt beam="2">  1       21 0.45260177E-02 0.25662108E+03</pdfrwt>
<totfact> 0.36444604E+05</totfact>
</mgrwt>
</event>
<event>
 8    1  0.9478272E-006  0.4350195E+03  0.7546771E-02  0.1032286E+00
         21   -1    0    0  504  503  0.00000000000E+00  0.00000000000E+00  0.43949760567E+03  0.43949760567E+03  0.00000000000E+00 0.  1.
         21   -1    0    0  503  504 -0.00000000000E+00 -0.00000000000E+00 -0.10764677539E+03  0.10764677539E+03  0.00000000000E+00 0.  1.
         25    2    1    2    0    0  0.10051877449E+03  0.31527408122E+02  0.34640683646E+03  0.38303819000E+03  0.12499022828E+03 0.  0.
         25    2    1    2    0    0 -0.10051877449E+03 -0.31527408122E+02 -0.14556006177E+02  0.16410619106E+03  0.12498385152E+03 0.  0.
          5    1    3    3  501    0  0.12504932653E+03  0.41413261870E+02  0.31643266100E+03  0.34278872688E+03  0.47000000000E+01 0.  1.
         -5    1    3    3    0  501 -0.24530552036E+02 -0.98858537485E+01  0.29974175454E+02  0.40249463123E+02  0.47000000000E+01 0.  1.
          5    1    4    4  502    0 -0.66889618049E+01 -0.43481041103E+02 -0.46475368754E+02  0.64166915511E+02  0.47000000000E+01 0. -1.
         -5    1    4    4    0  502 -0.93829812688E+02  0.11953632981E+02  0.31919362577E+02  0.99939275552E+02  0.47000000000E+01 0. -1.
<mgrwt>
<rscale>  0 0.43501954E+03</rscale>
<asrwt>0</asrwt>
<pdfrwt beam="1">  1       21 0.67615016E-01 0.43501954E+03</pdfrwt>
<pdfrwt beam="2">  1       21 0.16561043E-01 0.43501954E+03</pdfrwt>
<totfact> 0.60622448E+04</totfact>
</mgrwt>
</event>
<event>
 8    1  0.9478272E-006  0.2605951E+03  0.7546771E-02  0.1106786E+00
         21   -1    0    0  504  503  0.00000000000E+00  0.00000000000E+00  0.10283662950E+03  0.10283662950E+03  0.00000000000E+00 0.  1.
         21   -1    0    0  503  504 -0.00000000000E+00 -0.00000000000E+00 -0.16509142400E+03  0.16509142400E+03  0.00000000000E+00 0.  1.
         25    2    1    2    0    0  0.12240102713E+02  0.19481634534E+02 -0.60630020501E+02  0.14082023385E+03  0.12499993871E+03 0.  0.
         25    2    1    2    0    0 -0.12240102713E+02 -0.19481634534E+02 -0.16247739940E+01  0.12710781965E+03  0.12499761488E+03 0.  0.
          5    1    3    3  501    0 -0.18171257705E+02  0.59494080612E+02 -0.65075286444E+02  0.90147784999E+02  0.47000000000E+01 0. -1.
         -5    1    3    3    0  501  0.30411360418E+02 -0.40012446078E+02  0.44452659434E+01  0.50672448854E+02  0.47000000000E+01 0. -1.
          5    1    4    4  502    0 -0.18871794082E+02 -0.32036511950E+02 -0.57849118180E+02  0.68928174094E+02  0.47000000000E+01 0. -1.
         -5    1    4    4    0  502  0.66316913696E+01  0.12554877415E+02  0.56224344186E+02  0.58179645551E+02  0.47000000000E+01 0. -1.
<mgrwt>
<rscale>  0 0.26059505E+03</rscale>
<asrwt>0</asrwt>
<pdfrwt beam="1">  1       21 0.15821020E-01 0.26059505E+03</pdfrwt>
<pdfrwt beam="2">  1       21 0.25398680E-01 0.26059505E+03</pdfrwt>
<totfact> 0.51638980E+05</totfact>
</mgrwt>
</event>
<event>
 8    1  0.9478272E-006  0.6772578E+03  0.7546771E-02  0.9756935E-01
         21   -1    0    0  504  503  0.00000000000E+00  0.00000000000E+00  0.39742460501E+03  0.39742460501E+03  0.00000000000E+00 0. -1.
         21   -1    0    0  503  504 -0.00000000000E+00 -0.00000000000E+00 -0.28853157740E+03  0.28853157740E+03  0.00000000000E+00 0. -1.
         25    2    1    2    0    0  0.21751041314E+02  0.23071556553E+03  0.27011652444E+03  0.37721432794E+03  0.12499972980E+03 0.  0.
         25    2    1    2    0    0 -0.21751041314E+02 -0.23071556553E+03 -0.16122349682E+03  0.30874185448E+03  0.12500294716E+03 0.  0.
          5    1    3    3  501    0  0.20497414211E+02  0.14623835028E+03  0.77510566489E+02  0.16684057360E+03  0.47000000000E+01 0. -1.
         -5    1    3    3    0  501  0.12536271031E+01  0.84477215257E+02  0.19260595795E+03  0.21037375434E+03  0.47000000000E+01 0. -1.
          5    1    4    4  502    0 -0.41880867283E+02 -0.87071684342E+02 -0.12698645300E+03  0.15963437758E+03  0.47000000000E+01 0. -1.
         -5    1    4    4    0  502  0.20129825969E+02 -0.14364388119E+03 -0.34237043824E+02  0.14910747690E+03  0.47000000000E+01 0. -1.
<mgrwt>
<rscale>  0 0.67725785E+03</rscale>
<asrwt>0</asrwt>
<pdfrwt beam="1">  1       21 0.61142247E-01 0.67725785E+03</pdfrwt>
<pdfrwt beam="2">  1       21 0.44389473E-01 0.67725785E+03</pdfrwt>
<totfact> 0.10281041E+04</totfact>
</mgrwt>
</event>
<event>
 8    1  0.9478272E-006  0.2881212E+03  0.7546771E-02  0.1091334E+00
         21   -1    0    0  504  503  0.00000000000E+00  0.00000000000E+00  0.35087917083E+02  0.35087917083E+02  0.00000000000E+00 0. -1.
         21   -1    0    0  503  504 -0.00000000000E+00 -0.00000000000E+00 -0.59147003383E+03  0.59147003383E+03  0.00000000000E+00 0. -1.
         25    2    1    2    0    0 -0.48675390785E+02  0.47445812346E+02 -0.32721418957E+03  0.35681039548E+03  0.12499653471E+03 0.  0.
         25    2    1    2    0    0  0.48675390785E+02 -0.47445812346E+02 -0.22916792718E+03  0.26974755544E+03  0.12500162414E+03 0.  0.
          5    1    3    3  501    0 -0.86852391877E+02  0.52014352848E+02 -0.20640921543E+03  0.22994713543E+03  0.47000000000E+01 0.  1.
         -5    1    3    3    0  501  0.38177001092E+02 -0.45685405018E+01 -0.12080497414E+03  0.12686326005E+03  0.47000000000E+01 0.  1.
          5    1    4    4  502    0  0.43482778682E+02 -0.55214075632E+02 -0.41429614592E+02  0.81718107877E+02  0.47000000000E+01 0. -1.
         -5    1    4    4    0  502  0.51926121029E+01  0.77682632858E+01 -0.18773831259E+03  0.18802944756E+03  0.47000000000E+01 0. -1.
<mgrwt>
<rscale>  0 0.28812117E+03</rscale>
<asrwt>0</asrwt>
<pdfrwt beam="1">  1       21 0.53981406E-02 0.28812117E+03</pdfrwt>
<pdfrwt beam="2">  1       21 0.90995397E-01 0.28812117E+03</pdfrwt>
<totfact> 0.23539478E+05</totfact>
</mgrwt>
</event>
<event>
 8    1  0.9478272E-006  0.2834625E+03  0.7546771E-02  0.1093813E+00
         21   -1    0    0  504  503  0.00000000000E+00  0.00000000000E+00  0.48979572379E+03  0.48979572379E+03  0.00000000000E+00 0.  1.
         21   -1    0    0  503  504 -0.00000000000E+00 -0.00000000000E+00 -0.41012509322E+02  0.41012509322E+02  0.00000000000E+00 0.  1.
         25    2    1    2    0    0 -0.63417385774E+02 -0.10658686309E+02  0.25827859345E+03  0.29406070427E+03  0.12501397342E+03 0.  0.
         25    2    1    2    0    0  0.63417385774E+02  0.10658686309E+02  0.19050462102E+03  0.23674752884E+03  0.12498803691E+03 0.  0.
          5    1    3    3  501    0 -0.11333234692E+02 -0.52347015232E+02  0.43649837123E+02  0.69253523327E+02  0.47000000000E+01 0.  1.
         -5    1    3    3    0  501 -0.52084151082E+02  0.41688328923E+02  0.21462875632E+03  0.22480718094E+03  0.47000000000E+01 0.  1.
          5    1    4    4  502    0  0.95800396290E+02  0.12878681427E+01  0.17451667836E+03  0.19914199848E+03  0.47000000000E+01 0. -1.
         -5    1    4    4    0  502 -0.32383010516E+02  0.93708181663E+01  0.15987942663E+02  0.37605530362E+02  0.47000000000E+01 0. -1.
<mgrwt>
<rscale>  0 0.28346253E+03</rscale>
<asrwt>0</asrwt>
<pdfrwt beam="1">  1       21 0.75353184E-01 0.28346253E+03</pdfrwt>
<pdfrwt beam="2">  1       21 0.63096172E-02 0.28346253E+03</pdfrwt>
<totfact> 0.27792458E+05</totfact>
</mgrwt>
</event>
<event>
 8    1  0.9478272E-006  0.3466830E+03  0.7546771E-02  0.1063985E+00
         21   -1    0    0  504  503  0.00000000000E+00  0.00000000000E+00  0.19406776157E+03  0.19406776157E+03  0.00000000000E+00 0. -1.
         21   -1    0    0  503  504 -0.00000000000E+00 -0.00000000000E+00 -0.15482880671E+03  0.15482880671E+03  0.00000000000E+00 0. -1.
         25    2    1    2    0    0  0.29439105809E+02 -0.63668438885E+02  0.11771960061E+03  0.18548116150E+03  0.12500010337E+03 0.  0.
         25    2    1    2    0    0 -0.29439105809E+02  0.63668438885E+02 -0.78480645747E+02  0.16341540678E+03  0.12500020942E+03 0.  0.
          5    1    3    3  501    0  0.68501863912E+02 -0.61037773662E+02  0.11320243304E+03  0.14579093257E+03  0.47000000000E+01 0.  1.
         -5    1    3    3    0  501 -0.39062758103E+02 -0.26306652225E+01  0.45171675723E+01  0.39690228936E+02  0.47000000000E+01 0.  1.
          5    1    4    4  502    0 -0.64714755804E+02  0.89179358295E+01 -0.72713223581E+02  0.97861290006E+02  0.47000000000E+01 0. -1.
         -5    1    4    4    0  502  0.35275649994E+02  0.54750503055E+02 -0.57674221664E+01  0.65554116772E+02  0.47000000000E+01 0. -1.
<mgrwt>
<rscale>  0 0.34668302E+03</rscale>
<asrwt>0</asrwt>
<pdfrwt beam="1">  1       21 0.29856579E-01 0.34668302E+03</pdfrwt>
<pdfrwt beam="2">  1       21 0.23819817E-01 0.34668302E+03</pdfrwt>
<totfact> 0.17156095E+05</totfact>
</mgrwt>
</event>
<event>
 8    1  0.9478272E-006  0.3339160E+03  0.7546771E-02  0.1069417E+00
         21   -1    0    0  504  503  0.00000000000E+00  0.00000000000E+00  0.81077567014E+02  0.81077567014E+02  0.00000000000E+00 0. -1.
         21   -1    0    0  503  504 -0.00000000000E+00 -0.00000000000E+00 -0.34380620289E+03  0.34380620289E+03  0.00000000000E+00 0. -1.
         25    2    1    2    0    0  0.88915698637E+02  0.43182155640E+02 -0.68008241502E+02  0.17327110352E+03  0.12500821723E+03 0.  0.
         25    2    1    2    0    0 -0.88915698637E+02 -0.43182155640E+02 -0.19472039438E+03  0.25161266639E+03  0.12498880697E+03 0.  0.
          5    1    3    3  501    0  0.46432349701E+02  0.26023546422E+02  0.32618981839E+02  0.62604121616E+02  0.47000000000E+01 0.  1.
         -5    1    3    3    0  501  0.42483348936E+02  0.17158609218E+02 -0.10062722334E+03  0.11066698191E+03  0.47000000000E+01 0.  1.
          5    1    4    4  502    0 -0.97246113006E+02 -0.74792946228E+02 -0.17280192678E+03  0.21197496833E+03  0.47000000000E+01 0.  1.
         -5    1    4    4    0  502  0.83304143691E+01  0.31610790588E+02 -0.21918467600E+02  0.39637698055E+02  0.47000000000E+01 0.  1.
<mgrwt>
<rscale>  0 0.33391598E+03</rscale>
<asrwt>0</asrwt>
<pdfrwt beam="1">  1       21 0.12473472E-01 0.33391598E+03</pdfrwt>
<pdfrwt beam="2">  1       21 0.52893262E-01 0.33391598E+03</pdfrwt>
<totfact> 0.17853196E+05</totfact>
</mgrwt>
</event>
<event>
 8    1  0.9478272E-006  0.2741036E+03  0.7546771E-02  0.1098954E+00
         21   -1    0    0  504  503  0.00000000000E+00  0.00000000000E+00  0.38214691951E+02  0.38214691951E+02  0.00000000000E+00 0.  1.
         21   -1    0    0  503  504 -0.00000000000E+00 -0.00000000000E+00 -0.49151781798E+03  0.49151781798E+03  0.00000000000E+00 0.  1.
         25    2    1    2    0    0 -0.41153687253E+02 -0.26822486581E+02 -0.27941467154E+03  0.31001543769E+03  0.12499576464E+03 0.  0.
         25    2    1    2    0    0  0.41153687253E+02  0.26822486581E+02 -0.17388845450E+03  0.21971707224E+03  0.12500130185E+03 0.  0.
          5    1    3    3  501    0  0.31119237891E+02  0.28515138958E+02 -0.74742532177E+02  0.85965436269E+02  0.47000000000E+01 0.  1.
         -5    1    3    3    0  501 -0.72272925144E+02 -0.55337625539E+02 -0.20467213936E+03  0.22405000142E+03  0.47000000000E+01 0.  1.
          5    1    4    4  502    0 -0.91928618431E+00  0.36528463945E+01  0.19494196881E+02  0.20403482201E+02  0.47000000000E+01 0.  1.
         -5    1    4    4    0  502  0.42072973437E+02  0.23169640186E+02 -0.19338265138E+03  0.19931359004E+03  0.47000000000E+01 0.  1.
<mgrwt>
<rscale>  0 0.27410364E+03</rscale>
<asrwt>0</asrwt>
<pdfrwt beam="1">  1       21 0.58791831E-02 0.27410364E+03</pdfrwt>
<pdfrwt beam="2">  1       21 0.75618129E-01 0.27410364E+03</pdfrwt>
<totfact> 0.31216675E+05</totfact>
</mgrwt>
</event>
<event>
 8    1  0.9478272E-006  0.2598351E+03  0.7546771E-02  0.1107242E+00
         21   -1    0    0  504  503  0.00000000000E+00  0.00000000000E+00  0.20818123799E+02  0.20818123799E+02  0.00000000000E+00 0.  1.
         21   -1    0    0  503  504 -0.00000000000E+00 -0.00000000000E+00 -0.81076331350E+03  0.81076331350E+03  0.00000000000E+00 0.  1.
         25    2    1    2    0    0  0.17842606117E+02 -0.13068985590E+02 -0.48340462617E+03  0.49979563908E+03  0.12500596490E+03 0.  0.
         25    2    1    2    0    0 -0.17842606117E+02  0.13068985590E+02 -0.30654056353E+03  0.33178579822E+03  0.12500216732E+03 0.  0.
          5    1    3    3  501    0  0.46063843900E+02 -0.36809092570E+02 -0.11314313769E+03  0.12767241917E+03  0.47000000000E+01 0. -1.
         -5    1    3    3    0  501 -0.28221237783E+02  0.23740106980E+02 -0.37026148848E+03  0.37212321991E+03  0.47000000000E+01 0. -1.
          5    1    4    4  502    0  0.42403190039E+02  0.41626120142E+02 -0.12987296069E+03  0.14289800671E+03  0.47000000000E+01 0. -1.
         -5    1    4    4    0  502 -0.60245796156E+02 -0.28557134552E+02 -0.17666760284E+03  0.18888779151E+03  0.47000000000E+01 0. -1.
<mgrwt>
<rscale>  0 0.25983511E+03</rscale>
<asrwt>0</asrwt>
<pdfrwt beam="1">  1       21 0.32027887E-02 0.25983511E+03</pdfrwt>
<pdfrwt beam="2">  1       21 0.12473280E+00 0.25983511E+03</pdfrwt>
<totfact> 0.26653127E+05</totfact>
</mgrwt>
</event>
<event>
 8    1  0.9478272E-006  0.2620906E+03  0.7546771E-02  0.1105894E+00
         21   -1    0    0  504  503  0.00000000000E+00  0.00000000000E+00  0.85689738018E+03  0.85689738018E+03  0.00000000000E+00 0.  1.
         21   -1    0    0  503  504 -0.00000000000E+00 -0.00000000000E+00 -0.20040760325E+02  0.20040760325E+02  0.00000000000E+00 0.  1.
         25    2    1    2    0    0  0.11706287621E+02  0.31148536796E+02  0.34732062544E+03  0.37060102161E+03  0.12492490482E+03 0.  0.
         25    2    1    2    0    0 -0.11706287621E+02 -0.31148536796E+02  0.48953599441E+03  0.50633711890E+03  0.12499807853E+03 0.  0.
          5    1    3    3  501    0  0.15763672332E+02 -0.27136865647E+02  0.18782717822E+02  0.36875240085E+02  0.47000000000E+01 0. -1.
         -5    1    3    3    0  501 -0.40573847119E+01  0.58285402442E+02  0.32853790762E+03  0.33372578152E+03  0.47000000000E+01 0. -1.
          5    1    4    4  502    0 -0.24338629755E+02 -0.15602647774E+02  0.18055491437E+02  0.34407881174E+02  0.47000000000E+01 0. -1.
         -5    1    4    4    0  502  0.12632342134E+02 -0.15545889022E+02  0.47148050298E+03  0.47192923773E+03  0.47000000000E+01 0. -1.
<mgrwt>
<rscale>  0 0.26209063E+03</rscale>
<asrwt>0</asrwt>
<pdfrwt beam="1">  1       21 0.13183034E+00 0.26209063E+03</pdfrwt>
<pdfrwt beam="2">  1       21 0.30831946E-02 0.26209063E+03</pdfrwt>
<totfact> 0.24657910E+05</totfact>
</mgrwt>
</event>
<event>
 8    1  0.9478272E-006  0.2760931E+03  0.7546771E-02  0.1097842E+00
         21   -1    0    0  504  503  0.00000000000E+00  0.00000000000E+00  0.90773516560E+03  0.90773516560E+03  0.00000000000E+00 0.  1.
         21   -1    0    0  503  504 -0.00000000000E+00 -0.00000000000E+00 -0.20993837500E+02  0.20993837500E+02  0.00000000000E+00 0.  1.
         25    2    1    2    0    0 -0.41409811890E+02  0.37934874568E+02  0.49940541372E+03  0.51786574858E+03  0.12500135629E+03 0.  0.
         25    2    1    2    0    0  0.41409811890E+02 -0.37934874568E+02  0.38733591438E+03  0.41086325452E+03  0.12500270443E+03 0.  0.
          5    1    3    3  501    0  0.10984818774E+02  0.56992564022E+02  0.39631996474E+03  0.40057511537E+03  0.47000000000E+01 0.  1.
         -5    1    3    3    0  501 -0.52394630664E+02 -0.19057689454E+02  0.10308544897E+03  0.11729063321E+03  0.47000000000E+01 0.  1.
          5    1    4    4  502    0  0.65745500622E+02  0.11370684255E+02  0.11538713712E+03  0.13337182883E+03  0.47000000000E+01 0. -1.
         -5    1    4    4    0  502 -0.24335688731E+02 -0.49305558823E+02  0.27194877726E+03  0.27749142569E+03  0.47000000000E+01 0. -1.
<mgrwt>
<rscale>  0 0.27609306E+03</rscale>
<asrwt>0</asrwt>
<pdfrwt beam="1">  1       21 0.13965153E+00 0.27609306E+03</pdfrwt>
<pdfrwt beam="2">  1       21 0.32298219E-02 0.27609306E+03</pdfrwt>
<totfact> 0.19577292E+05</totfact>
</mgrwt>
</event>
<event>
 8    1  0.9478272E-006  0.2980498E+03  0.7546771E-02  0.1086220E+00
         21   -1    0    0  504  503  0.00000000000E+00  0.00000000000E+00  0.41142765579E+03  0.41142765579E+03  0.00000000000E+00 0.  1.
         21   -1    0    0  503  504 -0.00000000000E+00 -0.00000000000E+00 -0.53978935865E+02  0.53978935865E+02  0.00000000000E+00 0.  1.
         25    2    1    2    0    0  0.27789863166E+01 -0.14092491840E+02  0.30338826305E+03  0.32846161155E+03  0.12504507595E+03 0.  0.
         25    2    1    2    0    0 -0.27789863166E+01  0.14092491840E+02  0.54060456879E+02  0.13694498010E+03  0.12500029394E+03 0.  0.
          5    1    3    3  501    0  0.43018485178E+02 -0.49998984931E+02  0.11725015362E+03  0.13461120713E+03  0.47000000000E+01 0. -1.
         -5    1    3    3    0  501 -0.40239498862E+02  0.35906493091E+02  0.18613810943E+03  0.19385040443E+03  0.47000000000E+01 0. -1.
          5    1    4    4  502    0  0.28086023249E+02  0.75837723805E+01  0.86543367930E+02  0.91423097946E+02  0.47000000000E+01 0.  1.
         -5    1    4    4    0  502 -0.30865009566E+02  0.65087194593E+01 -0.32482911051E+02  0.45521882154E+02  0.47000000000E+01 0.  1.
<mgrwt>
<rscale>  0 0.29804984E+03</rscale>
<asrwt>0</asrwt>
<pdfrwt beam="1">  1       21 0.63296560E-01 0.29804984E+03</pdfrwt>
<pdfrwt beam="2">  1       21 0.83044519E-02 0.29804984E+03</pdfrwt>
<totfact> 0.25266538E+05</totfact>
</mgrwt>
</event>
<event>
 8    1  0.9478272E-006  0.3243219E+03  0.7546771E-02  0.1073677E+00
         21   -1    0    0  504  503  0.00000000000E+00  0.00000000000E+00  0.48530371620E+03  0.48530371620E+03  0.00000000000E+00 0. -1.
         21   -1    0    0  503  504 -0.00000000000E+00 -0.00000000000E+00 -0.54184997970E+02  0.54184997970E+02  0.00000000000E+00 0. -1.
         25    2    1    2    0    0  0.90113089751E+02  0.17715258738E+02  0.29423957279E+03  0.33261908194E+03  0.12499731252E+03 0.  0.
         25    2    1    2    0    0 -0.90113089751E+02 -0.17715258738E+02  0.13687914543E+03  0.20686963223E+03  0.12499977978E+03 0.  0.
          5    1    3    3  501    0 -0.17586211260E+02 -0.25447408948E+02  0.11396776894E+03  0.11818454978E+03  0.47000000000E+01 0. -1.
         -5    1    3    3    0  501  0.10769930101E+03  0.43162667686E+02  0.18027180386E+03  0.21443453217E+03  0.47000000000E+01 0. -1.
          5    1    4    4  502    0 -0.83192796359E+01  0.39851001375E+02  0.49992654729E+01  0.41284323653E+02  0.47000000000E+01 0. -1.
         -5    1    4    4    0  502 -0.81793810115E+02 -0.57566260113E+02  0.13187987996E+03  0.16558530857E+03  0.47000000000E+01 0. -1.
<mgrwt>
<rscale>  0 0.32432194E+03</rscale>
<asrwt>0</asrwt>
<pdfrwt beam="1">  1       21 0.74662107E-01 0.32432194E+03</pdfrwt>
<pdfrwt beam="2">  1       21 0.83361538E-02 0.32432194E+03</pdfrwt>
<totfact> 0.17278783E+05</totfact>
</mgrwt>
</event>
<event>
 8    1  0.9478272E-006  0.3150550E+03  0.7546771E-02  0.1077948E+00
         21   -1    0    0  504  503  0.00000000000E+00  0.00000000000E+00  0.40378006279E+03  0.40378006279E+03  0.00000000000E+00 0.  1.
         21   -1    0    0  503  504 -0.00000000000E+00 -0.00000000000E+00 -0.61456497362E+02  0.61456497362E+02  0.00000000000E+00 0.  1.
         25    2    1    2    0    0  0.83864884160E+00 -0.26151896988E+02  0.30736505315E+03  0.33283197805E+03  0.12497689652E+03 0.  0.
         25    2    1    2    0    0 -0.83864884160E+00  0.26151896988E+02  0.34958512279E+02  0.13240458211E+03  0.12499700290E+03 0.  0.
          5    1    3    3  501    0  0.80503154007E+01  0.34061132158E+02  0.23253106378E+02  0.42281973206E+02  0.47000000000E+01 0. -1.
         -5    1    3    3    0  501 -0.72116665591E+01 -0.60213029146E+02  0.28411194678E+03  0.29055000484E+03  0.47000000000E+01 0. -1.
          5    1    4    4  502    0 -0.47590539733E+02 -0.21599317463E+01 -0.22559822442E+02  0.52920320916E+02  0.47000000000E+01 0.  1.
         -5    1    4    4    0  502  0.46751890892E+02  0.28311828734E+02  0.57518334722E+02  0.79484261193E+02  0.47000000000E+01 0.  1.
<mgrwt>
<rscale>  0 0.31505497E+03</rscale>
<asrwt>0</asrwt>
<pdfrwt beam="1">  1       21 0.62120008E-01 0.31505497E+03</pdfrwt>
<pdfrwt beam="2">  1       21 0.94548460E-02 0.31505497E+03</pdfrwt>
<totfact> 0.20846858E+05</totfact>
</mgrwt>
</event>
<event>
 8    1  0.9478272E-006  0.3046153E+03  0.7546771E-02  0.1082956E+00
         21   -1    0    0  504  503  0.00000000000E+00  0.00000000000E+00  0.44194036537E+02  0.44194036537E+02  0.00000000000E+00 0. -1.
         21   -1    0    0  503  504 -0.00000000000E+00 -0.00000000000E+00 -0.52490378367E+03  0.52490378367E+03  0.00000000000E+00 0. -1.
         25    2    1    2    0    0  0.97271820416E+01  0.10137168143E+02 -0.80069226157E+02  0.14917649665E+03  0.12508063770E+03 0.  0.
         25    2    1    2    0    0 -0.97271820416E+01 -0.10137168143E+02 -0.40064052098E+03  0.41992132356E+03  0.12499484262E+03 0.  0.
          5    1    3    3  501    0  0.57792709361E+02 -0.25994547109E+02 -0.27777675748E+02  0.69349859443E+02  0.47000000000E+01 0. -1.
         -5    1    3    3    0  501 -0.48065527320E+02  0.36131715252E+02 -0.52291550409E+02  0.79826637207E+02  0.47000000000E+01 0. -1.
          5    1    4    4  502    0  0.55055168876E+02  0.11885340866E+02 -0.15953535796E+03  0.16925115476E+03  0.47000000000E+01 0.  1.
         -5    1    4    4    0  502 -0.64782350917E+02 -0.22022509008E+02 -0.24110516302E+03  0.25067016880E+03  0.47000000000E+01 0.  1.
<mgrwt>
<rscale>  0 0.30461528E+03</rscale>
<asrwt>0</asrwt>
<pdfrwt beam="1">  1       21 0.67990829E-02 0.30461528E+03</pdfrwt>
<pdfrwt beam="2">  1       21 0.80754425E-01 0.30461528E+03</pdfrwt>
<totfact> 0.20754312E+05</totfact>
</mgrwt>
</event>
<event>
 8    1  0.9478272E-006  0.2671950E+03  0.7546771E-02  0.1102896E+00
         21   -1    0    0  504  503  0.00000000000E+00  0.00000000000E+00  0.99173307565E+02  0.99173307565E+02  0.00000000000E+00 0.  1.
         21   -1    0    0  503  504 -0.00000000000E+00 -0.00000000000E+00 -0.17997069425E+03  0.17997069425E+03  0.00000000000E+00 0.  1.
         25    2    1    2    0    0 -0.40086242178E+02 -0.23858738054E+02 -0.47517371744E+02  0.14162968348E+03  0.12499968173E+03 0.  0.
         25    2    1    2    0    0  0.40086242178E+02  0.23858738054E+02 -0.33280014938E+02  0.13751431833E+03  0.12500592849E+03 0.  0.
          5    1    3    3  501    0  0.19663472412E+02 -0.81483687715E+00  0.32959665767E+02  0.38674871349E+02  0.47000000000E+01 0.  1.
         -5    1    3    3    0  501 -0.59749714590E+02 -0.23043901177E+02 -0.80477037511E+02  0.10295481213E+03  0.47000000000E+01 0.  1.
          5    1    4    4  502    0  0.52411362218E+02  0.68743315959E+02 -0.23754002461E+02  0.89771582427E+02  0.47000000000E+01 0. -1.
         -5    1    4    4    0  502 -0.12325120040E+02 -0.44884577905E+02 -0.95260124771E+01  0.47742735902E+02  0.47000000000E+01 0. -1.
<mgrwt>
<rscale>  0 0.26719498E+03</rscale>
<asrwt>0</asrwt>
<pdfrwt beam="1">  1       21 0.15257432E-01 0.26719498E+03</pdfrwt>
<pdfrwt beam="2">  1       21 0.27687799E-01 0.26719498E+03</pdfrwt>
<totfact> 0.46656982E+05</totfact>
</mgrwt>
</event>
<event>
 8    1  0.9478272E-006  0.4996317E+03  0.7546771E-02  0.1013875E+00
         21   -1    0    0  504  503  0.00000000000E+00  0.00000000000E+00  0.11602980334E+03  0.11602980334E+03  0.00000000000E+00 0. -1.
         21   -1    0    0  503  504 -0.00000000000E+00 -0.00000000000E+00 -0.53786155531E+03  0.53786155531E+03  0.00000000000E+00 0. -1.
         25    2    1    2    0    0  0.98538838872E+02 -0.20517508083E+02 -0.46147039938E+03  0.48858070469E+03  0.12500121833E+03 0.  0.
         25    2    1    2    0    0 -0.98538838872E+02  0.20517508083E+02  0.39638647405E+02  0.16531065396E+03  0.12500207614E+03 0.  0.
          5    1    3    3  501    0  0.28451109448E+02 -0.30011018054E+02 -0.37253600342E+03  0.37485369237E+03  0.47000000000E+01 0. -1.
         -5    1    3    3    0  501  0.70087729425E+02  0.94935099712E+01 -0.88934395956E+02  0.11372701232E+03  0.47000000000E+01 0. -1.
          5    1    4    4  502    0  0.60234295322E+01  0.71618127857E+01 -0.34694407180E+02  0.36240380176E+02  0.47000000000E+01 0. -1.
         -5    1    4    4    0  502 -0.10456226840E+03  0.13355695297E+02  0.74333054585E+02  0.12907027378E+03  0.47000000000E+01 0. -1.
<mgrwt>
<rscale>  0 0.49963175E+03</rscale>
<asrwt>0</asrwt>
<pdfrwt beam="1">  1       21 0.17850739E-01 0.49963175E+03</pdfrwt>
<pdfrwt beam="2">  1       21 0.82747932E-01 0.49963175E+03</pdfrwt>
<totfact> 0.32744770E+04</totfact>
</mgrwt>
</event>
<event>
 8    1  0.9478272E-006  0.2690992E+03  0.7546771E-02  0.1101796E+00
         21   -1    0    0  504  503  0.00000000000E+00  0.00000000000E+00  0.14514131808E+03  0.14514131808E+03  0.00000000000E+00 0.  1.
         21   -1    0    0  503  504 -0.00000000000E+00 -0.00000000000E+00 -0.12473083445E+03  0.12473083445E+03  0.00000000000E+00 0.  1.
         25    2    1    2    0    0  0.16583842027E+02 -0.34772104296E+02  0.41825563263E+02  0.13732959929E+03  0.12500367213E+03 0.  0.
         25    2    1    2    0    0 -0.16583842027E+02  0.34772104296E+02 -0.21415079632E+02  0.13254255324E+03  0.12499919892E+03 0.  0.
          5    1    3    3  501    0  0.24418653651E+02  0.25781623983E+02 -0.27257324773E+02  0.45011271200E+02  0.47000000000E+01 0.  1.
         -5    1    3    3    0  501 -0.78348116238E+01 -0.60553728278E+02  0.69082888036E+02  0.92318328088E+02  0.47000000000E+01 0.  1.
          5    1    4    4  502    0 -0.11281063590E+01  0.92755394092E+01  0.52064755826E+02  0.53104962616E+02  0.47000000000E+01 0.  1.
         -5    1    4    4    0  502 -0.15455735668E+02  0.25496564887E+02 -0.73479835457E+02  0.79437590629E+02  0.47000000000E+01 0.  1.
<mgrwt>
<rscale>  0 0.26909922E+03</rscale>
<asrwt>0</asrwt>
<pdfrwt beam="1">  1       21 0.22329433E-01 0.26909922E+03</pdfrwt>
<pdfrwt beam="2">  1       21 0.19189359E-01 0.26909922E+03</pdfrwt>
<totfact> 0.46098468E+05</totfact>
</mgrwt>
</event>
<event>
 8    1  0.9478272E-006  0.4196751E+03  0.7546771E-02  0.1037172E+00
         21   -1    0    0  504  503  0.00000000000E+00  0.00000000000E+00  0.92037062692E+02  0.92037062692E+02  0.00000000000E+00 0.  1.
         21   -1    0    0  503  504 -0.00000000000E+00 -0.00000000000E+00 -0.47841379522E+03  0.47841379522E+03  0.00000000000E+00 0.  1.
         25    2    1    2    0    0  0.79047606907E+02  0.96386085579E+02 -0.38991073010E+02  0.18078393463E+03  0.12499490228E+03 0.  0.
         25    2    1    2    0    0 -0.79047606907E+02 -0.96386085579E+02 -0.34738565952E+03  0.38966692328E+03  0.12499885203E+03 0.  0.
          5    1    3    3  501    0  0.41079123522E+01 -0.22579003524E+02 -0.32358534851E+02  0.39948105359E+02  0.47000000000E+01 0.  1.
         -5    1    3    3    0  501  0.74939694555E+02  0.11896508910E+03 -0.66325381584E+01  0.14083582928E+03  0.47000000000E+01 0.  1.
          5    1    4    4  502    0 -0.10934250610E+03 -0.50298420894E+02 -0.25393657300E+03  0.28105442159E+03  0.47000000000E+01 0.  1.
         -5    1    4    4    0  502  0.30294899195E+02 -0.46087664685E+02 -0.93449086518E+02  0.10861250169E+03  0.47000000000E+01 0.  1.
<mgrwt>
<rscale>  0 0.41967511E+03</rscale>
<asrwt>0</asrwt>
<pdfrwt beam="1">  1       21 0.14159548E-01 0.41967511E+03</pdfrwt>
<pdfrwt beam="2">  1       21 0.73602124E-01 0.41967511E+03</pdfrwt>
<totfact> 0.67204757E+04</totfact>
</mgrwt>
</event>
<event>
 8    1  0.9478272E-006  0.2655361E+03  0.7546771E-02  0.1103862E+00
         21   -1    0    0  504  503  0.00000000000E+00  0.00000000000E+00  0.28235065579E+03  0.28235065579E+03  0.00000000000E+00 0.  1.
         21   -1    0    0  503  504 -0.00000000000E+00 -0.00000000000E+00 -0.62430730597E+02  0.62430730597E+02  0.00000000000E+00 0.  1.
         25    2    1    2    0    0  0.29095177919E+02  0.33638953293E+02  0.11623625130E+03  0.17639197903E+03  0.12500062237E+03 0.  0.
         25    2    1    2    0    0 -0.29095177919E+02 -0.33638953293E+02  0.10368367389E+03  0.16838940736E+03  0.12500631872E+03 0.  0.
          5    1    3    3  501    0  0.34502862211E+02 -0.39989965409E+02  0.24135437981E+02  0.58260228292E+02  0.47000000000E+01 0. -1.
         -5    1    3    3    0  501 -0.54076842916E+01  0.73628918702E+02  0.92100813317E+02  0.11813175074E+03  0.47000000000E+01 0. -1.
          5    1    4    4  502    0 -0.67455842723E+02  0.16269218575E+02  0.55439193514E+02  0.88941398505E+02  0.47000000000E+01 0.  1.
         -5    1    4    4    0  502  0.38360664803E+02 -0.49908171869E+02  0.48244480380E+02  0.79448008852E+02  0.47000000000E+01 0.  1.
<mgrwt>
<rscale>  0 0.26553612E+03</rscale>
<asrwt>0</asrwt>
<pdfrwt beam="1">  1       21 0.43438562E-01 0.26553612E+03</pdfrwt>
<pdfrwt beam="2">  1       21 0.96047280E-02 0.26553612E+03</pdfrwt>
<totfact> 0.43711993E+05</totfact>
</mgrwt>
</event>
<event>
 8    1  0.9478272E-006  0.3828896E+03  0.7546771E-02  0.1049871E+00
         21   -1    0    0  504  503  0.00000000000E+00  0.00000000000E+00  0.94985570978E+02  0.94985570978E+02  0.00000000000E+00 0.  1.
         21   -1    0    0  503  504 -0.00000000000E+00 -0.00000000000E+00 -0.38585983601E+03  0.38585983601E+03  0.00000000000E+00 0.  1.
         25    2    1    2    0    0  0.13741082443E+03 -0.19870064712E+02 -0.92895987056E+02  0.20863911105E+03  0.12499624037E+03 0.  0.
         25    2    1    2    0    0 -0.13741082443E+03  0.19870064712E+02 -0.19797827798E+03  0.27220629594E+03  0.12499725939E+03 0.  0.
          5    1    3    3  501    0  0.16283324214E+01 -0.24735071648E+02 -0.65178677580E+02  0.69891524858E+02  0.47000000000E+01 0.  1.
         -5    1    3    3    0  501  0.13578249201E+03  0.48650069358E+01 -0.27717309475E+02  0.13874758619E+03  0.47000000000E+01 0.  1.
          5    1    4    4  502    0 -0.86351727420E+02 -0.25665414235E+02 -0.17995969891E+03  0.20130304903E+03  0.47000000000E+01 0. -1.
         -5    1    4    4    0  502 -0.51059097013E+02  0.45535478947E+02 -0.18018579063E+02  0.70903246908E+02  0.47000000000E+01 0. -1.
<mgrwt>
<rscale>  0 0.38288963E+03</rscale>
<asrwt>0</asrwt>
<pdfrwt beam="1">  1       21 0.14613165E-01 0.38288963E+03</pdfrwt>
<pdfrwt beam="2">  1       21 0.59363051E-01 0.38288963E+03</pdfrwt>
<totfact> 0.10310252E+05</totfact>
</mgrwt>
</event>
<event>
 8    1  0.9478272E-006  0.3095849E+03  0.7546771E-02  0.1080545E+00
         21   -1    0    0  504  503  0.00000000000E+00  0.00000000000E+00  0.13924941209E+03  0.13924941209E+03  0.00000000000E+00 0. -1.
         21   -1    0    0  503  504 -0.00000000000E+00 -0.00000000000E+00 -0.17207042256E+03  0.17207042256E+03  0.00000000000E+00 0. -1.
         25    2    1    2    0    0 -0.33470923068E+02  0.67015658444E+02 -0.68904047368E+02  0.16119315456E+03  0.12499625660E+03 0.  0.
         25    2    1    2    0    0  0.33470923068E+02 -0.67015658444E+02  0.36083036900E+02  0.15012668009E+03  0.12499853342E+03 0.  0.
          5    1    3    3  501    0 -0.51138471974E+02  0.16304058039E+01 -0.77263308420E+02  0.92787447249E+02  0.47000000000E+01 0. -1.
         -5    1    3    3    0  501  0.17667548906E+02  0.65385252640E+02  0.83592610521E+01  0.68405707310E+02  0.47000000000E+01 0. -1.
          5    1    4    4  502    0  0.46250636840E+02 -0.46787687097E+02  0.77683260751E+02  0.10190676166E+03  0.47000000000E+01 0.  1.
         -5    1    4    4    0  502 -0.12779713771E+02 -0.20227971347E+02 -0.41600223852E+02  0.48219918430E+02  0.47000000000E+01 0.  1.
<mgrwt>
<rscale>  0 0.30958492E+03</rscale>
<asrwt>0</asrwt>
<pdfrwt beam="1">  1       21 0.21422987E-01 0.30958492E+03</pdfrwt>
<pdfrwt beam="2">  1       21 0.26472372E-01 0.30958492E+03</pdfrwt>
<totfact> 0.26796342E+05</totfact>
</mgrwt>
</event>
<event>
 8    1  0.9478272E-006  0.7379247E+03  0.7546771E-02  0.9654487E-01
         21   -1    0    0  504  503  0.00000000000E+00  0.00000000000E+00  0.30420906301E+03  0.30420906301E+03  0.00000000000E+00 0.  1.
         21   -1    0    0  503  504 -0.00000000000E+00 -0.00000000000E+00 -0.44749886678E+03  0.44749886678E+03  0.00000000000E+00 0.  1.
         25    2    1    2    0    0  0.13684956248E+03 -0.28845710706E+03  0.67180328385E+02  0.34939140174E+03  0.12500339885E+03 0.  0.
         25    2    1    2    0    0 -0.13684956248E+03  0.28845710706E+03 -0.21047013216E+03  0.40231652804E+03  0.12500242734E+03 0.  0.
          5    1    3    3  501    0  0.10751961003E+03 -0.26227929204E+03  0.15010204068E+02  0.28389837936E+03  0.47000000000E+01 0. -1.
         -5    1    3    3    0  501  0.29329952449E+02 -0.26177815015E+02  0.52170124316E+02  0.65493022383E+02  0.47000000000E+01 0. -1.
          5    1    4    4  502    0 -0.17808780195E+02 -0.93521688413E+01 -0.45495402895E+01  0.21151927357E+02  0.47000000000E+01 0.  1.
         -5    1    4    4    0  502 -0.11904078229E+03  0.29780927590E+03 -0.20592059187E+03  0.38116460069E+03  0.47000000000E+01 0.  1.
<mgrwt>
<rscale>  0 0.73792469E+03</rscale>
<asrwt>0</asrwt>
<pdfrwt beam="1">  1       21 0.46801394E-01 0.73792469E+03</pdfrwt>
<pdfrwt beam="2">  1       21 0.68845979E-01 0.73792469E+03</pdfrwt>
<totfact> 0.69628370E+03</totfact>
</mgrwt>
</event>
<event>
 8    1  0.9478272E-006  0.4446413E+03  0.7546771E-02  0.1029332E+00
         21   -1    0    0  504  503  0.00000000000E+00  0.00000000000E+00  0.23536219781E+02  0.23536219781E+02  0.00000000000E+00 0.  1.
         21   -1    0    0  503  504 -0.00000000000E+00 -0.00000000000E+00 -0.21000174158E+04  0.21000174158E+04  0.00000000000E+00 0.  1.
         25    2    1    2    0    0 -0.82348759693E+02 -0.11956127454E+03 -0.15770510150E+04  0.15886449130E+04  0.12500615563E+03 0.  0.
         25    2    1    2    0    0  0.82348759693E+02  0.11956127454E+03 -0.49943018100E+03  0.53490872261E+03  0.12498247572E+03 0.  0.
          5    1    3    3  501    0 -0.34863064469E+02 -0.11578308493E+03 -0.70723343305E+03  0.71751123674E+03  0.47000000000E+01 0. -1.
         -5    1    3    3    0  501 -0.47485695224E+02 -0.37781896111E+01 -0.86981758198E+03  0.87113367625E+03  0.47000000000E+01 0. -1.
          5    1    4    4  502    0  0.42313831957E+02  0.72362603238E+02 -0.44343827450E+03  0.45131629708E+03  0.47000000000E+01 0. -1.
         -5    1    4    4    0  502  0.40034927736E+02  0.47198671304E+02 -0.55991906502E+02  0.83592425527E+02  0.47000000000E+01 0. -1.
<mgrwt>
<rscale>  0 0.44464130E+03</rscale>
<asrwt>0</asrwt>
<pdfrwt beam="1">  1       21 0.36209562E-02 0.44464130E+03</pdfrwt>
<pdfrwt beam="2">  1       21 0.32307966E+00 0.44464130E+03</pdfrwt>
<totfact> 0.97250508E+03</totfact>
</mgrwt>
</event>
<event>
 8    1  0.9478272E-006  0.2893725E+03  0.7546771E-02  0.1090677E+00
         21   -1    0    0  504  503  0.00000000000E+00  0.00000000000E+00  0.30425965887E+03  0.30425965887E+03  0.00000000000E+00 0.  1.
         21   -1    0    0  503  504 -0.00000000000E+00 -0.00000000000E+00 -0.68803458333E+02  0.68803458333E+02  0.00000000000E+00 0.  1.
         25    2    1    2    0    0  0.17906261814E+02  0.31216990167E+02  0.36018591601E+02  0.13495335154E+03  0.12497973221E+03 0.  0.
         25    2    1    2    0    0 -0.17906261814E+02 -0.31216990167E+02  0.19943760893E+03  0.23810976566E+03  0.12500306380E+03 0.  0.
          5    1    3    3  501    0  0.33328348301E+02 -0.15400494894E+02 -0.33358567931E+02  0.49828085433E+02  0.47000000000E+01 0. -1.
         -5    1    3    3    0  501 -0.15422086487E+02  0.46617485060E+02  0.69377159532E+02  0.85125266107E+02  0.47000000000E+01 0. -1.
          5    1    4    4  502    0 -0.79690182695E+01  0.47641874374E+02  0.56413339932E+02  0.74416452269E+02  0.47000000000E+01 0.  1.
         -5    1    4    4    0  502 -0.99372435441E+01 -0.78858864541E+02  0.14302426900E+03  0.16369331339E+03  0.47000000000E+01 0.  1.
<mgrwt>
<rscale>  0 0.28937254E+03</rscale>
<asrwt>0</asrwt>
<pdfrwt beam="1">  1       21 0.46809178E-01 0.28937254E+03</pdfrwt>
<pdfrwt beam="2">  1       21 0.10585148E-01 0.28937254E+03</pdfrwt>
<totfact> 0.31340935E+05</totfact>
</mgrwt>
</event>
<event>
 8    1  0.9478272E-006  0.3044615E+03  0.7546771E-02  0.1083031E+00
         21   -1    0    0  504  503  0.00000000000E+00  0.00000000000E+00  0.16803219156E+03  0.16803219156E+03  0.00000000000E+00 0. -1.
         21   -1    0    0  503  504 -0.00000000000E+00 -0.00000000000E+00 -0.13791527088E+03  0.13791527088E+03  0.00000000000E+00 0. -1.
         25    2    1    2    0    0  0.36942331895E+02 -0.78510194958E+02  0.10476153122E+02  0.15252075676E+03  0.12499697941E+03 0.  0.
         25    2    1    2    0    0 -0.36942331895E+02  0.78510194958E+02  0.19640767558E+02  0.15342670567E+03  0.12500163065E+03 0.  0.
          5    1    3    3  501    0  0.39683729144E+02 -0.10467336996E+03 -0.17989588870E+02  0.11347699347E+03  0.47000000000E+01 0.  1.
         -5    1    3    3    0  501 -0.27413972481E+01  0.26163175006E+02  0.28465741993E+02  0.39043763298E+02  0.47000000000E+01 0.  1.
          5    1    4    4  502    0 -0.75011258967E+02  0.61612605225E+02  0.42056324345E+02  0.10589441209E+03  0.47000000000E+01 0. -1.
         -5    1    4    4    0  502  0.38068927072E+02  0.16897589733E+02 -0.22415556787E+02  0.47532293583E+02  0.47000000000E+01 0. -1.
<mgrwt>
<rscale>  0 0.30446153E+03</rscale>
<asrwt>0</asrwt>
<pdfrwt beam="1">  1       21 0.25851106E-01 0.30446153E+03</pdfrwt>
<pdfrwt beam="2">  1       21 0.21217734E-01 0.30446153E+03</pdfrwt>
<totfact> 0.28605425E+05</totfact>
</mgrwt>
</event>
<event>
 8    1  0.9478272E-006  0.2830468E+03  0.7546771E-02  0.1094036E+00
         21   -1    0    0  504  503  0.00000000000E+00  0.00000000000E+00  0.32145266575E+03  0.32145266575E+03  0.00000000000E+00 0.  1.
         21   -1    0    0  503  504 -0.00000000000E+00 -0.00000000000E+00 -0.62307361759E+02  0.62307361759E+02  0.00000000000E+00 0.  1.
         25    2    1    2    0    0 -0.58890895916E+02  0.24181784283E+02  0.15495704211E+03  0.20902699928E+03  0.12501082040E+03 0.  0.
         25    2    1    2    0    0  0.58890895916E+02 -0.24181784283E+02  0.10418826188E+03  0.17473302823E+03  0.12499416357E+03 0.  0.
          5    1    3    3  501    0 -0.20533215499E+02 -0.47174850742E+02  0.94969523914E+02  0.10811281124E+03  0.47000000000E+01 0.  1.
         -5    1    3    3    0  501 -0.38357680417E+02  0.71356635025E+02  0.59987518196E+02  0.10091418804E+03  0.47000000000E+01 0.  1.
          5    1    4    4  502    0  0.49433117843E+02 -0.72412989302E+02  0.83606065052E+02  0.12124082758E+03  0.47000000000E+01 0. -1.
         -5    1    4    4    0  502  0.94577780735E+01  0.48231205019E+02  0.20582196830E+02  0.53492200647E+02  0.47000000000E+01 0. -1.
<mgrwt>
<rscale>  0 0.28304676E+03</rscale>
<asrwt>0</asrwt>
<pdfrwt beam="1">  1       21 0.49454255E-01 0.28304676E+03</pdfrwt>
<pdfrwt beam="2">  1       21 0.95857481E-02 0.28304676E+03</pdfrwt>
<totfact> 0.33380170E+05</totfact>
</mgrwt>
</event>
<event>
 8    1  0.9478272E-006  0.3495929E+03  0.7546771E-02  0.1062782E+00
         21   -1    0    0  504  503  0.00000000000E+00  0.00000000000E+00  0.62276469095E+02  0.62276469095E+02  0.00000000000E+00 0.  1.
         21   -1    0    0  503  504 -0.00000000000E+00 -0.00000000000E+00 -0.49061539306E+03  0.49061539306E+03  0.00000000000E+00 0.  1.
         25    2    1    2    0    0  0.44469160782E+02 -0.11089416317E+03 -0.25471621092E+03  0.30786366472E+03  0.12499866504E+03 0.  0.
         25    2    1    2    0    0 -0.44469160782E+02  0.11089416317E+03 -0.17362271304E+03  0.24502819743E+03  0.12497579513E+03 0.  0.
          5    1    3    3  501    0  0.85912479252E+02 -0.89915728504E+02 -0.20370628573E+03  0.23871349600E+03  0.47000000000E+01 0. -1.
         -5    1    3    3    0  501 -0.41443318470E+02 -0.20978434662E+02 -0.51009925192E+02  0.69150168725E+02  0.47000000000E+01 0. -1.
          5    1    4    4  502    0  0.41224365468E+02  0.34997773003E+02 -0.32541803779E+02  0.63287845726E+02  0.47000000000E+01 0.  1.
         -5    1    4    4    0  502 -0.85693526250E+02  0.75896390163E+02 -0.14108090926E+03  0.18174035171E+03  0.47000000000E+01 0.  1.
<mgrwt>
<rscale>  0 0.34959287E+03</rscale>
<asrwt>0</asrwt>
<pdfrwt beam="1">  1       21 0.95809953E-02 0.34959287E+03</pdfrwt>
<pdfrwt beam="2">  1       21 0.75479291E-01 0.34959287E+03</pdfrwt>
<totfact> 0.13092413E+05</totfact>
</mgrwt>
</event>
<event>
 8    1  0.9478272E-006  0.3114698E+03  0.7546771E-02  0.1079644E+00
         21   -1    0    0  504  503  0.00000000000E+00  0.00000000000E+00  0.36239737035E+03  0.36239737035E+03  0.00000000000E+00 0.  1.
         21   -1    0    0  503  504 -0.00000000000E+00 -0.00000000000E+00 -0.66924751994E+02  0.66924751994E+02  0.00000000000E+00 0.  1.
         25    2    1    2    0    0  0.18447280124E+02 -0.78479808636E+01  0.27275840145E+03  0.30070571615E+03  0.12499955686E+03 0.  0.
         25    2    1    2    0    0 -0.18447280124E+02  0.78479808636E+01  0.22714216906E+02  0.12861640620E+03  0.12499740535E+03 0.  0.
          5    1    3    3  501    0 -0.13431921260E+02 -0.49042826949E+02  0.22209366822E+03  0.22788879492E+03  0.47000000000E+01 0. -1.
         -5    1    3    3    0  501  0.31879201384E+02  0.41194846086E+02  0.50664733229E+02  0.72816921234E+02  0.47000000000E+01 0. -1.
          5    1    4    4  502    0 -0.29357235309E+02  0.10004927298E+02 -0.47746174372E+02  0.57129090684E+02  0.47000000000E+01 0. -1.
         -5    1    4    4    0  502  0.10909955185E+02 -0.21569464345E+01  0.70460391278E+02  0.71487315512E+02  0.47000000000E+01 0. -1.
<mgrwt>
<rscale>  0 0.31146977E+03</rscale>
<asrwt>0</asrwt>
<pdfrwt beam="1">  1       21 0.55753441E-01 0.31146977E+03</pdfrwt>
<pdfrwt beam="2">  1       21 0.10296116E-01 0.31146977E+03</pdfrwt>
<totfact> 0.22648797E+05</totfact>
</mgrwt>
</event>
<event>
 8    1  0.9478272E-006  0.4002300E+03  0.7546771E-02  0.1043700E+00
         21   -1    0    0  504  503  0.00000000000E+00  0.00000000000E+00  0.13507388905E+04  0.13507388905E+04  0.00000000000E+00 0. -1.
         21   -1    0    0  503  504 -0.00000000000E+00 -0.00000000000E+00 -0.29647492608E+02  0.29647492608E+02  0.00000000000E+00 0. -1.
         25    2    1    2    0    0  0.40619974989E+02 -0.10113747636E+03  0.27431429204E+03  0.32055039504E+03  0.12500181379E+03 0.  0.
         25    2    1    2    0    0 -0.40619974989E+02  0.10113747636E+03  0.10467771059E+04  0.10598359881E+04  0.12502496057E+03 0.  0.
          5    1    3    3  501    0 -0.33479311955E+02 -0.34020227001E+02  0.16724044009E+03  0.17398188117E+03  0.47000000000E+01 0.  1.
         -5    1    3    3    0  501  0.74099286943E+02 -0.67117249361E+02  0.10707385195E+03  0.14656851387E+03  0.47000000000E+01 0.  1.
          5    1    4    4  502    0  0.36065706880E+02  0.47609455172E+01  0.14020628422E+03  0.14492513222E+03  0.47000000000E+01 0.  1.
         -5    1    4    4    0  502 -0.76685681869E+02  0.96376530845E+02  0.90657082166E+03  0.91491085587E+03  0.47000000000E+01 0.  1.
<mgrwt>
<rscale>  0 0.40023004E+03</rscale>
<asrwt>0</asrwt>
<pdfrwt beam="1">  1       21 0.20780593E+00 0.40023004E+03</pdfrwt>
<pdfrwt beam="2">  1       21 0.45611538E-02 0.40023004E+03</pdfrwt>
<totfact> 0.33952814E+04</totfact>
</mgrwt>
</event>
<event>
 8    1  0.9478272E-006  0.3980659E+03  0.7546771E-02  0.1044451E+00
         21   -1    0    0  504  503  0.00000000000E+00  0.00000000000E+00  0.61664227785E+02  0.61664227785E+02  0.00000000000E+00 0. -1.
         21   -1    0    0  503  504 -0.00000000000E+00 -0.00000000000E+00 -0.64241657953E+03  0.64241657953E+03  0.00000000000E+00 0. -1.
         25    2    1    2    0    0 -0.60475822147E+02  0.10308806810E+03 -0.11612771542E+03  0.20831468588E+03  0.12499954885E+03 0.  0.
         25    2    1    2    0    0  0.60475822147E+02 -0.10308806810E+03 -0.46462463633E+03  0.49576612144E+03  0.12499407842E+03 0.  0.
          5    1    3    3  501    0 -0.26899220310E+02  0.12604490179E+03 -0.10380666421E+03  0.16555602936E+03  0.47000000000E+01 0.  1.
         -5    1    3    3    0  501 -0.33576601838E+02 -0.22956833695E+02 -0.12321051207E+02  0.42758656517E+02  0.47000000000E+01 0.  1.
          5    1    4    4  502    0  0.85080391848E+02 -0.92252553982E+02 -0.44438101403E+03  0.46178542898E+03  0.47000000000E+01 0.  1.
         -5    1    4    4    0  502 -0.24604569700E+02 -0.10835514117E+02 -0.20243622302E+02  0.33980692462E+02  0.47000000000E+01 0.  1.
<mgrwt>
<rscale>  0 0.39806594E+03</rscale>
<asrwt>0</asrwt>
<pdfrwt beam="1">  1       21 0.94868039E-02 0.39806594E+03</pdfrwt>
<pdfrwt beam="2">  1       21 0.98833323E-01 0.39806594E+03</pdfrwt>
<totfact> 0.70153739E+04</totfact>
</mgrwt>
</event>
<event>
 8    1  0.9478272E-006  0.3132489E+03  0.7546771E-02  0.1078799E+00
         21   -1    0    0  504  503  0.00000000000E+00  0.00000000000E+00  0.72111317163E+02  0.72111317163E+02  0.00000000000E+00 0.  1.
         21   -1    0    0  503  504 -0.00000000000E+00 -0.00000000000E+00 -0.34018535369E+03  0.34018535369E+03  0.00000000000E+00 0.  1.
         25    2    1    2    0    0 -0.24065184316E+02  0.62890330027E+02 -0.47013846144E+02  0.14956763069E+03  0.12500339081E+03 0.  0.
         25    2    1    2    0    0  0.24065184316E+02 -0.62890330027E+02 -0.22106019038E+03  0.26272904016E+03  0.12499845625E+03 0.  0.
          5    1    3    3  501    0  0.16531581064E+02 -0.31558184899E+02  0.11287297286E+01  0.35952416294E+02  0.47000000000E+01 0.  1.
         -5    1    3    3    0  501 -0.40596765380E+02  0.94448514926E+02 -0.48142575873E+02  0.11361521440E+03  0.47000000000E+01 0.  1.
          5    1    4    4  502    0  0.45241869778E+02  0.21928760370E+02 -0.11214355694E+03  0.12298766066E+03  0.47000000000E+01 0. -1.
         -5    1    4    4    0  502 -0.21176685462E+02 -0.84819090397E+02 -0.10891663344E+03  0.13974137950E+03  0.47000000000E+01 0. -1.
<mgrwt>
<rscale>  0 0.31324887E+03</rscale>
<asrwt>0</asrwt>
<pdfrwt beam="1">  1       21 0.11094049E-01 0.31324887E+03</pdfrwt>
<pdfrwt beam="2">  1       21 0.52336209E-01 0.31324887E+03</pdfrwt>
<totfact> 0.22666060E+05</totfact>
</mgrwt>
</event>
<event>
 8    1  0.9478272E-006  0.3072195E+03  0.7546771E-02  0.1081686E+00
         21   -1    0    0  504  503  0.00000000000E+00  0.00000000000E+00  0.29106210257E+03  0.29106210257E+03  0.00000000000E+00 0. -1.
         21   -1    0    0  503  504 -0.00000000000E+00 -0.00000000000E+00 -0.81068475609E+02  0.81068475609E+02  0.00000000000E+00 0. -1.
         25    2    1    2    0    0 -0.46192924868E+02  0.69011495123E+02  0.65261683079E+02  0.16364475516E+03  0.12499658333E+03 0.  0.
         25    2    1    2    0    0  0.46192924868E+02 -0.69011495123E+02  0.14473194388E+03  0.20848582302E+03  0.12499051986E+03 0.  0.
          5    1    3    3  501    0 -0.40053309484E+01 -0.20686796838E+02 -0.22490626500E+02  0.31175383234E+02  0.47000000000E+01 0. -1.
         -5    1    3    3    0  501 -0.42187593920E+02  0.89698291961E+02  0.87752309578E+02  0.13246937192E+03  0.47000000000E+01 0. -1.
          5    1    4    4  502    0  0.71324469410E+02 -0.13036209159E+02  0.30636804032E+02  0.78853195542E+02  0.47000000000E+01 0. -1.
         -5    1    4    4    0  502 -0.25131544542E+02 -0.55975285964E+02  0.11409513985E+03  0.12963262748E+03  0.47000000000E+01 0. -1.
<mgrwt>
<rscale>  0 0.30721954E+03</rscale>
<asrwt>0</asrwt>
<pdfrwt beam="1">  1       21 0.44778785E-01 0.30721954E+03</pdfrwt>
<pdfrwt beam="2">  1       21 0.12472073E-01 0.30721954E+03</pdfrwt>
<totfact> 0.25486081E+05</totfact>
</mgrwt>
</event>
<event>
 8    1  0.9478272E-006  0.2845994E+03  0.7546771E-02  0.1093203E+00
         21   -1    0    0  504  503  0.00000000000E+00  0.00000000000E+00  0.16106256552E+02  0.16106256552E+02  0.00000000000E+00 0. -1.
         21   -1    0    0  503  504 -0.00000000000E+00 -0.00000000000E+00 -0.12572264489E+04  0.12572264489E+04  0.00000000000E+00 0. -1.
         25    2    1    2    0    0 -0.52681252052E+02 -0.39657487232E+01 -0.81211735884E+03  0.82337724753E+03  0.12499778291E+03 0.  0.
         25    2    1    2    0    0  0.52681252052E+02  0.39657487232E+01 -0.42900283348E+03  0.44995545790E+03  0.12500176590E+03 0.  0.
          5    1    3    3  501    0 -0.23456800823E+02  0.93240951543E+01 -0.25828622582E+02  0.36419335520E+02  0.47000000000E+01 0.  1.
         -5    1    3    3    0  501 -0.29224451229E+02 -0.13289843877E+02 -0.78628873626E+03  0.78695791201E+03  0.47000000000E+01 0.  1.
          5    1    4    4  502    0 -0.10859693872E+02 -0.33808967120E+02 -0.38888055748E+02  0.52871070431E+02  0.47000000000E+01 0. -1.
         -5    1    4    4    0  502  0.63540945924E+02  0.37774715843E+02 -0.39011477773E+03  0.39708438747E+03  0.47000000000E+01 0. -1.
<mgrwt>
<rscale>  0 0.28459945E+03</rscale>
<asrwt>0</asrwt>
<pdfrwt beam="1">  1       21 0.24778855E-02 0.28459945E+03</pdfrwt>
<pdfrwt beam="2">  1       21 0.19341946E+00 0.28459945E+03</pdfrwt>
<totfact> 0.12305734E+05</totfact>
</mgrwt>
</event>
<event>
 8    1  0.9478272E-006  0.3847401E+03  0.7546771E-02  0.1049196E+00
         21   -1    0    0  504  503  0.00000000000E+00  0.00000000000E+00  0.10642843190E+03  0.10642843190E+03  0.00000000000E+00 0.  1.
         21   -1    0    0  503  504 -0.00000000000E+00 -0.00000000000E+00 -0.34771004931E+03  0.34771004931E+03  0.00000000000E+00 0.  1.
         25    2    1    2    0    0 -0.14123829840E+03 -0.21769746802E+02 -0.15721295723E+03  0.24649869809E+03  0.12499406158E+03 0.  0.
         25    2    1    2    0    0  0.14123829840E+03  0.21769746802E+02 -0.84068660183E+02  0.20763978313E+03  0.12499824439E+03 0.  0.
          5    1    3    3  501    0 -0.11811939814E+03 -0.60350723154E+02 -0.15068998946E+03  0.20080827903E+03  0.47000000000E+01 0. -1.
         -5    1    3    3    0  501 -0.23118900262E+02  0.38580976352E+02 -0.65229677632E+01  0.45690419062E+02  0.47000000000E+01 0. -1.
          5    1    4    4  502    0  0.15906893296E+03  0.39623703585E+02 -0.75857852669E+02  0.18069163548E+03  0.47000000000E+01 0.  1.
         -5    1    4    4    0  502 -0.17830634564E+02 -0.17853956783E+02 -0.82108075141E+01  0.26948147650E+02  0.47000000000E+01 0.  1.
<mgrwt>
<rscale>  0 0.38474010E+03</rscale>
<asrwt>0</asrwt>
<pdfrwt beam="1">  1       21 0.16373605E-01 0.38474010E+03</pdfrwt>
<pdfrwt beam="2">  1       21 0.53493855E-01 0.38474010E+03</pdfrwt>
<totfact> 0.10451800E+05</totfact>
</mgrwt>
</event>
<event>
 8    1  0.9478272E-006  0.4691073E+03  0.7546771E-02  0.1022172E+00
         21   -1    0    0  504  503  0.00000000000E+00  0.00000000000E+00  0.11181069876E+04  0.11181069876E+04  0.00000000000E+00 0. -1.
         21   -1    0    0  503  504 -0.00000000000E+00 -0.00000000000E+00 -0.49204071202E+02  0.49204071202E+02  0.00000000000E+00 0. -1.
         25    2    1    2    0    0 -0.13036725494E+02  0.19736899851E+03  0.57503723436E+03  0.62082019002E+03  0.12500163861E+03 0.  0.
         25    2    1    2    0    0  0.13036725494E+02 -0.19736899851E+03  0.49386568199E+03  0.54649086873E+03  0.12499791987E+03 0.  0.
          5    1    3    3  501    0  0.15465085104E+02  0.34771931893E+01  0.17038093948E+03  0.17118123223E+03  0.47000000000E+01 0.  1.
         -5    1    3    3    0  501 -0.28501810598E+02  0.19389180533E+03  0.40465629488E+03  0.44963895779E+03  0.47000000000E+01 0.  1.
          5    1    4    4  502    0  0.28316040685E+02 -0.18751308293E+02  0.19691024322E+02  0.39537781446E+02  0.47000000000E+01 0.  1.
         -5    1    4    4    0  502 -0.15279315191E+02 -0.17861769022E+03  0.47417465767E+03  0.50695308728E+03  0.47000000000E+01 0.  1.
<mgrwt>
<rscale>  0 0.46910730E+03</rscale>
<asrwt>0</asrwt>
<pdfrwt beam="1">  1       21 0.17201644E+00 0.46910730E+03</pdfrwt>
<pdfrwt beam="2">  1       21 0.75698579E-02 0.46910730E+03</pdfrwt>
<totfact> 0.24205880E+04</totfact>
</mgrwt>
</event>
<event>
 8    1  0.9478272E-006  0.2777342E+03  0.7546771E-02  0.1096933E+00
         21   -1    0    0  504  503  0.00000000000E+00  0.00000000000E+00  0.17218368941E+03  0.17218368941E+03  0.00000000000E+00 0. -1.
         21   -1    0    0  503  504 -0.00000000000E+00 -0.00000000000E+00 -0.11199711364E+03  0.11199711364E+03  0.00000000000E+00 0. -1.
         25    2    1    2    0    0  0.27621324325E+02  0.21983256874E+02  0.80355895573E+02  0.15273580025E+03  0.12499981433E+03 0.  0.
         25    2    1    2    0    0 -0.27621324325E+02 -0.21983256874E+02 -0.20169319806E+02  0.13144500280E+03  0.12499914463E+03 0.  0.
          5    1    3    3  501    0  0.32099694229E+02  0.13791589683E+02 -0.27291878539E+02  0.44581778226E+02  0.47000000000E+01 0.  1.
         -5    1    3    3    0  501 -0.44783699043E+01  0.81916671918E+01  0.10764777411E+03  0.10815402202E+03  0.47000000000E+01 0.  1.
          5    1    4    4  502    0  0.14006290157E+02 -0.61858605609E+02 -0.33803440001E+02  0.72023786402E+02  0.47000000000E+01 0. -1.
         -5    1    4    4    0  502 -0.41627614482E+02  0.39875348734E+02  0.13634120195E+02  0.59421216393E+02  0.47000000000E+01 0. -1.
<mgrwt>
<rscale>  0 0.27773423E+03</rscale>
<asrwt>0</asrwt>
<pdfrwt beam="1">  1       21 0.26489798E-01 0.27773423E+03</pdfrwt>
<pdfrwt beam="2">  1       21 0.17230325E-01 0.27773423E+03</pdfrwt>
<totfact> 0.40537147E+05</totfact>
</mgrwt>
</event>
<event>
 8    1  0.9478272E-006  0.3534807E+03  0.7546771E-02  0.1061195E+00
         21   -1    0    0  504  503  0.00000000000E+00  0.00000000000E+00  0.20890207135E+03  0.20890207135E+03  0.00000000000E+00 0.  1.
         21   -1    0    0  503  504 -0.00000000000E+00 -0.00000000000E+00 -0.14953013225E+03  0.14953013225E+03  0.00000000000E+00 0.  1.
         25    2    1    2    0    0 -0.13882924438E+02 -0.89558642085E+02 -0.57542747631E+02  0.16476389467E+03  0.12498994847E+03 0.  0.
         25    2    1    2    0    0  0.13882924438E+02  0.89558642085E+02  0.11691468673E+03  0.19366830893E+03  0.12499953579E+03 0.  0.
          5    1    3    3  501    0  0.40964051313E+02 -0.51349160162E+02 -0.70543312656E+02  0.96505122713E+02  0.47000000000E+01 0.  1.
         -5    1    3    3    0  501 -0.54846975751E+02 -0.38209481923E+02  0.13000565025E+02  0.68258771955E+02  0.47000000000E+01 0.  1.
          5    1    4    4  502    0  0.65297264931E+02  0.45486093459E+02  0.91074983734E+02  0.12103495432E+03  0.47000000000E+01 0.  1.
         -5    1    4    4    0  502 -0.51414340493E+02  0.44072548626E+02  0.25839702997E+02  0.72633354608E+02  0.47000000000E+01 0.  1.
<mgrwt>
<rscale>  0 0.35348072E+03</rscale>
<asrwt>0</asrwt>
<pdfrwt beam="1">  1       21 0.32138780E-01 0.35348072E+03</pdfrwt>
<pdfrwt beam="2">  1       21 0.23004636E-01 0.35348072E+03</pdfrwt>
<totfact> 0.15828319E+05</totfact>
</mgrwt>
</event>
<event>
 8    1  0.9478272E-006  0.3023631E+03  0.7546771E-02  0.1084065E+00
         21   -1    0    0  504  503  0.00000000000E+00  0.00000000000E+00  0.90128252323E+03  0.90128252323E+03  0.00000000000E+00 0.  1.
         21   -1    0    0  503  504 -0.00000000000E+00 -0.00000000000E+00 -0.25359258198E+02  0.25359258198E+02  0.00000000000E+00 0.  1.
         25    2    1    2    0    0  0.14577089715E+01  0.79150383916E+02  0.53308432597E+03  0.55323648625E+03  0.12499921173E+03 0.  0.
         25    2    1    2    0    0 -0.14577089715E+01 -0.79150383916E+02  0.34283893906E+03  0.37340529517E+03  0.12500427249E+03 0.  0.
          5    1    3    3  501    0 -0.42325921179E+02  0.70789600795E+02  0.18928040270E+03  0.20652315132E+03  0.47000000000E+01 0.  1.
         -5    1    3    3    0  501  0.43783630150E+02  0.83607831218E+01  0.34380392328E+03  0.34671333494E+03  0.47000000000E+01 0.  1.
          5    1    4    4  502    0  0.61067668706E+02 -0.29700101972E+02  0.15354057457E+03  0.16795283343E+03  0.47000000000E+01 0.  1.
         -5    1    4    4    0  502 -0.62525377678E+02 -0.49450281945E+02  0.18929836449E+03  0.20545246174E+03  0.47000000000E+01 0.  1.
<mgrwt>
<rscale>  0 0.30236307E+03</rscale>
<asrwt>0</asrwt>
<pdfrwt beam="1">  1       21 0.13865882E+00 0.30236307E+03</pdfrwt>
<pdfrwt beam="2">  1       21 0.39014250E-02 0.30236307E+03</pdfrwt>
<totfact> 0.14404312E+05</totfact>
</mgrwt>
</event>
<event>
 8    1  0.9478272E-006  0.3002668E+03  0.7546771E-02  0.1085107E+00
         21   -1    0    0  504  503  0.00000000000E+00  0.00000000000E+00  0.12229673865E+02  0.12229673865E+02  0.00000000000E+00 0. -1.
         21   -1    0    0  503  504 -0.00000000000E+00 -0.00000000000E+00 -0.18430610544E+04  0.18430610544E+04  0.00000000000E+00 0. -1.
         25    2    1    2    0    0 -0.15339519802E+02 -0.71472107874E+02 -0.67040775937E+03  0.68586725838E+03  0.12499507683E+03 0.  0.
         25    2    1    2    0    0  0.15339519802E+02  0.71472107874E+02 -0.11604236212E+04  0.11694234699E+04  0.12499883310E+03 0.  0.
          5    1    3    3  501    0  0.93538706320E+01  0.22389293361E+02 -0.33723037365E+02  0.41810388687E+02  0.47000000000E+01 0. -1.
         -5    1    3    3    0  501 -0.24693390434E+02 -0.93861401235E+02 -0.63668472200E+03  0.64405686969E+03  0.47000000000E+01 0. -1.
          5    1    4    4  502    0  0.59078825394E+02  0.80401288380E+02 -0.81195266878E+03  0.81807328591E+03  0.47000000000E+01 0. -1.
         -5    1    4    4    0  502 -0.43739305592E+02 -0.89291805059E+01 -0.34847095241E+03  0.35135018399E+03  0.47000000000E+01 0. -1.
<mgrwt>
<rscale>  0 0.30026679E+03</rscale>
<asrwt>0</asrwt>
<pdfrwt beam="1">  1       21 0.18814887E-02 0.30026679E+03</pdfrwt>
<pdfrwt beam="2">  1       21 0.28354779E+00 0.30026679E+03</pdfrwt>
<totfact> 0.53616336E+04</totfact>
</mgrwt>
</event>
<event>
 8    1  0.9478272E-006  0.3282071E+03  0.7546771E-02  0.1071933E+00
         21   -1    0    0  504  503  0.00000000000E+00  0.00000000000E+00  0.30132068271E+03  0.30132068271E+03  0.00000000000E+00 0.  1.
         21   -1    0    0  503  504 -0.00000000000E+00 -0.00000000000E+00 -0.89373147921E+02  0.89373147921E+02  0.00000000000E+00 0.  1.
         25    2    1    2    0    0 -0.10395820509E+03  0.76235295455E+01  0.81041496418E+02  0.18182222405E+03  0.12500468155E+03 0.  0.
         25    2    1    2    0    0  0.10395820509E+03 -0.76235295455E+01  0.13090603837E+03  0.20887160658E+03  0.12500212216E+03 0.  0.
          5    1    3    3  501    0 -0.64927631788E+02  0.53497364400E+02  0.87000737111E+02  0.12111475395E+03  0.47000000000E+01 0.  1.
         -5    1    3    3    0  501 -0.39030573300E+02 -0.45873834854E+02 -0.59592406933E+01  0.60707470100E+02  0.47000000000E+01 0.  1.
          5    1    4    4  502    0  0.24423783489E+02  0.12200822564E+02  0.12334940172E+03  0.12642209528E+03  0.47000000000E+01 0.  1.
         -5    1    4    4    0  502  0.79534421600E+02 -0.19824352110E+02  0.75566366558E+01  0.82449511298E+02  0.47000000000E+01 0.  1.
<mgrwt>
<rscale>  0 0.32820712E+03</rscale>
<asrwt>0</asrwt>
<pdfrwt beam="1">  1       21 0.46357028E-01 0.32820712E+03</pdfrwt>
<pdfrwt beam="2">  1       21 0.13749715E-01 0.32820712E+03</pdfrwt>
<totfact> 0.19767548E+05</totfact>
</mgrwt>
</event>
<event>
 8    1  0.9478272E-006  0.3887693E+03  0.7546771E-02  0.1047739E+00
         21   -1    0    0  504  503  0.00000000000E+00  0.00000000000E+00  0.14829921480E+04  0.14829921480E+04  0.00000000000E+00 0.  1.
         21   -1    0    0  503  504 -0.00000000000E+00 -0.00000000000E+00 -0.25479153001E+02  0.25479153001E+02  0.00000000000E+00 0.  1.
         25    2    1    2    0    0  0.42583054424E+02 -0.37212548400E+02  0.12630604980E+04  0.12704900453E+04  0.12500017366E+03 0.  0.
         25    2    1    2    0    0 -0.42583054424E+02  0.37212548400E+02  0.19445249705E+03  0.23798125571E+03  0.12500085671E+03 0.  0.
          5    1    3    3  501    0  0.69484432459E+02  0.47476254164E+01  0.40510958879E+03  0.41107967018E+03  0.47000000000E+01 0. -1.
         -5    1    3    3    0  501 -0.26901378035E+02 -0.41960173816E+02  0.85795090920E+03  0.85941037516E+03  0.47000000000E+01 0. -1.
          5    1    4    4  502    0 -0.35418507694E+02  0.41791299792E+02  0.21140732671E+03  0.21844022343E+03  0.47000000000E+01 0. -1.
         -5    1    4    4    0  502 -0.71645467305E+01 -0.45787513919E+01 -0.16954829656E+02  0.19541032286E+02  0.47000000000E+01 0. -1.
<mgrwt>
<rscale>  0 0.38876926E+03</rscale>
<asrwt>0</asrwt>
<pdfrwt beam="1">  1       21 0.22815257E+00 0.38876926E+03</pdfrwt>
<pdfrwt beam="2">  1       21 0.39198708E-02 0.38876926E+03</pdfrwt>
<totfact> 0.32741369E+04</totfact>
</mgrwt>
</event>
<event>
 8    1  0.9478272E-006  0.2799167E+03  0.7546771E-02  0.1095734E+00
         21   -1    0    0  504  503  0.00000000000E+00  0.00000000000E+00  0.32630724683E+03  0.32630724683E+03  0.00000000000E+00 0.  1.
         21   -1    0    0  503  504 -0.00000000000E+00 -0.00000000000E+00 -0.60030361752E+02  0.60030361752E+02  0.00000000000E+00 0.  1.
         25    2    1    2    0    0  0.31468193499E+02  0.22990263357E+02  0.64891204339E+02  0.14613296853E+03  0.12500070671E+03 0.  0.
         25    2    1    2    0    0 -0.31468193499E+02 -0.22990263357E+02  0.20138568074E+03  0.24020464005E+03  0.12499310895E+03 0.  0.
          5    1    3    3  501    0 -0.22728185036E+02 -0.25162830905E+02  0.65022035166E+02  0.73482606863E+02  0.47000000000E+01 0. -1.
         -5    1    3    3    0  501  0.54196378535E+02  0.48153094262E+02 -0.13083082764E+00  0.72650361665E+02  0.47000000000E+01 0. -1.
          5    1    4    4  502    0  0.98219483236E+01  0.22393996368E+02 -0.45135062760E+01  0.25306589677E+02  0.47000000000E+01 0. -1.
         -5    1    4    4    0  502 -0.41290141823E+02 -0.45384259724E+02  0.20589918701E+03  0.21489805038E+03  0.47000000000E+01 0. -1.
<mgrwt>
<rscale>  0 0.27991672E+03</rscale>
<asrwt>0</asrwt>
<pdfrwt beam="1">  1       21 0.50201114E-01 0.27991672E+03</pdfrwt>
<pdfrwt beam="2">  1       21 0.92354405E-02 0.27991672E+03</pdfrwt>
<totfact> 0.34574563E+05</totfact>
</mgrwt>
</event>
<event>
 8    1  0.9478272E-006  0.2691702E+03  0.7546771E-02  0.1101755E+00
         21   -1    0    0  504  503  0.00000000000E+00  0.00000000000E+00  0.10662933229E+04  0.10662933229E+04  0.00000000000E+00 0.  1.
         21   -1    0    0  503  504 -0.00000000000E+00 -0.00000000000E+00 -0.16987017157E+02  0.16987017157E+02  0.00000000000E+00 0.  1.
         25    2    1    2    0    0  0.22003908399E+02 -0.73251137329E+01  0.70237440400E+03  0.71378738568E+03  0.12499919712E+03 0.  0.
         25    2    1    2    0    0 -0.22003908399E+02  0.73251137329E+01  0.34693190169E+03  0.36949295433E+03  0.12500187843E+03 0.  0.
          5    1    3    3  501    0  0.64566916782E+02  0.23828446639E+01  0.21786192567E+03  0.22728940439E+03  0.47000000000E+01 0. -1.
         -5    1    3    3    0  501 -0.42563008383E+02 -0.97079583968E+01  0.48451247833E+03  0.48649798129E+03  0.47000000000E+01 0. -1.
          5    1    4    4  502    0  0.21962735243E+02 -0.30031122927E+02  0.27316066716E+03  0.27572281402E+03  0.47000000000E+01 0. -1.
         -5    1    4    4    0  502 -0.43966643642E+02  0.37356236660E+02  0.73771234528E+02  0.93770140313E+02  0.47000000000E+01 0. -1.
<mgrwt>
<rscale>  0 0.26917015E+03</rscale>
<asrwt>0</asrwt>
<pdfrwt beam="1">  1       21 0.16404507E+00 0.26917015E+03</pdfrwt>
<pdfrwt beam="2">  1       21 0.26133881E-02 0.26917015E+03</pdfrwt>
<totfact> 0.18129836E+05</totfact>
</mgrwt>
</event>
<event>
 8    1  0.9478272E-006  0.3862070E+03  0.7546771E-02  0.1048663E+00
         21   -1    0    0  504  503  0.00000000000E+00  0.00000000000E+00  0.78855854203E+02  0.78855854203E+02  0.00000000000E+00 0.  1.
         21   -1    0    0  503  504 -0.00000000000E+00 -0.00000000000E+00 -0.47287488422E+03  0.47287488422E+03  0.00000000000E+00 0.  1.
         25    2    1    2    0    0  0.24499671400E+02  0.15126884747E+02  0.91880696010E+01  0.12861216908E+03  0.12501045105E+03 0.  0.
         25    2    1    2    0    0 -0.24499671400E+02 -0.15126884747E+02 -0.40320709962E+03  0.42311856934E+03  0.12499720796E+03 0.  0.
          5    1    3    3  501    0  0.51313926959E+02  0.49923985877E+02 -0.21406719557E+02  0.74872298669E+02  0.47000000000E+01 0.  1.
         -5    1    3    3    0  501 -0.26814255559E+02 -0.34797101130E+02  0.30594789158E+02  0.53739870412E+02  0.47000000000E+01 0.  1.
          5    1    4    4  502    0 -0.15611799184E+02 -0.67691678044E+02 -0.28464939488E+03  0.29304139563E+03  0.47000000000E+01 0.  1.
         -5    1    4    4    0  502 -0.88878722165E+01  0.52564793296E+02 -0.11855770474E+03  0.13007717371E+03  0.47000000000E+01 0.  1.
<mgrwt>
<rscale>  0 0.38620695E+03</rscale>
<asrwt>0</asrwt>
<pdfrwt beam="1">  1       21 0.12131670E-01 0.38620695E+03</pdfrwt>
<pdfrwt beam="2">  1       21 0.72749982E-01 0.38620695E+03</pdfrwt>
<totfact> 0.92260403E+04</totfact>
</mgrwt>
</event>
<event>
 8    1  0.9478272E-006  0.2607098E+03  0.7546771E-02  0.1106718E+00
         21   -1    0    0  504  503  0.00000000000E+00  0.00000000000E+00  0.19655622574E+02  0.19655622574E+02  0.00000000000E+00 0.  1.
         21   -1    0    0  503  504 -0.00000000000E+00 -0.00000000000E+00 -0.86450548092E+03  0.86450548092E+03  0.00000000000E+00 0.  1.
         25    2    1    2    0    0 -0.34229326818E+02 -0.11449365227E+02 -0.44919618725E+03  0.46765772087E+03  0.12499517779E+03 0.  0.
         25    2    1    2    0    0  0.34229326818E+02  0.11449365227E+02 -0.39565367110E+03  0.41650338262E+03  0.12502202009E+03 0.  0.
          5    1    3    3  501    0  0.19061667683E+02 -0.13311439390E+02 -0.10899472371E+02  0.26104215971E+02  0.47000000000E+01 0.  1.
         -5    1    3    3    0  501 -0.53290994501E+02  0.18620741635E+01 -0.43829671488E+03  0.44155350490E+03  0.47000000000E+01 0.  1.
          5    1    4    4  502    0  0.68549298695E+02 -0.30964128526E+02 -0.22832381745E+03  0.24044051078E+03  0.47000000000E+01 0. -1.
         -5    1    4    4    0  502 -0.34319971877E+02  0.42413493753E+02 -0.16732985365E+03  0.17606287185E+03  0.47000000000E+01 0. -1.
<mgrwt>
<rscale>  0 0.26070975E+03</rscale>
<asrwt>0</asrwt>
<pdfrwt beam="1">  1       21 0.30239429E-02 0.26070975E+03</pdfrwt>
<pdfrwt beam="2">  1       21 0.13300080E+00 0.26070975E+03</pdfrwt>
<totfact> 0.24908867E+05</totfact>
</mgrwt>
</event>
<event>
 8    1  0.9478272E-006  0.2820858E+03  0.7546771E-02  0.1094555E+00
         21   -1    0    0  504  503  0.00000000000E+00  0.00000000000E+00  0.44344921715E+02  0.44344921715E+02  0.00000000000E+00 0.  1.
         21   -1    0    0  503  504 -0.00000000000E+00 -0.00000000000E+00 -0.44859912007E+03  0.44859912007E+03  0.00000000000E+00 0.  1.
         25    2    1    2    0    0 -0.44606234452E+02  0.46145547362E+02 -0.22340389329E+03  0.26391960134E+03  0.12500051498E+03 0.  0.
         25    2    1    2    0    0  0.44606234452E+02 -0.46145547362E+02 -0.18085030507E+03  0.22902444044E+03  0.12500493503E+03 0.  0.
          5    1    3    3  501    0 -0.86826951157E+02  0.40093884094E+02 -0.13337172448E+03  0.16418448733E+03  0.47000000000E+01 0.  1.
         -5    1    3    3    0  501  0.42220716705E+02  0.60516632677E+01 -0.90032168805E+02  0.99735114013E+02  0.47000000000E+01 0.  1.
          5    1    4    4  502    0  0.19817782047E+02 -0.62898860067E+02 -0.25680432448E+02  0.70926621897E+02  0.47000000000E+01 0.  1.
         -5    1    4    4    0  502  0.24788452405E+02  0.16753312705E+02 -0.15516987262E+03  0.15809781855E+03  0.47000000000E+01 0.  1.
<mgrwt>
<rscale>  0 0.28208575E+03</rscale>
<asrwt>0</asrwt>
<pdfrwt beam="1">  1       21 0.68222957E-02 0.28208575E+03</pdfrwt>
<pdfrwt beam="2">  1       21 0.69015248E-01 0.28208575E+03</pdfrwt>
<totfact> 0.29554075E+05</totfact>
</mgrwt>
</event>
<event>
 8    1  0.9478272E-006  0.3768826E+03  0.7546771E-02  0.1052092E+00
         21   -1    0    0  504  503  0.00000000000E+00  0.00000000000E+00  0.13861082650E+03  0.13861082650E+03  0.00000000000E+00 0.  1.
         21   -1    0    0  503  504 -0.00000000000E+00 -0.00000000000E+00 -0.25618582870E+03  0.25618582870E+03  0.00000000000E+00 0.  1.
         25    2    1    2    0    0 -0.12301086516E+03 -0.60118576999E+02 -0.94128153776E+02  0.20791990363E+03  0.12499864298E+03 0.  0.
         25    2    1    2    0    0  0.12301086516E+03  0.60118576999E+02 -0.23446848426E+02  0.18687675156E+03  0.12500899698E+03 0.  0.
          5    1    3    3  501    0  0.22324188788E+02 -0.26573685181E+02 -0.27316356849E+02  0.44416252663E+02  0.47000000000E+01 0.  1.
         -5    1    3    3    0  501 -0.14533505394E+03 -0.33544891818E+02 -0.66811796927E+02  0.16350365097E+03  0.47000000000E+01 0.  1.
          5    1    4    4  502    0  0.94902046114E+02  0.52954093036E+02  0.40840228157E+02  0.11619186100E+03  0.47000000000E+01 0.  1.
         -5    1    4    4    0  502  0.28108819042E+02  0.71644839635E+01 -0.64287076583E+02  0.70684890564E+02  0.47000000000E+01 0.  1.
<mgrwt>
<rscale>  0 0.37688263E+03</rscale>
<asrwt>0</asrwt>
<pdfrwt beam="1">  1       21 0.21324743E-01 0.37688263E+03</pdfrwt>
<pdfrwt beam="2">  1       21 0.39413204E-01 0.37688263E+03</pdfrwt>
<totfact> 0.12062548E+05</totfact>
</mgrwt>
</event>
<event>
 8    1  0.9478272E-006  0.3851485E+03  0.7546771E-02  0.1049047E+00
         21   -1    0    0  504  503  0.00000000000E+00  0.00000000000E+00  0.44859300649E+02  0.44859300649E+02  0.00000000000E+00 0.  1.
         21   -1    0    0  503  504 -0.00000000000E+00 -0.00000000000E+00 -0.82669236964E+03  0.82669236964E+03  0.00000000000E+00 0.  1.
         25    2    1    2    0    0  0.10757495852E+03 -0.74140801529E+02 -0.24097396979E+03  0.30126847343E+03  0.12500003526E+03 0.  0.
         25    2    1    2    0    0 -0.10757495852E+03  0.74140801529E+02 -0.54085909920E+03  0.57028319686E+03  0.12500051710E+03 0.  0.
          5    1    3    3  501    0 -0.19907990319E+02 -0.44969110502E+02 -0.55888034862E+02  0.74592971644E+02  0.47000000000E+01 0.  1.
         -5    1    3    3    0  501  0.12748294884E+03 -0.29171691027E+02 -0.18508593493E+03  0.22667550179E+03  0.47000000000E+01 0.  1.
          5    1    4    4  502    0 -0.11384276747E+03  0.19422360638E+02 -0.26768902502E+03  0.29157659014E+03  0.47000000000E+01 0. -1.
         -5    1    4    4    0  502  0.62678089480E+01  0.54718440892E+02 -0.27317007418E+03  0.27870660672E+03  0.47000000000E+01 0. -1.
<mgrwt>
<rscale>  0 0.38514850E+03</rscale>
<asrwt>0</asrwt>
<pdfrwt beam="1">  1       21 0.69014314E-02 0.38514850E+03</pdfrwt>
<pdfrwt beam="2">  1       21 0.12718343E+00 0.38514850E+03</pdfrwt>
<totfact> 0.65983247E+04</totfact>
</mgrwt>
</event>
<event>
 8    1  0.9478272E-006  0.3221558E+03  0.7546771E-02  0.1074661E+00
         21   -1    0    0  504  503  0.00000000000E+00  0.00000000000E+00  0.17552187370E+03  0.17552187370E+03  0.00000000000E+00 0.  1.
         21   -1    0    0  503  504 -0.00000000000E+00 -0.00000000000E+00 -0.14782258722E+03  0.14782258722E+03  0.00000000000E+00 0.  1.
         25    2    1    2    0    0  0.26826176301E+02 -0.96845963939E+02 -0.11325562373E+01  0.16038748920E+03  0.12499631811E+03 0.  0.
         25    2    1    2    0    0 -0.26826176301E+02  0.96845963939E+02  0.28831842723E+02  0.16295697172E+03  0.12499966005E+03 0.  0.
          5    1    3    3  501    0  0.22919897329E+02 -0.96384297865E+02 -0.50044101418E+02  0.11109345910E+03  0.47000000000E+01 0. -1.
         -5    1    3    3    0  501  0.39062789723E+01 -0.46166607398E+00  0.48911545181E+02  0.49294030095E+02  0.47000000000E+01 0. -1.
          5    1    4    4  502    0  0.16415238346E+02  0.85825719760E+02 -0.26767559073E+02  0.91510143924E+02  0.47000000000E+01 0. -1.
         -5    1    4    4    0  502 -0.43241414647E+02  0.11020244179E+02  0.55599401795E+02  0.71446827798E+02  0.47000000000E+01 0. -1.
<mgrwt>
<rscale>  0 0.32215585E+03</rscale>
<asrwt>0</asrwt>
<pdfrwt beam="1">  1       21 0.27003365E-01 0.32215585E+03</pdfrwt>
<pdfrwt beam="2">  1       21 0.22741937E-01 0.32215585E+03</pdfrwt>
<totfact> 0.22947952E+05</totfact>
</mgrwt>
</event>
<event>
 8    1  0.9478272E-006  0.3291726E+03  0.7546771E-02  0.1071504E+00
         21   -1    0    0  504  503  0.00000000000E+00  0.00000000000E+00  0.25143767493E+03  0.25143767493E+03  0.00000000000E+00 0. -1.
         21   -1    0    0  503  504 -0.00000000000E+00 -0.00000000000E+00 -0.10773506785E+03  0.10773506785E+03  0.00000000000E+00 0. -1.
         25    2    1    2    0    0 -0.78009384007E+02 -0.63860866437E+02  0.11122042518E+03  0.19534176906E+03  0.12499899803E+03 0.  0.
         25    2    1    2    0    0  0.78009384007E+02  0.63860866437E+02  0.32482181900E+02  0.16383097372E+03  0.12498728556E+03 0.  0.
          5    1    3    3  501    0 -0.59357884982E+02 -0.42556084498E+02 -0.71544006242E+01  0.73536754658E+02  0.47000000000E+01 0.  1.
         -5    1    3    3    0  501 -0.18651499025E+02 -0.21304781939E+02  0.11837482581E+03  0.12180501440E+03  0.47000000000E+01 0.  1.
          5    1    4    4  502    0  0.89491074000E+02  0.98839306485E+01  0.53217176757E+02  0.10469241765E+03  0.47000000000E+01 0. -1.
         -5    1    4    4    0  502 -0.11481689993E+02  0.53976935788E+02 -0.20734994857E+02  0.59138556069E+02  0.47000000000E+01 0. -1.
<mgrwt>
<rscale>  0 0.32917263E+03</rscale>
<asrwt>0</asrwt>
<pdfrwt beam="1">  1       21 0.38682719E-01 0.32917263E+03</pdfrwt>
<pdfrwt beam="2">  1       21 0.16574626E-01 0.32917263E+03</pdfrwt>
<totfact> 0.20339384E+05</totfact>
</mgrwt>
</event>
<event>
 8    1  0.9478272E-006  0.4191386E+03  0.7546771E-02  0.1037347E+00
         21   -1    0    0  504  503  0.00000000000E+00  0.00000000000E+00  0.21180818976E+03  0.21180818976E+03  0.00000000000E+00 0. -1.
         21   -1    0    0  503  504 -0.00000000000E+00 -0.00000000000E+00 -0.20735409757E+03  0.20735409757E+03  0.00000000000E+00 0. -1.
         25    2    1    2    0    0  0.46765607270E+02  0.13064783340E+03 -0.92847132617E+02  0.20857248404E+03  0.12500405060E+03 0.  0.
         25    2    1    2    0    0 -0.46765607270E+02 -0.13064783340E+03  0.97301224806E+02  0.21058980330E+03  0.12499863404E+03 0.  0.
          5    1    3    3  501    0 -0.15003770785E+02 -0.17101224439E+02  0.33773621616E+00  0.23232930957E+02  0.47000000000E+01 0. -1.
         -5    1    3    3    0  501  0.61769378055E+02  0.14774905784E+03 -0.93184868833E+02  0.18533955308E+03  0.47000000000E+01 0. -1.
          5    1    4    4  502    0 -0.44362416028E+02 -0.79378335019E+02 -0.99500053858E+01  0.91597143151E+02  0.47000000000E+01 0. -1.
         -5    1    4    4    0  502 -0.24031912419E+01 -0.51269498377E+02  0.10725123019E+03  0.11899266015E+03  0.47000000000E+01 0. -1.
<mgrwt>
<rscale>  0 0.41913862E+03</rscale>
<asrwt>0</asrwt>
<pdfrwt beam="1">  1       21 0.32585875E-01 0.41913862E+03</pdfrwt>
<pdfrwt beam="2">  1       21 0.31900630E-01 0.41913862E+03</pdfrwt>
<totfact> 0.80092052E+04</totfact>
</mgrwt>
</event>
<event>
 8    1  0.9478272E-006  0.4583649E+03  0.7546771E-02  0.1025257E+00
         21   -1    0    0  504  503  0.00000000000E+00  0.00000000000E+00  0.45402517638E+03  0.45402517638E+03  0.00000000000E+00 0. -1.
         21   -1    0    0  503  504 -0.00000000000E+00 -0.00000000000E+00 -0.11568652032E+03  0.11568652032E+03  0.00000000000E+00 0. -1.
         25    2    1    2    0    0  0.10766491716E+03 -0.13048396928E+03  0.56058458073E+02  0.21768233338E+03  0.12500098765E+03 0.  0.
         25    2    1    2    0    0 -0.10766491716E+03  0.13048396928E+03  0.28228019799E+03  0.35202936332E+03  0.12499904733E+03 0.  0.
          5    1    3    3  501    0  0.92072281674E+02 -0.14811111149E+03  0.72147305527E+02  0.18878964509E+03  0.47000000000E+01 0. -1.
         -5    1    3    3    0  501  0.15592635489E+02  0.17627142206E+02 -0.16088847454E+02  0.28892688284E+02  0.47000000000E+01 0. -1.
          5    1    4    4  502    0 -0.77131878211E+02  0.69708282576E+02  0.61324422524E+02  0.12079464431E+03  0.47000000000E+01 0. -1.
         -5    1    4    4    0  502 -0.30533038953E+02  0.60775686708E+02  0.22095577547E+03  0.23123471901E+03  0.47000000000E+01 0. -1.
<mgrwt>
<rscale>  0 0.45836489E+03</rscale>
<asrwt>0</asrwt>
<pdfrwt beam="1">  1       21 0.69850026E-01 0.45836489E+03</pdfrwt>
<pdfrwt beam="2">  1       21 0.17797926E-01 0.45836489E+03</pdfrwt>
<totfact> 0.48984619E+04</totfact>
</mgrwt>
</event>
<event>
 8    1  0.9478272E-006  0.3051792E+03  0.7546771E-02  0.1082680E+00
         21   -1    0    0  504  503  0.00000000000E+00  0.00000000000E+00  0.14182649406E+03  0.14182649406E+03  0.00000000000E+00 0.  1.
         21   -1    0    0  503  504 -0.00000000000E+00 -0.00000000000E+00 -0.16416953478E+03  0.16416953478E+03  0.00000000000E+00 0.  1.
         25    2    1    2    0    0 -0.58553000550E+02  0.41502098445E+02 -0.61338051274E+02  0.15667743267E+03  0.12503832742E+03 0.  0.
         25    2    1    2    0    0  0.58553000550E+02 -0.41502098445E+02  0.38995010551E+02  0.14931859617E+03  0.12499821705E+03 0.  0.
          5    1    3    3  501    0 -0.52375068398E+02 -0.48162279521E+01 -0.88033388217E+02  0.10265627736E+03  0.47000000000E+01 0. -1.
         -5    1    3    3    0  501 -0.61779321516E+01  0.46318326397E+02  0.26695336942E+02  0.54021155304E+02  0.47000000000E+01 0. -1.
          5    1    4    4  502    0 -0.18189995560E+02  0.31400257156E+02  0.52142498161E+00  0.36595272535E+02  0.47000000000E+01 0.  1.
         -5    1    4    4    0  502  0.76742996110E+02 -0.72902355600E+02  0.38473585570E+02  0.11272332363E+03  0.47000000000E+01 0.  1.
<mgrwt>
<rscale>  0 0.30517922E+03</rscale>
<asrwt>0</asrwt>
<pdfrwt beam="1">  1       21 0.21819461E-01 0.30517922E+03</pdfrwt>
<pdfrwt beam="2">  1       21 0.25256851E-01 0.30517922E+03</pdfrwt>
<totfact> 0.28368366E+05</totfact>
</mgrwt>
</event>
<event>
 8    1  0.9478272E-006  0.4031529E+03  0.7546771E-02  0.1042693E+00
         21   -1    0    0  504  503  0.00000000000E+00  0.00000000000E+00  0.84244539020E+02  0.84244539020E+02  0.00000000000E+00 0. -1.
         21   -1    0    0  503  504 -0.00000000000E+00 -0.00000000000E+00 -0.48232294054E+03  0.48232294054E+03  0.00000000000E+00 0. -1.
         25    2    1    2    0    0 -0.12168155345E+03 -0.10009456931E+03 -0.21802931306E+03  0.29662635464E+03  0.12500035863E+03 0.  0.
         25    2    1    2    0    0  0.12168155345E+03  0.10009456931E+03 -0.18004908846E+03  0.26994112492E+03  0.12500085365E+03 0.  0.
          5    1    3    3  501    0 -0.43266111487E+01 -0.61469729637E+02 -0.23472009385E+02  0.66108036200E+02  0.47000000000E+01 0.  1.
         -5    1    3    3    0  501 -0.11735494230E+03 -0.38624839675E+02 -0.19455730367E+03  0.23051831844E+03  0.47000000000E+01 0.  1.
          5    1    4    4  502    0  0.20022680013E+02  0.95705975332E+02 -0.10398424442E+03  0.14281230520E+03  0.47000000000E+01 0.  1.
         -5    1    4    4    0  502  0.10165887344E+03  0.43885939794E+01 -0.76064844045E+02  0.12712881973E+03  0.47000000000E+01 0.  1.
<mgrwt>
<rscale>  0 0.40315294E+03</rscale>
<asrwt>0</asrwt>
<pdfrwt beam="1">  1       21 0.12960698E-01 0.40315294E+03</pdfrwt>
<pdfrwt beam="2">  1       21 0.74203529E-01 0.40315294E+03</pdfrwt>
<totfact> 0.77902594E+04</totfact>
</mgrwt>
</event>
<event>
 8    1  0.9478272E-006  0.2871064E+03  0.7546771E-02  0.1091870E+00
         21   -1    0    0  504  503  0.00000000000E+00  0.00000000000E+00  0.59452427433E+02  0.59452427433E+02  0.00000000000E+00 0. -1.
         21   -1    0    0  503  504 -0.00000000000E+00 -0.00000000000E+00 -0.34662201585E+03  0.34662201585E+03  0.00000000000E+00 0. -1.
         25    2    1    2    0    0 -0.49748066259E+02  0.49994421606E+02 -0.14758662853E+03  0.20586762743E+03  0.12500141926E+03 0.  0.
         25    2    1    2    0    0  0.49748066259E+02 -0.49994421606E+02 -0.13958295989E+03  0.20020681585E+03  0.12500021653E+03 0.  0.
          5    1    3    3  501    0 -0.11016688685E+02  0.79007584744E+02 -0.43495131936E+02  0.90980670357E+02  0.47000000000E+01 0.  1.
         -5    1    3    3    0  501 -0.38731377575E+02 -0.29013163138E+02 -0.10409149659E+03  0.11488695708E+03  0.47000000000E+01 0.  1.
          5    1    4    4  502    0  0.63864959071E+02 -0.26813911093E+01 -0.14590221655E+02  0.65733457412E+02  0.47000000000E+01 0.  1.
         -5    1    4    4    0  502 -0.14116892812E+02 -0.47313030497E+02 -0.12499273824E+03  0.13447335844E+03  0.47000000000E+01 0.  1.
<mgrwt>
<rscale>  0 0.28710639E+03</rscale>
<asrwt>0</asrwt>
<pdfrwt beam="1">  1       21 0.91465273E-02 0.28710639E+03</pdfrwt>
<pdfrwt beam="2">  1       21 0.53326464E-01 0.28710639E+03</pdfrwt>
<totfact> 0.30908184E+05</totfact>
</mgrwt>
</event>
<event>
 8    1  0.9478272E-006  0.4969638E+03  0.7546771E-02  0.1014574E+00
         21   -1    0    0  504  503  0.00000000000E+00  0.00000000000E+00  0.36069817294E+03  0.36069817294E+03  0.00000000000E+00 0. -1.
         21   -1    0    0  503  504 -0.00000000000E+00 -0.00000000000E+00 -0.17117707656E+03  0.17117707656E+03  0.00000000000E+00 0. -1.
         25    2    1    2    0    0 -0.47219341995E+02 -0.18744399527E+03 -0.53756781437E+01  0.23025445719E+03  0.12499319790E+03 0.  0.
         25    2    1    2    0    0  0.47219341995E+02  0.18744399527E+03  0.19489677451E+03  0.30162079231E+03  0.12500172804E+03 0.  0.
          5    1    3    3  501    0  0.25281736925E+00 -0.63345977866E+02 -0.59191450631E+02  0.86824504929E+02  0.47000000000E+01 0. -1.
         -5    1    3    3    0  501 -0.47472159365E+02 -0.12409801740E+03  0.53815772488E+02  0.14342995226E+03  0.47000000000E+01 0. -1.
          5    1    4    4  502    0  0.50046156808E+02  0.16278734036E+02  0.19058684159E+02  0.56168838647E+02  0.47000000000E+01 0.  1.
         -5    1    4    4    0  502 -0.28268148123E+01  0.17116526123E+03  0.17583809036E+03  0.24545195366E+03  0.47000000000E+01 0.  1.
<mgrwt>
<rscale>  0 0.49696382E+03</rscale>
<asrwt>0</asrwt>
<pdfrwt beam="1">  1       21 0.55492027E-01 0.49696382E+03</pdfrwt>
<pdfrwt beam="2">  1       21 0.26334935E-01 0.49696382E+03</pdfrwt>
<totfact> 0.38054111E+04</totfact>
</mgrwt>
</event>
<event>
 8    1  0.9478272E-006  0.2683320E+03  0.7546771E-02  0.1102238E+00
         21   -1    0    0  504  503  0.00000000000E+00  0.00000000000E+00  0.13272417789E+04  0.13272417789E+04  0.00000000000E+00 0.  1.
         21   -1    0    0  503  504 -0.00000000000E+00 -0.00000000000E+00 -0.13562345719E+02  0.13562345719E+02  0.00000000000E+00 0.  1.
         25    2    1    2    0    0 -0.32942836751E+02  0.28663372831E+02  0.54811239084E+03  0.56387143790E+03  0.12496794008E+03 0.  0.
         25    2    1    2    0    0  0.32942836751E+02 -0.28663372831E+02  0.76556704230E+03  0.77693268669E+03  0.12499873577E+03 0.  0.
          5    1    3    3  501    0  0.41250971835E+02  0.27966492633E+01  0.31706095503E+03  0.31977992921E+03  0.47000000000E+01 0. -1.
         -5    1    3    3    0  501 -0.74193808586E+02  0.25866723568E+02  0.23105143582E+03  0.24409150869E+03  0.47000000000E+01 0. -1.
          5    1    4    4  502    0  0.74198573550E+02 -0.23649879626E+02  0.63636784504E+03  0.64113248968E+03  0.47000000000E+01 0. -1.
         -5    1    4    4    0  502 -0.41255736800E+02 -0.50134932055E+01  0.12919919726E+03  0.13580019700E+03  0.47000000000E+01 0. -1.
<mgrwt>
<rscale>  0 0.26833197E+03</rscale>
<asrwt>0</asrwt>
<pdfrwt beam="1">  1       21 0.20419094E+00 0.26833197E+03</pdfrwt>
<pdfrwt beam="2">  1       21 0.20865158E-02 0.26833197E+03</pdfrwt>
<totfact> 0.13978950E+05</totfact>
</mgrwt>
</event>
<event>
 8    1  0.9478272E-006  0.2691152E+03  0.7546771E-02  0.1101787E+00
         21   -1    0    0  504  503  0.00000000000E+00  0.00000000000E+00  0.91728600919E+03  0.91728600919E+03  0.00000000000E+00 0. -1.
         21   -1    0    0  503  504 -0.00000000000E+00 -0.00000000000E+00 -0.19738383367E+02  0.19738383367E+02  0.00000000000E+00 0. -1.
         25    2    1    2    0    0 -0.14577082409E+01  0.35750418272E+02  0.32811972979E+03  0.35294133813E+03  0.12499925505E+03 0.  0.
         25    2    1    2    0    0  0.14577082409E+01 -0.35750418272E+02  0.56942789603E+03  0.58408305443E+03  0.12499867346E+03 0.  0.
          5    1    3    3  501    0 -0.10998624669E+02 -0.39115788009E+02  0.49350326622E+02  0.64098044852E+02  0.47000000000E+01 0. -1.
         -5    1    3    3    0  501  0.95409164285E+01  0.74866206281E+02  0.27876940317E+03  0.28884329328E+03  0.47000000000E+01 0. -1.
          5    1    4    4  502    0  0.34566782237E+02  0.34455405029E+02  0.16032949459E+03  0.16765939940E+03  0.47000000000E+01 0.  1.
         -5    1    4    4    0  502 -0.33109073996E+02 -0.70205823301E+02  0.40909840144E+03  0.41642365503E+03  0.47000000000E+01 0.  1.
<mgrwt>
<rscale>  0 0.26911516E+03</rscale>
<asrwt>0</asrwt>
<pdfrwt beam="1">  1       21 0.14112089E+00 0.26911516E+03</pdfrwt>
<pdfrwt beam="2">  1       21 0.30366751E-02 0.26911516E+03</pdfrwt>
<totfact> 0.21159690E+05</totfact>
</mgrwt>
</event>
<event>
 8    1  0.9478272E-006  0.3435145E+03  0.7546771E-02  0.1065309E+00
         21   -1    0    0  504  503  0.00000000000E+00  0.00000000000E+00  0.21467390336E+03  0.21467390336E+03  0.00000000000E+00 0. -1.
         21   -1    0    0  503  504 -0.00000000000E+00 -0.00000000000E+00 -0.13742028428E+03  0.13742028428E+03  0.00000000000E+00 0. -1.
         25    2    1    2    0    0  0.67924591358E+02  0.63107258509E+02 -0.35839546602E+02  0.15970686831E+03  0.12500213797E+03 0.  0.
         25    2    1    2    0    0 -0.67924591358E+02 -0.63107258509E+02  0.11309316568E+03  0.19238731932E+03  0.12500616114E+03 0.  0.
          5    1    3    3  501    0  0.62940019404E+02 -0.23781426737E+02 -0.24755485819E+02  0.71846547435E+02  0.47000000000E+01 0.  1.
         -5    1    3    3    0  501  0.49845719543E+01  0.86888685247E+02 -0.11084060783E+02  0.87860320879E+02  0.47000000000E+01 0.  1.
          5    1    4    4  502    0 -0.22344276193E+02 -0.95640303895E+02  0.60694337891E+02  0.11555183711E+03  0.47000000000E+01 0. -1.
         -5    1    4    4    0  502 -0.45580315165E+02  0.32533045386E+02  0.52398827789E+02  0.76835482209E+02  0.47000000000E+01 0. -1.
<mgrwt>
<rscale>  0 0.34351448E+03</rscale>
<asrwt>0</asrwt>
<pdfrwt beam="1">  1       21 0.33026754E-01 0.34351448E+03</pdfrwt>
<pdfrwt beam="2">  1       21 0.21141582E-01 0.34351448E+03</pdfrwt>
<totfact> 0.17652286E+05</totfact>
</mgrwt>
</event>
<event>
 8    1  0.9478272E-006  0.2709542E+03  0.7546771E-02  0.1100735E+00
         21   -1    0    0  504  503  0.00000000000E+00  0.00000000000E+00  0.16000061284E+03  0.16000061284E+03  0.00000000000E+00 0.  1.
         21   -1    0    0  503  504 -0.00000000000E+00 -0.00000000000E+00 -0.11471234520E+03  0.11471234520E+03  0.00000000000E+00 0.  1.
         25    2    1    2    0    0 -0.44490872837E+02 -0.11519645020E+02 -0.25191612498E+01  0.13320916474E+03  0.12500478155E+03 0.  0.
         25    2    1    2    0    0  0.44490872837E+02  0.11519645020E+02  0.47807428885E+02  0.14150379330E+03  0.12500253307E+03 0.  0.
          5    1    3    3  501    0 -0.46947952605E+02  0.43428432463E+01  0.55414346228E+02  0.72909603683E+02  0.47000000000E+01 0.  1.
         -5    1    3    3    0  501  0.24570797678E+01 -0.15862488267E+02 -0.57933507478E+02  0.60299561058E+02  0.47000000000E+01 0.  1.
          5    1    4    4  502    0  0.28961706900E+02 -0.26284223013E+02 -0.32633727359E+02  0.51153602095E+02  0.47000000000E+01 0.  1.
         -5    1    4    4    0  502  0.15529165937E+02  0.37803868034E+02  0.80441156244E+02  0.90350191205E+02  0.47000000000E+01 0.  1.
<mgrwt>
<rscale>  0 0.27095421E+03</rscale>
<asrwt>0</asrwt>
<pdfrwt beam="1">  1       21 0.24615479E-01 0.27095421E+03</pdfrwt>
<pdfrwt beam="2">  1       21 0.17648053E-01 0.27095421E+03</pdfrwt>
<totfact> 0.44722276E+05</totfact>
</mgrwt>
</event>
<event>
 8    1  0.9478272E-006  0.3944602E+03  0.7546771E-02  0.1045715E+00
         21   -1    0    0  504  503  0.00000000000E+00  0.00000000000E+00  0.83838003031E+02  0.83838003031E+02  0.00000000000E+00 0. -1.
         21   -1    0    0  503  504 -0.00000000000E+00 -0.00000000000E+00 -0.46398660582E+03  0.46398660582E+03  0.00000000000E+00 0. -1.
         25    2    1    2    0    0  0.42144144749E+02  0.80865814054E+02 -0.20217481398E+02  0.15604574150E+03  0.12500447219E+03 0.  0.
         25    2    1    2    0    0 -0.42144144749E+02 -0.80865814054E+02 -0.35993112140E+03  0.39177886735E+03  0.12499943974E+03 0.  0.
          5    1    3    3  501    0 -0.24828198351E+02  0.81483377621E+02 -0.24527932366E+02  0.88767616437E+02  0.47000000000E+01 0. -1.
         -5    1    3    3    0  501  0.66972343099E+02 -0.61756356648E+00  0.43104509681E+01  0.67278125067E+02  0.47000000000E+01 0. -1.
          5    1    4    4  502    0 -0.48887334567E+02  0.17248212111E+02 -0.84139979956E+02  0.98939873302E+02  0.47000000000E+01 0. -1.
         -5    1    4    4    0  502  0.67431898187E+01 -0.98114026165E+02 -0.27579114144E+03  0.29283899405E+03  0.47000000000E+01 0. -1.
<mgrwt>
<rscale>  0 0.39446019E+03</rscale>
<asrwt>0</asrwt>
<pdfrwt beam="1">  1       21 0.12898154E-01 0.39446019E+03</pdfrwt>
<pdfrwt beam="2">  1       21 0.71382554E-01 0.39446019E+03</pdfrwt>
<totfact> 0.85963398E+04</totfact>
</mgrwt>
</event>
<event>
 8    1  0.9478272E-006  0.2940650E+03  0.7546771E-02  0.1088246E+00
         21   -1    0    0  504  503  0.00000000000E+00  0.00000000000E+00  0.37556215180E+02  0.37556215180E+02  0.00000000000E+00 0.  1.
         21   -1    0    0  503  504 -0.00000000000E+00 -0.00000000000E+00 -0.57563181360E+03  0.57563181360E+03  0.00000000000E+00 0.  1.
         25    2    1    2    0    0  0.35590539822E+02  0.30795025875E+02 -0.39721067834E+03  0.41906723906E+03  0.12500403082E+03 0.  0.
         25    2    1    2    0    0 -0.35590539822E+02 -0.30795025875E+02 -0.14086492009E+03  0.19412078973E+03  0.12499974060E+03 0.  0.
          5    1    3    3  501    0  0.48437960112E+02 -0.34949877286E+02 -0.12388314168E+03  0.13761123753E+03  0.47000000000E+01 0.  1.
         -5    1    3    3    0  501 -0.12847420290E+02  0.65744903161E+02 -0.27332753666E+03  0.28145600153E+03  0.47000000000E+01 0.  1.
          5    1    4    4  502    0 -0.15157271914E+02 -0.12930559828E+02 -0.15953593275E+03  0.16084385630E+03  0.47000000000E+01 0.  1.
         -5    1    4    4    0  502 -0.20433267908E+02 -0.17864466047E+02  0.18671012666E+02  0.33276933430E+02  0.47000000000E+01 0.  1.
<mgrwt>
<rscale>  0 0.29406497E+03</rscale>
<asrwt>0</asrwt>
<pdfrwt beam="1">  1       21 0.57778798E-02 0.29406497E+03</pdfrwt>
<pdfrwt beam="2">  1       21 0.88558732E-01 0.29406497E+03</pdfrwt>
<totfact> 0.22283224E+05</totfact>
</mgrwt>
</event>
<event>
 8    1  0.9478272E-006  0.2799296E+03  0.7546771E-02  0.1095727E+00
         21   -1    0    0  504  503  0.00000000000E+00  0.00000000000E+00  0.70048373693E+02  0.70048373693E+02  0.00000000000E+00 0.  1.
         21   -1    0    0  503  504 -0.00000000000E+00 -0.00000000000E+00 -0.27966591499E+03  0.27966591499E+03  0.00000000000E+00 0.  1.
         25    2    1    2    0    0 -0.16608097790E+02 -0.21174849258E+02 -0.33690938797E+02  0.13223088732E+03  0.12500290017E+03 0.  0.
         25    2    1    2    0    0  0.16608097790E+02  0.21174849258E+02 -0.17592660250E+03  0.21748340137E+03  0.12499862899E+03 0.  0.
          5    1    3    3  501    0  0.43721999552E+02  0.18296550430E+02 -0.36379388956E+02  0.59932686769E+02  0.47000000000E+01 0.  1.
         -5    1    3    3    0  501 -0.60330097342E+02 -0.39471399688E+02  0.26884501591E+01  0.72298200551E+02  0.47000000000E+01 0.  1.
          5    1    4    4  502    0  0.47619850420E+02  0.59754168825E+02 -0.12290246662E+03  0.14479405080E+03  0.47000000000E+01 0.  1.
         -5    1    4    4    0  502 -0.31011752630E+02 -0.38579319568E+02 -0.53024135882E+02  0.72689350565E+02  0.47000000000E+01 0.  1.
<mgrwt>
<rscale>  0 0.27992958E+03</rscale>
<asrwt>0</asrwt>
<pdfrwt beam="1">  1       21 0.10776673E-01 0.27992958E+03</pdfrwt>
<pdfrwt beam="2">  1       21 0.43025526E-01 0.27992958E+03</pdfrwt>
<totfact> 0.36211076E+05</totfact>
</mgrwt>
</event>
<event>
 8    1  0.9478272E-006  0.2849445E+03  0.7546771E-02  0.1093019E+00
         21   -1    0    0  504  503  0.00000000000E+00  0.00000000000E+00  0.18590501008E+02  0.18590501008E+02  0.00000000000E+00 0. -1.
         21   -1    0    0  503  504 -0.00000000000E+00 -0.00000000000E+00 -0.10918666446E+04  0.10918666446E+04  0.00000000000E+00 0. -1.
         25    2    1    2    0    0 -0.29212596159E+02  0.60987969788E+02 -0.49695184198E+03  0.51686823060E+03  0.12497490275E+03 0.  0.
         25    2    1    2    0    0  0.29212596159E+02 -0.60987969788E+02 -0.57632430165E+03  0.59358891506E+03  0.12500076467E+03 0.  0.
          5    1    3    3  501    0 -0.54481806367E+02  0.72758011273E+02 -0.21458346488E+03  0.23308828548E+03  0.47000000000E+01 0. -1.
         -5    1    3    3    0  501  0.25269210209E+02 -0.11770041485E+02 -0.28236837710E+03  0.28377994512E+03  0.47000000000E+01 0. -1.
          5    1    4    4  502    0  0.27745227662E+02 -0.40828102995E+01 -0.48527085187E+03  0.48610323664E+03  0.47000000000E+01 0.  1.
         -5    1    4    4    0  502  0.14673684968E+01 -0.56905159489E+02 -0.91053449779E+02  0.10748567841E+03  0.47000000000E+01 0.  1.
<mgrwt>
<rscale>  0 0.28494454E+03</rscale>
<asrwt>0</asrwt>
<pdfrwt beam="1">  1       21 0.28600774E-02 0.28494454E+03</pdfrwt>
<pdfrwt beam="2">  1       21 0.16797946E+00 0.28494454E+03</pdfrwt>
<totfact> 0.14536089E+05</totfact>
</mgrwt>
</event>
<event>
 8    1  0.9478272E-006  0.2620992E+03  0.7546771E-02  0.1105889E+00
         21   -1    0    0  504  503  0.00000000000E+00  0.00000000000E+00  0.19762236611E+02  0.19762236611E+02  0.00000000000E+00 0.  1.
         21   -1    0    0  503  504 -0.00000000000E+00 -0.00000000000E+00 -0.86903091470E+03  0.86903091470E+03  0.00000000000E+00 0.  1.
         25    2    1    2    0    0 -0.10446641809E+02  0.31486435946E+02 -0.35278931308E+03  0.37574669677E+03  0.12499901096E+03 0.  0.
         25    2    1    2    0    0  0.10446641809E+02 -0.31486435946E+02 -0.49647936501E+03  0.51304645453E+03  0.12499750661E+03 0.  0.
          5    1    3    3  501    0  0.17014523685E+02  0.19147643311E+01  0.26858272076E+01  0.17957282825E+02  0.47000000000E+01 0. -1.
         -5    1    3    3    0  501 -0.27461165494E+02  0.29571671614E+02 -0.35547514029E+03  0.35778941395E+03  0.47000000000E+01 0. -1.
          5    1    4    4  502    0  0.20120645356E+02 -0.78035249766E+02 -0.33906017238E+03  0.34853727357E+03  0.47000000000E+01 0.  1.
         -5    1    4    4    0  502 -0.96740035475E+01  0.46548813820E+02 -0.15741919263E+03  0.16450918096E+03  0.47000000000E+01 0.  1.
<mgrwt>
<rscale>  0 0.26209918E+03</rscale>
<asrwt>0</asrwt>
<pdfrwt beam="1">  1       21 0.30403446E-02 0.26209918E+03</pdfrwt>
<pdfrwt beam="2">  1       21 0.13369704E+00 0.26209918E+03</pdfrwt>
<totfact> 0.24347078E+05</totfact>
</mgrwt>
</event>
<event>
 8    1  0.9478272E-006  0.4220566E+03  0.7546771E-02  0.1036399E+00
         21   -1    0    0  504  503  0.00000000000E+00  0.00000000000E+00  0.13581387889E+03  0.13581387889E+03  0.00000000000E+00 0.  1.
         21   -1    0    0  503  504 -0.00000000000E+00 -0.00000000000E+00 -0.32789688722E+03  0.32789688722E+03  0.00000000000E+00 0.  1.
         25    2    1    2    0    0  0.53725509864E+02  0.13285764852E+03 -0.19655497961E+03  0.27349004454E+03  0.12500143708E+03 0.  0.
         25    2    1    2    0    0 -0.53725509864E+02 -0.13285764852E+03  0.44719712837E+01  0.19022072158E+03  0.12500535673E+03 0.  0.
          5    1    3    3  501    0 -0.19769446194E+02  0.18716783971E+02 -0.10766609263E+03  0.11115406654E+03  0.47000000000E+01 0. -1.
         -5    1    3    3    0  501  0.73494956058E+02  0.11414086454E+03 -0.88888886978E+02  0.16233597800E+03  0.47000000000E+01 0. -1.
          5    1    4    4  502    0 -0.34861810750E+02 -0.15575071397E+03  0.85971481226E+01  0.15990507093E+03  0.47000000000E+01 0. -1.
         -5    1    4    4    0  502 -0.18863699114E+02  0.22893065459E+02 -0.41251768388E+01  0.30315650649E+02  0.47000000000E+01 0. -1.
<mgrwt>
<rscale>  0 0.42205662E+03</rscale>
<asrwt>0</asrwt>
<pdfrwt beam="1">  1       21 0.20894443E-01 0.42205662E+03</pdfrwt>
<pdfrwt beam="2">  1       21 0.50445675E-01 0.42205662E+03</pdfrwt>
<totfact> 0.74218760E+04</totfact>
</mgrwt>
</event>
<event>
 8    1  0.9478272E-006  0.2937833E+03  0.7546771E-02  0.1088390E+00
         21   -1    0    0  504  503  0.00000000000E+00  0.00000000000E+00  0.10359707748E+03  0.10359707748E+03  0.00000000000E+00 0. -1.
         21   -1    0    0  503  504 -0.00000000000E+00 -0.00000000000E+00 -0.20827958222E+03  0.20827958222E+03  0.00000000000E+00 0. -1.
         25    2    1    2    0    0  0.40661416010E+02  0.49747528301E+02 -0.97678628442E+02  0.17115638355E+03  0.12500090341E+03 0.  0.
         25    2    1    2    0    0 -0.40661416010E+02 -0.49747528301E+02 -0.70038763037E+01  0.14072027614E+03  0.12499989804E+03 0.  0.
          5    1    3    3  501    0  0.72530882328E+01  0.58187146860E+02 -0.11730149670E+03  0.13122531188E+03  0.47000000000E+01 0.  1.
         -5    1    3    3    0  501  0.33408327777E+02 -0.84396185591E+01  0.19622868263E+02  0.39931071676E+02  0.47000000000E+01 0.  1.
          5    1    4    4  502    0 -0.28110399932E+02 -0.78338193719E+02 -0.42201217484E+02  0.93435003808E+02  0.47000000000E+01 0. -1.
         -5    1    4    4    0  502 -0.12551016078E+02  0.28590665419E+02  0.35197341180E+02  0.47285272335E+02  0.47000000000E+01 0. -1.
<mgrwt>
<rscale>  0 0.29378329E+03</rscale>
<asrwt>0</asrwt>
<pdfrwt beam="1">  1       21 0.15938012E-01 0.29378329E+03</pdfrwt>
<pdfrwt beam="2">  1       21 0.32043012E-01 0.29378329E+03</pdfrwt>
<totfact> 0.32152474E+05</totfact>
</mgrwt>
</event>
<event>
 8    1  0.9478272E-006  0.2961008E+03  0.7546771E-02  0.1087206E+00
         21   -1    0    0  504  503  0.00000000000E+00  0.00000000000E+00  0.15824061016E+03  0.15824061016E+03  0.00000000000E+00 0.  1.
         21   -1    0    0  503  504 -0.00000000000E+00 -0.00000000000E+00 -0.13851640602E+03  0.13851640602E+03  0.00000000000E+00 0.  1.
         25    2    1    2    0    0  0.23417269344E+02 -0.27712319238E+02  0.80580785737E+02  0.15308149408E+03  0.12499735861E+03 0.  0.
         25    2    1    2    0    0 -0.23417269344E+02  0.27712319238E+02 -0.60856581598E+02  0.14367552210E+03  0.12499116363E+03 0.  0.
          5    1    3    3  501    0 -0.33008271361E+02  0.31357656589E+02  0.43869168328E+02  0.63399073612E+02  0.47000000000E+01 0. -1.
         -5    1    3    3    0  501  0.56425540705E+02 -0.59069975827E+02  0.36711617408E+02  0.89682420467E+02  0.47000000000E+01 0. -1.
          5    1    4    4  502    0 -0.37223011211E+02  0.52925941804E+02 -0.84238134070E+02  0.10632432041E+03  0.47000000000E+01 0.  1.
         -5    1    4    4    0  502  0.13805741866E+02 -0.25213622566E+02  0.23381552472E+02  0.37351201686E+02  0.47000000000E+01 0.  1.
<mgrwt>
<rscale>  0 0.29610080E+03</rscale>
<asrwt>0</asrwt>
<pdfrwt beam="1">  1       21 0.24344709E-01 0.29610080E+03</pdfrwt>
<pdfrwt beam="2">  1       21 0.21310216E-01 0.29610080E+03</pdfrwt>
<totfact> 0.31906127E+05</totfact>
</mgrwt>
</event>
<event>
 8    1  0.9478272E-006  0.2669450E+03  0.7546771E-02  0.1103041E+00
         21   -1    0    0  504  503  0.00000000000E+00  0.00000000000E+00  0.26139694477E+04  0.26139694477E+04  0.00000000000E+00 0.  1.
         21   -1    0    0  503  504 -0.00000000000E+00 -0.00000000000E+00 -0.68152727724E+01  0.68152727724E+01  0.00000000000E+00 0.  1.
         25    2    1    2    0    0 -0.25658065579E+02 -0.21567997058E+02  0.16246698611E+04  0.16298137210E+04  0.12496836637E+03 0.  0.
         25    2    1    2    0    0  0.25658065579E+02  0.21567997058E+02  0.98248431379E+03  0.99097099949E+03  0.12499832062E+03 0.  0.
          5    1    3    3  501    0 -0.34895000101E+02  0.47671448867E+02  0.71146189767E+03  0.71392601151E+03  0.47000000000E+01 0. -1.
         -5    1    3    3    0  501  0.92369345214E+01 -0.69239445925E+02  0.91320796346E+03  0.91588770947E+03  0.47000000000E+01 0. -1.
          5    1    4    4  502    0  0.14311356216E+01  0.66694170510E+02  0.34543861404E+03  0.35185236477E+03  0.47000000000E+01 0.  1.
         -5    1    4    4    0  502  0.24226929958E+02 -0.45126173452E+02  0.63704569975E+03  0.63911863472E+03  0.47000000000E+01 0.  1.
<mgrwt>
<rscale>  0 0.26694505E+03</rscale>
<asrwt>0</asrwt>
<pdfrwt beam="1">  1       21 0.40214834E+00 0.26694505E+03</pdfrwt>
<pdfrwt beam="2">  1       21 0.10485056E-02 0.26694505E+03</pdfrwt>
<totfact> 0.27293348E+04</totfact>
</mgrwt>
</event>
<event>
 8    1  0.9478272E-006  0.2900780E+03  0.7546771E-02  0.1090308E+00
         21   -1    0    0  504  503  0.00000000000E+00  0.00000000000E+00  0.12557155993E+04  0.12557155993E+04  0.00000000000E+00 0.  1.
         21   -1    0    0  503  504 -0.00000000000E+00 -0.00000000000E+00 -0.16752452121E+02  0.16752452121E+02  0.00000000000E+00 0.  1.
         25    2    1    2    0    0  0.99912915317E+01 -0.33694867574E+02  0.33597936421E+03  0.36019577872E+03  0.12499478319E+03 0.  0.
         25    2    1    2    0    0 -0.99912915317E+01  0.33694867574E+02  0.90298378302E+03  0.91227227275E+03  0.12500326887E+03 0.  0.
          5    1    3    3  501    0  0.20195097782E+02 -0.86081240449E+01  0.33160315850E+03  0.33236228201E+03  0.47000000000E+01 0. -1.
         -5    1    3    3    0  501 -0.10203806250E+02 -0.25086743529E+02  0.43762057125E+01  0.27833496714E+02  0.47000000000E+01 0. -1.
          5    1    4    4  502    0  0.19553834779E+02  0.69415911904E+02  0.71320812759E+03  0.71686040799E+03  0.47000000000E+01 0.  1.
         -5    1    4    4    0  502 -0.29545126311E+02 -0.35721044330E+02  0.18977565543E+03  0.19541186476E+03  0.47000000000E+01 0.  1.
<mgrwt>
<rscale>  0 0.29007803E+03</rscale>
<asrwt>0</asrwt>
<pdfrwt beam="1">  1       21 0.19318694E+00 0.29007803E+03</pdfrwt>
<pdfrwt beam="2">  1       21 0.25773013E-02 0.29007803E+03</pdfrwt>
<totfact> 0.11546589E+05</totfact>
</mgrwt>
</event>
<event>
 8    1  0.9478272E-006  0.2912624E+03  0.7546771E-02  0.1089692E+00
         21   -1    0    0  504  503  0.00000000000E+00  0.00000000000E+00  0.74679240817E+02  0.74679240817E+02  0.00000000000E+00 0. -1.
         21   -1    0    0  503  504 -0.00000000000E+00 -0.00000000000E+00 -0.28399380129E+03  0.28399380129E+03  0.00000000000E+00 0. -1.
         25    2    1    2    0    0 -0.70262173520E+02  0.25430938213E+02 -0.10501594427E+03  0.17955080319E+03  0.12500654674E+03 0.  0.
         25    2    1    2    0    0  0.70262173520E+02 -0.25430938213E+02 -0.10429861621E+03  0.17912223892E+03  0.12499227771E+03 0.  0.
          5    1    3    3  501    0  0.13946585208E+02  0.47762909966E+02 -0.68915358968E+02  0.85130602659E+02  0.47000000000E+01 0.  1.
         -5    1    3    3    0  501 -0.84208758727E+02 -0.22331971753E+02 -0.36100585300E+02  0.94420200528E+02  0.47000000000E+01 0.  1.
          5    1    4    4  502    0  0.56054990023E+02  0.45970949449E+02 -0.50391550684E+02  0.88413169155E+02  0.47000000000E+01 0.  1.
         -5    1    4    4    0  502  0.14207183497E+02 -0.71401887663E+02 -0.53907065521E+02  0.90709069766E+02  0.47000000000E+01 0.  1.
<mgrwt>
<rscale>  0 0.29126237E+03</rscale>
<asrwt>0</asrwt>
<pdfrwt beam="1">  1       21 0.11489114E-01 0.29126237E+03</pdfrwt>
<pdfrwt beam="2">  1       21 0.43691354E-01 0.29126237E+03</pdfrwt>
<totfact> 0.31203721E+05</totfact>
</mgrwt>
</event>
<event>
 8    1  0.9478272E-006  0.2651541E+03  0.7546771E-02  0.1104085E+00
         21   -1    0    0  504  503  0.00000000000E+00  0.00000000000E+00  0.61499131558E+02  0.61499131558E+02  0.00000000000E+00 0.  1.
         21   -1    0    0  503  504 -0.00000000000E+00 -0.00000000000E+00 -0.28580367499E+03  0.28580367499E+03  0.00000000000E+00 0.  1.
         25    2    1    2    0    0  0.32937703221E+02  0.48431185057E+01 -0.74108864903E+02  0.14907825505E+03  0.12499541664E+03 0.  0.
         25    2    1    2    0    0 -0.32937703221E+02 -0.48431185057E+01 -0.15019567853E+03  0.19822455150E+03  0.12500353146E+03 0.  0.
          5    1    3    3  501    0 -0.36573085833E+02 -0.15846745593E+02 -0.64222775376E+02  0.75732191505E+02  0.47000000000E+01 0.  1.
         -5    1    3    3    0  501  0.69510789054E+02  0.20689864099E+02 -0.98860895271E+01  0.73346063544E+02  0.47000000000E+01 0.  1.
          5    1    4    4  502    0 -0.57555409575E+02 -0.10110425734E+02 -0.16030721426E+03  0.17069076959E+03  0.47000000000E+01 0. -1.
         -5    1    4    4    0  502  0.24617706354E+02  0.52673072279E+01  0.10111535726E+02  0.27533781911E+02  0.47000000000E+01 0. -1.
<mgrwt>
<rscale>  0 0.26515413E+03</rscale>
<asrwt>0</asrwt>
<pdfrwt beam="1">  1       21 0.94614050E-02 0.26515413E+03</pdfrwt>
<pdfrwt beam="2">  1       21 0.43969795E-01 0.26515413E+03</pdfrwt>
<totfact> 0.43785613E+05</totfact>
</mgrwt>
</event>
<event>
 8    1  0.9478272E-006  0.5141773E+03  0.7546771E-02  0.1010143E+00
         21   -1    0    0  504  503  0.00000000000E+00  0.00000000000E+00  0.17960883882E+03  0.17960883882E+03  0.00000000000E+00 0. -1.
         21   -1    0    0  503  504 -0.00000000000E+00 -0.00000000000E+00 -0.36799173564E+03  0.36799173564E+03  0.00000000000E+00 0. -1.
         25    2    1    2    0    0  0.93793175463E+01  0.23330257404E+02  0.14356089144E+03  0.19201197917E+03  0.12500639218E+03 0.  0.
         25    2    1    2    0    0 -0.93793175463E+01 -0.23330257404E+02 -0.33194378826E+03  0.35558859529E+03  0.12499719209E+03 0.  0.
          5    1    3    3  501    0  0.57921908328E+02  0.43963819547E+02  0.98215238456E+02  0.12229508559E+03  0.47000000000E+01 0. -1.
         -5    1    3    3    0  501 -0.48542590782E+02 -0.20633562143E+02  0.45345652981E+02  0.69716893582E+02  0.47000000000E+01 0. -1.
          5    1    4    4  502    0  0.99599424663E+01  0.34462753659E+02 -0.28519142430E+02  0.46068572028E+02  0.47000000000E+01 0. -1.
         -5    1    4    4    0  502 -0.19339260013E+02 -0.57793011063E+02 -0.30342464583E+03  0.30952002327E+03  0.47000000000E+01 0. -1.
<mgrwt>
<rscale>  0 0.51417728E+03</rscale>
<asrwt>0</asrwt>
<pdfrwt beam="1">  1       21 0.27632129E-01 0.51417728E+03</pdfrwt>
<pdfrwt beam="2">  1       21 0.56614113E-01 0.51417728E+03</pdfrwt>
<totfact> 0.33030657E+04</totfact>
</mgrwt>
</event>
<event>
 8    1  0.9478272E-006  0.3599736E+03  0.7546771E-02  0.1058594E+00
         21   -1    0    0  504  503  0.00000000000E+00  0.00000000000E+00  0.65144673511E+03  0.65144673511E+03  0.00000000000E+00 0.  1.
         21   -1    0    0  503  504 -0.00000000000E+00 -0.00000000000E+00 -0.49728167414E+02  0.49728167414E+02  0.00000000000E+00 0.  1.
         25    2    1    2    0    0  0.44578977464E+02  0.90345653355E+02  0.45935015792E+03  0.48659723050E+03  0.12499869934E+03 0.  0.
         25    2    1    2    0    0 -0.44578977464E+02 -0.90345653355E+02  0.14236840978E+03  0.21457767202E+03  0.12500076367E+03 0.  0.
          5    1    3    3  501    0 -0.10793124763E+02 -0.34253115082E+01  0.25239097003E+03  0.25268857523E+03  0.47000000000E+01 0. -1.
         -5    1    3    3    0  501  0.55372102226E+02  0.93770964864E+02  0.20695918789E+03  0.23390865527E+03  0.47000000000E+01 0. -1.
          5    1    4    4  502    0  0.16321091676E+02  0.20516492205E+01  0.90803635766E+02  0.92401177299E+02  0.47000000000E+01 0.  1.
         -5    1    4    4    0  502 -0.60900069140E+02 -0.92397302576E+02  0.51564774011E+02  0.12217649473E+03  0.47000000000E+01 0.  1.
<mgrwt>
<rscale>  0 0.35997362E+03</rscale>
<asrwt>0</asrwt>
<pdfrwt beam="1">  1       21 0.10022257E+00 0.35997362E+03</pdfrwt>
<pdfrwt beam="2">  1       21 0.76504878E-02 0.35997362E+03</pdfrwt>
<totfact> 0.10026986E+05</totfact>
</mgrwt>
</event>
<event>
 8    1  0.9478272E-006  0.2902081E+03  0.7546771E-02  0.1090241E+00
         21   -1    0    0  504  503  0.00000000000E+00  0.00000000000E+00  0.58006515412E+03  0.58006515412E+03  0.00000000000E+00 0. -1.
         21   -1    0    0  503  504 -0.00000000000E+00 -0.00000000000E+00 -0.36297958611E+02  0.36297958611E+02  0.00000000000E+00 0. -1.
         25    2    1    2    0    0 -0.97938018530E+00 -0.62347668695E+02  0.18846350790E+03  0.23458376554E+03  0.12499143278E+03 0.  0.
         25    2    1    2    0    0  0.97938018530E+00  0.62347668695E+02  0.35530368761E+03  0.38177934719E+03  0.12500627398E+03 0.  0.
          5    1    3    3  501    0 -0.44596728514E+02 -0.75090607763E+02  0.15493597680E+03  0.17791771827E+03  0.47000000000E+01 0. -1.
         -5    1    3    3    0  501  0.43617348329E+02  0.12742939069E+02  0.33527531101E+02  0.56666047269E+02  0.47000000000E+01 0. -1.
          5    1    4    4  502    0 -0.32596421152E+02 -0.13793757666E+02  0.32139570212E+02  0.48039945835E+02  0.47000000000E+01 0. -1.
         -5    1    4    4    0  502  0.33575801337E+02  0.76141426361E+02  0.32316411739E+03  0.33373940135E+03  0.47000000000E+01 0. -1.
<mgrwt>
<rscale>  0 0.29020807E+03</rscale>
<asrwt>0</asrwt>
<pdfrwt beam="1">  1       21 0.89240786E-01 0.29020807E+03</pdfrwt>
<pdfrwt beam="2">  1       21 0.55843018E-02 0.29020807E+03</pdfrwt>
<totfact> 0.23231530E+05</totfact>
</mgrwt>
</event>
<event>
 8    1  0.9478272E-006  0.4839436E+03  0.7546771E-02  0.1018057E+00
         21   -1    0    0  504  503  0.00000000000E+00  0.00000000000E+00  0.21434055722E+03  0.21434055722E+03  0.00000000000E+00 0. -1.
         21   -1    0    0  503  504 -0.00000000000E+00 -0.00000000000E+00 -0.27316509707E+03  0.27316509707E+03  0.00000000000E+00 0. -1.
         25    2    1    2    0    0  0.12994362000E+03  0.46076884448E+02  0.12638343707E+03  0.22495707632E+03  0.12499795742E+03 0.  0.
         25    2    1    2    0    0 -0.12994362000E+03 -0.46076884448E+02 -0.18520797692E+03  0.26254857798E+03  0.12498534884E+03 0.  0.
          5    1    3    3  501    0  0.13001966487E+03  0.57155122106E+02  0.54698407177E+02  0.15226892981E+03  0.47000000000E+01 0.  1.
         -5    1    3    3    0  501 -0.76044870638E-01 -0.11078237658E+02  0.71685029889E+02  0.72688146507E+02  0.47000000000E+01 0.  1.
          5    1    4    4  502    0 -0.52976818393E+02 -0.33803239288E+01 -0.16322816176E+03  0.17170757895E+03  0.47000000000E+01 0. -1.
         -5    1    4    4    0  502 -0.76966801611E+02 -0.42696560519E+02 -0.21979815156E+02  0.90840999030E+02  0.47000000000E+01 0. -1.
<mgrwt>
<rscale>  0 0.48394363E+03</rscale>
<asrwt>0</asrwt>
<pdfrwt beam="1">  1       21 0.32975470E-01 0.48394363E+03</pdfrwt>
<pdfrwt beam="2">  1       21 0.42025400E-01 0.48394363E+03</pdfrwt>
<totfact> 0.44016233E+04</totfact>
</mgrwt>
</event>
<event>
 8    1  0.9478272E-006  0.3318769E+03  0.7546771E-02  0.1070309E+00
         21   -1    0    0  504  503  0.00000000000E+00  0.00000000000E+00  0.79099645918E+02  0.79099645918E+02  0.00000000000E+00 0.  1.
         21   -1    0    0  503  504 -0.00000000000E+00 -0.00000000000E+00 -0.34811234149E+03  0.34811234149E+03  0.00000000000E+00 0.  1.
         25    2    1    2    0    0  0.32847945596E+02  0.81152692821E+02 -0.50625180136E+02  0.16078528120E+03  0.12499700278E+03 0.  0.
         25    2    1    2    0    0 -0.32847945596E+02 -0.81152692821E+02 -0.21838751543E+03  0.26642670621E+03  0.12500134319E+03 0.  0.
          5    1    3    3  501    0 -0.15878174195E+02  0.29024131790E+02  0.35559523571E+02  0.48796376489E+02  0.47000000000E+01 0.  1.
         -5    1    3    3    0  501  0.48726119791E+02  0.52128561032E+02 -0.86184703707E+02  0.11198890471E+03  0.47000000000E+01 0.  1.
          5    1    4    4  502    0 -0.64624140027E+02 -0.60708509250E+02 -0.69526748499E+02  0.11277349567E+03  0.47000000000E+01 0.  1.
         -5    1    4    4    0  502  0.31776194431E+02 -0.20444183571E+02 -0.14886076693E+03  0.15365321053E+03  0.47000000000E+01 0.  1.
<mgrwt>
<rscale>  0 0.33187686E+03</rscale>
<asrwt>0</asrwt>
<pdfrwt beam="1">  1       21 0.12169177E-01 0.33187686E+03</pdfrwt>
<pdfrwt beam="2">  1       21 0.53555744E-01 0.33187686E+03</pdfrwt>
<totfact> 0.18190106E+05</totfact>
</mgrwt>
</event>
<event>
 8    1  0.9478272E-006  0.2958829E+03  0.7546771E-02  0.1087317E+00
         21   -1    0    0  504  503  0.00000000000E+00  0.00000000000E+00  0.24656019061E+03  0.24656019061E+03  0.00000000000E+00 0.  1.
         21   -1    0    0  503  504 -0.00000000000E+00 -0.00000000000E+00 -0.88768075980E+02  0.88768075980E+02  0.00000000000E+00 0.  1.
         25    2    1    2    0    0  0.11856051938E+02  0.61464116438E+02  0.24029185255E+02  0.14184687475E+03  0.12499892222E+03 0.  0.
         25    2    1    2    0    0 -0.11856051938E+02 -0.61464116438E+02  0.13376292937E+03  0.19348139183E+03  0.12499649649E+03 0.  0.
          5    1    3    3  501    0  0.55677284565E+02 -0.68216908026E+01 -0.25216638627E+01  0.56346643827E+02  0.47000000000E+01 0. -1.
         -5    1    3    3    0  501 -0.43821232627E+02  0.68285807240E+02  0.26550849118E+02  0.85500230925E+02  0.47000000000E+01 0. -1.
          5    1    4    4  502    0 -0.24536840019E+02  0.34591826193E+02  0.44619957720E+02  0.61738817485E+02  0.47000000000E+01 0. -1.
         -5    1    4    4    0  502  0.12680788081E+02 -0.96055942631E+02  0.89142971653E+02  0.13174257435E+03  0.47000000000E+01 0. -1.
<mgrwt>
<rscale>  0 0.29588291E+03</rscale>
<asrwt>0</asrwt>
<pdfrwt beam="1">  1       21 0.37932337E-01 0.29588291E+03</pdfrwt>
<pdfrwt beam="2">  1       21 0.13656627E-01 0.29588291E+03</pdfrwt>
<totfact> 0.30434846E+05</totfact>
</mgrwt>
</event>
<event>
 8    1  0.9478272E-006  0.3340686E+03  0.7546771E-02  0.1069351E+00
         21   -1    0    0  504  503  0.00000000000E+00  0.00000000000E+00  0.32114008095E+03  0.32114008095E+03  0.00000000000E+00 0.  1.
         21   -1    0    0  503  504 -0.00000000000E+00 -0.00000000000E+00 -0.86879412537E+02  0.86879412537E+02  0.00000000000E+00 0.  1.
         25    2    1    2    0    0 -0.23488861697E+02 -0.21921404117E+02  0.24663911894E+03  0.27836622604E+03  0.12499850490E+03 0.  0.
         25    2    1    2    0    0  0.23488861697E+02  0.21921404117E+02 -0.12378450527E+02  0.12965326744E+03  0.12499787654E+03 0.  0.
          5    1    3    3  501    0 -0.73560345558E+02 -0.17143705836E+02  0.11821775031E+03  0.14036579917E+03  0.47000000000E+01 0.  1.
         -5    1    3    3    0  501  0.50071483860E+02 -0.47776982812E+01  0.12842136862E+03  0.13800042687E+03  0.47000000000E+01 0.  1.
          5    1    4    4  502    0 -0.21999922781E+02 -0.31498837317E+02  0.28724150343E+02  0.48201039072E+02  0.47000000000E+01 0.  1.
         -5    1    4    4    0  502  0.45488784478E+02  0.53420241434E+02 -0.41102600870E+02  0.81452228370E+02  0.47000000000E+01 0.  1.
<mgrwt>
<rscale>  0 0.33406863E+03</rscale>
<asrwt>0</asrwt>
<pdfrwt beam="1">  1       21 0.49406166E-01 0.33406863E+03</pdfrwt>
<pdfrwt beam="2">  1       21 0.13366064E-01 0.33406863E+03</pdfrwt>
<totfact> 0.18189633E+05</totfact>
</mgrwt>
</event>
<event>
 8    1  0.9478272E-006  0.4739511E+03  0.7546771E-02  0.1020811E+00
         21   -1    0    0  504  503  0.00000000000E+00  0.00000000000E+00  0.21641539455E+03  0.21641539455E+03  0.00000000000E+00 0. -1.
         21   -1    0    0  503  504 -0.00000000000E+00 -0.00000000000E+00 -0.25948902749E+03  0.25948902749E+03  0.00000000000E+00 0. -1.
         25    2    1    2    0    0  0.12300138825E+03  0.15108512538E+03 -0.72503858478E+02  0.24256606067E+03  0.12500171067E+03 0.  0.
         25    2    1    2    0    0 -0.12300138825E+03 -0.15108512538E+03  0.29430225543E+02  0.23333836137E+03  0.12499838434E+03 0.  0.
          5    1    3    3  501    0  0.11926722097E+03  0.16172212338E+03 -0.36161907434E+02  0.20422656227E+03  0.47000000000E+01 0. -1.
         -5    1    3    3    0  501  0.37341672829E+01 -0.10636997996E+02 -0.36341951044E+02  0.38339498397E+02  0.47000000000E+01 0. -1.
          5    1    4    4  502    0 -0.14261813797E+03 -0.14780664623E+03  0.10875977264E+02  0.20573554586E+03  0.47000000000E+01 0. -1.
         -5    1    4    4    0  502  0.19616749716E+02 -0.32784791492E+01  0.18554248280E+02  0.27602815512E+02  0.47000000000E+01 0. -1.
<mgrwt>
<rscale>  0 0.47395114E+03</rscale>
<asrwt>0</asrwt>
<pdfrwt beam="1">  1       21 0.33294676E-01 0.47395114E+03</pdfrwt>
<pdfrwt beam="2">  1       21 0.39921389E-01 0.47395114E+03</pdfrwt>
<totfact> 0.48113875E+04</totfact>
</mgrwt>
</event>
<event>
 8    1  0.9478272E-006  0.3164919E+03  0.7546771E-02  0.1077275E+00
         21   -1    0    0  504  503  0.00000000000E+00  0.00000000000E+00  0.68686197322E+02  0.68686197322E+02  0.00000000000E+00 0.  1.
         21   -1    0    0  503  504 -0.00000000000E+00 -0.00000000000E+00 -0.36458237674E+03  0.36458237674E+03  0.00000000000E+00 0.  1.
         25    2    1    2    0    0 -0.92783171659E+02  0.10401008071E+02 -0.18426980152E+03  0.24142118010E+03  0.12494770321E+03 0.  0.
         25    2    1    2    0    0  0.92783171659E+02 -0.10401008071E+02 -0.11162637790E+03  0.19184739396E+03  0.12501230506E+03 0.  0.
          5    1    3    3  501    0 -0.55738270388E+02 -0.55179026918E+02 -0.74977719594E+02  0.10860583885E+03  0.47000000000E+01 0. -1.
         -5    1    3    3    0  501 -0.37044901271E+02  0.65580034989E+02 -0.10929208193E+03  0.13281534125E+03  0.47000000000E+01 0. -1.
          5    1    4    4  502    0  0.65977738105E+01  0.32378793604E+02  0.11689359705E+02  0.35364502327E+02  0.47000000000E+01 0. -1.
         -5    1    4    4    0  502  0.86185397849E+02 -0.42779801675E+02 -0.12331573761E+03  0.15648289164E+03  0.47000000000E+01 0. -1.
<mgrwt>
<rscale>  0 0.31649188E+03</rscale>
<asrwt>0</asrwt>
<pdfrwt beam="1">  1       21 0.10567107E-01 0.31649188E+03</pdfrwt>
<pdfrwt beam="2">  1       21 0.56089598E-01 0.31649188E+03</pdfrwt>
<totfact> 0.21319265E+05</totfact>
</mgrwt>
</event>
<event>
 8    1  0.9478272E-006  0.2572296E+03  0.7546771E-02  0.1108819E+00
         21   -1    0    0  504  503  0.00000000000E+00  0.00000000000E+00  0.53083783532E+02  0.53083783532E+02  0.00000000000E+00 0. -1.
         21   -1    0    0  503  504 -0.00000000000E+00 -0.00000000000E+00 -0.31161628510E+03  0.31161628510E+03  0.00000000000E+00 0. -1.
         25    2    1    2    0    0 -0.13331147643E+02 -0.62950225235E+01 -0.91781725180E+02  0.15577770740E+03  0.12500184894E+03 0.  0.
         25    2    1    2    0    0  0.13331147643E+02  0.62950225235E+01 -0.16675077639E+03  0.20892236124E+03  0.12500153916E+03 0.  0.
          5    1    3    3  501    0  0.47095167702E+02 -0.14516318777E+02 -0.79097747403E+02  0.93312496354E+02  0.47000000000E+01 0.  1.
         -5    1    3    3    0  501 -0.60426315345E+02  0.82212962532E+01 -0.12683977777E+02  0.62465211042E+02  0.47000000000E+01 0.  1.
          5    1    4    4  502    0 -0.77487204991E+01  0.32499676901E+02 -0.17136284096E+03  0.17465275529E+03  0.47000000000E+01 0. -1.
         -5    1    4    4    0  502  0.21079868142E+02 -0.26204654378E+02  0.46120645748E+01  0.34269605945E+02  0.47000000000E+01 0. -1.
<mgrwt>
<rscale>  0 0.25722964E+03</rscale>
<asrwt>0</asrwt>
<pdfrwt beam="1">  1       21 0.81667357E-02 0.25722964E+03</pdfrwt>
<pdfrwt beam="2">  1       21 0.47940968E-01 0.25722964E+03</pdfrwt>
<totfact> 0.47505100E+05</totfact>
</mgrwt>
</event>
<event>
 8    1  0.9478272E-006  0.6493330E+03  0.7546771E-02  0.9808032E-01
         21   -1    0    0  504  503  0.00000000000E+00  0.00000000000E+00  0.62253877711E+02  0.62253877711E+02  0.00000000000E+00 0. -1.
         21   -1    0    0  503  504 -0.00000000000E+00 -0.00000000000E+00 -0.16932012028E+04  0.16932012028E+04  0.00000000000E+00 0. -1.
         25    2    1    2    0    0  0.26196634017E+03  0.14388916407E+03 -0.87299890374E+03  0.93117282893E+03  0.12500118590E+03 0.  0.
         25    2    1    2    0    0 -0.26196634017E+03 -0.14388916407E+03 -0.75794842130E+03  0.82428225154E+03  0.12499986372E+03 0.  0.
          5    1    3    3  501    0  0.14352867896E+03  0.95581896605E+02 -0.31980760443E+03  0.36336672177E+03  0.47000000000E+01 0. -1.
         -5    1    3    3    0  501  0.11843766121E+03  0.48307267465E+02 -0.55319129931E+03  0.56780610715E+03  0.47000000000E+01 0. -1.
          5    1    4    4  502    0 -0.52579176246E+01  0.11033882453E+02 -0.10444424998E+03  0.10526197611E+03  0.47000000000E+01 0.  1.
         -5    1    4    4    0  502 -0.25670842255E+03 -0.15492304652E+03 -0.65350417132E+03  0.71902027543E+03  0.47000000000E+01 0.  1.
<mgrwt>
<rscale>  0 0.64933301E+03</rscale>
<asrwt>0</asrwt>
<pdfrwt beam="1">  1       21 0.95775181E-02 0.64933301E+03</pdfrwt>
<pdfrwt beam="2">  1       21 0.26049253E+00 0.64933301E+03</pdfrwt>
<totfact> 0.39539335E+03</totfact>
</mgrwt>
</event>
<event>
 8    1  0.9478272E-006  0.2813418E+03  0.7546771E-02  0.1094958E+00
         21   -1    0    0  504  503  0.00000000000E+00  0.00000000000E+00  0.30315771654E+03  0.30315771654E+03  0.00000000000E+00 0.  1.
         21   -1    0    0  503  504 -0.00000000000E+00 -0.00000000000E+00 -0.65273946974E+02  0.65273946974E+02  0.00000000000E+00 0.  1.
         25    2    1    2    0    0  0.16065416790E+02 -0.52684696480E+02  0.16296794605E+03  0.21263706943E+03  0.12498878749E+03 0.  0.
         25    2    1    2    0    0 -0.16065416790E+02  0.52684696480E+02  0.74915823517E+02  0.15579459408E+03  0.12500320025E+03 0.  0.
          5    1    3    3  501    0 -0.21639836839E+02 -0.53457361409E+02  0.14872988641E+02  0.59743349575E+02  0.47000000000E+01 0. -1.
         -5    1    3    3    0  501  0.37705253630E+02  0.77266492906E+00  0.14809495741E+03  0.15289371986E+03  0.47000000000E+01 0. -1.
          5    1    4    4  502    0 -0.18530624978E+02  0.24542909154E+02 -0.32284881585E+02  0.44834607512E+02  0.47000000000E+01 0.  1.
         -5    1    4    4    0  502  0.24652081877E+01  0.28141787327E+02  0.10720070510E+03  0.11095998657E+03  0.47000000000E+01 0.  1.
<mgrwt>
<rscale>  0 0.28134179E+03</rscale>
<asrwt>0</asrwt>
<pdfrwt beam="1">  1       21 0.46639648E-01 0.28134179E+03</pdfrwt>
<pdfrwt beam="2">  1       21 0.10042146E-01 0.28134179E+03</pdfrwt>
<totfact> 0.34748392E+05</totfact>
</mgrwt>
</event>
<event>
 8    1  0.9478272E-006  0.2702051E+03  0.7546771E-02  0.1101162E+00
         21   -1    0    0  504  503  0.00000000000E+00  0.00000000000E+00  0.16202131247E+02  0.16202131247E+02  0.00000000000E+00 0. -1.
         21   -1    0    0  503  504 -0.00000000000E+00 -0.00000000000E+00 -0.11265619959E+04  0.11265619959E+04  0.00000000000E+00 0. -1.
         25    2    1    2    0    0 -0.44613414774E+02 -0.10269264852E+02 -0.45781874748E+03  0.47678308617E+03  0.12501316387E+03 0.  0.
         25    2    1    2    0    0  0.44613414774E+02  0.10269264852E+02 -0.65254111717E+03  0.66598104097E+03  0.12500009101E+03 0.  0.
          5    1    3    3  501    0  0.42013832664E+02 -0.99474688528E+01 -0.10890462127E+03  0.11724513126E+03  0.47000000000E+01 0.  1.
         -5    1    3    3    0  501 -0.86627247438E+02 -0.32179599951E+00 -0.34891412621E+03  0.35953795491E+03  0.47000000000E+01 0.  1.
          5    1    4    4  502    0  0.14236648586E+02 -0.41910382436E+02 -0.92256326333E+02  0.10243281734E+03  0.47000000000E+01 0. -1.
         -5    1    4    4    0  502  0.30376766188E+02  0.52179647289E+02 -0.56028479083E+03  0.56354822363E+03  0.47000000000E+01 0. -1.
<mgrwt>
<rscale>  0 0.27020515E+03</rscale>
<asrwt>0</asrwt>
<pdfrwt beam="1">  1       21 0.24926355E-02 0.27020515E+03</pdfrwt>
<pdfrwt beam="2">  1       21 0.17331723E+00 0.27020515E+03</pdfrwt>
<totfact> 0.16818518E+05</totfact>
</mgrwt>
</event>
<event>
 8    1  0.9478272E-006  0.3317605E+03  0.7546771E-02  0.1070361E+00
         21   -1    0    0  504  503  0.00000000000E+00  0.00000000000E+00  0.17463064029E+03  0.17463064029E+03  0.00000000000E+00 0.  1.
         21   -1    0    0  503  504 -0.00000000000E+00 -0.00000000000E+00 -0.15756831309E+03  0.15756831309E+03  0.00000000000E+00 0.  1.
         25    2    1    2    0    0 -0.53321502767E+02  0.85368761764E+02  0.50543966182E+02  0.16825763303E+03  0.12499972165E+03 0.  0.
         25    2    1    2    0    0  0.53321502767E+02 -0.85368761764E+02 -0.33481638983E+02  0.16394132035E+03  0.12499891290E+03 0.  0.
          5    1    3    3  501    0  0.34877351404E+02 -0.26180322861E+01  0.16895407422E+02  0.39125803838E+02  0.47000000000E+01 0. -1.
         -5    1    3    3    0  501 -0.88198854171E+02  0.87986794050E+02  0.33648558760E+02  0.12913182919E+03  0.47000000000E+01 0. -1.
          5    1    4    4  502    0  0.36355754457E+02  0.16774187514E+02 -0.44100326107E+02  0.59749836917E+02  0.47000000000E+01 0. -1.
         -5    1    4    4    0  502  0.16965748310E+02 -0.10214294928E+03  0.10618687124E+02  0.10419148343E+03  0.47000000000E+01 0. -1.
<mgrwt>
<rscale>  0 0.33176049E+03</rscale>
<asrwt>0</asrwt>
<pdfrwt beam="1">  1       21 0.26866252E-01 0.33176049E+03</pdfrwt>
<pdfrwt beam="2">  1       21 0.24241279E-01 0.33176049E+03</pdfrwt>
<totfact> 0.20463256E+05</totfact>
</mgrwt>
</event>
<event>
 8    1  0.9478272E-006  0.2556292E+03  0.7546771E-02  0.1109798E+00
         21   -1    0    0  504  503  0.00000000000E+00  0.00000000000E+00  0.43048151753E+03  0.43048151753E+03  0.00000000000E+00 0.  1.
         21   -1    0    0  503  504 -0.00000000000E+00 -0.00000000000E+00 -0.37949543494E+02  0.37949543494E+02  0.00000000000E+00 0.  1.
         25    2    1    2    0    0 -0.16099661091E+02 -0.28207610924E+01  0.15749502554E+03  0.20171639442E+03  0.12497065627E+03 0.  0.
         25    2    1    2    0    0  0.16099661091E+02  0.28207610924E+01  0.23503694850E+03  0.26671466660E+03  0.12500876146E+03 0.  0.
          5    1    3    3  501    0  0.17788297667E+02 -0.53621028288E+02  0.40535669995E+02  0.69691238693E+02  0.47000000000E+01 0. -1.
         -5    1    3    3    0  501 -0.33887958759E+02  0.50800267196E+02  0.11695935554E+03  0.13202515573E+03  0.47000000000E+01 0. -1.
          5    1    4    4  502    0  0.40442111629E+02  0.33896384924E+02  0.36735911846E+02  0.64468182254E+02  0.47000000000E+01 0. -1.
         -5    1    4    4    0  502 -0.24342450537E+02 -0.31075623832E+02  0.19830103665E+03  0.20224648435E+03  0.47000000000E+01 0. -1.
<mgrwt>
<rscale>  0 0.25562924E+03</rscale>
<asrwt>0</asrwt>
<pdfrwt beam="1">  1       21 0.66227922E-01 0.25562924E+03</pdfrwt>
<pdfrwt beam="2">  1       21 0.58383916E-02 0.25562924E+03</pdfrwt>
<totfact> 0.42616899E+05</totfact>
</mgrwt>
</event>
<event>
 8    1  0.9478272E-006  0.2807168E+03  0.7546771E-02  0.1095298E+00
         21   -1    0    0  504  503  0.00000000000E+00  0.00000000000E+00  0.59903194356E+02  0.59903194356E+02  0.00000000000E+00 0. -1.
         21   -1    0    0  503  504 -0.00000000000E+00 -0.00000000000E+00 -0.32887199103E+03  0.32887199103E+03  0.00000000000E+00 0. -1.
         25    2    1    2    0    0 -0.43888651926E+02 -0.28691994901E+02 -0.18487449505E+03  0.22923826725E+03  0.12498863914E+03 0.  0.
         25    2    1    2    0    0  0.43888651926E+02  0.28691994901E+02 -0.84094301621E+02  0.15953691813E+03  0.12502292726E+03 0.  0.
          5    1    3    3  501    0 -0.12272521547E+02  0.45735670394E+02 -0.35693428729E+02  0.59485100537E+02  0.47000000000E+01 0. -1.
         -5    1    3    3    0  501 -0.31616130379E+02 -0.74427665295E+02 -0.14918106632E+03  0.16975316672E+03  0.47000000000E+01 0. -1.
          5    1    4    4  502    0  0.54352483206E+01  0.60208483459E+02  0.12568718868E+01  0.60648768591E+02  0.47000000000E+01 0.  1.
         -5    1    4    4    0  502  0.38453403605E+02 -0.31516488558E+02 -0.85351173508E+02  0.98888149538E+02  0.47000000000E+01 0.  1.
<mgrwt>
<rscale>  0 0.28071682E+03</rscale>
<asrwt>0</asrwt>
<pdfrwt beam="1">  1       21 0.92158759E-02 0.28071682E+03</pdfrwt>
<pdfrwt beam="2">  1       21 0.50595692E-01 0.28071682E+03</pdfrwt>
<totfact> 0.34131562E+05</totfact>
</mgrwt>
</event>
<event>
 8    1  0.9478272E-006  0.3408200E+03  0.7546771E-02  0.1066447E+00
         21   -1    0    0  504  503  0.00000000000E+00  0.00000000000E+00  0.67952066952E+02  0.67952066952E+02  0.00000000000E+00 0.  1.
         21   -1    0    0  503  504 -0.00000000000E+00 -0.00000000000E+00 -0.42735361938E+03  0.42735361938E+03  0.00000000000E+00 0.  1.
         25    2    1    2    0    0 -0.42703524787E+02  0.73645212690E+02 -0.29385445494E+03  0.33047933636E+03  0.12497576843E+03 0.  0.
         25    2    1    2    0    0  0.42703524787E+02 -0.73645212690E+02 -0.65547097489E+02  0.16482634997E+03  0.12499638104E+03 0.  0.
          5    1    3    3  501    0 -0.56024927455E+02  0.86681160683E+01 -0.23465038828E+03  0.24144735130E+03  0.47000000000E+01 0.  1.
         -5    1    3    3    0  501  0.13321402667E+02  0.64977096622E+02 -0.59204066661E+02  0.89031985059E+02  0.47000000000E+01 0.  1.
          5    1    4    4  502    0 -0.42623465778E+02 -0.11848504867E+02 -0.98625692807E+01  0.45568708291E+02  0.47000000000E+01 0. -1.
         -5    1    4    4    0  502  0.85326990566E+02 -0.61796707824E+02 -0.55684528208E+02  0.11925764168E+03  0.47000000000E+01 0. -1.
<mgrwt>
<rscale>  0 0.34081996E+03</rscale>
<asrwt>0</asrwt>
<pdfrwt beam="1">  1       21 0.10454164E-01 0.34081996E+03</pdfrwt>
<pdfrwt beam="2">  1       21 0.65746712E-01 0.34081996E+03</pdfrwt>
<totfact> 0.15290574E+05</totfact>
</mgrwt>
</event>
<event>
 8    1  0.9478272E-006  0.2818474E+03  0.7546771E-02  0.1094684E+00
         21   -1    0    0  504  503  0.00000000000E+00  0.00000000000E+00  0.20008075383E+03  0.20008075383E+03  0.00000000000E+00 0.  1.
         21   -1    0    0  503  504 -0.00000000000E+00 -0.00000000000E+00 -0.99257396344E+02  0.99257396344E+02  0.00000000000E+00 0.  1.
         25    2    1    2    0    0 -0.35371359580E+02 -0.15339164797E+02  0.10608317028E+03  0.16841848786E+03  0.12499889992E+03 0.  0.
         25    2    1    2    0    0  0.35371359580E+02  0.15339164797E+02 -0.52598127955E+01  0.13091966231E+03  0.12500347713E+03 0.  0.
          5    1    3    3  501    0 -0.42731613355E+02  0.12877531635E+02 -0.12198166451E+02  0.46504912275E+02  0.47000000000E+01 0. -1.
         -5    1    3    3    0  501  0.73602537754E+01 -0.28216696432E+02  0.11828133673E+03  0.12191357559E+03  0.47000000000E+01 0. -1.
          5    1    4    4  502    0  0.15677530417E+02  0.58040503017E+02 -0.39914414471E+02  0.72316909731E+02  0.47000000000E+01 0.  1.
         -5    1    4    4    0  502  0.19693829163E+02 -0.42701338220E+02  0.34654601675E+02  0.58602752582E+02  0.47000000000E+01 0.  1.
<mgrwt>
<rscale>  0 0.28184744E+03</rscale>
<asrwt>0</asrwt>
<pdfrwt beam="1">  1       21 0.30781654E-01 0.28184744E+03</pdfrwt>
<pdfrwt beam="2">  1       21 0.15270369E-01 0.28184744E+03</pdfrwt>
<totfact> 0.37753779E+05</totfact>
</mgrwt>
</event>
<event>
 8    1  0.9478272E-006  0.2553676E+03  0.7546771E-02  0.1109959E+00
         21   -1    0    0  504  503  0.00000000000E+00  0.00000000000E+00  0.16524611878E+03  0.16524611878E+03  0.00000000000E+00 0. -1.
         21   -1    0    0  503  504 -0.00000000000E+00 -0.00000000000E+00 -0.98659854775E+02  0.98659854775E+02  0.00000000000E+00 0. -1.
         25    2    1    2    0    0 -0.10463419815E+01  0.25535461055E+02  0.38600360808E+02  0.13329753259E+03  0.12500035894E+03 0.  0.
         25    2    1    2    0    0  0.10463419815E+01 -0.25535461055E+02  0.27985903198E+02  0.13060844097E+03  0.12498879739E+03 0.  0.
          5    1    3    3  501    0  0.40672424216E+02  0.39272563303E+02 -0.19785494782E+02  0.60084408325E+02  0.47000000000E+01 0. -1.
         -5    1    3    3    0  501 -0.41718766198E+02 -0.13737102248E+02  0.58385855589E+02  0.73213124261E+02  0.47000000000E+01 0. -1.
          5    1    4    4  502    0 -0.26011940654E+02  0.39033453155E+02  0.36915744643E+02  0.59875652183E+02  0.47000000000E+01 0.  1.
         -5    1    4    4    0  502  0.27058282635E+02 -0.64568914210E+02 -0.89298414443E+01  0.70732788788E+02  0.47000000000E+01 0.  1.
<mgrwt>
<rscale>  0 0.25536764E+03</rscale>
<asrwt>0</asrwt>
<pdfrwt beam="1">  1       21 0.25422480E-01 0.25536764E+03</pdfrwt>
<pdfrwt beam="2">  1       21 0.15178439E-01 0.25536764E+03</pdfrwt>
<totfact> 0.55676785E+05</totfact>
</mgrwt>
</event>
<event>
 8    1  0.9478272E-006  0.2889805E+03  0.7546771E-02  0.1090883E+00
         21   -1    0    0  504  503  0.00000000000E+00  0.00000000000E+00  0.71124546198E+02  0.71124546198E+02  0.00000000000E+00 0. -1.
         21   -1    0    0  503  504 -0.00000000000E+00 -0.00000000000E+00 -0.29353335322E+03  0.29353335322E+03  0.00000000000E+00 0. -1.
         25    2    1    2    0    0  0.59174790770E+02  0.13060131284E+01 -0.58437749594E+02  0.15014854372E+03  0.12500501218E+03 0.  0.
         25    2    1    2    0    0 -0.59174790770E+02 -0.13060131284E+01 -0.16397105742E+03  0.21450935569E+03  0.12499757787E+03 0.  0.
          5    1    3    3  501    0 -0.37062684688E+02  0.53170187487E+01 -0.68518305576E+00  0.37742188072E+02  0.47000000000E+01 0.  1.
         -5    1    3    3    0  501  0.96237475458E+02 -0.40110056202E+01 -0.57752566538E+02  0.11240635565E+03  0.47000000000E+01 0.  1.
          5    1    4    4  502    0 -0.82435663569E+02 -0.13417066477E+02 -0.16789366805E+03  0.18757939671E+03  0.47000000000E+01 0.  1.
         -5    1    4    4    0  502  0.23260872799E+02  0.12111053349E+02  0.39226106213E+01  0.26929958980E+02  0.47000000000E+01 0.  1.
<mgrwt>
<rscale>  0 0.28898046E+03</rscale>
<asrwt>0</asrwt>
<pdfrwt beam="1">  1       21 0.10942238E-01 0.28898046E+03</pdfrwt>
<pdfrwt beam="2">  1       21 0.45158977E-01 0.28898046E+03</pdfrwt>
<totfact> 0.31824059E+05</totfact>
</mgrwt>
</event>
<event>
 8    1  0.9478272E-006  0.3475472E+03  0.7546771E-02  0.1063626E+00
         21   -1    0    0  504  503  0.00000000000E+00  0.00000000000E+00  0.16235143718E+03  0.16235143718E+03  0.00000000000E+00 0. -1.
         21   -1    0    0  503  504 -0.00000000000E+00 -0.00000000000E+00 -0.18599933008E+03  0.18599933008E+03  0.00000000000E+00 0. -1.
         25    2    1    2    0    0 -0.57516487325E+01 -0.11276920730E+03  0.31007193713E+02  0.17127458054E+03  0.12499424106E+03 0.  0.
         25    2    1    2    0    0  0.57516487325E+01  0.11276920730E+03 -0.54655086621E+02  0.17707618672E+03  0.12497528488E+03 0.  0.
          5    1    3    3  501    0  0.37857757657E+02 -0.89222713673E+02 -0.20998661280E+02  0.99282104256E+02  0.47000000000E+01 0. -1.
         -5    1    3    3    0  501 -0.43609406389E+02 -0.23546493630E+02  0.52005854993E+02  0.71992476283E+02  0.47000000000E+01 0. -1.
          5    1    4    4  502    0 -0.81005846993E+01  0.11193840569E+03  0.81117559706E+01  0.11262200818E+03  0.47000000000E+01 0.  1.
         -5    1    4    4    0  502  0.13852233432E+02  0.83080161089E+00 -0.62766842592E+02  0.64454178541E+02  0.47000000000E+01 0.  1.
<mgrwt>
<rscale>  0 0.34754717E+03</rscale>
<asrwt>0</asrwt>
<pdfrwt beam="1">  1       21 0.24977144E-01 0.34754717E+03</pdfrwt>
<pdfrwt beam="2">  1       21 0.28615281E-01 0.34754717E+03</pdfrwt>
<totfact> 0.17017748E+05</totfact>
</mgrwt>
</event>
<event>
 8    1  0.9478272E-006  0.2964478E+03  0.7546771E-02  0.1087030E+00
         21   -1    0    0  504  503  0.00000000000E+00  0.00000000000E+00  0.10744011119E+03  0.10744011119E+03  0.00000000000E+00 0.  1.
         21   -1    0    0  503  504 -0.00000000000E+00 -0.00000000000E+00 -0.20448900537E+03  0.20448900537E+03  0.00000000000E+00 0.  1.
         25    2    1    2    0    0 -0.69081070090E+02  0.11355340706E+02 -0.88522875037E+02  0.16841022617E+03  0.12499826745E+03 0.  0.
         25    2    1    2    0    0  0.69081070090E+02 -0.11355340706E+02 -0.85260191346E+01  0.14351889039E+03  0.12499536347E+03 0.  0.
          5    1    3    3  501    0 -0.58645044585E+02  0.65040896953E+02 -0.46409711805E+02  0.99224547772E+02  0.47000000000E+01 0. -1.
         -5    1    3    3    0  501 -0.10436025505E+02 -0.53685556246E+02 -0.42113163233E+02  0.69185678397E+02  0.47000000000E+01 0. -1.
          5    1    4    4  502    0 -0.24276392126E+02  0.10497053811E+02  0.29830798215E+02  0.40143466162E+02  0.47000000000E+01 0. -1.
         -5    1    4    4    0  502  0.93357462216E+02 -0.21852394517E+02 -0.38356817350E+02  0.10337542423E+03  0.47000000000E+01 0. -1.
<mgrwt>
<rscale>  0 0.29644778E+03</rscale>
<asrwt>0</asrwt>
<pdfrwt beam="1">  1       21 0.16529248E-01 0.29644778E+03</pdfrwt>
<pdfrwt beam="2">  1       21 0.31459847E-01 0.29644778E+03</pdfrwt>
<totfact> 0.31154787E+05</totfact>
</mgrwt>
</event>
<event>
 8    1  0.9478272E-006  0.6786299E+03  0.7546771E-02  0.9754492E-01
         21   -1    0    0  504  503  0.00000000000E+00  0.00000000000E+00  0.49494098860E+02  0.49494098860E+02  0.00000000000E+00 0. -1.
         21   -1    0    0  503  504 -0.00000000000E+00 -0.00000000000E+00 -0.23262296804E+04  0.23262296804E+04  0.00000000000E+00 0. -1.
         25    2    1    2    0    0 -0.24731768620E+03 -0.18962451272E+03 -0.13093563280E+04  0.13517254182E+04  0.12499647543E+03 0.  0.
         25    2    1    2    0    0  0.24731768620E+03  0.18962451272E+03 -0.96737925355E+03  0.10239983610E+04  0.12500611781E+03 0.  0.
          5    1    3    3  501    0 -0.65246141696E+02 -0.12653726793E+03 -0.51736592341E+03  0.53661748750E+03  0.47000000000E+01 0.  1.
         -5    1    3    3    0  501 -0.18207154450E+03 -0.63087244791E+02 -0.79199040454E+03  0.81510793068E+03  0.47000000000E+01 0.  1.
          5    1    4    4  502    0  0.13902982762E+03  0.45514215278E+02 -0.31835191776E+03  0.35038674390E+03  0.47000000000E+01 0. -1.
         -5    1    4    4    0  502  0.10828785858E+03  0.14411029744E+03 -0.64902733579E+03  0.67361161714E+03  0.47000000000E+01 0. -1.
<mgrwt>
<rscale>  0 0.67862992E+03</rscale>
<asrwt>0</asrwt>
<pdfrwt beam="1">  1       21 0.76144748E-02 0.67862992E+03</pdfrwt>
<pdfrwt beam="2">  1       21 0.35788158E+00 0.67862992E+03</pdfrwt>
<totfact> 0.14856267E+03</totfact>
</mgrwt>
</event>
<event>
 8    1  0.9478272E-006  0.5921509E+03  0.7546771E-02  0.9921825E-01
         21   -1    0    0  504  503  0.00000000000E+00  0.00000000000E+00  0.22395594475E+03  0.22395594475E+03  0.00000000000E+00 0. -1.
         21   -1    0    0  503  504 -0.00000000000E+00 -0.00000000000E+00 -0.39141932899E+03  0.39141932899E+03  0.00000000000E+00 0. -1.
         25    2    1    2    0    0  0.23472029877E+03 -0.12627396821E+03 -0.50928299930E+02  0.29876332069E+03  0.12500838512E+03 0.  0.
         25    2    1    2    0    0 -0.23472029877E+03  0.12627396821E+03 -0.11653508431E+03  0.31661195305E+03  0.12499587686E+03 0.  0.
          5    1    3    3  501    0  0.23327996985E+03 -0.12444432912E+03 -0.17599263274E+02  0.26502407335E+03  0.47000000000E+01 0.  1.
         -5    1    3    3    0  501  0.14403289183E+01 -0.18296390885E+01 -0.33329036656E+02  0.33739247339E+02  0.47000000000E+01 0.  1.
          5    1    4    4  502    0 -0.17381810561E+03  0.33799648142E+02 -0.39065378077E+02  0.18139278877E+03  0.47000000000E+01 0. -1.
         -5    1    4    4    0  502 -0.60902193161E+02  0.92474320069E+02 -0.77469706235E+02  0.13521916428E+03  0.47000000000E+01 0. -1.
<mgrwt>
<rscale>  0 0.59215095E+03</rscale>
<asrwt>0</asrwt>
<pdfrwt beam="1">  1       21 0.34454761E-01 0.59215095E+03</pdfrwt>
<pdfrwt beam="2">  1       21 0.60218358E-01 0.59215095E+03</pdfrwt>
<totfact> 0.18257535E+04</totfact>
</mgrwt>
</event>
<event>
 8    1  0.9478272E-006  0.4704703E+03  0.7546771E-02  0.1021788E+00
         21   -1    0    0  504  503  0.00000000000E+00  0.00000000000E+00  0.17153054241E+03  0.17153054241E+03  0.00000000000E+00 0.  1.
         21   -1    0    0  503  504 -0.00000000000E+00 -0.00000000000E+00 -0.32259894372E+03  0.32259894372E+03  0.00000000000E+00 0.  1.
         25    2    1    2    0    0  0.12760674402E+03 -0.14209160251E+03 -0.13534547627E+03  0.26533363753E+03  0.12494013221E+03 0.  0.
         25    2    1    2    0    0 -0.12760674402E+03  0.14209160251E+03 -0.15722925042E+02  0.22879584859E+03  0.12500730113E+03 0.  0.
          5    1    3    3  501    0  0.26574705766E+02 -0.72027678922E+02  0.69379547888E+01  0.77229701114E+02  0.47000000000E+01 0.  1.
         -5    1    3    3    0  501  0.10103203825E+03 -0.70063923592E+02 -0.14228343106E+03  0.18810393642E+03  0.47000000000E+01 0.  1.
          5    1    4    4  502    0 -0.75558688152E+02  0.10664032248E+03  0.47783717204E+02  0.13923594135E+03  0.47000000000E+01 0.  1.
         -5    1    4    4    0  502 -0.52048055869E+02  0.35451280034E+02 -0.63506642246E+02  0.89559907242E+02  0.47000000000E+01 0.  1.
<mgrwt>
<rscale>  0 0.47047028E+03</rscale>
<asrwt>0</asrwt>
<pdfrwt beam="1">  1       21 0.26389314E-01 0.47047028E+03</pdfrwt>
<pdfrwt beam="2">  1       21 0.49630607E-01 0.47047028E+03</pdfrwt>
<totfact> 0.48429474E+04</totfact>
</mgrwt>
</event>
<event>
 8    1  0.9478272E-006  0.3358579E+03  0.7546771E-02  0.1068574E+00
         21   -1    0    0  504  503  0.00000000000E+00  0.00000000000E+00  0.22576156164E+04  0.22576156164E+04  0.00000000000E+00 0. -1.
         21   -1    0    0  503  504 -0.00000000000E+00 -0.00000000000E+00 -0.12491110148E+02  0.12491110148E+02  0.00000000000E+00 0. -1.
         25    2    1    2    0    0  0.15503790258E+02 -0.74628311728E+01  0.37358535516E+03  0.39431895680E+03  0.12500144295E+03 0.  0.
         25    2    1    2    0    0 -0.15503790258E+02  0.74628311728E+01  0.18715391511E+04  0.18757877698E+04  0.12499960683E+03 0.  0.
          5    1    3    3  501    0 -0.99539616446E+01 -0.13243104845E+01 -0.67986345447E+01  0.13005636561E+02  0.47000000000E+01 0. -1.
         -5    1    3    3    0  501  0.25457751902E+02 -0.61385206883E+01  0.38038398970E+03  0.38131332024E+03  0.47000000000E+01 0. -1.
          5    1    4    4  502    0  0.54993800366E+02  0.33181402749E+01  0.85970278658E+03  0.86147913462E+03  0.47000000000E+01 0. -1.
         -5    1    4    4    0  502 -0.70497590623E+02  0.41446908979E+01  0.10118363645E+04  0.10143086351E+04  0.47000000000E+01 0. -1.
<mgrwt>
<rscale>  0 0.33585786E+03</rscale>
<asrwt>0</asrwt>
<pdfrwt beam="1">  1       21 0.34732515E+00 0.33585786E+03</pdfrwt>
<pdfrwt beam="2">  1       21 0.19217111E-02 0.33585786E+03</pdfrwt>
<totfact> 0.21175999E+04</totfact>
</mgrwt>
</event>
<event>
 8    1  0.9478272E-006  0.3077564E+03  0.7546771E-02  0.1081426E+00
         21   -1    0    0  504  503  0.00000000000E+00  0.00000000000E+00  0.21630654081E+03  0.21630654081E+03  0.00000000000E+00 0. -1.
         21   -1    0    0  503  504 -0.00000000000E+00 -0.00000000000E+00 -0.10946735942E+03  0.10946735942E+03  0.00000000000E+00 0. -1.
         25    2    1    2    0    0 -0.28259753802E+02 -0.69539895829E+02  0.10557132800E+03  0.17997373375E+03  0.12494330213E+03 0.  0.
         25    2    1    2    0    0  0.28259753802E+02  0.69539895829E+02  0.12678533902E+01  0.14580016649E+03  0.12498668049E+03 0.  0.
          5    1    3    3  501    0 -0.29676373389E+02 -0.76778949886E+02  0.13004793607E+03  0.15398132990E+03  0.47000000000E+01 0.  1.
         -5    1    3    3    0  501  0.14166195872E+01  0.72390540570E+01 -0.24476608073E+02  0.25992403842E+02  0.47000000000E+01 0.  1.
          5    1    4    4  502    0  0.75774902912E+02  0.52093976388E+02  0.14652779497E+02  0.93233106964E+02  0.47000000000E+01 0.  1.
         -5    1    4    4    0  502 -0.47515149110E+02  0.17445919442E+02 -0.13384926107E+02  0.52567059524E+02  0.47000000000E+01 0.  1.
<mgrwt>
<rscale>  0 0.30775644E+03</rscale>
<asrwt>0</asrwt>
<pdfrwt beam="1">  1       21 0.33277929E-01 0.30775644E+03</pdfrwt>
<pdfrwt beam="2">  1       21 0.16841132E-01 0.30775644E+03</pdfrwt>
<totfact> 0.26854462E+05</totfact>
</mgrwt>
</event>
<event>
 8    1  0.9478272E-006  0.3588010E+03  0.7546771E-02  0.1059060E+00
         21   -1    0    0  504  503  0.00000000000E+00  0.00000000000E+00  0.19874052721E+03  0.19874052721E+03  0.00000000000E+00 0.  1.
         21   -1    0    0  503  504 -0.00000000000E+00 -0.00000000000E+00 -0.16194254950E+03  0.16194254950E+03  0.00000000000E+00 0.  1.
         25    2    1    2    0    0 -0.33640656671E+02  0.93258201165E+02  0.10086102301E+03  0.18875192881E+03  0.12500223518E+03 0.  0.
         25    2    1    2    0    0  0.33640656671E+02 -0.93258201165E+02 -0.64063045292E+02  0.17193114790E+03  0.12500983954E+03 0.  0.
          5    1    3    3  501    0 -0.14724141576E+02  0.10576717184E+03  0.11853934203E+03  0.15961566525E+03  0.47000000000E+01 0. -1.
         -5    1    3    3    0  501 -0.18916515096E+02 -0.12508970672E+02 -0.17678319024E+02  0.29136263558E+02  0.47000000000E+01 0. -1.
          5    1    4    4  502    0 -0.31403155124E+02  0.12311148926E+02 -0.23519777288E+02  0.41388313125E+02  0.47000000000E+01 0.  1.
         -5    1    4    4    0  502  0.65043811796E+02 -0.10556935009E+03 -0.40543268004E+02  0.13054283478E+03  0.47000000000E+01 0.  1.
<mgrwt>
<rscale>  0 0.35880105E+03</rscale>
<asrwt>0</asrwt>
<pdfrwt beam="1">  1       21 0.30575466E-01 0.35880105E+03</pdfrwt>
<pdfrwt beam="2">  1       21 0.24914238E-01 0.35880105E+03</pdfrwt>
<totfact> 0.14970439E+05</totfact>
</mgrwt>
</event>
<event>
 8    1  0.9478272E-006  0.3235178E+03  0.7546771E-02  0.1074042E+00
         21   -1    0    0  504  503  0.00000000000E+00  0.00000000000E+00  0.93887137247E+02  0.93887137247E+02  0.00000000000E+00 0.  1.
         21   -1    0    0  503  504 -0.00000000000E+00 -0.00000000000E+00 -0.27869578689E+03  0.27869578689E+03  0.00000000000E+00 0.  1.
         25    2    1    2    0    0 -0.46501572987E+02  0.59076519677E+01 -0.19760302373E+03  0.23847399404E+03  0.12500237681E+03 0.  0.
         25    2    1    2    0    0  0.46501572987E+02 -0.59076519677E+01  0.12794374086E+02  0.13410893009E+03  0.12499684988E+03 0.  0.
          5    1    3    3  501    0 -0.48742145236E+02 -0.65767689572E+01 -0.10032275568E+02  0.50416139927E+02  0.47000000000E+01 0. -1.
         -5    1    3    3    0  501  0.22405722484E+01  0.12484420925E+02 -0.18757074816E+03  0.18805785412E+03  0.47000000000E+01 0. -1.
          5    1    4    4  502    0 -0.24378457724E+02 -0.17245295103E+02 -0.36134034521E+02  0.47111228545E+02  0.47000000000E+01 0. -1.
         -5    1    4    4    0  502  0.70880030711E+02  0.11337643135E+02  0.48928408607E+02  0.86997701546E+02  0.47000000000E+01 0. -1.
<mgrwt>
<rscale>  0 0.32351785E+03</rscale>
<asrwt>0</asrwt>
<pdfrwt beam="1">  1       21 0.14444175E-01 0.32351785E+03</pdfrwt>
<pdfrwt beam="2">  1       21 0.42876274E-01 0.32351785E+03</pdfrwt>
<totfact> 0.21259137E+05</totfact>
</mgrwt>
</event>
<event>
 8    1  0.9478272E-006  0.2601356E+03  0.7546771E-02  0.1107062E+00
         21   -1    0    0  504  503  0.00000000000E+00  0.00000000000E+00  0.55295418832E+03  0.55295418832E+03  0.00000000000E+00 0.  1.
         21   -1    0    0  503  504 -0.00000000000E+00 -0.00000000000E+00 -0.30595003734E+02  0.30595003734E+02  0.00000000000E+00 0.  1.
         25    2    1    2    0    0  0.12618848679E+01 -0.31964459320E+02  0.22427092231E+03  0.25873522602E+03  0.12499260608E+03 0.  0.
         25    2    1    2    0    0 -0.12618848679E+01  0.31964459320E+02  0.29808826228E+03  0.32481396603E+03  0.12499672560E+03 0.  0.
          5    1    3    3  501    0  0.18203460046E+01  0.45388804025E+02  0.48386876069E+02  0.66534479528E+02  0.47000000000E+01 0.  1.
         -5    1    3    3    0  501 -0.55846113670E+00 -0.77353263345E+02  0.17588404624E+03  0.19220074649E+03  0.47000000000E+01 0.  1.
          5    1    4    4  502    0 -0.74806628269E+01  0.16533340366E+02 -0.64205624092E+01  0.19814774327E+02  0.47000000000E+01 0. -1.
         -5    1    4    4    0  502  0.62187779590E+01  0.15431118954E+02  0.30450882468E+03  0.30499919171E+03  0.47000000000E+01 0. -1.
<mgrwt>
<rscale>  0 0.26013562E+03</rscale>
<asrwt>0</asrwt>
<pdfrwt beam="1">  1       21 0.85069868E-01 0.26013562E+03</pdfrwt>
<pdfrwt beam="2">  1       21 0.47069241E-02 0.26013562E+03</pdfrwt>
<totfact> 0.35025440E+05</totfact>
</mgrwt>
</event>
<event>
 8    1  0.9478272E-006  0.7130422E+03  0.7546771E-02  0.9695185E-01
         21   -1    0    0  504  503  0.00000000000E+00  0.00000000000E+00  0.20661124632E+04  0.20661124632E+04  0.00000000000E+00 0. -1.
         21   -1    0    0  503  504 -0.00000000000E+00 -0.00000000000E+00 -0.61520027825E+02  0.61520027825E+02  0.00000000000E+00 0. -1.
         25    2    1    2    0    0 -0.71028573538E+02  0.41540385961E+02  0.19678465719E+04  0.19735287594E+04  0.12499988666E+03 0.  0.
         25    2    1    2    0    0  0.71028573538E+02 -0.41540385961E+02  0.36745863482E+02  0.15410373164E+03  0.12500815853E+03 0.  0.
          5    1    3    3  501    0 -0.28326666639E+02 -0.35240674123E+02  0.30634071495E+03  0.30969505774E+03  0.47000000000E+01 0.  1.
         -5    1    3    3    0  501 -0.42701906898E+02  0.76781060084E+02  0.16615058569E+04  0.16638337016E+04  0.47000000000E+01 0.  1.
          5    1    4    4  502    0 -0.11165002765E+02  0.28682513223E+02 -0.14532004977E+02  0.34360049769E+02  0.47000000000E+01 0. -1.
         -5    1    4    4    0  502  0.82193576303E+02 -0.70222899183E+02  0.51277868459E+02  0.11974368187E+03  0.47000000000E+01 0. -1.
<mgrwt>
<rscale>  0 0.71304220E+03</rscale>
<asrwt>0</asrwt>
<pdfrwt beam="1">  1       21 0.31786340E+00 0.71304220E+03</pdfrwt>
<pdfrwt beam="2">  1       21 0.94646212E-02 0.71304220E+03</pdfrwt>
<totfact> 0.17596203E+03</totfact>
</mgrwt>
</event>
<event>
 8    1  0.9478272E-006  0.4521877E+03  0.7546771E-02  0.1027072E+00
         21   -1    0    0  504  503  0.00000000000E+00  0.00000000000E+00  0.67062872258E+03  0.67062872258E+03  0.00000000000E+00 0.  1.
         21   -1    0    0  503  504 -0.00000000000E+00 -0.00000000000E+00 -0.76224629620E+02  0.76224629620E+02  0.00000000000E+00 0.  1.
         25    2    1    2    0    0 -0.70712794946E+02 -0.17062525443E+03  0.35857164441E+03  0.42227012061E+03  0.12500061508E+03 0.  0.
         25    2    1    2    0    0  0.70712794946E+02  0.17062525443E+03  0.23583244855E+03  0.32458323159E+03  0.12499621443E+03 0.  0.
          5    1    3    3  501    0  0.89737103099E+01 -0.48305723266E+02  0.19485626311E+02  0.53063641127E+02  0.47000000000E+01 0. -1.
         -5    1    3    3    0  501 -0.79686505256E+02 -0.12231953116E+03  0.33908601810E+03  0.36920647949E+03  0.47000000000E+01 0. -1.
          5    1    4    4  502    0  0.82124490546E+02  0.45374823198E+02  0.12847398424E+03  0.15915703300E+03  0.47000000000E+01 0.  1.
         -5    1    4    4    0  502 -0.11411695599E+02  0.12525043123E+03  0.10735846431E+03  0.16542619859E+03  0.47000000000E+01 0.  1.
<mgrwt>
<rscale>  0 0.45218769E+03</rscale>
<asrwt>0</asrwt>
<pdfrwt beam="1">  1       21 0.10317365E+00 0.45218769E+03</pdfrwt>
<pdfrwt beam="2">  1       21 0.11726867E-01 0.45218769E+03</pdfrwt>
<totfact> 0.42556355E+04</totfact>
</mgrwt>
</event>
<event>
 8    1  0.9478272E-006  0.2795270E+03  0.7546771E-02  0.1095948E+00
         21   -1    0    0  504  503  0.00000000000E+00  0.00000000000E+00  0.18627620550E+03  0.18627620550E+03  0.00000000000E+00 0.  1.
         21   -1    0    0  503  504 -0.00000000000E+00 -0.00000000000E+00 -0.10486492743E+03  0.10486492743E+03  0.00000000000E+00 0.  1.
         25    2    1    2    0    0  0.85358954691E+01  0.40339906985E+02 -0.82685773367E+01  0.13187627071E+03  0.12499124688E+03 0.  0.
         25    2    1    2    0    0 -0.85358954691E+01 -0.40339906985E+02  0.89679855403E+02  0.15926486222E+03  0.12499060071E+03 0.  0.
          5    1    3    3  501    0  0.74869709967E+01 -0.34722222089E+02  0.30683145279E+02  0.47172373756E+02  0.47000000000E+01 0. -1.
         -5    1    3    3    0  501  0.10489244725E+01  0.75062129075E+02 -0.38951722616E+02  0.84703896950E+02  0.47000000000E+01 0. -1.
          5    1    4    4  502    0  0.53999758438E+02  0.32026969180E+00  0.22218586056E+02  0.58581840619E+02  0.47000000000E+01 0.  1.
         -5    1    4    4    0  502 -0.62535653907E+02 -0.40660176677E+02  0.67461269347E+02  0.10068302160E+03  0.47000000000E+01 0.  1.
<mgrwt>
<rscale>  0 0.27952703E+03</rscale>
<asrwt>0</asrwt>
<pdfrwt beam="1">  1       21 0.28657878E-01 0.27952703E+03</pdfrwt>
<pdfrwt beam="2">  1       21 0.16133066E-01 0.27952703E+03</pdfrwt>
<totfact> 0.39276499E+05</totfact>
</mgrwt>
</event>
<event>
 8    1  0.9478272E-006  0.2980888E+03  0.7546771E-02  0.1086200E+00
         21   -1    0    0  504  503  0.00000000000E+00  0.00000000000E+00  0.11599989772E+03  0.11599989772E+03  0.00000000000E+00 0.  1.
         21   -1    0    0  503  504 -0.00000000000E+00 -0.00000000000E+00 -0.19150215395E+03  0.19150215395E+03  0.00000000000E+00 0.  1.
         25    2    1    2    0    0  0.72645885062E+02 -0.93506947388E+01 -0.16206670900E+01  0.14487145268E+03  0.12498100308E+03 0.  0.
         25    2    1    2    0    0 -0.72645885062E+02  0.93506947388E+01 -0.73881589140E+02  0.16263059900E+03  0.12500144962E+03 0.  0.
          5    1    3    3  501    0 -0.21884305843E+02  0.23724521853E+01 -0.36868215342E+02  0.43196141889E+02  0.47000000000E+01 0. -1.
         -5    1    3    3    0  501  0.94530190905E+02 -0.11723146924E+02  0.35247548252E+02  0.10167531079E+03  0.47000000000E+01 0. -1.
          5    1    4    4  502    0 -0.28217867053E+02  0.24318669659E+02 -0.10135723730E+03  0.10808804406E+03  0.47000000000E+01 0.  1.
         -5    1    4    4    0  502 -0.44428018009E+02 -0.14967974920E+02  0.27475648160E+02  0.54542554939E+02  0.47000000000E+01 0.  1.
<mgrwt>
<rscale>  0 0.29808878E+03</rscale>
<asrwt>0</asrwt>
<pdfrwt beam="1">  1       21 0.17846138E-01 0.29808878E+03</pdfrwt>
<pdfrwt beam="2">  1       21 0.29461870E-01 0.29808878E+03</pdfrwt>
<totfact> 0.30738257E+05</totfact>
</mgrwt>
</event>
<event>
 8    1  0.9478272E-006  0.2564122E+03  0.7546771E-02  0.1109318E+00
         21   -1    0    0  504  503  0.00000000000E+00  0.00000000000E+00  0.72718533064E+02  0.72718533064E+02  0.00000000000E+00 0.  1.
         21   -1    0    0  503  504 -0.00000000000E+00 -0.00000000000E+00 -0.22603326201E+03  0.22603326201E+03  0.00000000000E+00 0.  1.
         25    2    1    2    0    0  0.13460582011E+02  0.20886529073E+02 -0.92552497002E+02  0.15750182756E+03  0.12499370631E+03 0.  0.
         25    2    1    2    0    0 -0.13460582011E+02 -0.20886529073E+02 -0.60762231944E+02  0.14124996752E+03  0.12506826187E+03 0.  0.
          5    1    3    3  501    0  0.20656265333E+02  0.63930628389E+02 -0.15945634761E+02  0.69210980427E+02  0.47000000000E+01 0.  1.
         -5    1    3    3    0  501 -0.71956833213E+01 -0.43044099316E+02 -0.76606862241E+02  0.88290847129E+02  0.47000000000E+01 0.  1.
          5    1    4    4  502    0 -0.89062844014E+01 -0.17537070878E+02  0.37557414143E+02  0.42655833293E+02  0.47000000000E+01 0. -1.
         -5    1    4    4    0  502 -0.45542976099E+01 -0.33494581943E+01 -0.98319646087E+02  0.98594134225E+02  0.47000000000E+01 0. -1.
<mgrwt>
<rscale>  0 0.25641222E+03</rscale>
<asrwt>0</asrwt>
<pdfrwt beam="1">  1       21 0.11187467E-01 0.25641222E+03</pdfrwt>
<pdfrwt beam="2">  1       21 0.34774348E-01 0.25641222E+03</pdfrwt>
<totfact> 0.52366956E+05</totfact>
</mgrwt>
</event>
<event>
 8    1  0.9478272E-006  0.4737711E+03  0.7546771E-02  0.1020861E+00
         21   -1    0    0  504  503  0.00000000000E+00  0.00000000000E+00  0.60196506362E+02  0.60196506362E+02  0.00000000000E+00 0.  1.
         21   -1    0    0  503  504 -0.00000000000E+00 -0.00000000000E+00 -0.93219298518E+03  0.93219298518E+03  0.00000000000E+00 0.  1.
         25    2    1    2    0    0  0.95366054646E+02  0.15758392025E+03 -0.26633828150E+03  0.34711654191E+03  0.12500574857E+03 0.  0.
         25    2    1    2    0    0 -0.95366054646E+02 -0.15758392025E+03 -0.60565819732E+03  0.64527294963E+03  0.12501180440E+03 0.  0.
          5    1    3    3  501    0  0.19828902022E+02  0.11927156981E+03 -0.21840310590E+03  0.24968159601E+03  0.47000000000E+01 0. -1.
         -5    1    3    3    0  501  0.75537152625E+02  0.38312350442E+02 -0.47935175599E+02  0.97434945901E+02  0.47000000000E+01 0. -1.
          5    1    4    4  502    0 -0.10284920380E+03 -0.12715293996E+03 -0.58499502801E+03  0.60744308512E+03  0.47000000000E+01 0. -1.
         -5    1    4    4    0  502  0.74831491498E+01 -0.30430980297E+02 -0.20663169313E+02  0.37829864513E+02  0.47000000000E+01 0. -1.
<mgrwt>
<rscale>  0 0.47377109E+03</rscale>
<asrwt>0</asrwt>
<pdfrwt beam="1">  1       21 0.92610012E-02 0.47377109E+03</pdfrwt>
<pdfrwt beam="2">  1       21 0.14341430E+00 0.47377109E+03</pdfrwt>
<totfact> 0.27947042E+04</totfact>
</mgrwt>
</event>
<event>
 8    1  0.9478272E-006  0.3598022E+03  0.7546771E-02  0.1058662E+00
         21   -1    0    0  504  503  0.00000000000E+00  0.00000000000E+00  0.12605798124E+04  0.12605798124E+04  0.00000000000E+00 0.  1.
         21   -1    0    0  503  504 -0.00000000000E+00 -0.00000000000E+00 -0.25674220889E+02  0.25674220889E+02  0.00000000000E+00 0.  1.
         25    2    1    2    0    0 -0.60787080995E+02  0.71480392526E+02  0.93588475511E+03  0.94884650665E+03  0.12499961045E+03 0.  0.
         25    2    1    2    0    0  0.60787080995E+02 -0.71480392526E+02  0.29902083638E+03  0.33740752662E+03  0.12500345073E+03 0.  0.
          5    1    3    3  501    0 -0.56572740121E+01  0.35163113859E+02  0.76115280389E+03  0.76200008542E+03  0.47000000000E+01 0.  1.
         -5    1    3    3    0  501 -0.55129806983E+02  0.36317278668E+02  0.17473195122E+03  0.18684642123E+03  0.47000000000E+01 0.  1.
          5    1    4    4  502    0  0.35421997969E+02 -0.82293121634E+02  0.91989804718E+02  0.12849548623E+03  0.47000000000E+01 0. -1.
         -5    1    4    4    0  502  0.25365083026E+02  0.10812729108E+02  0.20703103166E+03  0.20891204039E+03  0.47000000000E+01 0. -1.
<mgrwt>
<rscale>  0 0.35980219E+03</rscale>
<asrwt>0</asrwt>
<pdfrwt beam="1">  1       21 0.19393531E+00 0.35980219E+03</pdfrwt>
<pdfrwt beam="2">  1       21 0.39498811E-02 0.35980219E+03</pdfrwt>
<totfact> 0.54363030E+04</totfact>
</mgrwt>
</event>
<event>
 8    1  0.9478272E-006  0.4407212E+03  0.7546771E-02  0.1030526E+00
         21   -1    0    0  504  503  0.00000000000E+00  0.00000000000E+00  0.67886404094E+03  0.67886404094E+03  0.00000000000E+00 0.  1.
         21   -1    0    0  503  504 -0.00000000000E+00 -0.00000000000E+00 -0.71529477816E+02  0.71529477816E+02  0.00000000000E+00 0.  1.
         25    2    1    2    0    0 -0.16918658649E+03 -0.60360913054E+02  0.25967994822E+03  0.33959397995E+03  0.12499141904E+03 0.  0.
         25    2    1    2    0    0  0.16918658649E+03  0.60360913054E+02  0.34765461490E+03  0.41079953881E+03  0.12499995580E+03 0.  0.
          5    1    3    3  501    0 -0.14391351577E+03 -0.70372941415E+02  0.12815051486E+03  0.20520257153E+03  0.47000000000E+01 0.  1.
         -5    1    3    3    0  501 -0.25273070724E+02  0.10012028361E+02  0.13152943336E+03  0.13439140842E+03  0.47000000000E+01 0.  1.
          5    1    4    4  502    0  0.17474132034E+03  0.54542020521E+02  0.35465982601E+03  0.39914288572E+03  0.47000000000E+01 0. -1.
         -5    1    4    4    0  502 -0.55547338452E+01  0.58188925334E+01 -0.70052111136E+01  0.11656653085E+02  0.47000000000E+01 0. -1.
<mgrwt>
<rscale>  0 0.44072118E+03</rscale>
<asrwt>0</asrwt>
<pdfrwt beam="1">  1       21 0.10444062E+00 0.44072118E+03</pdfrwt>
<pdfrwt beam="2">  1       21 0.11004535E-01 0.44072118E+03</pdfrwt>
<totfact> 0.46476608E+04</totfact>
</mgrwt>
</event>
<event>
 8    1  0.9478272E-006  0.2855838E+03  0.7546771E-02  0.1092678E+00
         21   -1    0    0  504  503  0.00000000000E+00  0.00000000000E+00  0.17535004532E+03  0.17535004532E+03  0.00000000000E+00 0. -1.
         21   -1    0    0  503  504 -0.00000000000E+00 -0.00000000000E+00 -0.11627896700E+03  0.11627896700E+03  0.00000000000E+00 0. -1.
         25    2    1    2    0    0 -0.16656039276E+02 -0.34352142027E+02  0.88257961119E+02  0.15771005122E+03  0.12500199698E+03 0.  0.
         25    2    1    2    0    0  0.16656039276E+02  0.34352142027E+02 -0.29186882794E+02  0.13391896110E+03  0.12499968284E+03 0.  0.
          5    1    3    3  501    0 -0.47353906902E+02 -0.62662261825E+02  0.84590659566E+02  0.11552757784E+03  0.47000000000E+01 0. -1.
         -5    1    3    3    0  501  0.30697867626E+02  0.28310119798E+02  0.36673015528E+01  0.42182473380E+02  0.47000000000E+01 0. -1.
          5    1    4    4  502    0  0.40074730244E+02  0.32378721265E+02 -0.69727429524E+02  0.86823787196E+02  0.47000000000E+01 0.  1.
         -5    1    4    4    0  502 -0.23418690968E+02  0.19734207612E+01  0.40540546731E+02  0.47095173908E+02  0.47000000000E+01 0.  1.
<mgrwt>
<rscale>  0 0.28558377E+03</rscale>
<asrwt>0</asrwt>
<pdfrwt beam="1">  1       21 0.26976930E-01 0.28558377E+03</pdfrwt>
<pdfrwt beam="2">  1       21 0.17889072E-01 0.28558377E+03</pdfrwt>
<totfact> 0.36437652E+05</totfact>
</mgrwt>
</event>
<event>
 8    1  0.9478272E-006  0.3003999E+03  0.7546771E-02  0.1085041E+00
         21   -1    0    0  504  503  0.00000000000E+00  0.00000000000E+00  0.14136047282E+02  0.14136047282E+02  0.00000000000E+00 0.  1.
         21   -1    0    0  503  504 -0.00000000000E+00 -0.00000000000E+00 -0.15959219280E+04  0.15959219280E+04  0.00000000000E+00 0.  1.
         25    2    1    2    0    0 -0.63905507090E+02 -0.12433871972E+01 -0.10769979132E+04  0.10861100031E+04  0.12499989548E+03 0.  0.
         25    2    1    2    0    0  0.63905507090E+02  0.12433871972E+01 -0.50478796746E+03  0.52394797216E+03  0.12500050236E+03 0.  0.
          5    1    3    3  501    0  0.31446740175E+02  0.24720208801E+02 -0.37931631816E+03  0.38144848331E+03  0.47000000000E+01 0.  1.
         -5    1    3    3    0  501 -0.95352247265E+02 -0.25963595998E+02 -0.69768159507E+03  0.70466151979E+03  0.47000000000E+01 0.  1.
          5    1    4    4  502    0  0.76378826331E+02  0.42326242749E+02 -0.23537853285E+03  0.25109834659E+03  0.47000000000E+01 0.  1.
         -5    1    4    4    0  502 -0.12473319241E+02 -0.41082855552E+02 -0.26940943462E+03  0.27284962557E+03  0.47000000000E+01 0.  1.
<mgrwt>
<rscale>  0 0.30039992E+03</rscale>
<asrwt>0</asrwt>
<pdfrwt beam="1">  1       21 0.21747760E-02 0.30039992E+03</pdfrwt>
<pdfrwt beam="2">  1       21 0.24552650E+00 0.30039992E+03</pdfrwt>
<totfact> 0.71202308E+04</totfact>
</mgrwt>
</event>
<event>
 8    1  0.9478272E-006  0.3014063E+03  0.7546771E-02  0.1084540E+00
         21   -1    0    0  504  503  0.00000000000E+00  0.00000000000E+00  0.47098535638E+03  0.47098535638E+03  0.00000000000E+00 0.  1.
         21   -1    0    0  503  504 -0.00000000000E+00 -0.00000000000E+00 -0.48221130923E+02  0.48221130923E+02  0.00000000000E+00 0.  1.
         25    2    1    2    0    0 -0.29380937663E+02 -0.63316269748E+02  0.29244859227E+03  0.32561482573E+03  0.12500658425E+03 0.  0.
         25    2    1    2    0    0  0.29380937663E+02  0.63316269748E+02  0.13031563320E+03  0.19359166157E+03  0.12499351048E+03 0.  0.
          5    1    3    3  501    0  0.12704002475E+02 -0.90901981466E+02  0.20396924121E+03  0.22371880403E+03  0.47000000000E+01 0. -1.
         -5    1    3    3    0  501 -0.42084940138E+02  0.27585711718E+02  0.88479351051E+02  0.10189602171E+03  0.47000000000E+01 0. -1.
          5    1    4    4  502    0  0.24006522846E+02 -0.23934602271E+02  0.91760656573E+02  0.97935113314E+02  0.47000000000E+01 0.  1.
         -5    1    4    4    0  502  0.53744148175E+01  0.87250872019E+02  0.38554976622E+02  0.95656548260E+02  0.47000000000E+01 0.  1.
<mgrwt>
<rscale>  0 0.30140635E+03</rscale>
<asrwt>0</asrwt>
<pdfrwt beam="1">  1       21 0.72459282E-01 0.30140635E+03</pdfrwt>
<pdfrwt beam="2">  1       21 0.74186359E-02 0.30140635E+03</pdfrwt>
<totfact> 0.22806635E+05</totfact>
</mgrwt>
</event>
<event>
 8    1  0.9478272E-006  0.2716435E+03  0.7546771E-02  0.1100343E+00
         21   -1    0    0  504  503  0.00000000000E+00  0.00000000000E+00  0.31069040334E+03  0.31069040334E+03  0.00000000000E+00 0.  1.
         21   -1    0    0  503  504 -0.00000000000E+00 -0.00000000000E+00 -0.59375967035E+02  0.59375967035E+02  0.00000000000E+00 0.  1.
         25    2    1    2    0    0 -0.41499697663E+02  0.27024277470E+02  0.15184744320E+03  0.20282150108E+03  0.12500551513E+03 0.  0.
         25    2    1    2    0    0  0.41499697663E+02 -0.27024277470E+02  0.99466993105E+02  0.16724486930E+03  0.12499850844E+03 0.  0.
          5    1    3    3  501    0 -0.70071477626E+02  0.23354100831E+02  0.34059681734E+02  0.81471331904E+02  0.47000000000E+01 0.  1.
         -5    1    3    3    0  501  0.28571779964E+02  0.36701766397E+01  0.11778776147E+03  0.12135016917E+03  0.47000000000E+01 0.  1.
          5    1    4    4  502    0  0.76795806571E+02 -0.41438108410E+02  0.94163358226E+02  0.12846610747E+03  0.47000000000E+01 0. -1.
         -5    1    4    4    0  502 -0.35296108908E+02  0.14413830940E+02  0.53036348791E+01  0.38778761833E+02  0.47000000000E+01 0. -1.
<mgrwt>
<rscale>  0 0.27164347E+03</rscale>
<asrwt>0</asrwt>
<pdfrwt beam="1">  1       21 0.47798523E-01 0.27164347E+03</pdfrwt>
<pdfrwt beam="2">  1       21 0.91347643E-02 0.27164347E+03</pdfrwt>
<totfact> 0.39134059E+05</totfact>
</mgrwt>
</event>
<event>
 8    1  0.9478272E-006  0.2614306E+03  0.7546771E-02  0.1106287E+00
         21   -1    0    0  504  503  0.00000000000E+00  0.00000000000E+00  0.14560351872E+03  0.14560351872E+03  0.00000000000E+00 0. -1.
         21   -1    0    0  503  504 -0.00000000000E+00 -0.00000000000E+00 -0.11734946298E+03  0.11734946298E+03  0.00000000000E+00 0. -1.
         25    2    1    2    0    0  0.17731498280E+02  0.30301472343E+02  0.29391657657E+02  0.13312261494E+03  0.12500070324E+03 0.  0.
         25    2    1    2    0    0 -0.17731498280E+02 -0.30301472343E+02 -0.11376019125E+01  0.12983036676E+03  0.12498817839E+03 0.  0.
          5    1    3    3  501    0 -0.43865390014E+02  0.46523254372E+02  0.25927084198E+02  0.69158436459E+02  0.47000000000E+01 0. -1.
         -5    1    3    3    0  501  0.61596888294E+02 -0.16221782029E+02  0.34645734586E+01  0.63964178482E+02  0.47000000000E+01 0. -1.
          5    1    4    4  502    0 -0.41098771490E+02  0.38258863615E+02 -0.80408786934E+01  0.56917443664E+02  0.47000000000E+01 0.  1.
         -5    1    4    4    0  502  0.23367273211E+02 -0.68560335958E+02  0.69032767809E+01  0.72912923095E+02  0.47000000000E+01 0.  1.
<mgrwt>
<rscale>  0 0.26143064E+03</rscale>
<asrwt>0</asrwt>
<pdfrwt beam="1">  1       21 0.22400541E-01 0.26143064E+03</pdfrwt>
<pdfrwt beam="2">  1       21 0.18053764E-01 0.26143064E+03</pdfrwt>
<totfact> 0.51420699E+05</totfact>
</mgrwt>
</event>
<event>
 8    1  0.9478272E-006  0.2559262E+03  0.7546771E-02  0.1109616E+00
         21   -1    0    0  504  503  0.00000000000E+00  0.00000000000E+00  0.76856851929E+02  0.76856851929E+02  0.00000000000E+00 0. -1.
         21   -1    0    0  503  504 -0.00000000000E+00 -0.00000000000E+00 -0.21305260765E+03  0.21305260765E+03  0.00000000000E+00 0. -1.
         25    2    1    2    0    0  0.25887558835E+02  0.85995812181E+01 -0.65738822527E+02  0.14384999918E+03  0.12500844362E+03 0.  0.
         25    2    1    2    0    0 -0.25887558835E+02 -0.85995812181E+01 -0.70456933193E+02  0.14605946040E+03  0.12500027215E+03 0.  0.
          5    1    3    3  501    0 -0.41958829275E+02  0.29100623481E+02 -0.71529817582E+01  0.51774943642E+02  0.47000000000E+01 0. -1.
         -5    1    3    3    0  501  0.67846388110E+02 -0.20501042263E+02 -0.58585840768E+02  0.92075055536E+02  0.47000000000E+01 0. -1.
          5    1    4    4  502    0 -0.44978451888E+02  0.20833425776E+01 -0.99547907932E+02  0.10935848126E+03  0.47000000000E+01 0.  1.
         -5    1    4    4    0  502  0.19090893053E+02 -0.10682923796E+02  0.29090974739E+02  0.36700979137E+02  0.47000000000E+01 0.  1.
<mgrwt>
<rscale>  0 0.25592618E+03</rscale>
<asrwt>0</asrwt>
<pdfrwt beam="1">  1       21 0.11824131E-01 0.25592618E+03</pdfrwt>
<pdfrwt beam="2">  1       21 0.32777324E-01 0.25592618E+03</pdfrwt>
<totfact> 0.53339446E+05</totfact>
</mgrwt>
</event>
<event>
 8    1  0.9478272E-006  0.3010363E+03  0.7546771E-02  0.1084724E+00
         21   -1    0    0  504  503  0.00000000000E+00  0.00000000000E+00  0.21675578452E+02  0.21675578452E+02  0.00000000000E+00 0.  1.
         21   -1    0    0  503  504 -0.00000000000E+00 -0.00000000000E+00 -0.10452183268E+04  0.10452183268E+04  0.00000000000E+00 0.  1.
         25    2    1    2    0    0 -0.43067581451E+02  0.71727220957E+02 -0.53048772198E+03  0.55140200357E+03  0.12500934194E+03 0.  0.
         25    2    1    2    0    0  0.43067581451E+02 -0.71727220957E+02 -0.49305502640E+03  0.51549190171E+03  0.12501612246E+03 0.  0.
          5    1    3    3  501    0 -0.33417215761E+02 -0.15379948547E+02 -0.46286752541E+02  0.59311100034E+02  0.47000000000E+01 0. -1.
         -5    1    3    3    0  501 -0.96503656902E+01  0.87107169504E+02 -0.48420096944E+03  0.49209090354E+03  0.47000000000E+01 0. -1.
          5    1    4    4  502    0  0.46136912393E+02 -0.19550256555E+02 -0.55978464180E+02  0.75276195896E+02  0.47000000000E+01 0. -1.
         -5    1    4    4    0  502 -0.30693309422E+01 -0.52176964401E+02 -0.43707656222E+03  0.44021570582E+03  0.47000000000E+01 0. -1.
<mgrwt>
<rscale>  0 0.30103629E+03</rscale>
<asrwt>0</asrwt>
<pdfrwt beam="1">  1       21 0.33347038E-02 0.30103629E+03</pdfrwt>
<pdfrwt beam="2">  1       21 0.16080285E+00 0.30103629E+03</pdfrwt>
<totfact> 0.12622167E+05</totfact>
</mgrwt>
</event>
<event>
 8    1  0.9478272E-006  0.2575332E+03  0.7546771E-02  0.1108634E+00
         21   -1    0    0  504  503  0.00000000000E+00  0.00000000000E+00  0.38586159131E+02  0.38586159131E+02  0.00000000000E+00 0. -1.
         21   -1    0    0  503  504 -0.00000000000E+00 -0.00000000000E+00 -0.42970950259E+03  0.42970950259E+03  0.00000000000E+00 0. -1.
         25    2    1    2    0    0  0.95761534823E+01  0.27201648544E+02 -0.17518037548E+03  0.21712393923E+03  0.12499203428E+03 0.  0.
         25    2    1    2    0    0 -0.95761534823E+01 -0.27201648544E+02 -0.21594296798E+03  0.25117172249E+03  0.12499694541E+03 0.  0.
          5    1    3    3  501    0 -0.40445467084E+02  0.50100193427E+02 -0.13231046109E+03  0.14722096760E+03  0.47000000000E+01 0.  1.
         -5    1    3    3    0  501  0.50021620566E+02 -0.22898544883E+02 -0.42869914388E+02  0.69902971621E+02  0.47000000000E+01 0.  1.
          5    1    4    4  502    0 -0.37048624648E+02  0.39645106323E+02 -0.11128144424E+03  0.12389505590E+03  0.47000000000E+01 0.  1.
         -5    1    4    4    0  502  0.27472471165E+02 -0.66846754867E+02 -0.10466152374E+03  0.12727666660E+03  0.47000000000E+01 0.  1.
<mgrwt>
<rscale>  0 0.25753322E+03</rscale>
<asrwt>0</asrwt>
<pdfrwt beam="1">  1       21 0.59363324E-02 0.25753322E+03</pdfrwt>
<pdfrwt beam="2">  1       21 0.66109151E-01 0.25753322E+03</pdfrwt>
<totfact> 0.41561979E+05</totfact>
</mgrwt>
</event>
<event>
 8    1  0.9478272E-006  0.4073784E+03  0.7546771E-02  0.1041254E+00
         21   -1    0    0  504  503  0.00000000000E+00  0.00000000000E+00  0.18006584047E+03  0.18006584047E+03  0.00000000000E+00 0. -1.
         21   -1    0    0  503  504 -0.00000000000E+00 -0.00000000000E+00 -0.23041181659E+03  0.23041181659E+03  0.00000000000E+00 0. -1.
         25    2    1    2    0    0 -0.54968214975E+02 -0.15113426802E+03 -0.24396772932E+02  0.20514341426E+03  0.12500218502E+03 0.  0.
         25    2    1    2    0    0  0.54968214975E+02  0.15113426802E+03 -0.25949203190E+02  0.20533424279E+03  0.12500287392E+03 0.  0.
          5    1    3    3  501    0 -0.18792895193E+02 -0.86542936443E+02  0.48550638507E+02  0.10110443738E+03  0.47000000000E+01 0. -1.
         -5    1    3    3    0  501 -0.36175319783E+02 -0.64591331577E+02 -0.72947411438E+02  0.10403897689E+03  0.47000000000E+01 0. -1.
          5    1    4    4  502    0  0.54983799974E+02  0.17246101106E+03 -0.17501173837E+02  0.18191866226E+03  0.47000000000E+01 0. -1.
         -5    1    4    4    0  502 -0.15584998770E-01 -0.21326743036E+02 -0.84480293535E+01  0.23415580527E+02  0.47000000000E+01 0. -1.
<mgrwt>
<rscale>  0 0.40737844E+03</rscale>
<asrwt>0</asrwt>
<pdfrwt beam="1">  1       21 0.27702437E-01 0.40737844E+03</pdfrwt>
<pdfrwt beam="2">  1       21 0.35447971E-01 0.40737844E+03</pdfrwt>
<totfact> 0.89635688E+04</totfact>
</mgrwt>
</event>
<event>
 8    1  0.9478272E-006  0.3620045E+03  0.7546771E-02  0.1057793E+00
         21   -1    0    0  504  503  0.00000000000E+00  0.00000000000E+00  0.14858109032E+03  0.14858109032E+03  0.00000000000E+00 0. -1.
         21   -1    0    0  503  504 -0.00000000000E+00 -0.00000000000E+00 -0.22049782121E+03  0.22049782121E+03  0.00000000000E+00 0. -1.
         25    2    1    2    0    0 -0.78296734048E+02  0.98444921703E+02  0.98929749996E+00  0.17733831603E+03  0.12500447373E+03 0.  0.
         25    2    1    2    0    0  0.78296734048E+02 -0.98444921703E+02 -0.72906028389E+02  0.19174059549E+03  0.12500954289E+03 0.  0.
          5    1    3    3  501    0 -0.56903971623E+02 -0.11141315398E+02  0.24525559252E+02  0.63133065440E+02  0.47000000000E+01 0. -1.
         -5    1    3    3    0  501 -0.21392762426E+02  0.10958623710E+03 -0.23536261752E+02  0.11420525059E+03  0.47000000000E+01 0. -1.
          5    1    4    4  502    0  0.39287068321E+02 -0.12236333461E+03 -0.68020944103E+02  0.14548263894E+03  0.47000000000E+01 0. -1.
         -5    1    4    4    0  502  0.39009665728E+02  0.23918412911E+02 -0.48850842867E+01  0.46257956557E+02  0.47000000000E+01 0. -1.
<mgrwt>
<rscale>  0 0.36200446E+03</rscale>
<asrwt>0</asrwt>
<pdfrwt beam="1">  1       21 0.22858629E-01 0.36200446E+03</pdfrwt>
<pdfrwt beam="2">  1       21 0.33922742E-01 0.36200446E+03</pdfrwt>
<totfact> 0.14357156E+05</totfact>
</mgrwt>
</event>
<event>
 8    1  0.9478272E-006  0.3644430E+03  0.7546771E-02  0.1056838E+00
         21   -1    0    0  504  503  0.00000000000E+00  0.00000000000E+00  0.60365696502E+02  0.60365696502E+02  0.00000000000E+00 0.  1.
         21   -1    0    0  503  504 -0.00000000000E+00 -0.00000000000E+00 -0.55005873599E+03  0.55005873599E+03  0.00000000000E+00 0.  1.
         25    2    1    2    0    0  0.32189546491E+02 -0.10865669111E+03 -0.12956365760E+03  0.21273115648E+03  0.12500144056E+03 0.  0.
         25    2    1    2    0    0 -0.32189546491E+02  0.10865669111E+03 -0.36012938188E+03  0.39769327601E+03  0.12499730662E+03 0.  0.
          5    1    3    3  501    0  0.56736987997E+02 -0.12835532886E+02 -0.87417798854E+02  0.10510850711E+03  0.47000000000E+01 0. -1.
         -5    1    3    3    0  501 -0.24547441506E+02 -0.95821158220E+02 -0.42145858749E+02  0.10762264937E+03  0.47000000000E+01 0. -1.
          5    1    4    4  502    0  0.36181682965E+02  0.72433705217E+01 -0.38375117111E+02  0.53444552688E+02  0.47000000000E+01 0. -1.
         -5    1    4    4    0  502 -0.68371229455E+02  0.10141332058E+03 -0.32175426477E+03  0.34424872332E+03  0.47000000000E+01 0. -1.
<mgrwt>
<rscale>  0 0.36444302E+03</rscale>
<asrwt>0</asrwt>
<pdfrwt beam="1">  1       21 0.92870305E-02 0.36444302E+03</pdfrwt>
<pdfrwt beam="2">  1       21 0.84624419E-01 0.36444302E+03</pdfrwt>
<totfact> 0.10606855E+05</totfact>
</mgrwt>
</event>
<event>
 8    1  0.9478272E-006  0.2666717E+03  0.7546771E-02  0.1103200E+00
         21   -1    0    0  504  503  0.00000000000E+00  0.00000000000E+00  0.41058488066E+02  0.41058488066E+02  0.00000000000E+00 0. -1.
         21   -1    0    0  503  504 -0.00000000000E+00 -0.00000000000E+00 -0.43300312719E+03  0.43300312719E+03  0.00000000000E+00 0. -1.
         25    2    1    2    0    0 -0.35887260031E+02  0.27133710090E+02 -0.17562625450E+03  0.22020571474E+03  0.12498736688E+03 0.  0.
         25    2    1    2    0    0  0.35887260031E+02 -0.27133710090E+02 -0.21631838462E+03  0.25385590051E+03  0.12500016417E+03 0.  0.
          5    1    3    3  501    0  0.41886317635E+02  0.34499524840E+02 -0.67744719542E+02  0.86925933098E+02  0.47000000000E+01 0. -1.
         -5    1    3    3    0  501 -0.77773577666E+02 -0.73658147504E+01 -0.10788153496E+03  0.13327978164E+03  0.47000000000E+01 0. -1.
          5    1    4    4  502    0 -0.24261454581E+02 -0.22703806860E+02 -0.18041467786E+03  0.18350920143E+03  0.47000000000E+01 0. -1.
         -5    1    4    4    0  502  0.60148714612E+02 -0.44299032301E+01 -0.35903706769E+02  0.70346699083E+02  0.47000000000E+01 0. -1.
<mgrwt>
<rscale>  0 0.26667174E+03</rscale>
<asrwt>0</asrwt>
<pdfrwt beam="1">  1       21 0.63166901E-02 0.26667174E+03</pdfrwt>
<pdfrwt beam="2">  1       21 0.66615870E-01 0.26667174E+03</pdfrwt>
<totfact> 0.36646932E+05</totfact>
</mgrwt>
</event>
<event>
 8    1  0.9478272E-006  0.2996873E+03  0.7546771E-02  0.1085397E+00
         21   -1    0    0  504  503  0.00000000000E+00  0.00000000000E+00  0.30962371024E+03  0.30962371024E+03  0.00000000000E+00 0. -1.
         21   -1    0    0  503  504 -0.00000000000E+00 -0.00000000000E+00 -0.72517420364E+02  0.72517420364E+02  0.00000000000E+00 0. -1.
         25    2    1    2    0    0 -0.48504579602E+02 -0.49074671505E+02  0.17649161242E+03  0.22702875635E+03  0.12502699439E+03 0.  0.
         25    2    1    2    0    0  0.48504579602E+02  0.49074671505E+02  0.60614677449E+02  0.15511237426E+03  0.12499876759E+03 0.  0.
          5    1    3    3  501    0 -0.41366915540E+02 -0.84273921785E+00 -0.22446069429E+01  0.41702040370E+02  0.47000000000E+01 0.  1.
         -5    1    3    3    0  501 -0.71376640620E+01 -0.48231932287E+02  0.17873621937E+03  0.18532671598E+03  0.47000000000E+01 0.  1.
          5    1    4    4  502    0  0.94803789526E+01 -0.13057883726E+02 -0.32429695376E+02  0.36526169450E+02  0.47000000000E+01 0. -1.
         -5    1    4    4    0  502  0.39024200650E+02  0.62132555232E+02  0.93044372825E+02  0.11858620481E+03  0.47000000000E+01 0. -1.
<mgrwt>
<rscale>  0 0.29968726E+03</rscale>
<asrwt>0</asrwt>
<pdfrwt beam="1">  1       21 0.47634416E-01 0.29968726E+03</pdfrwt>
<pdfrwt beam="2">  1       21 0.11156526E-01 0.29968726E+03</pdfrwt>
<totfact> 0.27441058E+05</totfact>
</mgrwt>
</event>
<event>
 8    1  0.9478272E-006  0.3283116E+03  0.7546771E-02  0.1071886E+00
         21   -1    0    0  504  503  0.00000000000E+00  0.00000000000E+00  0.12208152270E+02  0.12208152270E+02  0.00000000000E+00 0.  1.
         21   -1    0    0  503  504 -0.00000000000E+00 -0.00000000000E+00 -0.22073062858E+04  0.22073062858E+04  0.00000000000E+00 0.  1.
         25    2    1    2    0    0 -0.95978521461E+02 -0.41367042687E+02 -0.96240254038E+03  0.97609762245E+03  0.12499924010E+03 0.  0.
         25    2    1    2    0    0  0.95978521461E+02  0.41367042687E+02 -0.12326955931E+04  0.12434168156E+04  0.12499537265E+03 0.  0.
          5    1    3    3  501    0 -0.53650056167E+02 -0.44760012496E+01 -0.83553461310E+03  0.83728044454E+03  0.47000000000E+01 0.  1.
         -5    1    3    3    0  501 -0.42328465294E+02 -0.36891041438E+02 -0.12686792728E+03  0.13881717791E+03  0.47000000000E+01 0.  1.
          5    1    4    4  502    0  0.37507531046E+02 -0.31208977545E+02 -0.76111220020E+03  0.76268911521E+03  0.47000000000E+01 0. -1.
         -5    1    4    4    0  502  0.58470990414E+02  0.72576020232E+02 -0.47158339291E+03  0.48072770037E+03  0.47000000000E+01 0. -1.
<mgrwt>
<rscale>  0 0.32831163E+03</rscale>
<asrwt>0</asrwt>
<pdfrwt beam="1">  1       21 0.18781737E-02 0.32831163E+03</pdfrwt>
<pdfrwt beam="2">  1       21 0.33958622E+00 0.32831163E+03</pdfrwt>
<totfact> 0.24600311E+04</totfact>
</mgrwt>
</event>
<event>
 8    1  0.9478272E-006  0.2662209E+03  0.7546771E-02  0.1103462E+00
         21   -1    0    0  504  503  0.00000000000E+00  0.00000000000E+00  0.25577888976E+03  0.25577888976E+03  0.00000000000E+00 0.  1.
         21   -1    0    0  503  504 -0.00000000000E+00 -0.00000000000E+00 -0.69272283974E+02  0.69272283974E+02  0.00000000000E+00 0.  1.
         25    2    1    2    0    0 -0.27336374113E+02  0.25174541514E+02  0.60661948798E+02  0.14382740402E+03  0.12500166089E+03 0.  0.
         25    2    1    2    0    0  0.27336374113E+02 -0.25174541514E+02  0.12584465699E+03  0.18122376972E+03  0.12499656846E+03 0.  0.
          5    1    3    3  501    0  0.34824226624E+02 -0.14501907289E+02 -0.12327401263E+02  0.39963569622E+02  0.47000000000E+01 0. -1.
         -5    1    3    3    0  501 -0.62160600737E+02  0.39676448803E+02  0.72989350061E+02  0.10386383440E+03  0.47000000000E+01 0. -1.
          5    1    4    4  502    0 -0.29670322859E+01  0.23929286427E+02 -0.15111478625E+02  0.28841997429E+02  0.47000000000E+01 0.  1.
         -5    1    4    4    0  502  0.30303406399E+02 -0.49103827941E+02  0.14095613562E+03  0.15238177229E+03  0.47000000000E+01 0.  1.
<mgrwt>
<rscale>  0 0.26622087E+03</rscale>
<asrwt>0</asrwt>
<pdfrwt beam="1">  1       21 0.39350598E-01 0.26622087E+03</pdfrwt>
<pdfrwt beam="2">  1       21 0.10657275E-01 0.26622087E+03</pdfrwt>
<totfact> 0.44455733E+05</totfact>
</mgrwt>
</event>
<event>
 8    1  0.9478272E-006  0.2876956E+03  0.7546771E-02  0.1091558E+00
         21   -1    0    0  504  503  0.00000000000E+00  0.00000000000E+00  0.48159817071E+02  0.48159817071E+02  0.00000000000E+00 0.  1.
         21   -1    0    0  503  504 -0.00000000000E+00 -0.00000000000E+00 -0.42965675988E+03  0.42965675988E+03  0.00000000000E+00 0.  1.
         25    2    1    2    0    0 -0.54504183113E+01  0.49519753976E+02 -0.27518003128E+03  0.30632239923E+03  0.12500979788E+03 0.  0.
         25    2    1    2    0    0  0.54504183113E+01 -0.49519753976E+02 -0.10631691154E+03  0.17149417772E+03  0.12500021688E+03 0.  0.
          5    1    3    3  501    0 -0.58792300943E+02  0.18568553789E+01 -0.16132155277E+03  0.17177519015E+03  0.47000000000E+01 0.  1.
         -5    1    3    3    0  501  0.53341882631E+02  0.47662898597E+02 -0.11385847851E+03  0.13454720909E+03  0.47000000000E+01 0.  1.
          5    1    4    4  502    0  0.58917869363E+02 -0.51183051289E+02 -0.45907030449E+02  0.90667334328E+02  0.47000000000E+01 0. -1.
         -5    1    4    4    0  502 -0.53467451052E+02  0.16632973130E+01 -0.60409881086E+02  0.80826843392E+02  0.47000000000E+01 0. -1.
<mgrwt>
<rscale>  0 0.28769561E+03</rscale>
<asrwt>0</asrwt>
<pdfrwt beam="1">  1       21 0.74092028E-02 0.28769561E+03</pdfrwt>
<pdfrwt beam="2">  1       21 0.66101038E-01 0.28769561E+03</pdfrwt>
<totfact> 0.28123156E+05</totfact>
</mgrwt>
</event>
<event>
 8    1  0.9478272E-006  0.3309916E+03  0.7546771E-02  0.1070699E+00
         21   -1    0    0  504  503  0.00000000000E+00  0.00000000000E+00  0.41326493410E+03  0.41326493410E+03  0.00000000000E+00 0.  1.
         21   -1    0    0  503  504 -0.00000000000E+00 -0.00000000000E+00 -0.66274343156E+02  0.66274343156E+02  0.00000000000E+00 0.  1.
         25    2    1    2    0    0  0.13108330877E+02  0.46242102206E+01  0.17652365876E+02  0.12700122951E+03  0.12499797845E+03 0.  0.
         25    2    1    2    0    0 -0.13108330877E+02 -0.46242102206E+01  0.32933822507E+03  0.35253804775E+03  0.12500478774E+03 0.  0.
          5    1    3    3  501    0  0.33647033898E+02  0.39455197075E+02  0.52112845574E+02  0.73665963241E+02  0.47000000000E+01 0.  1.
         -5    1    3    3    0  501 -0.20538703021E+02 -0.34830986854E+02 -0.34460479698E+02  0.53335266269E+02  0.47000000000E+01 0.  1.
          5    1    4    4  502    0 -0.36113419579E+02 -0.15121579390E+02  0.24091478737E+02  0.46209637357E+02  0.47000000000E+01 0. -1.
         -5    1    4    4    0  502  0.23005088702E+02  0.10497369169E+02  0.30524674633E+03  0.30632841039E+03  0.47000000000E+01 0. -1.
<mgrwt>
<rscale>  0 0.33099161E+03</rscale>
<asrwt>0</asrwt>
<pdfrwt beam="1">  1       21 0.63579219E-01 0.33099161E+03</pdfrwt>
<pdfrwt beam="2">  1       21 0.10196053E-01 0.33099161E+03</pdfrwt>
<totfact> 0.17255466E+05</totfact>
</mgrwt>
</event>
<event>
 8    1  0.9478272E-006  0.3432298E+03  0.7546771E-02  0.1065429E+00
         21   -1    0    0  504  503  0.00000000000E+00  0.00000000000E+00  0.38643196228E+03  0.38643196228E+03  0.00000000000E+00 0. -1.
         21   -1    0    0  503  504 -0.00000000000E+00 -0.00000000000E+00 -0.76214398031E+02  0.76214398031E+02  0.00000000000E+00 0. -1.
         25    2    1    2    0    0  0.85232902512E+02 -0.68569154347E+02  0.96978766086E+02  0.19234640399E+03  0.12500352578E+03 0.  0.
         25    2    1    2    0    0 -0.85232902512E+02  0.68569154347E+02  0.21323879816E+03  0.27029995632E+03  0.12499961898E+03 0.  0.
          5    1    3    3  501    0  0.87437863466E+02  0.87417444617E+01  0.43230196619E+02  0.98044571311E+02  0.47000000000E+01 0. -1.
         -5    1    3    3    0  501 -0.22049609538E+01 -0.77310898808E+02  0.53748569467E+02  0.94301832682E+02  0.47000000000E+01 0. -1.
          5    1    4    4  502    0  0.29517868230E+02  0.11782942058E+02  0.76214086243E+02  0.82709245011E+02  0.47000000000E+01 0.  1.
         -5    1    4    4    0  502 -0.11475077074E+03  0.56786212288E+02  0.13702471192E+03  0.18759071131E+03  0.47000000000E+01 0.  1.
<mgrwt>
<rscale>  0 0.34322983E+03</rscale>
<asrwt>0</asrwt>
<pdfrwt beam="1">  1       21 0.59451070E-01 0.34322983E+03</pdfrwt>
<pdfrwt beam="2">  1       21 0.11725292E-01 0.34322983E+03</pdfrwt>
<totfact> 0.15498585E+05</totfact>
</mgrwt>
</event>
<event>
 8    1  0.9478272E-006  0.3588686E+03  0.7546771E-02  0.1059033E+00
         21   -1    0    0  504  503  0.00000000000E+00  0.00000000000E+00  0.13046602421E+03  0.13046602421E+03  0.00000000000E+00 0.  1.
         21   -1    0    0  503  504 -0.00000000000E+00 -0.00000000000E+00 -0.24678207151E+03  0.24678207151E+03  0.00000000000E+00 0.  1.
         25    2    1    2    0    0 -0.95591280124E+02  0.71540681534E+02 -0.10873033803E+03  0.20421322745E+03  0.12499997563E+03 0.  0.
         25    2    1    2    0    0  0.95591280124E+02 -0.71540681534E+02 -0.75857092706E+01  0.17303486826E+03  0.12501104231E+03 0.  0.
          5    1    3    3  501    0 -0.39043753115E+02  0.31079661365E+02  0.23026690972E+02  0.55160479557E+02  0.47000000000E+01 0.  1.
         -5    1    3    3    0  501 -0.56547527009E+02  0.40461020169E+02 -0.13175702900E+03  0.14905274789E+03  0.47000000000E+01 0.  1.
          5    1    4    4  502    0 -0.13608455008E+02 -0.31503359503E+02  0.34852640978E+02  0.49137035837E+02  0.47000000000E+01 0.  1.
         -5    1    4    4    0  502  0.10919973513E+03 -0.40037322031E+02 -0.42438350249E+02  0.12389783243E+03  0.47000000000E+01 0.  1.
<mgrwt>
<rscale>  0 0.35886864E+03</rscale>
<asrwt>0</asrwt>
<pdfrwt beam="1">  1       21 0.20071696E-01 0.35886864E+03</pdfrwt>
<pdfrwt beam="2">  1       21 0.37966472E-01 0.35886864E+03</pdfrwt>
<totfact> 0.14662962E+05</totfact>
</mgrwt>
</event>
<event>
 8    1  0.9478272E-006  0.2727787E+03  0.7546771E-02  0.1099700E+00
         21   -1    0    0  504  503  0.00000000000E+00  0.00000000000E+00  0.12763279700E+02  0.12763279700E+02  0.00000000000E+00 0. -1.
         21   -1    0    0  503  504 -0.00000000000E+00 -0.00000000000E+00 -0.14574666132E+04  0.14574666132E+04  0.00000000000E+00 0. -1.
         25    2    1    2    0    0 -0.95539096585E+01  0.14103861569E+02 -0.10016275415E+04  0.10095406553E+04  0.12499762675E+03 0.  0.
         25    2    1    2    0    0  0.95539096585E+01 -0.14103861569E+02 -0.44307579197E+03  0.46068923757E+03  0.12501287969E+03 0.  0.
          5    1    3    3  501    0 -0.62169668265E+02  0.31884760212E+02 -0.59669612606E+03  0.60079119704E+03  0.47000000000E+01 0.  1.
         -5    1    3    3    0  501  0.52615758607E+02 -0.17780898642E+02 -0.40493141543E+03  0.40874945824E+03  0.47000000000E+01 0.  1.
          5    1    4    4  502    0  0.45049942688E+02 -0.79803871300E+01 -0.58561566500E+02  0.74462950424E+02  0.47000000000E+01 0. -1.
         -5    1    4    4    0  502 -0.35496033030E+02 -0.61234744393E+01 -0.38451422547E+03  0.38622628715E+03  0.47000000000E+01 0. -1.
<mgrwt>
<rscale>  0 0.27277869E+03</rscale>
<asrwt>0</asrwt>
<pdfrwt beam="1">  1       21 0.19635825E-02 0.27277869E+03</pdfrwt>
<pdfrwt beam="2">  1       21 0.22422552E+00 0.27277869E+03</pdfrwt>
<totfact> 0.11515176E+05</totfact>
</mgrwt>
</event>
<event>
 8    1  0.9478272E-006  0.2730279E+03  0.7546771E-02  0.1099559E+00
         21   -1    0    0  504  503  0.00000000000E+00  0.00000000000E+00  0.51186087777E+03  0.51186087777E+03  0.00000000000E+00 0.  1.
         21   -1    0    0  503  504 -0.00000000000E+00 -0.00000000000E+00 -0.36408453734E+02  0.36408453734E+02  0.00000000000E+00 0.  1.
         25    2    1    2    0    0  0.26322008264E+01  0.40032216007E+02  0.31289518777E+03  0.33931935056E+03  0.12499886534E+03 0.  0.
         25    2    1    2    0    0 -0.26322008264E+01 -0.40032216007E+02  0.16255723626E+03  0.20894998094E+03  0.12500293066E+03 0.  0.
          5    1    3    3  501    0 -0.58361208265E+02  0.13435667442E+02  0.10482222352E+03  0.12081529843E+03  0.47000000000E+01 0.  1.
         -5    1    3    3    0  501  0.60993409091E+02  0.26596548565E+02  0.20807296425E+03  0.21850405213E+03  0.47000000000E+01 0.  1.
          5    1    4    4  502    0 -0.16328752778E+02 -0.71151790657E+01  0.17101758682E+03  0.17200685725E+03  0.47000000000E+01 0.  1.
         -5    1    4    4    0  502  0.13696551951E+02 -0.32917036942E+02 -0.84603505551E+01  0.36943123689E+02  0.47000000000E+01 0.  1.
<mgrwt>
<rscale>  0 0.27302793E+03</rscale>
<asrwt>0</asrwt>
<pdfrwt beam="1">  1       21 0.78747822E-01 0.27302793E+03</pdfrwt>
<pdfrwt beam="2">  1       21 0.56013009E-02 0.27302793E+03</pdfrwt>
<totfact> 0.30957517E+05</totfact>
</mgrwt>
</event>
<event>
 8    1  0.9478272E-006  0.2912019E+03  0.7546771E-02  0.1089723E+00
         21   -1    0    0  504  503  0.00000000000E+00  0.00000000000E+00  0.11863497359E+03  0.11863497359E+03  0.00000000000E+00 0. -1.
         21   -1    0    0  503  504 -0.00000000000E+00 -0.00000000000E+00 -0.17869640209E+03  0.17869640209E+03  0.00000000000E+00 0. -1.
         25    2    1    2    0    0  0.32545383733E+02 -0.33991288863E+01  0.38504100127E+02  0.13482116728E+03  0.12499370120E+03 0.  0.
         25    2    1    2    0    0 -0.32545383733E+02  0.33991288863E+01 -0.98565528623E+02  0.16251020840E+03  0.12499459317E+03 0.  0.
          5    1    3    3  501    0  0.69942497955E+02 -0.12052757141E+02 -0.11029954299E+02  0.71978968225E+02  0.47000000000E+01 0. -1.
         -5    1    3    3    0  501 -0.37397114222E+02  0.86536282545E+01  0.49534054426E+02  0.62842199054E+02  0.47000000000E+01 0. -1.
          5    1    4    4  502    0 -0.21702108550E+02 -0.45672123929E+01  0.27501127580E+02  0.35640468049E+02  0.47000000000E+01 0. -1.
         -5    1    4    4    0  502 -0.10843275183E+02  0.79663412792E+01 -0.12606665620E+03  0.12686974035E+03  0.47000000000E+01 0. -1.
<mgrwt>
<rscale>  0 0.29120194E+03</rscale>
<asrwt>0</asrwt>
<pdfrwt beam="1">  1       21 0.18251534E-01 0.29120194E+03</pdfrwt>
<pdfrwt beam="2">  1       21 0.27491754E-01 0.29120194E+03</pdfrwt>
<totfact> 0.33795128E+05</totfact>
</mgrwt>
</event>
<event>
 8    1  0.9478272E-006  0.2927407E+03  0.7546771E-02  0.1088927E+00
         21   -1    0    0  504  503  0.00000000000E+00  0.00000000000E+00  0.49284606140E+03  0.49284606140E+03  0.00000000000E+00 0.  1.
         21   -1    0    0  503  504 -0.00000000000E+00 -0.00000000000E+00 -0.43470517062E+02  0.43470517062E+02  0.00000000000E+00 0.  1.
         25    2    1    2    0    0 -0.19909358364E+02  0.19837331656E+02  0.95008644098E+02  0.15950235675E+03  0.12499782829E+03 0.  0.
         25    2    1    2    0    0  0.19909358364E+02 -0.19837331656E+02  0.35436690024E+03  0.37681422172E+03  0.12499262148E+03 0.  0.
          5    1    3    3  501    0  0.40017687097E+02  0.63605231703E+01 -0.59597927549E+01  0.41224757916E+02  0.47000000000E+01 0.  1.
         -5    1    3    3    0  501 -0.59927045460E+02  0.13476808486E+02  0.10096843685E+03  0.11827759883E+03  0.47000000000E+01 0.  1.
          5    1    4    4  502    0 -0.37217639522E+02  0.23647962900E+02  0.65341483448E+02  0.78968210693E+02  0.47000000000E+01 0.  1.
         -5    1    4    4    0  502  0.57126997886E+02 -0.43485294556E+02  0.28902541680E+03  0.29784601103E+03  0.47000000000E+01 0.  1.
<mgrwt>
<rscale>  0 0.29274066E+03</rscale>
<asrwt>0</asrwt>
<pdfrwt beam="1">  1       21 0.75822467E-01 0.29274066E+03</pdfrwt>
<pdfrwt beam="2">  1       21 0.66877722E-02 0.29274066E+03</pdfrwt>
<totfact> 0.24721393E+05</totfact>
</mgrwt>
</event>
<event>
 8    1  0.9478272E-006  0.2625523E+03  0.7546771E-02  0.1105619E+00
         21   -1    0    0  504  503  0.00000000000E+00  0.00000000000E+00  0.40821997852E+03  0.40821997852E+03  0.00000000000E+00 0. -1.
         21   -1    0    0  503  504 -0.00000000000E+00 -0.00000000000E+00 -0.42216043102E+02  0.42216043102E+02  0.00000000000E+00 0. -1.
         25    2    1    2    0    0  0.10044859581E+02  0.38803349509E+02  0.18380715120E+03  0.22586757964E+03  0.12499798224E+03 0.  0.
         25    2    1    2    0    0 -0.10044859581E+02 -0.38803349509E+02  0.18219678422E+03  0.22456844198E+03  0.12501487038E+03 0.  0.
          5    1    3    3  501    0 -0.53315402429E+02  0.17018204735E+02  0.46122867385E+02  0.72674344334E+02  0.47000000000E+01 0. -1.
         -5    1    3    3    0  501  0.63360262010E+02  0.21785144774E+02  0.13768428381E+03  0.15319323531E+03  0.47000000000E+01 0. -1.
          5    1    4    4  502    0 -0.48985043080E+01 -0.70135575525E+02  0.44861979439E+02  0.83532517607E+02  0.47000000000E+01 0.  1.
         -5    1    4    4    0  502 -0.51463552728E+01  0.31332226016E+02  0.13733480478E+03  0.14103592438E+03  0.47000000000E+01 0.  1.
<mgrwt>
<rscale>  0 0.26255234E+03</rscale>
<asrwt>0</asrwt>
<pdfrwt beam="1">  1       21 0.62803071E-01 0.26255234E+03</pdfrwt>
<pdfrwt beam="2">  1       21 0.64947762E-02 0.26255234E+03</pdfrwt>
<totfact> 0.39776620E+05</totfact>
</mgrwt>
</event>
<event>
 8    1  0.9478272E-006  0.2934928E+03  0.7546771E-02  0.1088539E+00
         21   -1    0    0  504  503  0.00000000000E+00  0.00000000000E+00  0.58897492896E+02  0.58897492896E+02  0.00000000000E+00 0. -1.
         21   -1    0    0  503  504 -0.00000000000E+00 -0.00000000000E+00 -0.36562681545E+03  0.36562681545E+03  0.00000000000E+00 0. -1.
         25    2    1    2    0    0 -0.39202809108E+02  0.57790076387E+02 -0.10683267471E+03  0.17864319050E+03  0.12499446370E+03 0.  0.
         25    2    1    2    0    0  0.39202809108E+02 -0.57790076387E+02 -0.19989664784E+03  0.24588111784E+03  0.12498920402E+03 0.  0.
          5    1    3    3  501    0  0.73006604094E+01  0.23842325180E+02 -0.11723222688E+03  0.11994682627E+03  0.47000000000E+01 0. -1.
         -5    1    3    3    0  501 -0.46503469517E+02  0.33947751206E+02  0.10399552168E+02  0.58696364235E+02  0.47000000000E+01 0. -1.
          5    1    4    4  502    0  0.70466232317E+02 -0.89996738199E+01 -0.55662877115E+02  0.90371067906E+02  0.47000000000E+01 0.  1.
         -5    1    4    4    0  502 -0.31263423209E+02 -0.48790402567E+02 -0.14423377072E+03  0.15551004993E+03  0.47000000000E+01 0.  1.
<mgrwt>
<rscale>  0 0.29349278E+03</rscale>
<asrwt>0</asrwt>
<pdfrwt beam="1">  1       21 0.90611527E-02 0.29349278E+03</pdfrwt>
<pdfrwt beam="2">  1       21 0.56250280E-01 0.29349278E+03</pdfrwt>
<totfact> 0.28003202E+05</totfact>
</mgrwt>
</event>
<event>
 8    1  0.9478272E-006  0.2941162E+03  0.7546771E-02  0.1088219E+00
         21   -1    0    0  504  503  0.00000000000E+00  0.00000000000E+00  0.10639748657E+02  0.10639748657E+02  0.00000000000E+00 0.  1.
         21   -1    0    0  503  504 -0.00000000000E+00 -0.00000000000E+00 -0.20325742702E+04  0.20325742702E+04  0.00000000000E+00 0.  1.
         25    2    1    2    0    0 -0.56121140254E+02  0.86064037319E+01 -0.64486666561E+03  0.65931955933E+03  0.12500244932E+03 0.  0.
         25    2    1    2    0    0  0.56121140254E+02 -0.86064037319E+01 -0.13770678560E+04  0.13838944596E+04  0.12499737074E+03 0.  0.
          5    1    3    3  501    0 -0.99823880994E+01  0.56025041004E+02 -0.15891967360E+03  0.16886682904E+03  0.47000000000E+01 0. -1.
         -5    1    3    3    0  501 -0.46138752155E+02 -0.47418637272E+02 -0.48594699201E+03  0.49045273030E+03  0.47000000000E+01 0. -1.
          5    1    4    4  502    0 -0.30029921060E+02  0.29292007138E+02 -0.49992888955E+03  0.50170788557E+03  0.47000000000E+01 0.  1.
         -5    1    4    4    0  502  0.86151061314E+02 -0.37898410870E+02 -0.87713896643E+03  0.88218657400E+03  0.47000000000E+01 0.  1.
<mgrwt>
<rscale>  0 0.29411616E+03</rscale>
<asrwt>0</asrwt>
<pdfrwt beam="1">  1       21 0.16368846E-02 0.29411616E+03</pdfrwt>
<pdfrwt beam="2">  1       21 0.31270370E+00 0.29411616E+03</pdfrwt>
<totfact> 0.45472366E+04</totfact>
</mgrwt>
</event>
<event>
 8    1  0.9478272E-006  0.4449584E+03  0.7546771E-02  0.1029236E+00
         21   -1    0    0  504  503  0.00000000000E+00  0.00000000000E+00  0.23026837161E+02  0.23026837161E+02  0.00000000000E+00 0. -1.
         21   -1    0    0  503  504 -0.00000000000E+00 -0.00000000000E+00 -0.21495348584E+04  0.21495348584E+04  0.00000000000E+00 0. -1.
         25    2    1    2    0    0  0.11962719840E+03  0.12083843415E+03 -0.14070961458E+04  0.14228341362E+04  0.12499928755E+03 0.  0.
         25    2    1    2    0    0 -0.11962719840E+03 -0.12083843415E+03 -0.71941187549E+03  0.74972755940E+03  0.12500149182E+03 0.  0.
          5    1    3    3  501    0  0.13352899571E+03  0.12541371029E+03 -0.10845908331E+04  0.10999627069E+04  0.47000000000E+01 0.  1.
         -5    1    3    3    0  501 -0.13901797308E+02 -0.45752761323E+01 -0.32250531269E+03  0.32287142926E+03  0.47000000000E+01 0.  1.
          5    1    4    4  502    0 -0.91580482484E+02 -0.24232971699E+02 -0.49135715374E+03  0.50042798106E+03  0.47000000000E+01 0. -1.
         -5    1    4    4    0  502 -0.28046715914E+02 -0.96605462455E+02 -0.22805472175E+03  0.24929957834E+03  0.47000000000E+01 0. -1.
<mgrwt>
<rscale>  0 0.44495838E+03</rscale>
<asrwt>0</asrwt>
<pdfrwt beam="1">  1       21 0.35425903E-02 0.44495838E+03</pdfrwt>
<pdfrwt beam="2">  1       21 0.33069768E+00 0.44495838E+03</pdfrwt>
<totfact> 0.90750965E+03</totfact>
</mgrwt>
</event>
<event>
 8    1  0.9478272E-006  0.3151066E+03  0.7546771E-02  0.1077924E+00
         21   -1    0    0  504  503  0.00000000000E+00  0.00000000000E+00  0.82774013582E+02  0.82774013582E+02  0.00000000000E+00 0.  1.
         21   -1    0    0  503  504 -0.00000000000E+00 -0.00000000000E+00 -0.29988930153E+03  0.29988930153E+03  0.00000000000E+00 0.  1.
         25    2    1    2    0    0  0.56053412526E+02  0.77824206792E+02 -0.10909085082E+03  0.19163316402E+03  0.12499545432E+03 0.  0.
         25    2    1    2    0    0 -0.56053412526E+02 -0.77824206792E+02 -0.10802443713E+03  0.19103015109E+03  0.12499858955E+03 0.  0.
          5    1    3    3  501    0  0.41583414629E+02 -0.85136502764E+01  0.98964467583E+01  0.43837110667E+02  0.47000000000E+01 0.  1.
         -5    1    3    3    0  501  0.14469997898E+02  0.86337857069E+02 -0.11898729758E+03  0.14779605335E+03  0.47000000000E+01 0.  1.
          5    1    4    4  502    0 -0.82886232095E+02 -0.89853320469E+01 -0.55868937823E+02  0.10047035322E+03  0.47000000000E+01 0. -1.
         -5    1    4    4    0  502  0.26832819568E+02 -0.68838874745E+02 -0.52155499306E+02  0.90559797869E+02  0.47000000000E+01 0. -1.
<mgrwt>
<rscale>  0 0.31510659E+03</rscale>
<asrwt>0</asrwt>
<pdfrwt beam="1">  1       21 0.12734464E-01 0.31510659E+03</pdfrwt>
<pdfrwt beam="2">  1       21 0.46136815E-01 0.31510659E+03</pdfrwt>
<totfact> 0.23025005E+05</totfact>
</mgrwt>
</event>
<event>
 8    1  0.9478272E-006  0.5107474E+03  0.7546771E-02  0.1011011E+00
         21   -1    0    0  504  503  0.00000000000E+00  0.00000000000E+00  0.11952905287E+04  0.11952905287E+04  0.00000000000E+00 0.  1.
         21   -1    0    0  503  504 -0.00000000000E+00 -0.00000000000E+00 -0.54560574755E+02  0.54560574755E+02  0.00000000000E+00 0.  1.
         25    2    1    2    0    0  0.19001950782E+03  0.11606220886E+03  0.56168859457E+03  0.61700719183E+03  0.12500379121E+03 0.  0.
         25    2    1    2    0    0 -0.19001950782E+03 -0.11606220886E+03  0.57904135933E+03  0.63284391158E+03  0.12499868375E+03 0.  0.
          5    1    3    3  501    0  0.16217359354E+03  0.14199214866E+03  0.45142567034E+03  0.50026919810E+03  0.47000000000E+01 0.  1.
         -5    1    3    3    0  501  0.27845914278E+02 -0.25929939798E+02  0.11026292423E+03  0.11673799373E+03  0.47000000000E+01 0.  1.
          5    1    4    4  502    0 -0.19744897252E+03 -0.12866184736E+03  0.56429751780E+03  0.61155028110E+03  0.47000000000E+01 0. -1.
         -5    1    4    4    0  502  0.74294647081E+01  0.12599638502E+02  0.14743841532E+02  0.21293630488E+02  0.47000000000E+01 0. -1.
<mgrwt>
<rscale>  0 0.51074745E+03</rscale>
<asrwt>0</asrwt>
<pdfrwt beam="1">  1       21 0.18389083E+00 0.51074745E+03</pdfrwt>
<pdfrwt beam="2">  1       21 0.83939354E-02 0.51074745E+03</pdfrwt>
<totfact> 0.16390341E+04</totfact>
</mgrwt>
</event>
<event>
 8    1  0.9478272E-006  0.3156565E+03  0.7546771E-02  0.1077666E+00
         21   -1    0    0  504  503  0.00000000000E+00  0.00000000000E+00  0.10372050708E+03  0.10372050708E+03  0.00000000000E+00 0. -1.
         21   -1    0    0  503  504 -0.00000000000E+00 -0.00000000000E+00 -0.24016237316E+03  0.24016237316E+03  0.00000000000E+00 0. -1.
         25    2    1    2    0    0 -0.90822207357E+01 -0.29285922856E+02  0.31297783581E+02  0.13245497867E+03  0.12499847241E+03 0.  0.
         25    2    1    2    0    0  0.90822207357E+01  0.29285922856E+02 -0.16773964966E+03  0.21142790157E+03  0.12500006193E+03 0.  0.
          5    1    3    3  501    0 -0.41912005593E+02  0.58910728921E+01  0.61976860850E+02  0.75196690309E+02  0.47000000000E+01 0.  1.
         -5    1    3    3    0  501  0.32829784857E+02 -0.35176995748E+02 -0.30679077269E+02  0.57258288358E+02  0.47000000000E+01 0.  1.
          5    1    4    4  502    0  0.39000956173E+01  0.33870133030E+02 -0.18715204914E+03  0.19029024188E+03  0.47000000000E+01 0.  1.
         -5    1    4    4    0  502  0.51821251185E+01 -0.45842101740E+01  0.19412399478E+02  0.21137659689E+02  0.47000000000E+01 0.  1.
<mgrwt>
<rscale>  0 0.31565654E+03</rscale>
<asrwt>0</asrwt>
<pdfrwt beam="1">  1       21 0.15957001E-01 0.31565654E+03</pdfrwt>
<pdfrwt beam="2">  1       21 0.36948057E-01 0.31565654E+03</pdfrwt>
<totfact> 0.24017521E+05</totfact>
</mgrwt>
</event>
<event>
 8    1  0.9478272E-006  0.3756172E+03  0.7546771E-02  0.1052566E+00
         21   -1    0    0  504  503  0.00000000000E+00  0.00000000000E+00  0.40799651966E+02  0.40799651966E+02  0.00000000000E+00 0. -1.
         21   -1    0    0  503  504 -0.00000000000E+00 -0.00000000000E+00 -0.86451898200E+03  0.86451898200E+03  0.00000000000E+00 0. -1.
         25    2    1    2    0    0  0.77810953902E+02 -0.31325160928E+02 -0.68252434509E+03  0.69892870601E+03  0.12500417668E+03 0.  0.
         25    2    1    2    0    0 -0.77810953902E+02  0.31325160928E+02 -0.14119498494E+03  0.20638992795E+03  0.12499987334E+03 0.  0.
          5    1    3    3  501    0 -0.24145751487E+02  0.30200387127E+01 -0.31442876662E+03  0.31540399050E+03  0.47000000000E+01 0. -1.
         -5    1    3    3    0  501  0.10195670539E+03 -0.34345199641E+02 -0.36809557847E+03  0.38352471551E+03  0.47000000000E+01 0. -1.
          5    1    4    4  502    0 -0.47582803636E+02  0.72323235163E+02 -0.45578882967E+02  0.97950488099E+02  0.47000000000E+01 0.  1.
         -5    1    4    4    0  502 -0.30228150266E+02 -0.40998074235E+02 -0.95616101971E+02  0.10843943985E+03  0.47000000000E+01 0.  1.
<mgrwt>
<rscale>  0 0.37561722E+03</rscale>
<asrwt>0</asrwt>
<pdfrwt beam="1">  1       21 0.62768697E-02 0.37561722E+03</pdfrwt>
<pdfrwt beam="2">  1       21 0.13300292E+00 0.37561722E+03</pdfrwt>
<totfact> 0.69556837E+04</totfact>
</mgrwt>
</event>
<event>
 8    1  0.9478272E-006  0.2541501E+03  0.7546771E-02  0.1110710E+00
         21   -1    0    0  504  503  0.00000000000E+00  0.00000000000E+00  0.72822961693E+02  0.72822961693E+02  0.00000000000E+00 0. -1.
         21   -1    0    0  503  504 -0.00000000000E+00 -0.00000000000E+00 -0.22174415949E+03  0.22174415949E+03  0.00000000000E+00 0. -1.
         25    2    1    2    0    0  0.19014501220E+02  0.10698398909E+02 -0.82382376588E+02  0.15128994565E+03  0.12500313871E+03 0.  0.
         25    2    1    2    0    0 -0.19014501220E+02 -0.10698398909E+02 -0.66538821211E+02  0.14327717553E+03  0.12499970922E+03 0.  0.
          5    1    3    3  501    0 -0.86922396688E+01 -0.54001170825E+02 -0.47510233399E+02  0.72601609890E+02  0.47000000000E+01 0.  1.
         -5    1    3    3    0  501  0.27706740888E+02  0.64699569734E+02 -0.34872143188E+02  0.78688335762E+02  0.47000000000E+01 0.  1.
          5    1    4    4  502    0  0.46384011572E+01 -0.30034816219E+02  0.29361692926E+02  0.42518277976E+02  0.47000000000E+01 0. -1.
         -5    1    4    4    0  502 -0.23652902377E+02  0.19336417310E+02 -0.95900514138E+02  0.10075889756E+03  0.47000000000E+01 0. -1.
<mgrwt>
<rscale>  0 0.25415009E+03</rscale>
<asrwt>0</asrwt>
<pdfrwt beam="1">  1       21 0.11203533E-01 0.25415009E+03</pdfrwt>
<pdfrwt beam="2">  1       21 0.34114485E-01 0.25415009E+03</pdfrwt>
<totfact> 0.54288004E+05</totfact>
</mgrwt>
</event>
<event>
 8    1  0.9478272E-006  0.3771850E+03  0.7546771E-02  0.1051979E+00
         21   -1    0    0  504  503  0.00000000000E+00  0.00000000000E+00  0.11223870812E+03  0.11223870812E+03  0.00000000000E+00 0.  1.
         21   -1    0    0  503  504 -0.00000000000E+00 -0.00000000000E+00 -0.31688835044E+03  0.31688835044E+03  0.00000000000E+00 0.  1.
         25    2    1    2    0    0  0.42974483955E+02 -0.57386257557E+02  0.36091486994E+02  0.14855395338E+03  0.12500277118E+03 0.  0.
         25    2    1    2    0    0 -0.42974483955E+02  0.57386257557E+02 -0.24074112932E+03  0.28057310518E+03  0.12499994870E+03 0.  0.
          5    1    3    3  501    0  0.68885478814E+02  0.11811035397E+02  0.16449026307E+02  0.71953945098E+02  0.47000000000E+01 0. -1.
         -5    1    3    3    0  501 -0.25910994859E+02 -0.69197292954E+02  0.19642460687E+02  0.76600008281E+02  0.47000000000E+01 0. -1.
          5    1    4    4  502    0 -0.40753560733E+02  0.64435362911E+01 -0.22230162717E+03  0.22614702145E+03  0.47000000000E+01 0.  1.
         -5    1    4    4    0  502 -0.22209232224E+01  0.50942721266E+02 -0.18439502155E+02  0.54426083725E+02  0.47000000000E+01 0.  1.
<mgrwt>
<rscale>  0 0.37718504E+03</rscale>
<asrwt>0</asrwt>
<pdfrwt beam="1">  1       21 0.17267494E-01 0.37718504E+03</pdfrwt>
<pdfrwt beam="2">  1       21 0.48752054E-01 0.37718504E+03</pdfrwt>
<totfact> 0.11548270E+05</totfact>
</mgrwt>
</event>
<event>
 8    1  0.9478272E-006  0.3896935E+03  0.7546771E-02  0.1047408E+00
         21   -1    0    0  504  503  0.00000000000E+00  0.00000000000E+00  0.40354931097E+03  0.40354931097E+03  0.00000000000E+00 0.  1.
         21   -1    0    0  503  504 -0.00000000000E+00 -0.00000000000E+00 -0.94078372400E+02  0.94078372400E+02  0.00000000000E+00 0.  1.
         25    2    1    2    0    0 -0.11168830863E+03  0.93437231078E+02  0.19778222294E+03  0.27558617375E+03  0.12500054806E+03 0.  0.
         25    2    1    2    0    0  0.11168830863E+03 -0.93437231078E+02  0.11168871563E+03  0.22204150962E+03  0.12499307325E+03 0.  0.
          5    1    3    3  501    0 -0.59259221484E+02  0.56864696473E+01  0.83703788462E+01  0.60300451988E+02  0.47000000000E+01 0.  1.
         -5    1    3    3    0  501 -0.52429087141E+02  0.87750761430E+02  0.18941184410E+03  0.21528572176E+03  0.47000000000E+01 0.  1.
          5    1    4    4  502    0  0.47369765611E+02 -0.11296915091E+03  0.86807058510E+02  0.15021144816E+03  0.47000000000E+01 0. -1.
         -5    1    4    4    0  502  0.64318543014E+02  0.19531919837E+02  0.24881657116E+02  0.71830061456E+02  0.47000000000E+01 0. -1.
<mgrwt>
<rscale>  0 0.38969353E+03</rscale>
<asrwt>0</asrwt>
<pdfrwt beam="1">  1       21 0.62084509E-01 0.38969353E+03</pdfrwt>
<pdfrwt beam="2">  1       21 0.14473596E-01 0.38969353E+03</pdfrwt>
<totfact> 0.94996616E+04</totfact>
</mgrwt>
</event>
<event>
 8    1  0.9478272E-006  0.2955975E+03  0.7546771E-02  0.1087462E+00
         21   -1    0    0  504  503  0.00000000000E+00  0.00000000000E+00  0.48704737219E+03  0.48704737219E+03  0.00000000000E+00 0.  1.
         21   -1    0    0  503  504 -0.00000000000E+00 -0.00000000000E+00 -0.44850800339E+02  0.44850800339E+02  0.00000000000E+00 0.  1.
         25    2    1    2    0    0 -0.33512442318E+02  0.69878310855E+02  0.19480183674E+03  0.24408805707E+03  0.12500064756E+03 0.  0.
         25    2    1    2    0    0  0.33512442318E+02 -0.69878310855E+02  0.24739473511E+03  0.28781011545E+03  0.12499778189E+03 0.  0.
          5    1    3    3  501    0  0.41661429909E+02  0.56336201949E+02  0.10130389485E+03  0.12326399111E+03  0.47000000000E+01 0. -1.
         -5    1    3    3    0  501 -0.75173872227E+02  0.13542108906E+02  0.93497941883E+02  0.12082406596E+03  0.47000000000E+01 0. -1.
          5    1    4    4  502    0  0.64492243891E+02 -0.76753175132E+02  0.11999066057E+03  0.15642937077E+03  0.47000000000E+01 0.  1.
         -5    1    4    4    0  502 -0.30979801573E+02  0.68748642773E+01  0.12740407454E+03  0.13138074468E+03  0.47000000000E+01 0.  1.
<mgrwt>
<rscale>  0 0.29559746E+03</rscale>
<asrwt>0</asrwt>
<pdfrwt beam="1">  1       21 0.74930361E-01 0.29559746E+03</pdfrwt>
<pdfrwt beam="2">  1       21 0.69001235E-02 0.29559746E+03</pdfrwt>
<totfact> 0.24031728E+05</totfact>
</mgrwt>
</event>
<event>
 8    1  0.9478272E-006  0.2519338E+03  0.7546771E-02  0.1112089E+00
         21   -1    0    0  504  503  0.00000000000E+00  0.00000000000E+00  0.44538090850E+02  0.44538090850E+02  0.00000000000E+00 0.  1.
         21   -1    0    0  503  504 -0.00000000000E+00 -0.00000000000E+00 -0.35627180854E+03  0.35627180854E+03  0.00000000000E+00 0.  1.
         25    2    1    2    0    0 -0.64551167277E+01 -0.12690918624E+02 -0.14573156458E+03  0.19252452399E+03  0.12500110189E+03 0.  0.
         25    2    1    2    0    0  0.64551167277E+01  0.12690918624E+02 -0.16600215311E+03  0.20828537540E+03  0.12499341912E+03 0.  0.
          5    1    3    3  501    0 -0.20951350361E+02 -0.55395915044E+02 -0.13262722301E+03  0.14532631135E+03  0.47000000000E+01 0.  1.
         -5    1    3    3    0  501  0.14496233634E+02  0.42704996420E+02 -0.13104341571E+02  0.47198212644E+02  0.47000000000E+01 0.  1.
          5    1    4    4  502    0  0.97619263886E+01  0.29889915153E+02 -0.18160260346E+03  0.18436457853E+03  0.47000000000E+01 0.  1.
         -5    1    4    4    0  502 -0.33068096609E+01 -0.17198996528E+02  0.15600450350E+02  0.23920796869E+02  0.47000000000E+01 0.  1.
<mgrwt>
<rscale>  0 0.25193385E+03</rscale>
<asrwt>0</asrwt>
<pdfrwt beam="1">  1       21 0.68520138E-02 0.25193385E+03</pdfrwt>
<pdfrwt beam="2">  1       21 0.54811049E-01 0.25193385E+03</pdfrwt>
<totfact> 0.48706939E+05</totfact>
</mgrwt>
</event>
<event>
 8    1  0.9478272E-006  0.3945624E+03  0.7546771E-02  0.1045679E+00
         21   -1    0    0  504  503  0.00000000000E+00  0.00000000000E+00  0.12416627426E+03  0.12416627426E+03  0.00000000000E+00 0. -1.
         21   -1    0    0  503  504 -0.00000000000E+00 -0.00000000000E+00 -0.31344963100E+03  0.31344963100E+03  0.00000000000E+00 0. -1.
         25    2    1    2    0    0  0.22185735685E+02 -0.13944313780E+03 -0.15892919220E+03  0.24661708341E+03  0.12499960861E+03 0.  0.
         25    2    1    2    0    0 -0.22185735685E+02  0.13944313780E+03 -0.30354164535E+02  0.19099882184E+03  0.12499031600E+03 0.  0.
          5    1    3    3  501    0  0.46905359987E+02 -0.91306221527E+02 -0.30522064540E+02  0.10719433431E+03  0.47000000000E+01 0. -1.
         -5    1    3    3    0  501 -0.24719624301E+02 -0.48136916270E+02 -0.12840712766E+03  0.13942274910E+03  0.47000000000E+01 0. -1.
          5    1    4    4  502    0  0.43276437115E+02  0.12020004316E+02 -0.49111813341E+01  0.45426206260E+02  0.47000000000E+01 0. -1.
         -5    1    4    4    0  502 -0.65462172800E+02  0.12742313348E+03 -0.25442983201E+02  0.14557261558E+03  0.47000000000E+01 0. -1.
<mgrwt>
<rscale>  0 0.39456240E+03</rscale>
<asrwt>0</asrwt>
<pdfrwt beam="1">  1       21 0.19102504E-01 0.39456240E+03</pdfrwt>
<pdfrwt beam="2">  1       21 0.48223020E-01 0.39456240E+03</pdfrwt>
<totfact> 0.97380304E+04</totfact>
</mgrwt>
</event>
<event>
 8    1  0.9478272E-006  0.3095001E+03  0.7546771E-02  0.1080586E+00
         21   -1    0    0  504  503  0.00000000000E+00  0.00000000000E+00  0.21011945641E+03  0.21011945641E+03  0.00000000000E+00 0. -1.
         21   -1    0    0  503  504 -0.00000000000E+00 -0.00000000000E+00 -0.11397123806E+03  0.11397123806E+03  0.00000000000E+00 0. -1.
         25    2    1    2    0    0  0.77145091338E+02 -0.43337785255E+02  0.71336170224E+02  0.16894992143E+03  0.12500279205E+03 0.  0.
         25    2    1    2    0    0 -0.77145091338E+02  0.43337785255E+02  0.24812048124E+02  0.15514077305E+03  0.12499397178E+03 0.  0.
          5    1    3    3  501    0  0.69373785743E+02  0.16760867817E+02 -0.46141685100E+01  0.71673072973E+02  0.47000000000E+01 0.  1.
         -5    1    3    3    0  501  0.77713055945E+01 -0.60098653071E+02  0.75950338734E+02  0.97276848456E+02  0.47000000000E+01 0.  1.
          5    1    4    4  502    0 -0.30840442519E+02 -0.22074242602E+02  0.57018448094E+02  0.68641084667E+02  0.47000000000E+01 0.  1.
         -5    1    4    4    0  502 -0.46304648818E+02  0.65412027857E+02 -0.32206399970E+02  0.86499688378E+02  0.47000000000E+01 0.  1.
<mgrwt>
<rscale>  0 0.30950008E+03</rscale>
<asrwt>0</asrwt>
<pdfrwt beam="1">  1       21 0.32326070E-01 0.30950008E+03</pdfrwt>
<pdfrwt beam="2">  1       21 0.17534037E-01 0.30950008E+03</pdfrwt>
<totfact> 0.26385893E+05</totfact>
</mgrwt>
</event>
<event>
 8    1  0.9478272E-006  0.2894283E+03  0.7546771E-02  0.1090648E+00
         21   -1    0    0  504  503  0.00000000000E+00  0.00000000000E+00  0.95899687028E+02  0.95899687028E+02  0.00000000000E+00 0. -1.
         21   -1    0    0  503  504 -0.00000000000E+00 -0.00000000000E+00 -0.21837601139E+03  0.21837601139E+03  0.00000000000E+00 0. -1.
         25    2    1    2    0    0  0.48170578221E+02 -0.11131801429E+02 -0.30294773974E+01  0.13445104923E+03  0.12499434105E+03 0.  0.
         25    2    1    2    0    0 -0.48170578221E+02  0.11131801429E+02 -0.11944684697E+03  0.17982464920E+03  0.12500013439E+03 0.  0.
          5    1    3    3  501    0  0.23996233521E+01  0.33947796583E+02  0.43177090507E+02  0.55177551864E+02  0.47000000000E+01 0. -1.
         -5    1    3    3    0  501  0.45770954869E+02 -0.45079598011E+02 -0.46206567905E+02  0.79273497362E+02  0.47000000000E+01 0. -1.
          5    1    4    4  502    0  0.10181837891E+02  0.35325965937E+02  0.76252863409E+01  0.37839512206E+02  0.47000000000E+01 0.  1.
         -5    1    4    4    0  502 -0.58352416112E+02 -0.24194164508E+02 -0.12707213331E+03  0.14198513699E+03  0.47000000000E+01 0.  1.
<mgrwt>
<rscale>  0 0.28942834E+03</rscale>
<asrwt>0</asrwt>
<pdfrwt beam="1">  1       21 0.14753798E-01 0.28942834E+03</pdfrwt>
<pdfrwt beam="2">  1       21 0.33596309E-01 0.28942834E+03</pdfrwt>
<totfact> 0.33762549E+05</totfact>
</mgrwt>
</event>
<event>
 8    1  0.9478272E-006  0.2782421E+03  0.7546771E-02  0.1096653E+00
         21   -1    0    0  504  503  0.00000000000E+00  0.00000000000E+00  0.45489269333E+03  0.45489269333E+03  0.00000000000E+00 0. -1.
         21   -1    0    0  503  504 -0.00000000000E+00 -0.00000000000E+00 -0.42547762873E+02  0.42547762873E+02  0.00000000000E+00 0. -1.
         25    2    1    2    0    0  0.57086658309E+02  0.21693016580E+02  0.20612274711E+03  0.24868103174E+03  0.12500478049E+03 0.  0.
         25    2    1    2    0    0 -0.57086658309E+02 -0.21693016580E+02  0.20622218335E+03  0.24875942446E+03  0.12499675527E+03 0.  0.
          5    1    3    3  501    0  0.13698854151E+02 -0.44424831406E+02  0.13262657737E+03  0.14061693808E+03  0.47000000000E+01 0.  1.
         -5    1    3    3    0  501  0.43387804158E+02  0.66117847987E+02  0.73496169740E+02  0.10806409366E+03  0.47000000000E+01 0.  1.
          5    1    4    4  502    0 -0.90040350242E+01  0.20935887345E+02 -0.83502053634E+01  0.24722458520E+02  0.47000000000E+01 0.  1.
         -5    1    4    4    0  502 -0.48082623285E+02 -0.42628903925E+02  0.21457238871E+03  0.22403696594E+03  0.47000000000E+01 0.  1.
<mgrwt>
<rscale>  0 0.27824210E+03</rscale>
<asrwt>0</asrwt>
<pdfrwt beam="1">  1       21 0.69983488E-01 0.27824210E+03</pdfrwt>
<pdfrwt beam="2">  1       21 0.65458100E-02 0.27824210E+03</pdfrwt>
<totfact> 0.30812783E+05</totfact>
</mgrwt>
</event>
<event>
 8    1  0.9478272E-006  0.2726397E+03  0.7546771E-02  0.1099778E+00
         21   -1    0    0  504  503  0.00000000000E+00  0.00000000000E+00  0.33771445676E+03  0.33771445676E+03  0.00000000000E+00 0. -1.
         21   -1    0    0  503  504 -0.00000000000E+00 -0.00000000000E+00 -0.55026066651E+02  0.55026066651E+02  0.00000000000E+00 0. -1.
         25    2    1    2    0    0  0.29110919664E+02 -0.44879209813E+02  0.12724742088E+03  0.18622202476E+03  0.12500058907E+03 0.  0.
         25    2    1    2    0    0 -0.29110919664E+02  0.44879209813E+02  0.15544096923E+03  0.20651849865E+03  0.12500562489E+03 0.  0.
          5    1    3    3  501    0  0.28873499742E+02 -0.78441429689E+02  0.40320884680E+02  0.92922551732E+02  0.47000000000E+01 0. -1.
         -5    1    3    3    0  501  0.23741992149E+00  0.33562219877E+02  0.86926536204E+02  0.93299473030E+02  0.47000000000E+01 0. -1.
          5    1    4    4  502    0 -0.75023143963E+02  0.21425922142E+02  0.12198571882E+03  0.14487977038E+03  0.47000000000E+01 0. -1.
         -5    1    4    4    0  502  0.45912224299E+02  0.23453287671E+02  0.33455250403E+02  0.61638728266E+02  0.47000000000E+01 0. -1.
<mgrwt>
<rscale>  0 0.27263968E+03</rscale>
<asrwt>0</asrwt>
<pdfrwt beam="1">  1       21 0.51956069E-01 0.27263968E+03</pdfrwt>
<pdfrwt beam="2">  1       21 0.84655490E-02 0.27263968E+03</pdfrwt>
<totfact> 0.37553330E+05</totfact>
</mgrwt>
</event>
<event>
 8    1  0.9478272E-006  0.3588212E+03  0.7546771E-02  0.1059052E+00
         21   -1    0    0  504  503  0.00000000000E+00  0.00000000000E+00  0.21575671695E+04  0.21575671695E+04  0.00000000000E+00 0. -1.
         21   -1    0    0  503  504 -0.00000000000E+00 -0.00000000000E+00 -0.14918729238E+02  0.14918729238E+02  0.00000000000E+00 0. -1.
         25    2    1    2    0    0  0.20029405364E+02 -0.61329656258E+02  0.39709972517E+03  0.42127790644E+03  0.12499751559E+03 0.  0.
         25    2    1    2    0    0 -0.20029405364E+02  0.61329656258E+02  0.17455487151E+04  0.17512079923E+04  0.12500644677E+03 0.  0.
          5    1    3    3  501    0  0.49449000414E+02  0.75936440016E+01  0.26143314248E+03  0.26621841607E+03  0.47000000000E+01 0.  1.
         -5    1    3    3    0  501 -0.29419595050E+02 -0.68923300260E+02  0.13566658270E+03  0.15505949036E+03  0.47000000000E+01 0.  1.
          5    1    4    4  502    0 -0.81926214794E+01  0.24416798431E+02  0.63221624993E+02  0.68427793762E+02  0.47000000000E+01 0.  1.
         -5    1    4    4    0  502 -0.11836783885E+02  0.36912857827E+02  0.16823270901E+04  0.16827801986E+04  0.47000000000E+01 0.  1.
<mgrwt>
<rscale>  0 0.35882118E+03</rscale>
<asrwt>0</asrwt>
<pdfrwt beam="1">  1       21 0.33193316E+00 0.35882118E+03</pdfrwt>
<pdfrwt beam="2">  1       21 0.22951908E-02 0.35882118E+03</pdfrwt>
<totfact> 0.19299746E+04</totfact>
</mgrwt>
</event>
<event>
 8    1  0.9478272E-006  0.3478822E+03  0.7546771E-02  0.1063488E+00
         21   -1    0    0  504  503  0.00000000000E+00  0.00000000000E+00  0.39268439793E+03  0.39268439793E+03  0.00000000000E+00 0. -1.
         21   -1    0    0  503  504 -0.00000000000E+00 -0.00000000000E+00 -0.77047901696E+02  0.77047901696E+02  0.00000000000E+00 0. -1.
         25    2    1    2    0    0  0.35631193956E+02  0.46883082536E+02  0.30046546875E+03  0.33071804623E+03  0.12500929077E+03 0.  0.
         25    2    1    2    0    0 -0.35631193956E+02 -0.46883082536E+02  0.15171027492E+02  0.13901425340E+03  0.12500878835E+03 0.  0.
          5    1    3    3  501    0 -0.77264055691E+01 -0.38874897728E+02  0.63953916178E+02  0.75386659369E+02  0.47000000000E+01 0. -1.
         -5    1    3    3    0  501  0.43357599526E+02  0.85757980263E+02  0.23651155257E+03  0.25533138686E+03  0.47000000000E+01 0. -1.
          5    1    4    4  502    0 -0.58221218812E+02 -0.61287717263E+02 -0.26970911466E+02  0.88856145947E+02  0.47000000000E+01 0. -1.
         -5    1    4    4    0  502  0.22590024855E+02  0.14404634727E+02  0.42141938958E+02  0.50158107457E+02  0.47000000000E+01 0. -1.
<mgrwt>
<rscale>  0 0.34788222E+03</rscale>
<asrwt>0</asrwt>
<pdfrwt beam="1">  1       21 0.60412983E-01 0.34788222E+03</pdfrwt>
<pdfrwt beam="2">  1       21 0.11853524E-01 0.34788222E+03</pdfrwt>
<totfact> 0.14659523E+05</totfact>
</mgrwt>
</event>
<event>
 8    1  0.9478272E-006  0.2509102E+03  0.7546771E-02  0.1112731E+00
         21   -1    0    0  504  503  0.00000000000E+00  0.00000000000E+00  0.68671395095E+01  0.68671395095E+01  0.00000000000E+00 0.  1.
         21   -1    0    0  503  504 -0.00000000000E+00 -0.00000000000E+00 -0.22919265513E+04  0.22919265513E+04  0.00000000000E+00 0.  1.
         25    2    1    2    0    0  0.53605679488E+01  0.36277414301E+00 -0.12271882004E+04  0.12335492860E+04  0.12499637772E+03 0.  0.
         25    2    1    2    0    0 -0.53605679488E+01 -0.36277414301E+00 -0.10578712114E+04  0.10652444049E+04  0.12500109936E+03 0.  0.
          5    1    3    3  501    0 -0.41412089744E+02  0.34177417209E+02 -0.87267410720E+03  0.87433703136E+03  0.47000000000E+01 0.  1.
         -5    1    3    3    0  501  0.46772657693E+02 -0.33814643066E+02 -0.35451409321E+03  0.35921225464E+03  0.47000000000E+01 0.  1.
          5    1    4    4  502    0 -0.21050812554E+00  0.54735073136E+02 -0.27666908494E+03  0.28207063851E+03  0.47000000000E+01 0.  1.
         -5    1    4    4    0  502 -0.51500598233E+01 -0.55097847279E+02 -0.78120212648E+03  0.78317376636E+03  0.47000000000E+01 0.  1.
<mgrwt>
<rscale>  0 0.25091018E+03</rscale>
<asrwt>0</asrwt>
<pdfrwt beam="1">  1       21 0.10564822E-02 0.25091018E+03</pdfrwt>
<pdfrwt beam="2">  1       21 0.35260436E+00 0.25091018E+03</pdfrwt>
<totfact> 0.55080853E+04</totfact>
</mgrwt>
</event>
<event>
 8    1  0.9478272E-006  0.2887133E+03  0.7546771E-02  0.1091023E+00
         21   -1    0    0  504  503  0.00000000000E+00  0.00000000000E+00  0.97792438840E+02  0.97792438840E+02  0.00000000000E+00 0.  1.
         21   -1    0    0  503  504 -0.00000000000E+00 -0.00000000000E+00 -0.21309259025E+03  0.21309259025E+03  0.00000000000E+00 0.  1.
         25    2    1    2    0    0 -0.39134705742E+02  0.11484398317E+02 -0.12183112981E+03  0.17923854094E+03  0.12498085361E+03 0.  0.
         25    2    1    2    0    0  0.39134705742E+02 -0.11484398317E+02  0.65309783924E+01  0.13164648816E+03  0.12499891026E+03 0.  0.
          5    1    3    3  501    0  0.17970968624E+02  0.40830838453E+02 -0.40855894489E+01  0.45043258354E+02  0.47000000000E+01 0. -1.
         -5    1    3    3    0  501 -0.57105674366E+02 -0.29346440136E+02 -0.11774554036E+03  0.13419528258E+03  0.47000000000E+01 0. -1.
          5    1    4    4  502    0 -0.29923190204E+02 -0.27164727493E+02 -0.31196688104E+02  0.51270294327E+02  0.47000000000E+01 0. -1.
         -5    1    4    4    0  502  0.69057895946E+02  0.15680329175E+02  0.37727666496E+02  0.80376193831E+02  0.47000000000E+01 0. -1.
<mgrwt>
<rscale>  0 0.28871331E+03</rscale>
<asrwt>0</asrwt>
<pdfrwt beam="1">  1       21 0.15044991E-01 0.28871331E+03</pdfrwt>
<pdfrwt beam="2">  1       21 0.32783475E-01 0.28871331E+03</pdfrwt>
<totfact> 0.34204474E+05</totfact>
</mgrwt>
</event>
<event>
 8    1  0.9478272E-006  0.2560295E+03  0.7546771E-02  0.1109553E+00
         21   -1    0    0  504  503  0.00000000000E+00  0.00000000000E+00  0.18482069749E+03  0.18482069749E+03  0.00000000000E+00 0.  1.
         21   -1    0    0  503  504 -0.00000000000E+00 -0.00000000000E+00 -0.88668504136E+02  0.88668504136E+02  0.00000000000E+00 0.  1.
         25    2    1    2    0    0  0.20633861785E+02  0.46010412517E+01  0.29135349657E+02  0.13007851341E+03  0.12499850086E+03 0.  0.
         25    2    1    2    0    0 -0.20633861785E+02 -0.46010412517E+01  0.67016843696E+02  0.14341068822E+03  0.12501376854E+03 0.  0.
          5    1    3    3  501    0  0.32345298191E+02  0.17024098586E+02  0.73548705033E+02  0.82265060990E+02  0.47000000000E+01 0. -1.
         -5    1    3    3    0  501 -0.11711436406E+02 -0.12423057334E+02 -0.44413355376E+02  0.47813452416E+02  0.47000000000E+01 0. -1.
          5    1    4    4  502    0 -0.59215654131E+02  0.15186896765E+02  0.77237638145E+02  0.98614797438E+02  0.47000000000E+01 0. -1.
         -5    1    4    4    0  502  0.38581792347E+02 -0.19787938017E+02 -0.10220794449E+02  0.44795890780E+02  0.47000000000E+01 0. -1.
<mgrwt>
<rscale>  0 0.25602949E+03</rscale>
<asrwt>0</asrwt>
<pdfrwt beam="1">  1       21 0.28433953E-01 0.25602949E+03</pdfrwt>
<pdfrwt beam="2">  1       21 0.13641308E-01 0.25602949E+03</pdfrwt>
<totfact> 0.54467607E+05</totfact>
</mgrwt>
</event>
<event>
 8    1  0.9478272E-006  0.7222015E+03  0.7546771E-02  0.9680000E-01
         21   -1    0    0  504  503  0.00000000000E+00  0.00000000000E+00  0.22813539270E+03  0.22813539270E+03  0.00000000000E+00 0.  1.
         21   -1    0    0  503  504 -0.00000000000E+00 -0.00000000000E+00 -0.57156306791E+03  0.57156306791E+03  0.00000000000E+00 0.  1.
         25    2    1    2    0    0 -0.31305750769E+03 -0.74812365207E+02 -0.54694691532E+02  0.34959426879E+03  0.12499100120E+03 0.  0.
         25    2    1    2    0    0  0.31305750769E+03  0.74812365207E+02 -0.28873298369E+03  0.45010419182E+03  0.12500061808E+03 0.  0.
          5    1    3    3  501    0 -0.68922338444E+02 -0.66468112169E+02  0.11260377973E+02  0.96525565442E+02  0.47000000000E+01 0.  1.
         -5    1    3    3    0  501 -0.24413516924E+03 -0.83442530385E+01 -0.65955069505E+02  0.25306870335E+03  0.47000000000E+01 0.  1.
          5    1    4    4  502    0  0.24924560415E+03  0.10687513028E+03 -0.20523209994E+03  0.34012934232E+03  0.47000000000E+01 0.  1.
         -5    1    4    4    0  502  0.63811903534E+02 -0.32062765072E+02 -0.83500883744E+02  0.10997484950E+03  0.47000000000E+01 0.  1.
<mgrwt>
<rscale>  0 0.72220154E+03</rscale>
<asrwt>0</asrwt>
<pdfrwt beam="1">  1       21 0.35097753E-01 0.72220154E+03</pdfrwt>
<pdfrwt beam="2">  1       21 0.87932779E-01 0.72220154E+03</pdfrwt>
<totfact> 0.72044112E+03</totfact>
</mgrwt>
</event>
<event>
 8    1  0.9478272E-006  0.4092583E+03  0.7546771E-02  0.1040620E+00
         21   -1    0    0  504  503  0.00000000000E+00  0.00000000000E+00  0.73010166549E+02  0.73010166549E+02  0.00000000000E+00 0.  1.
         21   -1    0    0  503  504 -0.00000000000E+00 -0.00000000000E+00 -0.57352422401E+03  0.57352422401E+03  0.00000000000E+00 0.  1.
         25    2    1    2    0    0 -0.69893916408E+02 -0.10794256279E+03 -0.40592814265E+03  0.44377898044E+03  0.12500148028E+03 0.  0.
         25    2    1    2    0    0  0.69893916408E+02  0.10794256279E+03 -0.94585914808E+02  0.20275541012E+03  0.12500601842E+03 0.  0.
          5    1    3    3  501    0 -0.24636528188E+01 -0.43728895429E+02 -0.23055863042E+02  0.49718695692E+02  0.47000000000E+01 0. -1.
         -5    1    3    3    0  501 -0.67430263589E+02 -0.64213667358E+02 -0.38287227961E+03  0.39406028475E+03  0.47000000000E+01 0. -1.
          5    1    4    4  502    0  0.47613885479E+02  0.10881026547E+03 -0.14804011550E+02  0.11978315708E+03  0.47000000000E+01 0.  1.
         -5    1    4    4    0  502  0.22280030929E+02 -0.86770268667E+00 -0.79781903258E+02  0.82972253034E+02  0.47000000000E+01 0.  1.
<mgrwt>
<rscale>  0 0.40925835E+03</rscale>
<asrwt>0</asrwt>
<pdfrwt beam="1">  1       21 0.11232334E-01 0.40925835E+03</pdfrwt>
<pdfrwt beam="2">  1       21 0.88234492E-01 0.40925835E+03</pdfrwt>
<totfact> 0.67645575E+04</totfact>
</mgrwt>
</event>
<event>
 8    1  0.9478272E-006  0.4555008E+03  0.7546771E-02  0.1026094E+00
         21   -1    0    0  504  503  0.00000000000E+00  0.00000000000E+00  0.51186915579E+03  0.51186915579E+03  0.00000000000E+00 0.  1.
         21   -1    0    0  503  504 -0.00000000000E+00 -0.00000000000E+00 -0.10133494735E+03  0.10133494735E+03  0.00000000000E+00 0.  1.
         25    2    1    2    0    0  0.99931303360E+02  0.14921116189E+03  0.12016651047E+03  0.24962771450E+03  0.12499507743E+03 0.  0.
         25    2    1    2    0    0 -0.99931303360E+02 -0.14921116189E+03  0.29036769797E+03  0.36357638865E+03  0.12499661649E+03 0.  0.
          5    1    3    3  501    0 -0.26752313452E+02  0.26194948471E+02  0.34234960356E+01  0.37890261618E+02  0.47000000000E+01 0. -1.
         -5    1    3    3    0  501  0.12668361681E+03  0.12301621342E+03  0.11674301443E+03  0.21173745288E+03  0.47000000000E+01 0. -1.
          5    1    4    4  502    0 -0.76436673412E+02 -0.10267747951E+03  0.90159990024E+02  0.15664017250E+03  0.47000000000E+01 0. -1.
         -5    1    4    4    0  502 -0.23494629947E+02 -0.46533682385E+02  0.20020770795E+03  0.20693621615E+03  0.47000000000E+01 0. -1.
<mgrwt>
<rscale>  0 0.45550075E+03</rscale>
<asrwt>0</asrwt>
<pdfrwt beam="1">  1       21 0.78749100E-01 0.45550075E+03</pdfrwt>
<pdfrwt beam="2">  1       21 0.15589992E-01 0.45550075E+03</pdfrwt>
<totfact> 0.47797795E+04</totfact>
</mgrwt>
</event>
<event>
 8    1  0.9478272E-006  0.2591969E+03  0.7546771E-02  0.1107627E+00
         21   -1    0    0  504  503  0.00000000000E+00  0.00000000000E+00  0.90021399576E+01  0.90021399576E+01  0.00000000000E+00 0.  1.
         21   -1    0    0  503  504 -0.00000000000E+00 -0.00000000000E+00 -0.18657515832E+04  0.18657515832E+04  0.00000000000E+00 0.  1.
         25    2    1    2    0    0  0.25730313902E+02 -0.11915012363E+02 -0.78991225900E+03  0.80024436275E+03  0.12500258643E+03 0.  0.
         25    2    1    2    0    0 -0.25730313902E+02  0.11915012363E+02 -0.10668371843E+04  0.10745093604E+04  0.12499908543E+03 0.  0.
          5    1    3    3  501    0  0.62000174083E+02 -0.41837691487E+02 -0.59423724768E+03  0.59894441357E+03  0.47000000000E+01 0.  1.
         -5    1    3    3    0  501 -0.36269860181E+02  0.29922679124E+02 -0.19567501132E+03  0.20129994918E+03  0.47000000000E+01 0.  1.
          5    1    4    4  502    0 -0.41092397262E+02 -0.38896191627E+02 -0.27067103770E+03  0.27656174625E+03  0.47000000000E+01 0.  1.
         -5    1    4    4    0  502  0.15362083360E+02  0.50811203991E+02 -0.79616614656E+03  0.79794761419E+03  0.47000000000E+01 0.  1.
<mgrwt>
<rscale>  0 0.25919689E+03</rscale>
<asrwt>0</asrwt>
<pdfrwt beam="1">  1       21 0.13849454E-02 0.25919689E+03</pdfrwt>
<pdfrwt beam="2">  1       21 0.28703853E+00 0.25919689E+03</pdfrwt>
<totfact> 0.86228979E+04</totfact>
</mgrwt>
</event>
<event>
 8    1  0.9478272E-006  0.2775541E+03  0.7546771E-02  0.1097032E+00
         21   -1    0    0  504  503  0.00000000000E+00  0.00000000000E+00  0.63820505527E+03  0.63820505527E+03  0.00000000000E+00 0.  1.
         21   -1    0    0  503  504 -0.00000000000E+00 -0.00000000000E+00 -0.30176938204E+02  0.30176938204E+02  0.00000000000E+00 0.  1.
         25    2    1    2    0    0 -0.52577124785E+02  0.31494813712E+00  0.23299524951E+03  0.26958549871E+03  0.12500040631E+03 0.  0.
         25    2    1    2    0    0  0.52577124785E+02 -0.31494813712E+00  0.37503286755E+03  0.39879649476E+03  0.12499815697E+03 0.  0.
          5    1    3    3  501    0 -0.47339462255E+02  0.26665211848E+02  0.25319944992E+02  0.60126930937E+02  0.47000000000E+01 0. -1.
         -5    1    3    3    0  501 -0.52376625308E+01 -0.26350263711E+02  0.20767530452E+03  0.20945856777E+03  0.47000000000E+01 0. -1.
          5    1    4    4  502    0  0.31861938403E+02  0.56574565039E+02  0.11881291169E+03  0.13547864227E+03  0.47000000000E+01 0. -1.
         -5    1    4    4    0  502  0.20715186382E+02 -0.56889513176E+02  0.25621995586E+03  0.26331785249E+03  0.47000000000E+01 0. -1.
<mgrwt>
<rscale>  0 0.27755414E+03</rscale>
<asrwt>0</asrwt>
<pdfrwt beam="1">  1       21 0.98185383E-01 0.27755414E+03</pdfrwt>
<pdfrwt beam="2">  1       21 0.46426063E-02 0.27755414E+03</pdfrwt>
<totfact> 0.25513166E+05</totfact>
</mgrwt>
</event>
<event>
 8    1  0.9478272E-006  0.3951341E+03  0.7546771E-02  0.1045478E+00
         21   -1    0    0  504  503  0.00000000000E+00  0.00000000000E+00  0.17742527889E+03  0.17742527889E+03  0.00000000000E+00 0.  1.
         21   -1    0    0  503  504 -0.00000000000E+00 -0.00000000000E+00 -0.21999532597E+03  0.21999532597E+03  0.00000000000E+00 0.  1.
         25    2    1    2    0    0  0.12461246415E+02  0.10390473803E+03 -0.13353682712E+03  0.21073719289E+03  0.12500641192E+03 0.  0.
         25    2    1    2    0    0 -0.12461246415E+02 -0.10390473803E+03  0.90966780043E+02  0.18668341196E+03  0.12499705589E+03 0.  0.
          5    1    3    3  501    0  0.25203519554E+01 -0.24872914607E+02 -0.77094909054E+00  0.25449919794E+02  0.47000000000E+01 0.  1.
         -5    1    3    3    0  501  0.99408944594E+01  0.12877765264E+03 -0.13276587803E+03  0.18528727310E+03  0.47000000000E+01 0.  1.
          5    1    4    4  502    0  0.50095848455E+02 -0.55095270498E+02  0.13755528304E+02  0.75870860168E+02  0.47000000000E+01 0.  1.
         -5    1    4    4    0  502 -0.62557094870E+02 -0.48809467536E+02  0.77211251740E+02  0.11081255179E+03  0.47000000000E+01 0.  1.
<mgrwt>
<rscale>  0 0.39513406E+03</rscale>
<asrwt>0</asrwt>
<pdfrwt beam="1">  1       21 0.27296197E-01 0.39513406E+03</pdfrwt>
<pdfrwt beam="2">  1       21 0.33845435E-01 0.39513406E+03</pdfrwt>
<totfact> 0.10155254E+05</totfact>
</mgrwt>
</event>
<event>
 8    1  0.9478272E-006  0.2530490E+03  0.7546771E-02  0.1111393E+00
         21   -1    0    0  504  503  0.00000000000E+00  0.00000000000E+00  0.14789660993E+03  0.14789660993E+03  0.00000000000E+00 0.  1.
         21   -1    0    0  503  504 -0.00000000000E+00 -0.00000000000E+00 -0.10824079033E+03  0.10824079033E+03  0.00000000000E+00 0.  1.
         25    2    1    2    0    0  0.14918274483E+02 -0.84567694417E+01  0.29422515783E+02  0.12954712303E+03  0.12499080281E+03 0.  0.
         25    2    1    2    0    0 -0.14918274483E+02  0.84567694417E+01  0.10233303818E+02  0.12659027723E+03  0.12500522356E+03 0.  0.
          5    1    3    3  501    0 -0.53851986285E+02 -0.13888070813E+02  0.22053057801E+02  0.60011184758E+02  0.47000000000E+01 0.  1.
         -5    1    3    3    0  501  0.68770260767E+02  0.54313013714E+01  0.73694579817E+01  0.69535938273E+02  0.47000000000E+01 0.  1.
          5    1    4    4  502    0  0.79558354628E+01 -0.36414337296E+02  0.49791937133E+02  0.62374885027E+02  0.47000000000E+01 0.  1.
         -5    1    4    4    0  502 -0.22874109945E+02  0.44871106738E+02 -0.39558633315E+02  0.64215392200E+02  0.47000000000E+01 0.  1.
<mgrwt>
<rscale>  0 0.25304898E+03</rscale>
<asrwt>0</asrwt>
<pdfrwt beam="1">  1       21 0.22753324E-01 0.25304898E+03</pdfrwt>
<pdfrwt beam="2">  1       21 0.16652429E-01 0.25304898E+03</pdfrwt>
<totfact> 0.58067835E+05</totfact>
</mgrwt>
</event>
<event>
 8    1  0.9478272E-006  0.2802377E+03  0.7546771E-02  0.1095559E+00
         21   -1    0    0  504  503  0.00000000000E+00  0.00000000000E+00  0.44045012226E+02  0.44045012226E+02  0.00000000000E+00 0. -1.
         21   -1    0    0  503  504 -0.00000000000E+00 -0.00000000000E+00 -0.44575527339E+03  0.44575527339E+03  0.00000000000E+00 0. -1.
         25    2    1    2    0    0  0.53754275107E+02 -0.71850024847E+01 -0.14375564609E+03  0.19806800563E+03  0.12499641083E+03 0.  0.
         25    2    1    2    0    0 -0.53754275107E+02  0.71850024847E+01 -0.25795461507E+03  0.29173227998E+03  0.12500397351E+03 0.  0.
          5    1    3    3  501    0  0.21170491979E+02 -0.26855659395E+02 -0.15444555995E+03  0.15825592299E+03  0.47000000000E+01 0. -1.
         -5    1    3    3    0  501  0.32583783127E+02  0.19670656910E+02  0.10689913861E+02  0.39812082645E+02  0.47000000000E+01 0. -1.
          5    1    4    4  502    0 -0.72648934407E+02  0.50397331323E+02 -0.15827625762E+03  0.18135937363E+03  0.47000000000E+01 0.  1.
         -5    1    4    4    0  502  0.18894659300E+02 -0.43212328839E+02 -0.99678357451E+02  0.11037290636E+03  0.47000000000E+01 0.  1.
<mgrwt>
<rscale>  0 0.28023773E+03</rscale>
<asrwt>0</asrwt>
<pdfrwt beam="1">  1       21 0.67761557E-02 0.28023773E+03</pdfrwt>
<pdfrwt beam="2">  1       21 0.68577735E-01 0.28023773E+03</pdfrwt>
<totfact> 0.30342071E+05</totfact>
</mgrwt>
</event>
<event>
 8    1  0.9478272E-006  0.2691452E+03  0.7546771E-02  0.1101770E+00
         21   -1    0    0  504  503  0.00000000000E+00  0.00000000000E+00  0.45963954493E+02  0.45963954493E+02  0.00000000000E+00 0. -1.
         21   -1    0    0  503  504 -0.00000000000E+00 -0.00000000000E+00 -0.39399967704E+03  0.39399967704E+03  0.00000000000E+00 0. -1.
         25    2    1    2    0    0  0.33666363326E+01 -0.49085840686E+02 -0.18714241722E+03  0.23036175825E+03  0.12499400524E+03 0.  0.
         25    2    1    2    0    0 -0.33666363326E+01  0.49085840686E+02 -0.16089330533E+03  0.20960187328E+03  0.12500214233E+03 0.  0.
          5    1    3    3  501    0 -0.47756282876E+02 -0.63513018017E+02 -0.12794161885E+03  0.15068415261E+03  0.47000000000E+01 0. -1.
         -5    1    3    3    0  501  0.51122919209E+02  0.14427177331E+02 -0.59200798369E+02  0.79677605647E+02  0.47000000000E+01 0. -1.
          5    1    4    4  502    0  0.28857761378E+02  0.67064428499E+02 -0.15571385093E+03  0.17204447487E+03  0.47000000000E+01 0.  1.
         -5    1    4    4    0  502 -0.32224397711E+02 -0.17978587813E+02 -0.51794543954E+01  0.37557398411E+02  0.47000000000E+01 0.  1.
<mgrwt>
<rscale>  0 0.26914519E+03</rscale>
<asrwt>0</asrwt>
<pdfrwt beam="1">  1       21 0.70713775E-02 0.26914519E+03</pdfrwt>
<pdfrwt beam="2">  1       21 0.60615336E-01 0.26914519E+03</pdfrwt>
<totfact> 0.37016832E+05</totfact>
</mgrwt>
</event>
<event>
 8    1  0.9478272E-006  0.3241822E+03  0.7546771E-02  0.1073740E+00
         21   -1    0    0  504  503  0.00000000000E+00  0.00000000000E+00  0.53241456146E+03  0.53241456146E+03  0.00000000000E+00 0. -1.
         21   -1    0    0  503  504 -0.00000000000E+00 -0.00000000000E+00 -0.49347869627E+02  0.49347869627E+02  0.00000000000E+00 0. -1.
         25    2    1    2    0    0 -0.24494953362E+01 -0.52646329444E+01  0.56619650818E+02  0.13733373640E+03  0.12498421464E+03 0.  0.
         25    2    1    2    0    0  0.24494953362E+01  0.52646329444E+01  0.42644704101E+03  0.44442869468E+03  0.12500427785E+03 0.  0.
          5    1    3    3  501    0  0.21582408586E+02 -0.59247881021E+02  0.15239819225E+02  0.65041939207E+02  0.47000000000E+01 0. -1.
         -5    1    3    3    0  501 -0.24031903922E+02  0.53983248077E+02  0.41379831593E+02  0.72291797195E+02  0.47000000000E+01 0. -1.
          5    1    4    4  502    0  0.10155594786E+02 -0.42375825852E+02  0.57450096315E+02  0.72259603436E+02  0.47000000000E+01 0. -1.
         -5    1    4    4    0  502 -0.77060994495E+01  0.47640458796E+02  0.36899694470E+03  0.37216909125E+03  0.47000000000E+01 0. -1.
<mgrwt>
<rscale>  0 0.32418220E+03</rscale>
<asrwt>0</asrwt>
<pdfrwt beam="1">  1       21 0.81909929E-01 0.32418220E+03</pdfrwt>
<pdfrwt beam="2">  1       21 0.75919803E-02 0.32418220E+03</pdfrwt>
<totfact> 0.16489481E+05</totfact>
</mgrwt>
</event>
<event>
 8    1  0.9478272E-006  0.2704782E+03  0.7546771E-02  0.1101006E+00
         21   -1    0    0  504  503  0.00000000000E+00  0.00000000000E+00  0.10264311991E+02  0.10264311991E+02  0.00000000000E+00 0. -1.
         21   -1    0    0  503  504 -0.00000000000E+00 -0.00000000000E+00 -0.17818645085E+04  0.17818645085E+04  0.00000000000E+00 0. -1.
         25    2    1    2    0    0  0.51557739519E+02 -0.21331984240E+01 -0.87336672003E+03  0.88377352458E+03  0.12499385604E+03 0.  0.
         25    2    1    2    0    0 -0.51557739519E+02  0.21331984240E+01 -0.89823347646E+03  0.90835529589E+03  0.12499285702E+03 0.  0.
          5    1    3    3  501    0  0.59410260674E+02  0.49413356418E+02 -0.39224296981E+03  0.39980982508E+03  0.47000000000E+01 0. -1.
         -5    1    3    3    0  501 -0.78525211546E+01 -0.51546554842E+02 -0.48112375022E+03  0.48396369950E+03  0.47000000000E+01 0. -1.
          5    1    4    4  502    0 -0.83991648511E+02 -0.13336065255E+02 -0.40862274082E+03  0.41740517722E+03  0.47000000000E+01 0.  1.
         -5    1    4    4    0  502  0.32433908992E+02  0.15469263679E+02 -0.48961073564E+03  0.49095011867E+03  0.47000000000E+01 0.  1.
<mgrwt>
<rscale>  0 0.27047819E+03</rscale>
<asrwt>0</asrwt>
<pdfrwt beam="1">  1       21 0.15791257E-02 0.27047819E+03</pdfrwt>
<pdfrwt beam="2">  1       21 0.27413286E+00 0.27047819E+03</pdfrwt>
<totfact> 0.82438354E+04</totfact>
</mgrwt>
</event>
<event>
 8    1  0.9478272E-006  0.2956267E+03  0.7546771E-02  0.1087447E+00
         21   -1    0    0  504  503  0.00000000000E+00  0.00000000000E+00  0.21990754638E+02  0.21990754638E+02  0.00000000000E+00 0. -1.
         21   -1    0    0  503  504 -0.00000000000E+00 -0.00000000000E+00 -0.99354421716E+03  0.99354421716E+03  0.00000000000E+00 0. -1.
         25    2    1    2    0    0  0.51980412748E+01  0.20983675640E+02 -0.74645961498E+03  0.75716174115E+03  0.12499844476E+03 0.  0.
         25    2    1    2    0    0 -0.51980412748E+01 -0.20983675640E+02 -0.22509384754E+03  0.25837323065E+03  0.12498860683E+03 0.  0.
          5    1    3    3  501    0 -0.34284738468E+02  0.60052564840E+02 -0.47577254505E+03  0.48079450752E+03  0.47000000000E+01 0. -1.
         -5    1    3    3    0  501  0.39482779743E+02 -0.39068889199E+02 -0.27068706993E+03  0.27636723363E+03  0.47000000000E+01 0. -1.
          5    1    4    4  502    0  0.21912202173E+02 -0.31034947806E+01  0.72237054323E+01  0.23749699032E+02  0.47000000000E+01 0. -1.
         -5    1    4    4    0  502 -0.27110243448E+02 -0.17880180860E+02 -0.23231755297E+03  0.23462353161E+03  0.47000000000E+01 0. -1.
<mgrwt>
<rscale>  0 0.29562670E+03</rscale>
<asrwt>0</asrwt>
<pdfrwt beam="1">  1       21 0.33831925E-02 0.29562670E+03</pdfrwt>
<pdfrwt beam="2">  1       21 0.15285298E+00 0.29562670E+03</pdfrwt>
<totfact> 0.14168004E+05</totfact>
</mgrwt>
</event>
<event>
 8    1  0.9478272E-006  0.2848801E+03  0.7546771E-02  0.1093053E+00
         21   -1    0    0  504  503  0.00000000000E+00  0.00000000000E+00  0.24377883236E+02  0.24377883236E+02  0.00000000000E+00 0. -1.
         21   -1    0    0  503  504 -0.00000000000E+00 -0.00000000000E+00 -0.83227794927E+03  0.83227794927E+03  0.00000000000E+00 0. -1.
         25    2    1    2    0    0  0.56428109423E+02 -0.37130739097E+02 -0.37348520689E+03  0.39959947552E+03  0.12500287096E+03 0.  0.
         25    2    1    2    0    0 -0.56428109423E+02  0.37130739097E+02 -0.43441485914E+03  0.45705635699E+03  0.12498568039E+03 0.  0.
          5    1    3    3  501    0 -0.25037596421E+02 -0.46861143372E+02 -0.20938875819E+03  0.21607542676E+03  0.47000000000E+01 0.  1.
         -5    1    3    3    0  501  0.81465705844E+02  0.97304042753E+01 -0.16409644871E+03  0.18352404876E+03  0.47000000000E+01 0.  1.
          5    1    4    4  502    0 -0.83480344852E+02  0.33033400652E+01 -0.36963550297E+03  0.37898862131E+03  0.47000000000E+01 0. -1.
         -5    1    4    4    0  502  0.27052235429E+02  0.33827399031E+02 -0.64779356178E+02  0.78067735677E+02  0.47000000000E+01 0. -1.
<mgrwt>
<rscale>  0 0.28488015E+03</rscale>
<asrwt>0</asrwt>
<pdfrwt beam="1">  1       21 0.37504434E-02 0.28488015E+03</pdfrwt>
<pdfrwt beam="2">  1       21 0.12804277E+00 0.28488015E+03</pdfrwt>
<totfact> 0.19000716E+05</totfact>
</mgrwt>
</event>
<event>
 8    1  0.9478272E-006  0.2678107E+03  0.7546771E-02  0.1102539E+00
         21   -1    0    0  504  503  0.00000000000E+00  0.00000000000E+00  0.57734755420E+02  0.57734755420E+02  0.00000000000E+00 0.  1.
         21   -1    0    0  503  504 -0.00000000000E+00 -0.00000000000E+00 -0.31056925577E+03  0.31056925577E+03  0.00000000000E+00 0.  1.
         25    2    1    2    0    0 -0.37615251327E+02  0.13716965587E+02 -0.89863774807E+02  0.15904937382E+03  0.12497256905E+03 0.  0.
         25    2    1    2    0    0  0.37615251327E+02 -0.13716965587E+02 -0.16297072554E+03  0.20925463736E+03  0.12499993439E+03 0.  0.
          5    1    3    3  501    0  0.89845920775E+00  0.65734735776E+02 -0.38869629386E+02  0.76516670113E+02  0.47000000000E+01 0. -1.
         -5    1    3    3    0  501 -0.38513710535E+02 -0.52017770189E+02 -0.50994145421E+02  0.82532703711E+02  0.47000000000E+01 0. -1.
          5    1    4    4  502    0  0.42262105961E+02  0.45840239728E+02 -0.45321339474E+02  0.77223875779E+02  0.47000000000E+01 0. -1.
         -5    1    4    4    0  502 -0.46468546341E+01 -0.59557205315E+02 -0.11764938607E+03  0.13203076158E+03  0.47000000000E+01 0. -1.
<mgrwt>
<rscale>  0 0.26781068E+03</rscale>
<asrwt>0</asrwt>
<pdfrwt beam="1">  1       21 0.88822702E-02 0.26781068E+03</pdfrwt>
<pdfrwt beam="2">  1       21 0.47779885E-01 0.26781068E+03</pdfrwt>
<totfact> 0.41185677E+05</totfact>
</mgrwt>
</event>
<event>
 8    1  0.9478272E-006  0.2854029E+03  0.7546771E-02  0.1092774E+00
         21   -1    0    0  504  503  0.00000000000E+00  0.00000000000E+00  0.97704881012E+02  0.97704881012E+02  0.00000000000E+00 0. -1.
         21   -1    0    0  503  504 -0.00000000000E+00 -0.00000000000E+00 -0.20842055889E+03  0.20842055889E+03  0.00000000000E+00 0. -1.
         25    2    1    2    0    0 -0.18947546579E+02 -0.49842928025E+02 -0.86618113285E+01  0.13618775444E+03  0.12501500105E+03 0.  0.
         25    2    1    2    0    0  0.18947546579E+02  0.49842928025E+02 -0.10205386655E+03  0.16993768547E+03  0.12498199178E+03 0.  0.
          5    1    3    3  501    0 -0.63038360581E+02 -0.29599167222E+01 -0.27448134815E+02  0.68978881671E+02  0.47000000000E+01 0. -1.
         -5    1    3    3    0  501  0.44090814002E+02 -0.46883011303E+02  0.18786323487E+02  0.67208872765E+02  0.47000000000E+01 0. -1.
          5    1    4    4  502    0 -0.21585804172E+02  0.64955077277E+02 -0.11628554397E+02  0.69587515282E+02  0.47000000000E+01 0. -1.
         -5    1    4    4    0  502  0.40533350751E+02 -0.15112149251E+02 -0.90425312154E+02  0.10035017019E+03  0.47000000000E+01 0. -1.
<mgrwt>
<rscale>  0 0.28540291E+03</rscale>
<asrwt>0</asrwt>
<pdfrwt beam="1">  1       21 0.15031520E-01 0.28540291E+03</pdfrwt>
<pdfrwt beam="2">  1       21 0.32064701E-01 0.28540291E+03</pdfrwt>
<totfact> 0.35824989E+05</totfact>
</mgrwt>
</event>
<event>
 8    1  0.9478272E-006  0.2719917E+03  0.7546771E-02  0.1100145E+00
         21   -1    0    0  504  503  0.00000000000E+00  0.00000000000E+00  0.10515932901E+04  0.10515932901E+04  0.00000000000E+00 0. -1.
         21   -1    0    0  503  504 -0.00000000000E+00 -0.00000000000E+00 -0.17587470840E+02  0.17587470840E+02  0.00000000000E+00 0. -1.
         25    2    1    2    0    0 -0.36144887698E+02 -0.31625640617E+02  0.61033909108E+03  0.62485653868E+03  0.12500101513E+03 0.  0.
         25    2    1    2    0    0  0.36144887698E+02  0.31625640617E+02  0.42366672815E+03  0.44432422223E+03  0.12499553538E+03 0.  0.
          5    1    3    3  501    0 -0.52381380506E+02 -0.79453675585E+01  0.58137529969E+03  0.58380327764E+03  0.47000000000E+01 0.  1.
         -5    1    3    3    0  501  0.16236492808E+02 -0.23680273058E+02  0.28963791386E+02  0.41053261043E+02  0.47000000000E+01 0.  1.
          5    1    4    4  502    0 -0.23715565732E+01 -0.24125792152E+01 -0.78369648291E+01  0.97443746224E+01  0.47000000000E+01 0.  1.
         -5    1    4    4    0  502  0.38516444271E+02  0.34038219832E+02  0.43150369298E+03  0.43457984760E+03  0.47000000000E+01 0.  1.
<mgrwt>
<rscale>  0 0.27199166E+03</rscale>
<asrwt>0</asrwt>
<pdfrwt beam="1">  1       21 0.16178353E+00 0.27199166E+03</pdfrwt>
<pdfrwt beam="2">  1       21 0.27057656E-02 0.27199166E+03</pdfrwt>
<totfact> 0.17764083E+05</totfact>
</mgrwt>
</event>
<event>
 8    1  0.9478272E-006  0.3285624E+03  0.7546771E-02  0.1071775E+00
         21   -1    0    0  504  503  0.00000000000E+00  0.00000000000E+00  0.33687558102E+03  0.33687558102E+03  0.00000000000E+00 0.  1.
         21   -1    0    0  503  504 -0.00000000000E+00 -0.00000000000E+00 -0.80113595136E+02  0.80113595136E+02  0.00000000000E+00 0.  1.
         25    2    1    2    0    0  0.19849345856E+02  0.48935774405E+02  0.10839680947E+02  0.13611813920E+03  0.12498776976E+03 0.  0.
         25    2    1    2    0    0 -0.19849345856E+02 -0.48935774405E+02  0.24592230493E+03  0.28087103695E+03  0.12498821058E+03 0.  0.
          5    1    3    3  501    0 -0.39124808637E+01  0.27258331647E+02 -0.55560548174E+02  0.62188332218E+02  0.47000000000E+01 0.  1.
         -5    1    3    3    0  501  0.23761826719E+02  0.21677442758E+02  0.66400229122E+02  0.73929806986E+02  0.47000000000E+01 0.  1.
          5    1    4    4  502    0 -0.68043173195E+02 -0.34077013997E+02  0.95817505348E+02  0.12245080903E+03  0.47000000000E+01 0. -1.
         -5    1    4    4    0  502  0.48193827339E+02 -0.14858760408E+02  0.15010479958E+03  0.15842022792E+03  0.47000000000E+01 0. -1.
<mgrwt>
<rscale>  0 0.32856241E+03</rscale>
<asrwt>0</asrwt>
<pdfrwt beam="1">  1       21 0.51827011E-01 0.32856241E+03</pdfrwt>
<pdfrwt beam="2">  1       21 0.12325169E-01 0.32856241E+03</pdfrwt>
<totfact> 0.19074422E+05</totfact>
</mgrwt>
</event>
<event>
 8    1  0.9478272E-006  0.3503856E+03  0.7546771E-02  0.1062457E+00
         21   -1    0    0  504  503  0.00000000000E+00  0.00000000000E+00  0.10290462320E+04  0.10290462320E+04  0.00000000000E+00 0. -1.
         21   -1    0    0  503  504 -0.00000000000E+00 -0.00000000000E+00 -0.29826173739E+02  0.29826173739E+02  0.00000000000E+00 0. -1.
         25    2    1    2    0    0  0.25543007609E+02  0.66103092609E+02  0.80248263728E+03  0.81524556068E+03  0.12499950790E+03 0.  0.
         25    2    1    2    0    0 -0.25543007609E+02 -0.66103092609E+02  0.19673742098E+03  0.24362684506E+03  0.12500545080E+03 0.  0.
          5    1    3    3  501    0 -0.74082934171E+01 -0.34133505195E+02  0.13842091448E+03  0.14283703495E+03  0.47000000000E+01 0. -1.
         -5    1    3    3    0  501  0.32951301027E+02  0.10023659780E+03  0.66406172281E+03  0.67240852573E+03  0.47000000000E+01 0. -1.
          5    1    4    4  502    0 -0.33777727245E+02  0.20427345366E+01 -0.10847274493E+01  0.34181489960E+02  0.47000000000E+01 0. -1.
         -5    1    4    4    0  502  0.82347196357E+01 -0.68145827145E+02  0.19782214843E+03  0.20944535510E+03  0.47000000000E+01 0. -1.
<mgrwt>
<rscale>  0 0.35038557E+03</rscale>
<asrwt>0</asrwt>
<pdfrwt beam="1">  1       21 0.15831478E+00 0.35038557E+03</pdfrwt>
<pdfrwt beam="2">  1       21 0.45886429E-02 0.35038557E+03</pdfrwt>
<totfact> 0.75539203E+04</totfact>
</mgrwt>
</event>
<event>
 8    1  0.9478272E-006  0.3487075E+03  0.7546771E-02  0.1063147E+00
         21   -1    0    0  504  503  0.00000000000E+00  0.00000000000E+00  0.36536589452E+03  0.36536589452E+03  0.00000000000E+00 0. -1.
         21   -1    0    0  503  504 -0.00000000000E+00 -0.00000000000E+00 -0.83202166688E+02  0.83202166688E+02  0.00000000000E+00 0. -1.
         25    2    1    2    0    0 -0.82375199555E+02  0.87754807244E+02  0.16271334856E+03  0.23789804107E+03  0.12503305342E+03 0.  0.
         25    2    1    2    0    0  0.82375199555E+02 -0.87754807244E+02  0.11945037927E+03  0.21067002014E+03  0.12500753810E+03 0.  0.
          5    1    3    3  501    0  0.23363329840E+02  0.58679893130E+02  0.67918766953E+02  0.92866699862E+02  0.47000000000E+01 0. -1.
         -5    1    3    3    0  501 -0.10573852940E+03  0.29074914114E+02  0.94794581612E+02  0.14503134121E+03  0.47000000000E+01 0. -1.
          5    1    4    4  502    0  0.49163153460E+02 -0.27645995274E+02 -0.15927591984E+02  0.58797065396E+02  0.47000000000E+01 0. -1.
         -5    1    4    4    0  502  0.33212046095E+02 -0.60108811970E+02  0.13537797125E+03  0.15187295475E+03  0.47000000000E+01 0. -1.
<mgrwt>
<rscale>  0 0.34870752E+03</rscale>
<asrwt>0</asrwt>
<pdfrwt beam="1">  1       21 0.56210137E-01 0.34870752E+03</pdfrwt>
<pdfrwt beam="2">  1       21 0.12800334E-01 0.34870752E+03</pdfrwt>
<totfact> 0.14904635E+05</totfact>
</mgrwt>
</event>
<event>
 8    1  0.9478272E-006  0.3884021E+03  0.7546771E-02  0.1047871E+00
         21   -1    0    0  504  503  0.00000000000E+00  0.00000000000E+00  0.42304888870E+03  0.42304888870E+03  0.00000000000E+00 0. -1.
         21   -1    0    0  503  504 -0.00000000000E+00 -0.00000000000E+00 -0.89148202370E+02  0.89148202370E+02  0.00000000000E+00 0. -1.
         25    2    1    2    0    0  0.11414966169E+03 -0.57243921583E+02  0.66682961563E+02  0.19073132872E+03  0.12499924229E+03 0.  0.
         25    2    1    2    0    0 -0.11414966169E+03  0.57243921583E+02  0.26721772476E+03  0.32146576234E+03  0.12501164790E+03 0.  0.
          5    1    3    3  501    0  0.14121727956E+03 -0.51791810137E+02  0.59435431754E+02  0.16180040850E+03  0.47000000000E+01 0.  1.
         -5    1    3    3    0  501 -0.27067617872E+02 -0.54521114456E+01  0.72475298084E+01  0.28930920221E+02  0.47000000000E+01 0.  1.
          5    1    4    4  502    0 -0.67965341121E+02  0.83022123118E+02  0.23741002797E+03  0.26057162528E+03  0.47000000000E+01 0. -1.
         -5    1    4    4    0  502 -0.46184320566E+02 -0.25778201535E+02  0.29807696793E+02  0.60894137063E+02  0.47000000000E+01 0. -1.
<mgrwt>
<rscale>  0 0.38840210E+03</rscale>
<asrwt>0</asrwt>
<pdfrwt beam="1">  1       21 0.65084443E-01 0.38840210E+03</pdfrwt>
<pdfrwt beam="2">  1       21 0.13715108E-01 0.38840210E+03</pdfrwt>
<totfact> 0.94545333E+04</totfact>
</mgrwt>
</event>
<event>
 8    1  0.9478272E-006  0.2648375E+03  0.7546771E-02  0.1104271E+00
         21   -1    0    0  504  503  0.00000000000E+00  0.00000000000E+00  0.11728594812E+03  0.11728594812E+03  0.00000000000E+00 0. -1.
         21   -1    0    0  503  504 -0.00000000000E+00 -0.00000000000E+00 -0.14950400960E+03  0.14950400960E+03  0.00000000000E+00 0. -1.
         25    2    1    2    0    0 -0.87980733526E+01  0.74509589051E+01 -0.58585124224E+02  0.13852639851E+03  0.12499769366E+03 0.  0.
         25    2    1    2    0    0  0.87980733526E+01 -0.74509589051E+01  0.26367062746E+02  0.12826355921E+03  0.12499358280E+03 0.  0.
          5    1    3    3  501    0  0.21780146433E+02 -0.47676760206E+02 -0.53597176656E+02  0.75114549775E+02  0.47000000000E+01 0.  1.
         -5    1    3    3    0  501 -0.30578219785E+02  0.55127719111E+02 -0.49879475685E+01  0.63411848739E+02  0.47000000000E+01 0.  1.
          5    1    4    4  502    0  0.98025233876E+01  0.58226436621E+02  0.71416515151E+01  0.59661550203E+02  0.47000000000E+01 0.  1.
         -5    1    4    4    0  502 -0.10044500350E+01 -0.65677395526E+02  0.19225411231E+02  0.68602009008E+02  0.47000000000E+01 0.  1.
<mgrwt>
<rscale>  0 0.26483746E+03</rscale>
<asrwt>0</asrwt>
<pdfrwt beam="1">  1       21 0.18043992E-01 0.26483746E+03</pdfrwt>
<pdfrwt beam="2">  1       21 0.23000617E-01 0.26483746E+03</pdfrwt>
<totfact> 0.48916816E+05</totfact>
</mgrwt>
</event>
<event>
 8    1  0.9478272E-006  0.3004976E+03  0.7546771E-02  0.1084992E+00
         21   -1    0    0  504  503  0.00000000000E+00  0.00000000000E+00  0.11960468594E+04  0.11960468594E+04  0.00000000000E+00 0.  1.
         21   -1    0    0  503  504 -0.00000000000E+00 -0.00000000000E+00 -0.18874425002E+02  0.18874425002E+02  0.00000000000E+00 0.  1.
         25    2    1    2    0    0 -0.77655150137E+02  0.99792555788E+01  0.47277958034E+03  0.49525217816E+03  0.12499712198E+03 0.  0.
         25    2    1    2    0    0  0.77655150137E+02 -0.99792555788E+01  0.70439285407E+03  0.71966910625E+03  0.12499768695E+03 0.  0.
          5    1    3    3  501    0 -0.71454606797E+02 -0.42779650291E+02  0.37194311298E+03  0.38118188389E+03  0.47000000000E+01 0. -1.
         -5    1    3    3    0  501 -0.62005433401E+01  0.52758905870E+02  0.10083646736E+03  0.11407029427E+03  0.47000000000E+01 0. -1.
          5    1    4    4  502    0 -0.15858302226E+02 -0.42802455004E+02  0.16678093740E+03  0.17297834253E+03  0.47000000000E+01 0.  1.
         -5    1    4    4    0  502  0.93513452363E+02  0.32823199425E+02  0.53761191667E+03  0.54669076373E+03  0.47000000000E+01 0.  1.
<mgrwt>
<rscale>  0 0.30049757E+03</rscale>
<asrwt>0</asrwt>
<pdfrwt beam="1">  1       21 0.18400715E+00 0.30049757E+03</pdfrwt>
<pdfrwt beam="2">  1       21 0.29037586E-02 0.30049757E+03</pdfrwt>
<totfact> 0.10879207E+05</totfact>
</mgrwt>
</event>
<event>
 8    1  0.9478272E-006  0.2605779E+03  0.7546771E-02  0.1106796E+00
         21   -1    0    0  504  503  0.00000000000E+00  0.00000000000E+00  0.45338209559E+02  0.45338209559E+02  0.00000000000E+00 0. -1.
         21   -1    0    0  503  504 -0.00000000000E+00 -0.00000000000E+00 -0.37441299677E+03  0.37441299677E+03  0.00000000000E+00 0. -1.
         25    2    1    2    0    0 -0.22937167429E+02  0.11305034415E+02 -0.20698345695E+03  0.24314661137E+03  0.12499682283E+03 0.  0.
         25    2    1    2    0    0  0.22937167429E+02 -0.11305034415E+02 -0.12209133027E+03  0.17660459496E+03  0.12501588932E+03 0.  0.
          5    1    3    3  501    0 -0.43450696849E+02 -0.47722945813E+02 -0.11207255915E+03  0.12941325716E+03  0.47000000000E+01 0. -1.
         -5    1    3    3    0  501  0.20513529420E+02  0.59027980228E+02 -0.94910897801E+02  0.11373335421E+03  0.47000000000E+01 0. -1.
          5    1    4    4  502    0  0.13741263055E+01 -0.42839722118E+02 -0.13029981362E+03  0.13724890325E+03  0.47000000000E+01 0.  1.
         -5    1    4    4    0  502  0.21563041124E+02  0.31534687703E+02  0.82084833561E+01  0.39355691711E+02  0.47000000000E+01 0.  1.
<mgrwt>
<rscale>  0 0.26057793E+03</rscale>
<asrwt>0</asrwt>
<pdfrwt beam="1">  1       21 0.69751095E-02 0.26057793E+03</pdfrwt>
<pdfrwt beam="2">  1       21 0.57601997E-01 0.26057793E+03</pdfrwt>
<totfact> 0.42394992E+05</totfact>
</mgrwt>
</event>
<event>
 8    1  0.9478272E-006  0.7771445E+03  0.7546771E-02  0.9593702E-01
         21   -1    0    0  504  503  0.00000000000E+00  0.00000000000E+00  0.57803030783E+03  0.57803030783E+03  0.00000000000E+00 0.  1.
         21   -1    0    0  503  504 -0.00000000000E+00 -0.00000000000E+00 -0.26121188215E+03  0.26121188215E+03  0.00000000000E+00 0.  1.
         25    2    1    2    0    0  0.13817600332E+03 -0.29793551117E+03  0.33750952717E+03  0.48723135163E+03  0.12499412938E+03 0.  0.
         25    2    1    2    0    0 -0.13817600332E+03  0.29793551117E+03 -0.20691101487E+02  0.35201083835E+03  0.12500132771E+03 0.  0.
          5    1    3    3  501    0  0.13572710955E+03 -0.22175378701E+03  0.31322383741E+03  0.40709685905E+03  0.47000000000E+01 0.  1.
         -5    1    3    3    0  501  0.24488937719E+01 -0.76181724153E+02  0.24285689752E+02  0.80134492588E+02  0.47000000000E+01 0.  1.
          5    1    4    4  502    0 -0.60236560285E+01  0.15561376980E+03 -0.24415158177E+02  0.15770263071E+03  0.47000000000E+01 0. -1.
         -5    1    4    4    0  502 -0.13215234729E+03  0.14232174136E+03  0.37240566902E+01  0.19430820764E+03  0.47000000000E+01 0. -1.
<mgrwt>
<rscale>  0 0.77714448E+03</rscale>
<asrwt>0</asrwt>
<pdfrwt beam="1">  1       21 0.88927739E-01 0.77714448E+03</pdfrwt>
<pdfrwt beam="2">  1       21 0.40186444E-01 0.77714448E+03</pdfrwt>
<totfact> 0.52503307E+03</totfact>
</mgrwt>
</event>
<event>
 8    1  0.9478272E-006  0.3478444E+03  0.7546771E-02  0.1063503E+00
         21   -1    0    0  504  503  0.00000000000E+00  0.00000000000E+00  0.35637709326E+03  0.35637709326E+03  0.00000000000E+00 0.  1.
         21   -1    0    0  503  504 -0.00000000000E+00 -0.00000000000E+00 -0.84879006094E+02  0.84879006094E+02  0.00000000000E+00 0.  1.
         25    2    1    2    0    0 -0.10261992787E+03 -0.56406795157E+02  0.17403037244E+03  0.24418020004E+03  0.12499929369E+03 0.  0.
         25    2    1    2    0    0  0.10261992787E+03  0.56406795157E+02  0.97467714723E+02  0.19707589931E+03  0.12500551405E+03 0.  0.
          5    1    3    3  501    0 -0.74151346581E+01 -0.45859878530E+02  0.13098841884E+03  0.13906174367E+03  0.47000000000E+01 0. -1.
         -5    1    3    3    0  501 -0.95204793207E+02 -0.10546916627E+02  0.43041953597E+02  0.10511845637E+03  0.47000000000E+01 0. -1.
          5    1    4    4  502    0  0.32398889939E+02 -0.40147634951E+02  0.29162327031E+02  0.59447892976E+02  0.47000000000E+01 0.  1.
         -5    1    4    4    0  502  0.70221037926E+02  0.96554430108E+02  0.68305387691E+02  0.13762800634E+03  0.47000000000E+01 0.  1.
<mgrwt>
<rscale>  0 0.34784441E+03</rscale>
<asrwt>0</asrwt>
<pdfrwt beam="1">  1       21 0.54827244E-01 0.34784441E+03</pdfrwt>
<pdfrwt beam="2">  1       21 0.13058309E-01 0.34784441E+03</pdfrwt>
<totfact> 0.15165413E+05</totfact>
</mgrwt>
</event>
<event>
 8    1  0.9478272E-006  0.4304754E+03  0.7546771E-02  0.1033710E+00
         21   -1    0    0  504  503  0.00000000000E+00  0.00000000000E+00  0.72454109085E+03  0.72454109085E+03  0.00000000000E+00 0.  1.
         21   -1    0    0  503  504 -0.00000000000E+00 -0.00000000000E+00 -0.63940164868E+02  0.63940164868E+02  0.00000000000E+00 0.  1.
         25    2    1    2    0    0 -0.29096274730E+02 -0.17133746175E+03  0.37118755978E+03  0.42849489456E+03  0.12499820449E+03 0.  0.
         25    2    1    2    0    0  0.29096274730E+02  0.17133746175E+03  0.28941336620E+03  0.35998636116E+03  0.12500785849E+03 0.  0.
          5    1    3    3  501    0  0.26600549216E+02 -0.64216531437E+02  0.51206434383E+02  0.86461211248E+02  0.47000000000E+01 0.  1.
         -5    1    3    3    0  501 -0.55696823945E+02 -0.10712093031E+03  0.31998112540E+03  0.34203368331E+03  0.47000000000E+01 0.  1.
          5    1    4    4  502    0  0.59014496539E+02  0.27377304065E+02  0.68626568014E+02  0.94677998590E+02  0.47000000000E+01 0. -1.
         -5    1    4    4    0  502 -0.29918221810E+02  0.14396015768E+03  0.22078679819E+03  0.26530836257E+03  0.47000000000E+01 0. -1.
<mgrwt>
<rscale>  0 0.43047544E+03</rscale>
<asrwt>0</asrwt>
<pdfrwt beam="1">  1       21 0.11146785E+00 0.43047544E+03</pdfrwt>
<pdfrwt beam="2">  1       21 0.98369489E-02 0.43047544E+03</pdfrwt>
<totfact> 0.48556423E+04</totfact>
</mgrwt>
</event>
<event>
 8    1  0.9478272E-006  0.4640377E+03  0.7546771E-02  0.1023617E+00
         21   -1    0    0  504  503  0.00000000000E+00  0.00000000000E+00  0.15247279766E+04  0.15247279766E+04  0.00000000000E+00 0.  1.
         21   -1    0    0  503  504 -0.00000000000E+00 -0.00000000000E+00 -0.35306464213E+02  0.35306464213E+02  0.00000000000E+00 0.  1.
         25    2    1    2    0    0  0.67214006442E+02  0.44572835132E+02  0.13432950801E+04  0.13515071403E+04  0.12500167160E+03 0.  0.
         25    2    1    2    0    0 -0.67214006442E+02 -0.44572835132E+02  0.14612643235E+03  0.20852730052E+03  0.12500496206E+03 0.  0.
          5    1    3    3  501    0  0.69843347373E+02  0.63400782491E+02  0.13057558846E+04  0.13091670147E+04  0.47000000000E+01 0. -1.
         -5    1    3    3    0  501 -0.26293409310E+01 -0.18827947359E+02  0.37539195507E+02  0.42340125588E+02  0.47000000000E+01 0. -1.
          5    1    4    4  502    0 -0.24998902589E+02 -0.78258047844E+02  0.45005997476E+02  0.93791774649E+02  0.47000000000E+01 0.  1.
         -5    1    4    4    0  502 -0.42215103852E+02  0.33685212712E+02  0.10112043487E+03  0.11473552587E+03  0.47000000000E+01 0.  1.
<mgrwt>
<rscale>  0 0.46403773E+03</rscale>
<asrwt>0</asrwt>
<pdfrwt beam="1">  1       21 0.23457348E+00 0.46403773E+03</pdfrwt>
<pdfrwt beam="2">  1       21 0.54317649E-02 0.46403773E+03</pdfrwt>
<totfact> 0.16586814E+04</totfact>
</mgrwt>
</event>
<event>
 8    1  0.9478272E-006  0.3529269E+03  0.7546771E-02  0.1061420E+00
         21   -1    0    0  504  503  0.00000000000E+00  0.00000000000E+00  0.89612436068E+02  0.89612436068E+02  0.00000000000E+00 0.  1.
         21   -1    0    0  503  504 -0.00000000000E+00 -0.00000000000E+00 -0.34748913819E+03  0.34748913819E+03  0.00000000000E+00 0.  1.
         25    2    1    2    0    0  0.72468958894E+02  0.91563822493E+01 -0.25385849605E+03  0.29226199774E+03  0.12504939011E+03 0.  0.
         25    2    1    2    0    0 -0.72468958894E+02 -0.91563822493E+01 -0.40182060719E+01  0.14483957652E+03  0.12500707023E+03 0.  0.
          5    1    3    3  501    0  0.19802799688E+02 -0.33137377308E+02 -0.11397818786E+02  0.40524522495E+02  0.47000000000E+01 0. -1.
         -5    1    3    3    0  501  0.52666159206E+02  0.42293759558E+02 -0.24246067727E+03  0.25173747525E+03  0.47000000000E+01 0. -1.
          5    1    4    4  502    0 -0.45178704780E+02 -0.42176276940E+02  0.47195502963E+02  0.77906733997E+02  0.47000000000E+01 0.  1.
         -5    1    4    4    0  502 -0.27290254114E+02  0.33019894691E+02 -0.51213709035E+02  0.66932842522E+02  0.47000000000E+01 0.  1.
<mgrwt>
<rscale>  0 0.35292689E+03</rscale>
<asrwt>0</asrwt>
<pdfrwt beam="1">  1       21 0.13786528E-01 0.35292689E+03</pdfrwt>
<pdfrwt beam="2">  1       21 0.53459868E-01 0.35292689E+03</pdfrwt>
<totfact> 0.14479522E+05</totfact>
</mgrwt>
</event>
<event>
 8    1  0.9478272E-006  0.3517968E+03  0.7546771E-02  0.1061880E+00
         21   -1    0    0  504  503  0.00000000000E+00  0.00000000000E+00  0.36122909981E+03  0.36122909981E+03  0.00000000000E+00 0. -1.
         21   -1    0    0  503  504 -0.00000000000E+00 -0.00000000000E+00 -0.85652697132E+02  0.85652697132E+02  0.00000000000E+00 0. -1.
         25    2    1    2    0    0  0.47922162689E+02 -0.10888278151E+03  0.18108846678E+03  0.25014277748E+03  0.12500553003E+03 0.  0.
         25    2    1    2    0    0 -0.47922162689E+02  0.10888278151E+03  0.94487935896E+02  0.19673901946E+03  0.12500511175E+03 0.  0.
          5    1    3    3  501    0 -0.98901623862E+01 -0.11071539726E+03  0.94866100819E+02  0.14621005980E+03  0.47000000000E+01 0. -1.
         -5    1    3    3    0  501  0.57812325076E+02  0.18326157556E+01  0.86222365964E+02  0.10393271768E+03  0.47000000000E+01 0. -1.
          5    1    4    4  502    0 -0.44592443220E+02  0.10883585873E+03  0.16876830801E+02  0.11891445478E+03  0.47000000000E+01 0. -1.
         -5    1    4    4    0  502 -0.33297194692E+01  0.46922775889E-01  0.77611105095E+02  0.77824564680E+02  0.47000000000E+01 0. -1.
<mgrwt>
<rscale>  0 0.35179680E+03</rscale>
<asrwt>0</asrwt>
<pdfrwt beam="1">  1       21 0.55573707E-01 0.35179680E+03</pdfrwt>
<pdfrwt beam="2">  1       21 0.13177338E-01 0.35179680E+03</pdfrwt>
<totfact> 0.14476928E+05</totfact>
</mgrwt>
</event>
<event>
 8    1  0.9478272E-006  0.3330978E+03  0.7546771E-02  0.1069774E+00
         21   -1    0    0  504  503  0.00000000000E+00  0.00000000000E+00  0.18737444858E+03  0.18737444858E+03  0.00000000000E+00 0. -1.
         21   -1    0    0  503  504 -0.00000000000E+00 -0.00000000000E+00 -0.14803800044E+03  0.14803800044E+03  0.00000000000E+00 0. -1.
         25    2    1    2    0    0  0.62001205981E+02  0.59233856532E+02  0.89151641986E+02  0.17585721252E+03  0.12499977849E+03 0.  0.
         25    2    1    2    0    0 -0.62001205981E+02 -0.59233856532E+02 -0.49815193852E+02  0.15955523650E+03  0.12499408248E+03 0.  0.
          5    1    3    3  501    0  0.23284692263E+02 -0.59126218119E+01  0.96516567676E+02  0.99572455159E+02  0.47000000000E+01 0. -1.
         -5    1    3    3    0  501  0.38716513718E+02  0.65146478344E+02 -0.73649256899E+01  0.76284757360E+02  0.47000000000E+01 0. -1.
          5    1    4    4  502    0 -0.27721254220E+02 -0.21678247967E+01 -0.81090379013E+02  0.85853986328E+02  0.47000000000E+01 0.  1.
         -5    1    4    4    0  502 -0.34279951761E+02 -0.57066031735E+02  0.31275185161E+02  0.73701250176E+02  0.47000000000E+01 0.  1.
<mgrwt>
<rscale>  0 0.33309782E+03</rscale>
<asrwt>0</asrwt>
<pdfrwt beam="1">  1       21 0.28826838E-01 0.33309782E+03</pdfrwt>
<pdfrwt beam="2">  1       21 0.22775077E-01 0.33309782E+03</pdfrwt>
<totfact> 0.20093096E+05</totfact>
</mgrwt>
</event>
<event>
 8    1  0.9478272E-006  0.3655918E+03  0.7546771E-02  0.1056391E+00
         21   -1    0    0  504  503  0.00000000000E+00  0.00000000000E+00  0.16147591643E+03  0.16147591643E+03  0.00000000000E+00 0. -1.
         21   -1    0    0  503  504 -0.00000000000E+00 -0.00000000000E+00 -0.20693079475E+03  0.20693079475E+03  0.00000000000E+00 0. -1.
         25    2    1    2    0    0  0.45244103964E+02 -0.42647386106E+02 -0.14166980675E+03  0.19889816576E+03  0.12499727081E+03 0.  0.
         25    2    1    2    0    0 -0.45244103964E+02  0.42647386106E+02  0.96214928432E+02  0.16950854542E+03  0.12494000974E+03 0.  0.
          5    1    3    3  501    0  0.77657618676E+02 -0.32459964712E+02 -0.14137039081E+03  0.16459657482E+03  0.47000000000E+01 0.  1.
         -5    1    3    3    0  501 -0.32413514712E+02 -0.10187421394E+02 -0.29941594922E+00  0.34301590933E+02  0.47000000000E+01 0.  1.
          5    1    4    4  502    0  0.86880773540E+01 -0.18917417905E+02 -0.18681451107E+02  0.28362616307E+02  0.47000000000E+01 0.  1.
         -5    1    4    4    0  502 -0.53932181318E+02  0.61564804011E+02  0.11489637954E+03  0.14114592912E+03  0.47000000000E+01 0.  1.
<mgrwt>
<rscale>  0 0.36559179E+03</rscale>
<asrwt>0</asrwt>
<pdfrwt beam="1">  1       21 0.24842449E-01 0.36559179E+03</pdfrwt>
<pdfrwt beam="2">  1       21 0.31835507E-01 0.36559179E+03</pdfrwt>
<totfact> 0.13874238E+05</totfact>
</mgrwt>
</event>
<event>
 8    1  0.9478272E-006  0.3060306E+03  0.7546771E-02  0.1082264E+00
         21   -1    0    0  504  503  0.00000000000E+00  0.00000000000E+00  0.66218150820E+03  0.66218150820E+03  0.00000000000E+00 0.  1.
         21   -1    0    0  503  504 -0.00000000000E+00 -0.00000000000E+00 -0.35358416593E+02  0.35358416593E+02  0.00000000000E+00 0.  1.
         25    2    1    2    0    0 -0.48339959073E+02 -0.89254997583E+01  0.14633922564E+03  0.19863498063E+03  0.12499708149E+03 0.  0.
         25    2    1    2    0    0  0.48339959073E+02  0.89254997583E+01  0.48048386596E+03  0.49890494416E+03  0.12499992665E+03 0.  0.
          5    1    3    3  501    0 -0.27662254659E+01  0.13619101222E+02 -0.19904157197E+02  0.24726451326E+02  0.47000000000E+01 0.  1.
         -5    1    3    3    0  501 -0.45573733607E+02 -0.22544600981E+02  0.16624338284E+03  0.17390852931E+03  0.47000000000E+01 0.  1.
          5    1    4    4  502    0  0.18162297291E+02  0.10662536867E+02  0.46315330333E+01  0.22070338320E+02  0.47000000000E+01 0.  1.
         -5    1    4    4    0  502  0.30177661782E+02 -0.17370371086E+01  0.47585233293E+03  0.47683460584E+03  0.47000000000E+01 0.  1.
<mgrwt>
<rscale>  0 0.30603065E+03</rscale>
<asrwt>0</asrwt>
<pdfrwt beam="1">  1       21 0.10187407E+00 0.30603065E+03</pdfrwt>
<pdfrwt beam="2">  1       21 0.54397569E-02 0.30603065E+03</pdfrwt>
<totfact> 0.17679061E+05</totfact>
</mgrwt>
</event>
<event>
 8    1  0.9478272E-006  0.3247586E+03  0.7546771E-02  0.1073480E+00
         21   -1    0    0  504  503  0.00000000000E+00  0.00000000000E+00  0.51142880725E+02  0.51142880725E+02  0.00000000000E+00 0. -1.
         21   -1    0    0  503  504 -0.00000000000E+00 -0.00000000000E+00 -0.51555647506E+03  0.51555647506E+03  0.00000000000E+00 0. -1.
         25    2    1    2    0    0  0.35704394972E+02  0.77249250724E+02 -0.12897922941E+03  0.19875278825E+03  0.12499911463E+03 0.  0.
         25    2    1    2    0    0 -0.35704394972E+02 -0.77249250724E+02 -0.33543436492E+03  0.36794656753E+03  0.12500485124E+03 0.  0.
          5    1    3    3  501    0  0.57384864410E+02  0.44186432780E+02 -0.99695785718E+01  0.73259443092E+02  0.47000000000E+01 0.  1.
         -5    1    3    3    0  501 -0.21680469438E+02  0.33062817944E+02 -0.11900965084E+03  0.12549334516E+03  0.47000000000E+01 0.  1.
          5    1    4    4  502    0 -0.39722585301E+02 -0.40921202022E+02 -0.32450163557E+03  0.32950846733E+03  0.47000000000E+01 0.  1.
         -5    1    4    4    0  502  0.40181903285E+01 -0.36328048702E+02 -0.10932729353E+02  0.38438100202E+02  0.47000000000E+01 0.  1.
<mgrwt>
<rscale>  0 0.32475864E+03</rscale>
<asrwt>0</asrwt>
<pdfrwt beam="1">  1       21 0.78681358E-02 0.32475864E+03</pdfrwt>
<pdfrwt beam="2">  1       21 0.79316377E-01 0.32475864E+03</pdfrwt>
<totfact> 0.16670738E+05</totfact>
</mgrwt>
</event>
<event>
 8    1  0.9478272E-006  0.6662750E+03  0.7546771E-02  0.9776711E-01
         21   -1    0    0  504  503  0.00000000000E+00  0.00000000000E+00  0.47796044740E+03  0.47796044740E+03  0.00000000000E+00 0.  1.
         21   -1    0    0  503  504 -0.00000000000E+00 -0.00000000000E+00 -0.23219617309E+03  0.23219617309E+03  0.00000000000E+00 0.  1.
         25    2    1    2    0    0 -0.25750601249E+03  0.78753810072E+02 -0.38215065828E+02  0.29932647199E+03  0.12499774602E+03 0.  0.
         25    2    1    2    0    0  0.25750601249E+03 -0.78753810072E+02  0.28397934014E+03  0.41083014850E+03  0.12500254488E+03 0.  0.
          5    1    3    3  501    0 -0.11258654430E+03 -0.28597226031E+02 -0.20472429566E+02  0.11804550677E+03  0.47000000000E+01 0. -1.
         -5    1    3    3    0  501 -0.14491946818E+03  0.10735103610E+03 -0.17742636262E+02  0.18128096522E+03  0.47000000000E+01 0. -1.
          5    1    4    4  502    0  0.22637670675E+03 -0.92586555823E+02  0.18693199266E+03  0.30787066044E+03  0.47000000000E+01 0. -1.
         -5    1    4    4    0  502  0.31129305735E+02  0.13832745751E+02  0.97047347475E+02  0.10295948806E+03  0.47000000000E+01 0. -1.
<mgrwt>
<rscale>  0 0.66627498E+03</rscale>
<asrwt>0</asrwt>
<pdfrwt beam="1">  1       21 0.73532377E-01 0.66627498E+03</pdfrwt>
<pdfrwt beam="2">  1       21 0.35722488E-01 0.66627498E+03</pdfrwt>
<totfact> 0.10668726E+04</totfact>
</mgrwt>
</event>
<event>
 8    1  0.9478272E-006  0.2930130E+03  0.7546771E-02  0.1088786E+00
         21   -1    0    0  504  503  0.00000000000E+00  0.00000000000E+00  0.36210838193E+02  0.36210838193E+02  0.00000000000E+00 0. -1.
         21   -1    0    0  503  504 -0.00000000000E+00 -0.00000000000E+00 -0.59275509655E+03  0.59275509655E+03  0.00000000000E+00 0. -1.
         25    2    1    2    0    0  0.48093049825E+02 -0.32498570528E+02 -0.17160015746E+03  0.22009270367E+03  0.12500034257E+03 0.  0.
         25    2    1    2    0    0 -0.48093049825E+02  0.32498570528E+02 -0.38494410090E+03  0.40887323107E+03  0.12500503888E+03 0.  0.
          5    1    3    3  501    0 -0.12850146429E+02 -0.31886163190E+02  0.32651694340E+01  0.34851183590E+02  0.47000000000E+01 0. -1.
         -5    1    3    3    0  501  0.60943196253E+02 -0.61240733843E+00 -0.17486532690E+03  0.18524152008E+03  0.47000000000E+01 0. -1.
          5    1    4    4  502    0 -0.82396946824E+02  0.25726717730E+02 -0.34460472551E+03  0.35528246185E+03  0.47000000000E+01 0.  1.
         -5    1    4    4    0  502  0.34303896999E+02  0.67718527987E+01 -0.40339375385E+02  0.53590769225E+02  0.47000000000E+01 0.  1.
<mgrwt>
<rscale>  0 0.29301303E+03</rscale>
<asrwt>0</asrwt>
<pdfrwt beam="1">  1       21 0.55708984E-02 0.29301303E+03</pdfrwt>
<pdfrwt beam="2">  1       21 0.91193089E-01 0.29301303E+03</pdfrwt>
<totfact> 0.22159688E+05</totfact>
</mgrwt>
</event>
<event>
 8    1  0.9478272E-006  0.3686251E+03  0.7546771E-02  0.1055220E+00
         21   -1    0    0  504  503  0.00000000000E+00  0.00000000000E+00  0.22404980235E+04  0.22404980235E+04  0.00000000000E+00 0. -1.
         21   -1    0    0  503  504 -0.00000000000E+00 -0.00000000000E+00 -0.15162306106E+02  0.15162306106E+02  0.00000000000E+00 0. -1.
         25    2    1    2    0    0 -0.12936752730E+03  0.38167011400E+02  0.11872679253E+04  0.12014250972E+04  0.12499783936E+03 0.  0.
         25    2    1    2    0    0  0.12936752730E+03 -0.38167011400E+02  0.10380677921E+04  0.10542352324E+04  0.12503801980E+03 0.  0.
          5    1    3    3  501    0 -0.13013044480E+03 -0.13581003619E+02  0.90379048735E+03  0.91322380135E+03  0.47000000000E+01 0. -1.
         -5    1    3    3    0  501  0.76291749763E+00  0.51748015019E+02  0.28347743795E+03  0.28820129585E+03  0.47000000000E+01 0. -1.
          5    1    4    4  502    0  0.19601660695E+01 -0.28049509040E+02  0.47152495410E+02  0.55100499379E+02  0.47000000000E+01 0. -1.
         -5    1    4    4    0  502  0.12740736123E+03 -0.10117502360E+02  0.99091529671E+03  0.99913473306E+03  0.47000000000E+01 0. -1.
<mgrwt>
<rscale>  0 0.36862510E+03</rscale>
<asrwt>0</asrwt>
<pdfrwt beam="1">  1       21 0.34469174E+00 0.36862510E+03</pdfrwt>
<pdfrwt beam="2">  1       21 0.23326642E-02 0.36862510E+03</pdfrwt>
<totfact> 0.15650582E+04</totfact>
</mgrwt>
</event>
<event>
 8    1  0.9478272E-006  0.3485550E+03  0.7546771E-02  0.1063210E+00
         21   -1    0    0  504  503  0.00000000000E+00  0.00000000000E+00  0.88749454143E+03  0.88749454143E+03  0.00000000000E+00 0. -1.
         21   -1    0    0  503  504 -0.00000000000E+00 -0.00000000000E+00 -0.34222904608E+02  0.34222904608E+02  0.00000000000E+00 0. -1.
         25    2    1    2    0    0 -0.10389085941E+03  0.39831946491E+02  0.29813731740E+03  0.34189990760E+03  0.12501916717E+03 0.  0.
         25    2    1    2    0    0  0.10389085941E+03 -0.39831946491E+02  0.55513431942E+03  0.57981753844E+03  0.12503747697E+03 0.  0.
          5    1    3    3  501    0 -0.13379077259E+02  0.26190513078E+02 -0.21791770357E+00  0.29783891145E+02  0.47000000000E+01 0.  1.
         -5    1    3    3    0  501 -0.90511782156E+02  0.13641433413E+02  0.29835523510E+03  0.31211601645E+03  0.47000000000E+01 0.  1.
          5    1    4    4  502    0  0.11168260012E+03  0.14106174449E+02  0.37132835742E+03  0.38804487673E+03  0.47000000000E+01 0. -1.
         -5    1    4    4    0  502 -0.77917407004E+01 -0.53938120940E+02  0.18380596200E+03  0.19177266171E+03  0.47000000000E+01 0. -1.
<mgrwt>
<rscale>  0 0.34855497E+03</rscale>
<asrwt>0</asrwt>
<pdfrwt beam="1">  1       21 0.13653760E+00 0.34855497E+03</pdfrwt>
<pdfrwt beam="2">  1       21 0.52650629E-02 0.34855497E+03</pdfrwt>
<totfact> 0.88742070E+04</totfact>
</mgrwt>
</event>
<event>
 8    1  0.9478272E-006  0.2540312E+03  0.7546771E-02  0.1110783E+00
         21   -1    0    0  504  503  0.00000000000E+00  0.00000000000E+00  0.21454939488E+03  0.21454939488E+03  0.00000000000E+00 0. -1.
         21   -1    0    0  503  504 -0.00000000000E+00 -0.00000000000E+00 -0.75194607132E+02  0.75194607132E+02  0.00000000000E+00 0. -1.
         25    2    1    2    0    0  0.71852971367E+01 -0.12810823261E+02  0.88825270107E+02  0.15404597804E+03  0.12499795620E+03 0.  0.
         25    2    1    2    0    0 -0.71852971367E+01  0.12810823261E+02  0.50529517642E+02  0.13569802397E+03  0.12507987796E+03 0.  0.
          5    1    3    3  501    0 -0.48003906803E+02  0.24165089873E+02  0.18107414635E+02  0.56906019907E+02  0.47000000000E+01 0.  1.
         -5    1    3    3    0  501  0.55189203939E+02 -0.36975913134E+02  0.70717855471E+02  0.97139958133E+02  0.47000000000E+01 0.  1.
          5    1    4    4  502    0  0.42607747780E+02 -0.38478208337E+01  0.67729617668E+02  0.80247224285E+02  0.47000000000E+01 0. -1.
         -5    1    4    4    0  502 -0.49793044916E+02  0.16658644095E+02 -0.17200100026E+02  0.55450799688E+02  0.47000000000E+01 0. -1.
<mgrwt>
<rscale>  0 0.25403116E+03</rscale>
<asrwt>0</asrwt>
<pdfrwt beam="1">  1       21 0.33007599E-01 0.25403116E+03</pdfrwt>
<pdfrwt beam="2">  1       21 0.11568401E-01 0.25403116E+03</pdfrwt>
<totfact> 0.54729947E+05</totfact>
</mgrwt>
</event>
<event>
 8    1  0.9478272E-006  0.5655751E+03  0.7546771E-02  0.9979518E-01
         21   -1    0    0  504  503  0.00000000000E+00  0.00000000000E+00  0.28924374972E+03  0.28924374972E+03  0.00000000000E+00 0. -1.
         21   -1    0    0  503  504 -0.00000000000E+00 -0.00000000000E+00 -0.27647545011E+03  0.27647545011E+03  0.00000000000E+00 0. -1.
         25    2    1    2    0    0 -0.11617211227E+03  0.17801361062E+03  0.14482693870E+03  0.28598031287E+03  0.12500036776E+03 0.  0.
         25    2    1    2    0    0  0.11617211227E+03 -0.17801361062E+03 -0.13205863910E+03  0.27973888696E+03  0.12501822059E+03 0.  0.
          5    1    3    3  501    0 -0.14985672004E+02  0.13513493844E+03  0.70510825877E+02  0.15323148671E+03  0.47000000000E+01 0. -1.
         -5    1    3    3    0  501 -0.10118644027E+03  0.42878672175E+02  0.74316112827E+02  0.13274882616E+03  0.47000000000E+01 0. -1.
          5    1    4    4  502    0  0.97125953662E+02 -0.18720607910E+03 -0.84074357860E+02  0.22709063076E+03  0.47000000000E+01 0.  1.
         -5    1    4    4    0  502  0.19046158610E+02  0.91924684850E+01 -0.47984281240E+02  0.52648256198E+02  0.47000000000E+01 0.  1.
<mgrwt>
<rscale>  0 0.56557509E+03</rscale>
<asrwt>0</asrwt>
<pdfrwt beam="1">  1       21 0.44499038E-01 0.56557509E+03</pdfrwt>
<pdfrwt beam="2">  1       21 0.42534685E-01 0.56557509E+03</pdfrwt>
<totfact> 0.22804859E+04</totfact>
</mgrwt>
</event>
<event>
 8    1  0.9478272E-006  0.3762140E+03  0.7546771E-02  0.1052342E+00
         21   -1    0    0  504  503  0.00000000000E+00  0.00000000000E+00  0.23150537712E+03  0.23150537712E+03  0.00000000000E+00 0.  1.
         21   -1    0    0  503  504 -0.00000000000E+00 -0.00000000000E+00 -0.15284413632E+03  0.15284413632E+03  0.00000000000E+00 0.  1.
         25    2    1    2    0    0 -0.13369418211E+03  0.43139634715E+02  0.44596323849E+02  0.19324745235E+03  0.12498233205E+03 0.  0.
         25    2    1    2    0    0  0.13369418211E+03 -0.43139634715E+02  0.34064916955E+02  0.19110206110E+03  0.12499766708E+03 0.  0.
          5    1    3    3  501    0 -0.80851008794E+02  0.40925900432E+02  0.86684881506E+02  0.12549172734E+03  0.47000000000E+01 0. -1.
         -5    1    3    3    0  501 -0.52843173314E+02  0.22137342838E+01 -0.42088557657E+02  0.67755725006E+02  0.47000000000E+01 0. -1.
          5    1    4    4  502    0  0.15490231982E+03 -0.35894067892E+02  0.45570778187E+02  0.16547476732E+03  0.47000000000E+01 0.  1.
         -5    1    4    4    0  502 -0.21208137710E+02 -0.72455668238E+01 -0.11505861233E+02  0.25627293779E+02  0.47000000000E+01 0.  1.
<mgrwt>
<rscale>  0 0.37621398E+03</rscale>
<asrwt>0</asrwt>
<pdfrwt beam="1">  1       21 0.35616212E-01 0.37621398E+03</pdfrwt>
<pdfrwt beam="2">  1       21 0.23514483E-01 0.37621398E+03</pdfrwt>
<totfact> 0.12290528E+05</totfact>
</mgrwt>
</event>
<event>
 8    1  0.9478272E-006  0.3711053E+03  0.7546771E-02  0.1054271E+00
         21   -1    0    0  504  503  0.00000000000E+00  0.00000000000E+00  0.63861671609E+02  0.63861671609E+02  0.00000000000E+00 0. -1.
         21   -1    0    0  503  504 -0.00000000000E+00 -0.00000000000E+00 -0.53913081057E+03  0.53913081057E+03  0.00000000000E+00 0. -1.
         25    2    1    2    0    0  0.77944928857E+02  0.10675588384E+03 -0.29689071490E+03  0.34819763480E+03  0.12500106248E+03 0.  0.
         25    2    1    2    0    0 -0.77944928857E+02 -0.10675588384E+03 -0.17837842407E+03  0.25479484738E+03  0.12501728445E+03 0.  0.
          5    1    3    3  501    0  0.95146029047E+00 -0.26422882725E+02 -0.59540189561E+02  0.65316140281E+02  0.47000000000E+01 0. -1.
         -5    1    3    3    0  501  0.76993468567E+02  0.13317876656E+03 -0.23735052533E+03  0.28288149452E+03  0.47000000000E+01 0. -1.
          5    1    4    4  502    0  0.16476013789E+02 -0.67308024928E+02 -0.11496850335E+03  0.13431930618E+03  0.47000000000E+01 0.  1.
         -5    1    4    4    0  502 -0.94420942646E+02 -0.39447858910E+02 -0.63409920719E+02  0.12047554120E+03  0.47000000000E+01 0.  1.
<mgrwt>
<rscale>  0 0.37110535E+03</rscale>
<asrwt>0</asrwt>
<pdfrwt beam="1">  1       21 0.98248722E-02 0.37110535E+03</pdfrwt>
<pdfrwt beam="2">  1       21 0.82943204E-01 0.37110535E+03</pdfrwt>
<totfact> 0.10033790E+05</totfact>
</mgrwt>
</event>
<event>
 8    1  0.9478272E-006  0.2815680E+03  0.7546771E-02  0.1094836E+00
         21   -1    0    0  504  503  0.00000000000E+00  0.00000000000E+00  0.52360448884E+02  0.52360448884E+02  0.00000000000E+00 0.  1.
         21   -1    0    0  503  504 -0.00000000000E+00 -0.00000000000E+00 -0.37853254928E+03  0.37853254928E+03  0.00000000000E+00 0.  1.
         25    2    1    2    0    0  0.59266000210E+02  0.17231563602E+02 -0.19291421057E+03  0.23801407503E+03  0.12500168680E+03 0.  0.
         25    2    1    2    0    0 -0.59266000210E+02 -0.17231563602E+02 -0.13325788982E+03  0.19287892314E+03  0.12504090621E+03 0.  0.
          5    1    3    3  501    0  0.87908574371E+02  0.45317053949E+02 -0.13804399180E+03  0.16988168382E+03  0.47000000000E+01 0.  1.
         -5    1    3    3    0  501 -0.28642574161E+02 -0.28085490347E+02 -0.54870218776E+02  0.68132391204E+02  0.47000000000E+01 0.  1.
          5    1    4    4  502    0 -0.50770095895E+02  0.41101107148E+02 -0.11256068713E+03  0.13022634884E+03  0.47000000000E+01 0.  1.
         -5    1    4    4    0  502 -0.84959043156E+01 -0.58332670750E+02 -0.20697202698E+02  0.62652574301E+02  0.47000000000E+01 0.  1.
<mgrwt>
<rscale>  0 0.28156800E+03</rscale>
<asrwt>0</asrwt>
<pdfrwt beam="1">  1       21 0.80554536E-02 0.28156800E+03</pdfrwt>
<pdfrwt beam="2">  1       21 0.58235777E-01 0.28156800E+03</pdfrwt>
<totfact> 0.32061105E+05</totfact>
</mgrwt>
</event>
<event>
 8    1  0.9478272E-006  0.3073453E+03  0.7546771E-02  0.1081625E+00
         21   -1    0    0  504  503  0.00000000000E+00  0.00000000000E+00  0.20424644122E+04  0.20424644122E+04  0.00000000000E+00 0. -1.
         21   -1    0    0  503  504 -0.00000000000E+00 -0.00000000000E+00 -0.11562148222E+02  0.11562148222E+02  0.00000000000E+00 0. -1.
         25    2    1    2    0    0  0.34773530766E+02  0.15054679307E+02  0.47438242183E+03  0.49203589079E+03  0.12499917549E+03 0.  0.
         25    2    1    2    0    0 -0.34773530766E+02 -0.15054679307E+02  0.15565198422E+04  0.15619906697E+04  0.12499996483E+03 0.  0.
          5    1    3    3  501    0  0.30375344992E+02  0.66650719112E+02  0.20655124192E+03  0.21920420954E+03  0.47000000000E+01 0. -1.
         -5    1    3    3    0  501  0.43981857746E+01 -0.51596039805E+02  0.26783117991E+03  0.27283168125E+03  0.47000000000E+01 0. -1.
          5    1    4    4  502    0  0.39942191942E+02 -0.16405595071E+02  0.92978775550E+03  0.93080174180E+03  0.47000000000E+01 0. -1.
         -5    1    4    4    0  502 -0.74715722708E+02  0.13509157639E+01  0.62673208668E+03  0.63118892787E+03  0.47000000000E+01 0. -1.
<mgrwt>
<rscale>  0 0.30734525E+03</rscale>
<asrwt>0</asrwt>
<pdfrwt beam="1">  1       21 0.31422501E+00 0.30734525E+03</pdfrwt>
<pdfrwt beam="2">  1       21 0.17787937E-02 0.30734525E+03</pdfrwt>
<totfact> 0.38579484E+04</totfact>
</mgrwt>
</event>
<event>
 8    1  0.9478272E-006  0.3309355E+03  0.7546771E-02  0.1070724E+00
         21   -1    0    0  504  503  0.00000000000E+00  0.00000000000E+00  0.19190223869E+02  0.19190223869E+02  0.00000000000E+00 0. -1.
         21   -1    0    0  503  504 -0.00000000000E+00 -0.00000000000E+00 -0.14267458264E+04  0.14267458264E+04  0.00000000000E+00 0. -1.
         25    2    1    2    0    0  0.58960500066E+02 -0.87279843426E+02 -0.59159475988E+03  0.61376313498E+03  0.12500685704E+03 0.  0.
         25    2    1    2    0    0 -0.58960500066E+02  0.87279843426E+02 -0.81596084268E+03  0.83217291531E+03  0.12500221024E+03 0.  0.
          5    1    3    3  501    0  0.14990499745E+02  0.29306419208E+02 -0.70362042807E+02  0.77823443494E+02  0.47000000000E+01 0. -1.
         -5    1    3    3    0  501  0.43970000321E+02 -0.11658626263E+03 -0.52123271707E+03  0.53593969149E+03  0.47000000000E+01 0. -1.
          5    1    4    4  502    0 -0.59697433828E+02 -0.14456502993E+02 -0.30275311919E+03  0.30895681780E+03  0.47000000000E+01 0.  1.
         -5    1    4    4    0  502  0.73693376183E+00  0.10173634642E+03 -0.51320772348E+03  0.52321609751E+03  0.47000000000E+01 0.  1.
<mgrwt>
<rscale>  0 0.33093547E+03</rscale>
<asrwt>0</asrwt>
<pdfrwt beam="1">  1       21 0.29523418E-02 0.33093547E+03</pdfrwt>
<pdfrwt beam="2">  1       21 0.21949938E+00 0.33093547E+03</pdfrwt>
<totfact> 0.61215453E+04</totfact>
</mgrwt>
</event>
<event>
 8    1  0.9478272E-006  0.1362577E+04  0.7546771E-02  0.8981362E-01
         21   -1    0    0  504  503  0.00000000000E+00  0.00000000000E+00  0.37818507416E+03  0.37818507416E+03  0.00000000000E+00 0. -1.
         21   -1    0    0  503  504 -0.00000000000E+00 -0.00000000000E+00 -0.12273190399E+04  0.12273190399E+04  0.00000000000E+00 0. -1.
         25    2    1    2    0    0 -0.12484948082E+03 -0.63891432709E+03 -0.23927272379E+03  0.70475170245E+03  0.12499846212E+03 0.  0.
         25    2    1    2    0    0  0.12484948082E+03  0.63891432709E+03 -0.60986124198E+03  0.90075241162E+03  0.12500104940E+03 0.  0.
          5    1    3    3  501    0 -0.88465186538E+02 -0.19134373972E+03 -0.10788661353E+03  0.23685465446E+03  0.47000000000E+01 0. -1.
         -5    1    3    3    0  501 -0.36384294282E+02 -0.44757058737E+03 -0.13138611026E+03  0.46789704799E+03  0.47000000000E+01 0. -1.
          5    1    4    4  502    0  0.87888215617E+02  0.23770626867E+03 -0.29804992005E+03  0.39126008416E+03  0.47000000000E+01 0. -1.
         -5    1    4    4    0  502  0.36961265203E+02  0.40120805842E+03 -0.31181132193E+03  0.50949232747E+03  0.47000000000E+01 0. -1.
<mgrwt>
<rscale>  0 0.13625766E+04</rscale>
<asrwt>0</asrwt>
<pdfrwt beam="1">  1       21 0.58182319E-01 0.13625766E+04</pdfrwt>
<pdfrwt beam="2">  1       21 0.18881831E+00 0.13625766E+04</pdfrwt>
<totfact> 0.28390814E+02</totfact>
</mgrwt>
</event>
<event>
 8    1  0.9478272E-006  0.3632291E+03  0.7546771E-02  0.1057313E+00
         21   -1    0    0  504  503  0.00000000000E+00  0.00000000000E+00  0.40182902346E+02  0.40182902346E+02  0.00000000000E+00 0.  1.
         21   -1    0    0  503  504 -0.00000000000E+00 -0.00000000000E+00 -0.82084290611E+03  0.82084290611E+03  0.00000000000E+00 0.  1.
         25    2    1    2    0    0 -0.11806151756E+03 -0.24570737966E+02 -0.26453541065E+03  0.31646090200E+03  0.12500510355E+03 0.  0.
         25    2    1    2    0    0  0.11806151756E+03  0.24570737966E+02 -0.51612459311E+03  0.54456490646E+03  0.12499639449E+03 0.  0.
          5    1    3    3  501    0 -0.11176844292E+03  0.17261328643E+02 -0.11651999335E+03  0.16244733654E+03  0.47000000000E+01 0. -1.
         -5    1    3    3    0  501 -0.62930746322E+01 -0.41832066609E+02 -0.14801541730E+03  0.15401356545E+03  0.47000000000E+01 0. -1.
          5    1    4    4  502    0  0.69768807359E+02  0.74217917304E+02 -0.26246445782E+03  0.28157710729E+03  0.47000000000E+01 0. -1.
         -5    1    4    4    0  502  0.48292710198E+02 -0.49647179339E+02 -0.25366013529E+03  0.26298779917E+03  0.47000000000E+01 0. -1.
<mgrwt>
<rscale>  0 0.36322913E+03</rscale>
<asrwt>0</asrwt>
<pdfrwt beam="1">  1       21 0.61819853E-02 0.36322913E+03</pdfrwt>
<pdfrwt beam="2">  1       21 0.12628352E+00 0.36322913E+03</pdfrwt>
<totfact> 0.81908128E+04</totfact>
</mgrwt>
</event>
<event>
 8    1  0.9478272E-006  0.3251367E+03  0.7546771E-02  0.1073309E+00
         21   -1    0    0  504  503  0.00000000000E+00  0.00000000000E+00  0.21870976051E+03  0.21870976051E+03  0.00000000000E+00 0.  1.
         21   -1    0    0  503  504 -0.00000000000E+00 -0.00000000000E+00 -0.12083808136E+03  0.12083808136E+03  0.00000000000E+00 0.  1.
         25    2    1    2    0    0  0.84466352256E+01  0.80838589185E+02  0.11659446560E+03  0.18927466587E+03  0.12499762632E+03 0.  0.
         25    2    1    2    0    0 -0.84466352256E+01 -0.80838589185E+02 -0.18722786443E+02  0.15027317600E+03  0.12500104617E+03 0.  0.
          5    1    3    3  501    0  0.19906965093E+02  0.10745836112E+01  0.10588429994E+03  0.10784719265E+03  0.47000000000E+01 0. -1.
         -5    1    3    3    0  501 -0.11460329868E+02  0.79764005573E+02  0.10710165653E+02  0.81427473214E+02  0.47000000000E+01 0. -1.
          5    1    4    4  502    0 -0.13975750857E+02 -0.10753452057E+03  0.11680385514E+02  0.10916737668E+03  0.47000000000E+01 0.  1.
         -5    1    4    4    0  502  0.55291156317E+01  0.26695931386E+02 -0.30403171957E+02  0.41105799314E+02  0.47000000000E+01 0.  1.
<mgrwt>
<rscale>  0 0.32513670E+03</rscale>
<asrwt>0</asrwt>
<pdfrwt beam="1">  1       21 0.33647655E-01 0.32513670E+03</pdfrwt>
<pdfrwt beam="2">  1       21 0.18590474E-01 0.32513670E+03</pdfrwt>
<totfact> 0.21767033E+05</totfact>
</mgrwt>
</event>
<event>
 8    1  0.9478272E-006  0.2743967E+03  0.7546771E-02  0.1098789E+00
         21   -1    0    0  504  503  0.00000000000E+00  0.00000000000E+00  0.30435780326E+03  0.30435780326E+03  0.00000000000E+00 0.  1.
         21   -1    0    0  503  504 -0.00000000000E+00 -0.00000000000E+00 -0.61846258889E+02  0.61846258889E+02  0.00000000000E+00 0.  1.
         25    2    1    2    0    0  0.38908972120E+02  0.22785494919E+02  0.75739415020E+02  0.15295795993E+03  0.12500636636E+03 0.  0.
         25    2    1    2    0    0 -0.38908972120E+02 -0.22785494919E+02  0.16677212935E+03  0.21324610222E+03  0.12501147984E+03 0.  0.
          5    1    3    3  501    0 -0.12193976972E+02 -0.45567669834E+02  0.26061872338E+02  0.54096365851E+02  0.47000000000E+01 0. -1.
         -5    1    3    3    0  501  0.51102949093E+02  0.68353164753E+02  0.49677542683E+02  0.98861594083E+02  0.47000000000E+01 0. -1.
          5    1    4    4  502    0 -0.55385133686E+02 -0.23752161201E+00  0.17511389564E+03  0.18372407544E+03  0.47000000000E+01 0. -1.
         -5    1    4    4    0  502  0.16476161566E+02 -0.22547973307E+02 -0.83417662881E+01  0.29522026776E+02  0.47000000000E+01 0. -1.
<mgrwt>
<rscale>  0 0.27439673E+03</rscale>
<asrwt>0</asrwt>
<pdfrwt beam="1">  1       21 0.46824276E-01 0.27439673E+03</pdfrwt>
<pdfrwt beam="2">  1       21 0.95148093E-02 0.27439673E+03</pdfrwt>
<totfact> 0.37984630E+05</totfact>
</mgrwt>
</event>
<event>
 8    1  0.9478272E-006  0.4147655E+03  0.7546771E-02  0.1038784E+00
         21   -1    0    0  504  503  0.00000000000E+00  0.00000000000E+00  0.10822020457E+03  0.10822020457E+03  0.00000000000E+00 0.  1.
         21   -1    0    0  503  504 -0.00000000000E+00 -0.00000000000E+00 -0.39740823618E+03  0.39740823618E+03  0.00000000000E+00 0.  1.
         25    2    1    2    0    0 -0.84421651027E+02  0.30953721661E+02 -0.31394252935E+03  0.34967122798E+03  0.12499963158E+03 0.  0.
         25    2    1    2    0    0  0.84421651027E+02 -0.30953721661E+02  0.24754497737E+02  0.15595721277E+03  0.12499887604E+03 0.  0.
          5    1    3    3  501    0 -0.73478852320E+02  0.38074855784E+02 -0.32275771705E+03  0.33323185667E+03  0.47000000000E+01 0.  1.
         -5    1    3    3    0  501 -0.10942798707E+02 -0.71211341223E+01  0.88151877048E+01  0.16439371308E+02  0.47000000000E+01 0.  1.
          5    1    4    4  502    0  0.50188278853E+02  0.46817077858E+02  0.85212020106E+01  0.69321014109E+02  0.47000000000E+01 0.  1.
         -5    1    4    4    0  502  0.34233372175E+02 -0.77770799520E+02  0.16233295727E+02  0.86636198662E+02  0.47000000000E+01 0.  1.
<mgrwt>
<rscale>  0 0.41476548E+03</rscale>
<asrwt>0</asrwt>
<pdfrwt beam="1">  1       21 0.16649262E-01 0.41476548E+03</pdfrwt>
<pdfrwt beam="2">  1       21 0.61139729E-01 0.41476548E+03</pdfrwt>
<totfact> 0.75348725E+04</totfact>
</mgrwt>
</event>
<event>
 8    1  0.9478272E-006  0.5228077E+03  0.7546771E-02  0.1007991E+00
         21   -1    0    0  504  503  0.00000000000E+00  0.00000000000E+00  0.36370410623E+03  0.36370410623E+03  0.00000000000E+00 0.  1.
         21   -1    0    0  503  504 -0.00000000000E+00 -0.00000000000E+00 -0.18787795238E+03  0.18787795238E+03  0.00000000000E+00 0.  1.
         25    2    1    2    0    0  0.59839853467E+00  0.21370821769E+03 -0.58163996509E+00  0.24758351426E+03  0.12500279131E+03 0.  0.
         25    2    1    2    0    0 -0.59839853467E+00 -0.21370821769E+03  0.17640779382E+03  0.30399854435E+03  0.12499537935E+03 0.  0.
          5    1    3    3  501    0  0.27891036338E+02  0.19309362162E+03 -0.35637449100E+02  0.19838138622E+03  0.47000000000E+01 0. -1.
         -5    1    3    3    0  501 -0.27292637803E+02  0.20614596070E+02  0.35055809135E+02  0.49202128039E+02  0.47000000000E+01 0. -1.
          5    1    4    4  502    0  0.33986235136E+02 -0.19293627741E+03  0.17597610312E+03  0.26338023880E+03  0.47000000000E+01 0.  1.
         -5    1    4    4    0  502 -0.34584633670E+02 -0.20771940280E+02  0.43169069452E+00  0.40618305553E+02  0.47000000000E+01 0.  1.
<mgrwt>
<rscale>  0 0.52280774E+03</rscale>
<asrwt>0</asrwt>
<pdfrwt beam="1">  1       21 0.55954478E-01 0.52280774E+03</pdfrwt>
<pdfrwt beam="2">  1       21 0.28904300E-01 0.52280774E+03</pdfrwt>
<totfact> 0.30939925E+04</totfact>
</mgrwt>
</event>
<event>
 8    1  0.9478272E-006  0.3605624E+03  0.7546771E-02  0.1058361E+00
         21   -1    0    0  504  503  0.00000000000E+00  0.00000000000E+00  0.23902017089E+03  0.23902017089E+03  0.00000000000E+00 0. -1.
         21   -1    0    0  503  504 -0.00000000000E+00 -0.00000000000E+00 -0.13597730071E+03  0.13597730071E+03  0.00000000000E+00 0. -1.
         25    2    1    2    0    0 -0.10524088034E+03  0.75782634306E+02  0.43844090913E+02  0.18538124074E+03  0.12500099820E+03 0.  0.
         25    2    1    2    0    0  0.10524088034E+03 -0.75782634306E+02  0.59198779266E+02  0.18961623087E+03  0.12502467350E+03 0.  0.
          5    1    3    3  501    0 -0.69482985810E+02 -0.20958798666E+01 -0.26368185399E+02  0.74495967882E+02  0.47000000000E+01 0. -1.
         -5    1    3    3    0  501 -0.35757894530E+02  0.77878514173E+02  0.70212276312E+02  0.11088527285E+03  0.47000000000E+01 0. -1.
          5    1    4    4  502    0  0.84772357872E+02 -0.69290148858E+02  0.96696831118E+02  0.14615007539E+03  0.47000000000E+01 0.  1.
         -5    1    4    4    0  502  0.20468522468E+02 -0.64924854479E+01 -0.37498051851E+02  0.43466155477E+02  0.47000000000E+01 0.  1.
<mgrwt>
<rscale>  0 0.36056244E+03</rscale>
<asrwt>0</asrwt>
<pdfrwt beam="1">  1       21 0.36772334E-01 0.36056244E+03</pdfrwt>
<pdfrwt beam="2">  1       21 0.20919585E-01 0.36056244E+03</pdfrwt>
<totfact> 0.14458708E+05</totfact>
</mgrwt>
</event>
<event>
 8    1  0.9478272E-006  0.2795052E+03  0.7546771E-02  0.1095959E+00
         21   -1    0    0  504  503  0.00000000000E+00  0.00000000000E+00  0.10391795768E+03  0.10391795768E+03  0.00000000000E+00 0.  1.
         21   -1    0    0  503  504 -0.00000000000E+00 -0.00000000000E+00 -0.18794435304E+03  0.18794435304E+03  0.00000000000E+00 0.  1.
         25    2    1    2    0    0 -0.43226149261E+02 -0.17155323871E+02  0.16010452231E+01  0.13337434620E+03  0.12499339087E+03 0.  0.
         25    2    1    2    0    0  0.43226149261E+02  0.17155323871E+02 -0.85627440587E+02  0.15848796453E+03  0.12499428467E+03 0.  0.
          5    1    3    3  501    0 -0.96716697591E+01  0.73302409006E+01  0.60089445855E+02  0.61482559566E+02  0.47000000000E+01 0. -1.
         -5    1    3    3    0  501 -0.33554479502E+02 -0.24485564771E+02 -0.58488400632E+02  0.71891786633E+02  0.47000000000E+01 0. -1.
          5    1    4    4  502    0  0.40647783981E+02  0.25136510139E+02  0.20291407655E+02  0.52133652368E+02  0.47000000000E+01 0. -1.
         -5    1    4    4    0  502  0.25783652799E+01 -0.79811862689E+01 -0.10591884824E+03  0.10635431216E+03  0.47000000000E+01 0. -1.
<mgrwt>
<rscale>  0 0.27950523E+03</rscale>
<asrwt>0</asrwt>
<pdfrwt beam="1">  1       21 0.15987378E-01 0.27950523E+03</pdfrwt>
<pdfrwt beam="2">  1       21 0.28914516E-01 0.27950523E+03</pdfrwt>
<totfact> 0.39249351E+05</totfact>
</mgrwt>
</event>
<event>
 8    1  0.9478272E-006  0.2895769E+03  0.7546771E-02  0.1090570E+00
         21   -1    0    0  504  503  0.00000000000E+00  0.00000000000E+00  0.71774669699E+02  0.71774669699E+02  0.00000000000E+00 0. -1.
         21   -1    0    0  503  504 -0.00000000000E+00 -0.00000000000E+00 -0.29207649705E+03  0.29207649705E+03  0.00000000000E+00 0. -1.
         25    2    1    2    0    0 -0.69202387297E+02 -0.13506428552E+01 -0.13962152564E+03  0.19976293716E+03  0.12498106255E+03 0.  0.
         25    2    1    2    0    0  0.69202387297E+02  0.13506428552E+01 -0.80680301712E+02  0.16408822959E+03  0.12499936545E+03 0.  0.
          5    1    3    3  501    0  0.16955108966E+02 -0.22914939193E+02 -0.96861759386E+02  0.10107848727E+03  0.47000000000E+01 0.  1.
         -5    1    3    3    0  501 -0.86157496264E+02  0.21564296338E+02 -0.42759766254E+02  0.98684449885E+02  0.47000000000E+01 0.  1.
          5    1    4    4  502    0  0.66570082362E+01 -0.43966540458E+02  0.90281965384E+01  0.45617658547E+02  0.47000000000E+01 0. -1.
         -5    1    4    4    0  502  0.62545379061E+02  0.45317183314E+02 -0.89708498250E+02  0.11847057104E+03  0.47000000000E+01 0. -1.
<mgrwt>
<rscale>  0 0.28957689E+03</rscale>
<asrwt>0</asrwt>
<pdfrwt beam="1">  1       21 0.11042257E-01 0.28957689E+03</pdfrwt>
<pdfrwt beam="2">  1       21 0.44934845E-01 0.28957689E+03</pdfrwt>
<totfact> 0.31629755E+05</totfact>
</mgrwt>
</event>
<event>
 8    1  0.9478272E-006  0.2835108E+03  0.7546771E-02  0.1093787E+00
         21   -1    0    0  504  503  0.00000000000E+00  0.00000000000E+00  0.17647568096E+03  0.17647568096E+03  0.00000000000E+00 0. -1.
         21   -1    0    0  503  504 -0.00000000000E+00 -0.00000000000E+00 -0.11386608330E+03  0.11386608330E+03  0.00000000000E+00 0. -1.
         25    2    1    2    0    0  0.55015895149E+02  0.34978639224E+02  0.16148274176E+02  0.14190288639E+03  0.12500163394E+03 0.  0.
         25    2    1    2    0    0 -0.55015895149E+02 -0.34978639224E+02  0.46461323490E+02  0.14843887787E+03  0.12500076784E+03 0.  0.
          5    1    3    3  501    0  0.85233188240E+02  0.42572690286E+02 -0.16187663536E+02  0.96753608648E+02  0.47000000000E+01 0.  1.
         -5    1    3    3    0  501 -0.30217293090E+02 -0.75940510619E+01  0.32335937712E+02  0.45149277745E+02  0.47000000000E+01 0.  1.
          5    1    4    4  502    0 -0.31078969181E+02  0.23655527303E+02  0.70338732276E+02  0.80592267343E+02  0.47000000000E+01 0. -1.
         -5    1    4    4    0  502 -0.23936925969E+02 -0.58634166528E+02 -0.23877408786E+02  0.67846610524E+02  0.47000000000E+01 0. -1.
<mgrwt>
<rscale>  0 0.28351081E+03</rscale>
<asrwt>0</asrwt>
<pdfrwt beam="1">  1       21 0.27150105E-01 0.28351081E+03</pdfrwt>
<pdfrwt beam="2">  1       21 0.17517859E-01 0.28351081E+03</pdfrwt>
<totfact> 0.37435526E+05</totfact>
</mgrwt>
</event>
<event>
 8    1  0.9478272E-006  0.3101386E+03  0.7546771E-02  0.1080279E+00
         21   -1    0    0  504  503  0.00000000000E+00  0.00000000000E+00  0.57327724714E+02  0.57327724714E+02  0.00000000000E+00 0.  1.
         21   -1    0    0  503  504 -0.00000000000E+00 -0.00000000000E+00 -0.41945657466E+03  0.41945657466E+03  0.00000000000E+00 0.  1.
         25    2    1    2    0    0 -0.38079569412E+02 -0.66234543204E+02 -0.10289924573E+03  0.17902469020E+03  0.12499806643E+03 0.  0.
         25    2    1    2    0    0  0.38079569412E+02  0.66234543204E+02 -0.25922960421E+03  0.29775960917E+03  0.12499491523E+03 0.  0.
          5    1    3    3  501    0 -0.48204422760E+02 -0.12458302112E+02 -0.11264225591E+03  0.12324464889E+03  0.47000000000E+01 0.  1.
         -5    1    3    3    0  501  0.10124853348E+02 -0.53776241092E+02  0.97430101733E+01  0.55780041310E+02  0.47000000000E+01 0.  1.
          5    1    4    4  502    0  0.62652748604E+02  0.87367607181E+02 -0.15644040945E+03  0.18987932326E+03  0.47000000000E+01 0. -1.
         -5    1    4    4    0  502 -0.24573179193E+02 -0.21133063977E+02 -0.10278919476E+03  0.10788028591E+03  0.47000000000E+01 0. -1.
<mgrwt>
<rscale>  0 0.31013862E+03</rscale>
<asrwt>0</asrwt>
<pdfrwt beam="1">  1       21 0.88196497E-02 0.31013862E+03</pdfrwt>
<pdfrwt beam="2">  1       21 0.64531783E-01 0.31013862E+03</pdfrwt>
<totfact> 0.21718493E+05</totfact>
</mgrwt>
</event>
<event>
 8    1  0.9478272E-006  0.2655806E+03  0.7546771E-02  0.1103836E+00
         21   -1    0    0  504  503  0.00000000000E+00  0.00000000000E+00  0.22776440726E+03  0.22776440726E+03  0.00000000000E+00 0. -1.
         21   -1    0    0  503  504 -0.00000000000E+00 -0.00000000000E+00 -0.77418892932E+02  0.77418892932E+02  0.00000000000E+00 0. -1.
         25    2    1    2    0    0  0.37834471323E+02 -0.23154143168E+02  0.67849042683E+02  0.14898310558E+03  0.12499964636E+03 0.  0.
         25    2    1    2    0    0 -0.37834471323E+02  0.23154143168E+02  0.82496471642E+02  0.15620019461E+03  0.12500108558E+03 0.  0.
          5    1    3    3  501    0 -0.54626172182E+01  0.43069539550E+02  0.52434678253E+02  0.68237166613E+02  0.47000000000E+01 0. -1.
         -5    1    3    3    0  501  0.43297088541E+02 -0.66223682718E+02  0.15414364431E+02  0.80745938967E+02  0.47000000000E+01 0. -1.
          5    1    4    4  502    0  0.21901754196E+02  0.11703556639E+02  0.91145864069E+02  0.94584980900E+02  0.47000000000E+01 0.  1.
         -5    1    4    4    0  502 -0.59736225519E+02  0.11450586529E+02 -0.86493924271E+01  0.61615213710E+02  0.47000000000E+01 0.  1.
<mgrwt>
<rscale>  0 0.26558063E+03</rscale>
<asrwt>0</asrwt>
<pdfrwt beam="1">  1       21 0.35040678E-01 0.26558063E+03</pdfrwt>
<pdfrwt beam="2">  1       21 0.11910599E-01 0.26558063E+03</pdfrwt>
<totfact> 0.46011629E+05</totfact>
</mgrwt>
</event>
<event>
 8    1  0.9478272E-006  0.2593048E+03  0.7546771E-02  0.1107562E+00
         21   -1    0    0  504  503  0.00000000000E+00  0.00000000000E+00  0.44838166605E+02  0.44838166605E+02  0.00000000000E+00 0.  1.
         21   -1    0    0  503  504 -0.00000000000E+00 -0.00000000000E+00 -0.37489813193E+03  0.37489813193E+03  0.00000000000E+00 0.  1.
         25    2    1    2    0    0 -0.40362585809E+00 -0.27220071152E+02 -0.19923785445E+03  0.23676044484E+03  0.12497475908E+03 0.  0.
         25    2    1    2    0    0  0.40362585809E+00  0.27220071152E+02 -0.13082211087E+03  0.18297585369E+03  0.12499857261E+03 0.  0.
          5    1    3    3  501    0 -0.50560680453E+02 -0.44905498111E+02 -0.14788894464E+03  0.16268409915E+03  0.47000000000E+01 0.  1.
         -5    1    3    3    0  501  0.50157054595E+02  0.17685426958E+02 -0.51348909811E+02  0.74076345693E+02  0.47000000000E+01 0.  1.
          5    1    4    4  502    0  0.11668008754E+01  0.73589437197E+02 -0.48172351100E+02  0.88087638757E+02  0.47000000000E+01 0. -1.
         -5    1    4    4    0  502 -0.76317501727E+00 -0.46369366045E+02 -0.82649759772E+02  0.94888214936E+02  0.47000000000E+01 0. -1.
<mgrwt>
<rscale>  0 0.25930480E+03</rscale>
<asrwt>0</asrwt>
<pdfrwt beam="1">  1       21 0.68981796E-02 0.25930480E+03</pdfrwt>
<pdfrwt beam="2">  1       21 0.57676635E-01 0.25930480E+03</pdfrwt>
<totfact> 0.43110640E+05</totfact>
</mgrwt>
</event>
<event>
 8    1  0.9478272E-006  0.3992202E+03  0.7546771E-02  0.1044050E+00
         21   -1    0    0  504  503  0.00000000000E+00  0.00000000000E+00  0.17685664456E+03  0.17685664456E+03  0.00000000000E+00 0. -1.
         21   -1    0    0  503  504 -0.00000000000E+00 -0.00000000000E+00 -0.22529090498E+03  0.22529090498E+03  0.00000000000E+00 0. -1.
         25    2    1    2    0    0 -0.82705951592E+02 -0.10820254451E+03  0.51595405598E+02  0.19195729918E+03  0.12504980513E+03 0.  0.
         25    2    1    2    0    0  0.82705951592E+02  0.10820254451E+03 -0.10002966602E+03  0.21019025035E+03  0.12500376871E+03 0.  0.
          5    1    3    3  501    0 -0.39750214838E+02 -0.69385961128E+02  0.91405425488E+02  0.12153819560E+03  0.47000000000E+01 0. -1.
         -5    1    3    3    0  501 -0.42955736753E+02 -0.38816583384E+02 -0.39810019890E+02  0.70419103582E+02  0.47000000000E+01 0. -1.
          5    1    4    4  502    0  0.19302445767E+02  0.47141893227E+02  0.25215629667E+02  0.57033853886E+02  0.47000000000E+01 0.  1.
         -5    1    4    4    0  502  0.63403505825E+02  0.61060651285E+02 -0.12524529568E+03  0.15315639646E+03  0.47000000000E+01 0.  1.
<mgrwt>
<rscale>  0 0.39922021E+03</rscale>
<asrwt>0</asrwt>
<pdfrwt beam="1">  1       21 0.27208715E-01 0.39922021E+03</pdfrwt>
<pdfrwt beam="2">  1       21 0.34660139E-01 0.39922021E+03</pdfrwt>
<totfact> 0.97332846E+04</totfact>
</mgrwt>
</event>
<event>
 8    1  0.9478272E-006  0.2549901E+03  0.7546771E-02  0.1110191E+00
         21   -1    0    0  504  503  0.00000000000E+00  0.00000000000E+00  0.24795444284E+02  0.24795444284E+02  0.00000000000E+00 0. -1.
         21   -1    0    0  503  504 -0.00000000000E+00 -0.00000000000E+00 -0.65556344832E+03  0.65556344832E+03  0.00000000000E+00 0. -1.
         25    2    1    2    0    0 -0.30289823510E+01 -0.11764920389E+02 -0.25679890593E+03  0.28586388127E+03  0.12499956977E+03 0.  0.
         25    2    1    2    0    0  0.30289823510E+01  0.11764920389E+02 -0.37396909811E+03  0.39449501134E+03  0.12500335813E+03 0.  0.
          5    1    3    3  501    0  0.55694263955E+02 -0.17579120440E+02 -0.17740415970E+03  0.18682934029E+03  0.47000000000E+01 0.  1.
         -5    1    3    3    0  501 -0.58723246306E+02  0.58142000505E+01 -0.79394746223E+02  0.99034540978E+02  0.47000000000E+01 0.  1.
          5    1    4    4  502    0  0.49762065518E+02  0.44383695343E+01 -0.31393061940E+03  0.31791584749E+03  0.47000000000E+01 0. -1.
         -5    1    4    4    0  502 -0.46733083167E+02  0.73265508551E+01 -0.60038478714E+02  0.76579163850E+02  0.47000000000E+01 0. -1.
<mgrwt>
<rscale>  0 0.25499009E+03</rscale>
<asrwt>0</asrwt>
<pdfrwt beam="1">  1       21 0.38146832E-02 0.25499009E+03</pdfrwt>
<pdfrwt beam="2">  1       21 0.10085593E+00 0.25499009E+03</pdfrwt>
<totfact> 0.33550368E+05</totfact>
</mgrwt>
</event>
<event>
 8    1  0.9478272E-006  0.3209094E+03  0.7546771E-02  0.1075232E+00
         21   -1    0    0  504  503  0.00000000000E+00  0.00000000000E+00  0.21523800261E+03  0.21523800261E+03  0.00000000000E+00 0. -1.
         21   -1    0    0  503  504 -0.00000000000E+00 -0.00000000000E+00 -0.11961505483E+03  0.11961505483E+03  0.00000000000E+00 0. -1.
         25    2    1    2    0    0  0.81346815806E+01  0.99043709230E+02  0.31247838895E+02  0.16271830865E+03  0.12499996461E+03 0.  0.
         25    2    1    2    0    0 -0.81346815806E+01 -0.99043709230E+02  0.64375108888E+02  0.17213474880E+03  0.12494153719E+03 0.  0.
          5    1    3    3  501    0  0.58751256732E+02  0.41639766223E+02 -0.14251779317E+02  0.73558028198E+02  0.47000000000E+01 0. -1.
         -5    1    3    3    0  501 -0.50616575151E+02  0.57403943007E+02  0.45499618212E+02  0.89160280451E+02  0.47000000000E+01 0. -1.
          5    1    4    4  502    0 -0.42771400139E+01 -0.38994750647E+02  0.96131762006E+02  0.10393406646E+03  0.47000000000E+01 0.  1.
         -5    1    4    4    0  502 -0.38575415667E+01 -0.60048958583E+02 -0.31756653117E+02  0.68200682336E+02  0.47000000000E+01 0.  1.
<mgrwt>
<rscale>  0 0.32090937E+03</rscale>
<asrwt>0</asrwt>
<pdfrwt beam="1">  1       21 0.33113539E-01 0.32090937E+03</pdfrwt>
<pdfrwt beam="2">  1       21 0.18402316E-01 0.32090937E+03</pdfrwt>
<totfact> 0.22926229E+05</totfact>
</mgrwt>
</event>
<event>
 8    1  0.9478272E-006  0.2794705E+03  0.7546771E-02  0.1095978E+00
         21   -1    0    0  504  503  0.00000000000E+00  0.00000000000E+00  0.12772092055E+04  0.12772092055E+04  0.00000000000E+00 0.  1.
         21   -1    0    0  503  504 -0.00000000000E+00 -0.00000000000E+00 -0.15287974730E+02  0.15287974730E+02  0.00000000000E+00 0.  1.
         25    2    1    2    0    0 -0.20626317267E+02 -0.42071070934E+02  0.82195648962E+03  0.83272568038E+03  0.12499667179E+03 0.  0.
         25    2    1    2    0    0  0.20626317267E+02  0.42071070934E+02  0.43996474115E+03  0.45977149985E+03  0.12500175458E+03 0.  0.
          5    1    3    3  501    0  0.27562053501E-01  0.40217988616E+02  0.41634707391E+03  0.41831144297E+03  0.47000000000E+01 0. -1.
         -5    1    3    3    0  501 -0.20653879321E+02 -0.82289059550E+02  0.40560941571E+03  0.41441423741E+03  0.47000000000E+01 0. -1.
          5    1    4    4  502    0  0.72045286739E+02  0.35090708116E+02  0.23700318012E+03  0.25022885230E+03  0.47000000000E+01 0. -1.
         -5    1    4    4    0  502 -0.51418969472E+02  0.69803628179E+01  0.20296156103E+03  0.20954264755E+03  0.47000000000E+01 0. -1.
<mgrwt>
<rscale>  0 0.27947051E+03</rscale>
<asrwt>0</asrwt>
<pdfrwt beam="1">  1       21 0.19649364E+00 0.27947051E+03</pdfrwt>
<pdfrwt beam="2">  1       21 0.23519971E-02 0.27947051E+03</pdfrwt>
<totfact> 0.12824305E+05</totfact>
</mgrwt>
</event>
<event>
 8    1  0.9478272E-006  0.3502131E+03  0.7546771E-02  0.1062528E+00
         21   -1    0    0  504  503  0.00000000000E+00  0.00000000000E+00  0.20086204959E+02  0.20086204959E+02  0.00000000000E+00 0.  1.
         21   -1    0    0  503  504 -0.00000000000E+00 -0.00000000000E+00 -0.15265353015E+04  0.15265353015E+04  0.00000000000E+00 0.  1.
         25    2    1    2    0    0  0.66189745087E+02  0.10230205557E+03 -0.81366711732E+03  0.83218524623E+03  0.12502525066E+03 0.  0.
         25    2    1    2    0    0 -0.66189745087E+02 -0.10230205557E+03 -0.69278197921E+03  0.71443626022E+03  0.12500202507E+03 0.  0.
          5    1    3    3  501    0  0.54498305554E+01  0.10934372263E+03 -0.59850430056E+03  0.60845315195E+03  0.47000000000E+01 0.  1.
         -5    1    3    3    0  501  0.60739914532E+02 -0.70416670648E+01 -0.21516281676E+03  0.22373209427E+03  0.47000000000E+01 0.  1.
          5    1    4    4  502    0  0.17803938301E+01 -0.79410372756E+02 -0.18215475866E+03  0.19877530834E+03  0.47000000000E+01 0. -1.
         -5    1    4    4    0  502 -0.67970138918E+02 -0.22891682810E+02 -0.51062722055E+03  0.51566095188E+03  0.47000000000E+01 0. -1.
<mgrwt>
<rscale>  0 0.35021308E+03</rscale>
<asrwt>0</asrwt>
<pdfrwt beam="1">  1       21 0.30901854E-02 0.35021308E+03</pdfrwt>
<pdfrwt beam="2">  1       21 0.23485158E+00 0.35021308E+03</pdfrwt>
<totfact> 0.45127100E+04</totfact>
</mgrwt>
</event>
<event>
 8    1  0.9478272E-006  0.3410878E+03  0.7546771E-02  0.1066334E+00
         21   -1    0    0  504  503  0.00000000000E+00  0.00000000000E+00  0.74030250605E+03  0.74030250605E+03  0.00000000000E+00 0.  1.
         21   -1    0    0  503  504 -0.00000000000E+00 -0.00000000000E+00 -0.39288295261E+02  0.39288295261E+02  0.00000000000E+00 0.  1.
         25    2    1    2    0    0  0.11518323987E+03  0.97382452360E+00  0.31887718229E+03  0.36135457534E+03  0.12500537850E+03 0.  0.
         25    2    1    2    0    0 -0.11518323987E+03 -0.97382452360E+00  0.38213702850E+03  0.41823622597E+03  0.12499882032E+03 0.  0.
          5    1    3    3  501    0  0.65870720057E+02  0.50543259616E+02  0.92535254546E+02  0.12441236348E+03  0.47000000000E+01 0.  1.
         -5    1    3    3    0  501  0.49312519814E+02 -0.49569435092E+02  0.22634192774E+03  0.23694221186E+03  0.47000000000E+01 0.  1.
          5    1    4    4  502    0 -0.36651233638E+02 -0.36445958079E+02  0.27886012447E+03  0.28364886710E+03  0.47000000000E+01 0.  1.
         -5    1    4    4    0  502 -0.78532006233E+02  0.35472133556E+02  0.10327690403E+03  0.13458735887E+03  0.47000000000E+01 0.  1.
<mgrwt>
<rscale>  0 0.34108781E+03</rscale>
<asrwt>0</asrwt>
<pdfrwt beam="1">  1       21 0.11389268E+00 0.34108781E+03</pdfrwt>
<pdfrwt beam="2">  1       21 0.60443537E-02 0.34108781E+03</pdfrwt>
<totfact> 0.11114336E+05</totfact>
</mgrwt>
</event>
<event>
 8    1  0.9478272E-006  0.4061560E+03  0.7546771E-02  0.1041669E+00
         21   -1    0    0  504  503  0.00000000000E+00  0.00000000000E+00  0.43719088279E+02  0.43719088279E+02  0.00000000000E+00 0. -1.
         21   -1    0    0  503  504 -0.00000000000E+00 -0.00000000000E+00 -0.94331068683E+03  0.94331068683E+03  0.00000000000E+00 0. -1.
         25    2    1    2    0    0 -0.14821793961E+03  0.51772248825E+02 -0.37424335092E+03  0.42465633352E+03  0.12500397001E+03 0.  0.
         25    2    1    2    0    0  0.14821793961E+03 -0.51772248825E+02 -0.52534824763E+03  0.56237344159E+03  0.12499673254E+03 0.  0.
          5    1    3    3  501    0 -0.85495513875E+02  0.14348381380E+01 -0.72066638354E+02  0.11192511790E+03  0.47000000000E+01 0.  1.
         -5    1    3    3    0  501 -0.62722425737E+02  0.50337410687E+02 -0.30217671257E+03  0.31273121562E+03  0.47000000000E+01 0.  1.
          5    1    4    4  502    0  0.15450446892E+02 -0.44388072575E+02 -0.50121656871E+02  0.68871531010E+02  0.47000000000E+01 0.  1.
         -5    1    4    4    0  502  0.13276749272E+03 -0.73841762495E+01 -0.47522659076E+03  0.49350191058E+03  0.47000000000E+01 0.  1.
<mgrwt>
<rscale>  0 0.40615604E+03</rscale>
<asrwt>0</asrwt>
<pdfrwt beam="1">  1       21 0.67260138E-02 0.40615604E+03</pdfrwt>
<pdfrwt beam="2">  1       21 0.14512472E+00 0.40615604E+03</pdfrwt>
<totfact> 0.48560762E+04</totfact>
</mgrwt>
</event>
<event>
 8    1  0.9478272E-006  0.3219449E+03  0.7546771E-02  0.1074758E+00
         21   -1    0    0  504  503  0.00000000000E+00  0.00000000000E+00  0.58488801539E+03  0.58488801539E+03  0.00000000000E+00 0. -1.
         21   -1    0    0  503  504 -0.00000000000E+00 -0.00000000000E+00 -0.44302726066E+02  0.44302726066E+02  0.00000000000E+00 0. -1.
         25    2    1    2    0    0 -0.84839080812E+02 -0.36143357445E+02  0.18778058519E+03  0.24370522865E+03  0.12500671334E+03 0.  0.
         25    2    1    2    0    0  0.84839080812E+02  0.36143357445E+02  0.35280470414E+03  0.38548551280E+03  0.12499563752E+03 0.  0.
          5    1    3    3  501    0 -0.30160439896E+02  0.28629384998E+02  0.49699370376E+01  0.42143612734E+02  0.47000000000E+01 0. -1.
         -5    1    3    3    0  501 -0.54678640916E+02 -0.64772742443E+02  0.18281064815E+03  0.20156161592E+03  0.47000000000E+01 0. -1.
          5    1    4    4  502    0  0.23207163174E+02  0.93979116641E+01  0.29680508662E+03  0.29789636220E+03  0.47000000000E+01 0.  1.
         -5    1    4    4    0  502  0.61631917638E+02  0.26745445781E+02  0.55999617520E+02  0.87589150608E+02  0.47000000000E+01 0.  1.
<mgrwt>
<rscale>  0 0.32194492E+03</rscale>
<asrwt>0</asrwt>
<pdfrwt beam="1">  1       21 0.89982766E-01 0.32194492E+03</pdfrwt>
<pdfrwt beam="2">  1       21 0.68158044E-02 0.32194492E+03</pdfrwt>
<totfact> 0.16012678E+05</totfact>
</mgrwt>
</event>
<event>
 8    1  0.9478272E-006  0.3026557E+03  0.7546771E-02  0.1083921E+00
         21   -1    0    0  504  503  0.00000000000E+00  0.00000000000E+00  0.37737515571E+03  0.37737515571E+03  0.00000000000E+00 0.  1.
         21   -1    0    0  503  504 -0.00000000000E+00 -0.00000000000E+00 -0.60682628414E+02  0.60682628414E+02  0.00000000000E+00 0.  1.
         25    2    1    2    0    0 -0.32771063344E+01  0.73106074671E+02  0.22175829054E+03  0.26487335936E+03  0.12500367794E+03 0.  0.
         25    2    1    2    0    0  0.32771063344E+01 -0.73106074671E+02  0.94934236762E+02  0.17318442476E+03  0.12500039236E+03 0.  0.
          5    1    3    3  501    0 -0.23538803945E+02  0.40307994865E+02  0.79698484092E+01  0.47585903636E+02  0.47000000000E+01 0. -1.
         -5    1    3    3    0  501  0.20261697610E+02  0.32798079806E+02  0.21378844213E+03  0.21728745573E+03  0.47000000000E+01 0. -1.
          5    1    4    4  502    0  0.26466048714E+02 -0.29658973602E+01 -0.21951257684E+02  0.34830963173E+02  0.47000000000E+01 0.  1.
         -5    1    4    4    0  502 -0.23188942379E+02 -0.70140177311E+02  0.11688549445E+03  0.13835346159E+03  0.47000000000E+01 0.  1.
<mgrwt>
<rscale>  0 0.30265569E+03</rscale>
<asrwt>0</asrwt>
<pdfrwt beam="1">  1       21 0.58057715E-01 0.30265569E+03</pdfrwt>
<pdfrwt beam="2">  1       21 0.93357892E-02 0.30265569E+03</pdfrwt>
<totfact> 0.24763032E+05</totfact>
</mgrwt>
</event>
<event>
 8    1  0.9478272E-006  0.3026742E+03  0.7546771E-02  0.1083911E+00
         21   -1    0    0  504  503  0.00000000000E+00  0.00000000000E+00  0.53032347238E+03  0.53032347238E+03  0.00000000000E+00 0.  1.
         21   -1    0    0  503  504 -0.00000000000E+00 -0.00000000000E+00 -0.43186683962E+02  0.43186683962E+02  0.00000000000E+00 0.  1.
         25    2    1    2    0    0  0.74141036594E+02  0.28472947248E+02  0.18461749111E+03  0.23668578085E+03  0.12501575422E+03 0.  0.
         25    2    1    2    0    0 -0.74141036594E+02 -0.28472947248E+02  0.30251929731E+03  0.33682437549E+03  0.12500053058E+03 0.  0.
          5    1    3    3  501    0  0.50309767631E+02 -0.69194866762E+01  0.41339104798E+01  0.51167677598E+02  0.47000000000E+01 0. -1.
         -5    1    3    3    0  501  0.23831268963E+02  0.35392433924E+02  0.18048358063E+03  0.18551810326E+03  0.47000000000E+01 0. -1.
          5    1    4    4  502    0 -0.62130246176E+02 -0.59370230370E+02  0.10168142192E+03  0.13321483891E+03  0.47000000000E+01 0. -1.
         -5    1    4    4    0  502 -0.12010790418E+02  0.30897283122E+02  0.20083787540E+03  0.20360953658E+03  0.47000000000E+01 0. -1.
<mgrwt>
<rscale>  0 0.30267416E+03</rscale>
<asrwt>0</asrwt>
<pdfrwt beam="1">  1       21 0.81588222E-01 0.30267416E+03</pdfrwt>
<pdfrwt beam="2">  1       21 0.66441056E-02 0.30267416E+03</pdfrwt>
<totfact> 0.21110359E+05</totfact>
</mgrwt>
</event>
<event>
 8    1  0.9478272E-006  0.5693274E+03  0.7546771E-02  0.9971168E-01
         21   -1    0    0  504  503  0.00000000000E+00  0.00000000000E+00  0.12438075284E+03  0.12438075284E+03  0.00000000000E+00 0.  1.
         21   -1    0    0  503  504 -0.00000000000E+00 -0.00000000000E+00 -0.65149493174E+03  0.65149493174E+03  0.00000000000E+00 0.  1.
         25    2    1    2    0    0 -0.75380105307E+02  0.19932345808E+03 -0.45627535368E+03  0.51886788673E+03  0.12499873713E+03 0.  0.
         25    2    1    2    0    0  0.75380105307E+02 -0.19932345808E+03 -0.70838825218E+02  0.25700779785E+03  0.12499147083E+03 0.  0.
          5    1    3    3  501    0 -0.10632060867E+03  0.13388596992E+03 -0.27796135557E+03  0.32636502564E+03  0.47000000000E+01 0.  1.
         -5    1    3    3    0  501  0.30940503364E+02  0.65437488159E+02 -0.17831399811E+03  0.19250286109E+03  0.47000000000E+01 0.  1.
          5    1    4    4  502    0  0.46158783870E+02 -0.14720859207E+03  0.11942413887E+02  0.15480863722E+03  0.47000000000E+01 0. -1.
         -5    1    4    4    0  502  0.29221321437E+02 -0.52114866005E+02 -0.82781239105E+02  0.10219916063E+03  0.47000000000E+01 0. -1.
<mgrwt>
<rscale>  0 0.56932743E+03</rscale>
<asrwt>0</asrwt>
<pdfrwt beam="1">  1       21 0.19135500E-01 0.56932743E+03</pdfrwt>
<pdfrwt beam="2">  1       21 0.10022999E+00 0.56932743E+03</pdfrwt>
<totfact> 0.17898986E+04</totfact>
</mgrwt>
</event>
<event>
 8    1  0.9478272E-006  0.2837886E+03  0.7546771E-02  0.1093638E+00
         21   -1    0    0  504  503  0.00000000000E+00  0.00000000000E+00  0.35674289585E+02  0.35674289585E+02  0.00000000000E+00 0.  1.
         21   -1    0    0  503  504 -0.00000000000E+00 -0.00000000000E+00 -0.56438382302E+03  0.56438382302E+03  0.00000000000E+00 0.  1.
         25    2    1    2    0    0  0.24873159261E+02  0.33007303859E+02 -0.37625258817E+03  0.39862258627E+03  0.12500320004E+03 0.  0.
         25    2    1    2    0    0 -0.24873159261E+02 -0.33007303859E+02 -0.15245694527E+03  0.20143552633E+03  0.12499997980E+03 0.  0.
          5    1    3    3  501    0 -0.29008116941E+02  0.62302673657E+02 -0.17106548986E+03  0.18441416923E+03  0.47000000000E+01 0.  1.
         -5    1    3    3    0  501  0.53881276203E+02 -0.29295369798E+02 -0.20518709831E+03  0.21420841703E+03  0.47000000000E+01 0.  1.
          5    1    4    4  502    0  0.32039435618E+02 -0.55851274674E+01  0.35553229499E+01  0.33052222389E+02  0.47000000000E+01 0. -1.
         -5    1    4    4    0  502 -0.56912594879E+02 -0.27422176392E+02 -0.15601226822E+03  0.16838330395E+03  0.47000000000E+01 0. -1.
<mgrwt>
<rscale>  0 0.28378860E+03</rscale>
<asrwt>0</asrwt>
<pdfrwt beam="1">  1       21 0.54883526E-02 0.28378860E+03</pdfrwt>
<pdfrwt beam="2">  1       21 0.86828275E-01 0.28378860E+03</pdfrwt>
<totfact> 0.25550701E+05</totfact>
</mgrwt>
</event>
<event>
 8    1  0.9478272E-006  0.2741941E+03  0.7546771E-02  0.1098903E+00
         21   -1    0    0  504  503  0.00000000000E+00  0.00000000000E+00  0.15899535205E+04  0.15899535205E+04  0.00000000000E+00 0. -1.
         21   -1    0    0  503  504 -0.00000000000E+00 -0.00000000000E+00 -0.11821479910E+02  0.11821479910E+02  0.00000000000E+00 0. -1.
         25    2    1    2    0    0 -0.11631479949E+02  0.51876542636E+02  0.89746074490E+03  0.90768201546E+03  0.12499754221E+03 0.  0.
         25    2    1    2    0    0  0.11631479949E+02 -0.51876542636E+02  0.68067129573E+03  0.69409298498E+03  0.12500076789E+03 0.  0.
          5    1    3    3  501    0  0.44720278469E+02  0.59729854017E+02  0.61353239038E+03  0.61807090436E+03  0.47000000000E+01 0.  1.
         -5    1    3    3    0  501 -0.56351758419E+02 -0.78533113813E+01  0.28392835452E+03  0.28961111111E+03  0.47000000000E+01 0.  1.
          5    1    4    4  502    0  0.24623756213E+02 -0.24787725278E+02  0.42591974322E+02  0.55289483369E+02  0.47000000000E+01 0. -1.
         -5    1    4    4    0  502 -0.12992276264E+02 -0.27088817358E+02  0.63807932140E+03  0.63880350161E+03  0.47000000000E+01 0. -1.
<mgrwt>
<rscale>  0 0.27419412E+03</rscale>
<asrwt>0</asrwt>
<pdfrwt beam="1">  1       21 0.24460806E+00 0.27419412E+03</pdfrwt>
<pdfrwt beam="2">  1       21 0.18186905E-02 0.27419412E+03</pdfrwt>
<totfact> 0.97936734E+04</totfact>
</mgrwt>
</event>
<event>
 8    1  0.9478272E-006  0.2859636E+03  0.7546771E-02  0.1092476E+00
         21   -1    0    0  504  503  0.00000000000E+00  0.00000000000E+00  0.19955072508E+04  0.19955072508E+04  0.00000000000E+00 0. -1.
         21   -1    0    0  503  504 -0.00000000000E+00 -0.00000000000E+00 -0.10244914064E+02  0.10244914064E+02  0.00000000000E+00 0. -1.
         25    2    1    2    0    0 -0.55053237776E+01 -0.34057519444E+02  0.57018218939E+03  0.58474234268E+03  0.12500261997E+03 0.  0.
         25    2    1    2    0    0  0.55053237776E+01  0.34057519444E+02  0.14150801474E+04  0.14210098222E+04  0.12500747227E+03 0.  0.
          5    1    3    3  501    0 -0.35087433301E+02  0.36224166877E+02  0.17223555527E+03  0.17952853462E+03  0.47000000000E+01 0. -1.
         -5    1    3    3    0  501  0.29582109524E+02 -0.70281686321E+02  0.39794663412E+03  0.40521380806E+03  0.47000000000E+01 0. -1.
          5    1    4    4  502    0  0.11947569523E+02  0.39210066961E+02  0.14145230240E+03  0.14734659013E+03  0.47000000000E+01 0. -1.
         -5    1    4    4    0  502 -0.64422457456E+01 -0.51525475170E+01  0.12736278450E+04  0.12736632321E+04  0.47000000000E+01 0. -1.
<mgrwt>
<rscale>  0 0.28596364E+03</rscale>
<asrwt>0</asrwt>
<pdfrwt beam="1">  1       21 0.30700081E+00 0.28596364E+03</pdfrwt>
<pdfrwt beam="2">  1       21 0.15761422E-02 0.28596364E+03</pdfrwt>
<totfact> 0.52507921E+04</totfact>
</mgrwt>
</event>
<event>
 8    1  0.9478272E-006  0.4957492E+03  0.7546771E-02  0.1014894E+00
         21   -1    0    0  504  503  0.00000000000E+00  0.00000000000E+00  0.32836695724E+03  0.32836695724E+03  0.00000000000E+00 0. -1.
         21   -1    0    0  503  504 -0.00000000000E+00 -0.00000000000E+00 -0.18711327073E+03  0.18711327073E+03  0.00000000000E+00 0. -1.
         25    2    1    2    0    0 -0.14216153732E+03 -0.65085898529E+02 -0.81381581788E+02  0.21608472900E+03  0.12499428536E+03 0.  0.
         25    2    1    2    0    0  0.14216153732E+03  0.65085898529E+02  0.22263526829E+03  0.29939549897E+03  0.12500050095E+03 0.  0.
          5    1    3    3  501    0 -0.68938692220E+02  0.20639949715E+02 -0.73501027226E+02  0.10297107270E+03  0.47000000000E+01 0.  1.
         -5    1    3    3    0  501 -0.73222845098E+02 -0.85725848243E+02 -0.78805545622E+01  0.11311365630E+03  0.47000000000E+01 0.  1.
          5    1    4    4  502    0  0.15469780457E+03  0.84686656557E+02  0.19494357461E+03  0.26292266510E+03  0.47000000000E+01 0.  1.
         -5    1    4    4    0  502 -0.12536267256E+02 -0.19600758029E+02  0.27691693679E+02  0.36472833875E+02  0.47000000000E+01 0.  1.
<mgrwt>
<rscale>  0 0.49574919E+03</rscale>
<asrwt>0</asrwt>
<pdfrwt beam="1">  1       21 0.50517994E-01 0.49574919E+03</pdfrwt>
<pdfrwt beam="2">  1       21 0.28786657E-01 0.49574919E+03</pdfrwt>
<totfact> 0.39085429E+04</totfact>
</mgrwt>
</event>
<event>
 8    1  0.9478272E-006  0.2807202E+03  0.7546771E-02  0.1095296E+00
         21   -1    0    0  504  503  0.00000000000E+00  0.00000000000E+00  0.13387819589E+03  0.13387819589E+03  0.00000000000E+00 0. -1.
         21   -1    0    0  503  504 -0.00000000000E+00 -0.00000000000E+00 -0.14715583740E+03  0.14715583740E+03  0.00000000000E+00 0. -1.
         25    2    1    2    0    0 -0.41965726210E+02 -0.30639648995E+02 -0.43772125395E+02  0.14227124007E+03  0.12500078609E+03 0.  0.
         25    2    1    2    0    0  0.41965726210E+02  0.30639648995E+02  0.30494483885E+02  0.13876279323E+03  0.12500115587E+03 0.  0.
          5    1    3    3  501    0  0.23222620908E+02 -0.28343055069E+02  0.27115017942E+02  0.45825026901E+02  0.47000000000E+01 0.  1.
         -5    1    3    3    0  501 -0.65188347119E+02 -0.22965939252E+01 -0.70887143337E+02  0.96446213167E+02  0.47000000000E+01 0.  1.
          5    1    4    4  502    0  0.85744597082E+02  0.30372965202E+02  0.24511983675E+02  0.94326985999E+02  0.47000000000E+01 0.  1.
         -5    1    4    4    0  502 -0.43778870872E+02  0.26668379260E+00  0.59825002095E+01  0.44435807226E+02  0.47000000000E+01 0.  1.
<mgrwt>
<rscale>  0 0.28072020E+03</rscale>
<asrwt>0</asrwt>
<pdfrwt beam="1">  1       21 0.20596646E-01 0.28072020E+03</pdfrwt>
<pdfrwt beam="2">  1       21 0.22639360E-01 0.28072020E+03</pdfrwt>
<totfact> 0.39222476E+05</totfact>
</mgrwt>
</event>
<event>
 8    1  0.9478272E-006  0.2994648E+03  0.7546771E-02  0.1085508E+00
         21   -1    0    0  504  503  0.00000000000E+00  0.00000000000E+00  0.79625924294E+02  0.79625924294E+02  0.00000000000E+00 0. -1.
         21   -1    0    0  503  504 -0.00000000000E+00 -0.00000000000E+00 -0.28156401776E+03  0.28156401776E+03  0.00000000000E+00 0. -1.
         25    2    1    2    0    0  0.31872269122E+02 -0.75395469853E+02 -0.88942330674E+02  0.17388355111E+03  0.12499773097E+03 0.  0.
         25    2    1    2    0    0 -0.31872269122E+02  0.75395469853E+02 -0.11299576280E+03  0.18730639094E+03  0.12496128707E+03 0.  0.
          5    1    3    3  501    0  0.75042061031E+02 -0.67665029137E+02 -0.42161959809E+02  0.10958826555E+03  0.47000000000E+01 0.  1.
         -5    1    3    3    0  501 -0.43169791909E+02 -0.77304407169E+01 -0.46780370866E+02  0.64295285562E+02  0.47000000000E+01 0.  1.
          5    1    4    4  502    0  0.48455866231E+01  0.10023537560E+03 -0.97808067549E+02  0.14021097785E+03  0.47000000000E+01 0. -1.
         -5    1    4    4    0  502 -0.36717855745E+02 -0.24839905745E+02 -0.15187695247E+02  0.47095413097E+02  0.47000000000E+01 0. -1.
<mgrwt>
<rscale>  0 0.29946482E+03</rscale>
<asrwt>0</asrwt>
<pdfrwt beam="1">  1       21 0.12250142E-01 0.29946482E+03</pdfrwt>
<pdfrwt beam="2">  1       21 0.43317541E-01 0.29946482E+03</pdfrwt>
<totfact> 0.28244283E+05</totfact>
</mgrwt>
</event>
<event>
 8    1  0.9478272E-006  0.3495137E+03  0.7546771E-02  0.1062815E+00
         21   -1    0    0  504  503  0.00000000000E+00  0.00000000000E+00  0.44639944090E+03  0.44639944090E+03  0.00000000000E+00 0.  1.
         21   -1    0    0  503  504 -0.00000000000E+00 -0.00000000000E+00 -0.68413967997E+02  0.68413967997E+02  0.00000000000E+00 0.  1.
         25    2    1    2    0    0 -0.10994616643E+02 -0.10001451183E+03  0.29094134154E+03  0.33225848188E+03  0.12500020155E+03 0.  0.
         25    2    1    2    0    0  0.10994616643E+02  0.10001451183E+03  0.87044131365E+02  0.18255492703E+03  0.12500334557E+03 0.  0.
          5    1    3    3  501    0 -0.37155945867E+02 -0.88149866855E+02  0.28739665670E+03  0.30293545785E+03  0.47000000000E+01 0. -1.
         -5    1    3    3    0  501  0.26161329224E+02 -0.11864644976E+02  0.35446848372E+01  0.29323024022E+02  0.47000000000E+01 0. -1.
          5    1    4    4  502    0 -0.27943459525E+02 -0.14381312266E+02 -0.28017928283E+01  0.31899829400E+02  0.47000000000E+01 0. -1.
         -5    1    4    4    0  502  0.38938076167E+02  0.11439582410E+03  0.89845924193E+02  0.15065509763E+03  0.47000000000E+01 0. -1.
<mgrwt>
<rscale>  0 0.34951370E+03</rscale>
<asrwt>0</asrwt>
<pdfrwt beam="1">  1       21 0.68676835E-01 0.34951370E+03</pdfrwt>
<pdfrwt beam="2">  1       21 0.10525226E-01 0.34951370E+03</pdfrwt>
<totfact> 0.13684780E+05</totfact>
</mgrwt>
</event>
<event>
 8    1  0.9478272E-006  0.3391254E+03  0.7546771E-02  0.1067169E+00
         21   -1    0    0  504  503  0.00000000000E+00  0.00000000000E+00  0.12453635104E+03  0.12453635104E+03  0.00000000000E+00 0.  1.
         21   -1    0    0  503  504 -0.00000000000E+00 -0.00000000000E+00 -0.23086846759E+03  0.23086846759E+03  0.00000000000E+00 0.  1.
         25    2    1    2    0    0  0.10268059865E+03  0.35050140135E+02 -0.91735904985E+02  0.18924238892E+03  0.12500155134E+03 0.  0.
         25    2    1    2    0    0 -0.10268059865E+03 -0.35050140135E+02 -0.14596211565E+02  0.16616242972E+03  0.12500034398E+03 0.  0.
          5    1    3    3  501    0  0.50581950370E+02  0.80973610859E+02 -0.47216993100E+02  0.10661516682E+03  0.47000000000E+01 0.  1.
         -5    1    3    3    0  501  0.52098648284E+02 -0.45923470724E+02 -0.44518911885E+02  0.82627222099E+02  0.47000000000E+01 0.  1.
          5    1    4    4  502    0 -0.44913073748E+02 -0.45651186367E+02 -0.62964351514E+02  0.89932277697E+02  0.47000000000E+01 0. -1.
         -5    1    4    4    0  502 -0.57767524906E+02  0.10601046232E+02  0.48368139949E+02  0.76230152020E+02  0.47000000000E+01 0. -1.
<mgrwt>
<rscale>  0 0.33912544E+03</rscale>
<asrwt>0</asrwt>
<pdfrwt beam="1">  1       21 0.19159439E-01 0.33912544E+03</pdfrwt>
<pdfrwt beam="2">  1       21 0.35518225E-01 0.33912544E+03</pdfrwt>
<totfact> 0.18398462E+05</totfact>
</mgrwt>
</event>
<event>
 8    1  0.9478272E-006  0.2724800E+03  0.7546771E-02  0.1099869E+00
         21   -1    0    0  504  503  0.00000000000E+00  0.00000000000E+00  0.16241861070E+02  0.16241861070E+02  0.00000000000E+00 0. -1.
         21   -1    0    0  503  504 -0.00000000000E+00 -0.00000000000E+00 -0.11428086271E+04  0.11428086271E+04  0.00000000000E+00 0. -1.
         25    2    1    2    0    0  0.16726186669E+01  0.50879975129E+02 -0.64223351291E+03  0.65626260268E+03  0.12500059620E+03 0.  0.
         25    2    1    2    0    0 -0.16726186669E+01 -0.50879975129E+02 -0.48433325308E+03  0.50278788545E+03  0.12500155276E+03 0.  0.
          5    1    3    3  501    0  0.59659991456E+02  0.42949180591E+02 -0.41959867443E+03  0.42601535686E+03  0.47000000000E+01 0.  1.
         -5    1    3    3    0  501 -0.57987372789E+02  0.79307945380E+01 -0.22263483847E+03  0.23024724582E+03  0.47000000000E+01 0.  1.
          5    1    4    4  502    0  0.35897229229E+02  0.19517173957E+02 -0.73265145930E+02  0.84020252045E+02  0.47000000000E+01 0. -1.
         -5    1    4    4    0  502 -0.37569847896E+02 -0.70397149087E+02 -0.41106810715E+03  0.41876763340E+03  0.47000000000E+01 0. -1.
<mgrwt>
<rscale>  0 0.27248001E+03</rscale>
<asrwt>0</asrwt>
<pdfrwt beam="1">  1       21 0.24987468E-02 0.27248001E+03</pdfrwt>
<pdfrwt beam="2">  1       21 0.17581678E+00 0.27248001E+03</pdfrwt>
<totfact> 0.16072379E+05</totfact>
</mgrwt>
</event>
<event>
 8    1  0.9478272E-006  0.4587661E+03  0.7546771E-02  0.1025140E+00
         21   -1    0    0  504  503  0.00000000000E+00  0.00000000000E+00  0.32906847328E+03  0.32906847328E+03  0.00000000000E+00 0.  1.
         21   -1    0    0  503  504 -0.00000000000E+00 -0.00000000000E+00 -0.15989555179E+03  0.15989555179E+03  0.00000000000E+00 0.  1.
         25    2    1    2    0    0  0.18886864599E+03 -0.15004496886E+02  0.49324187827E+02  0.23228151165E+03  0.12500129912E+03 0.  0.
         25    2    1    2    0    0 -0.18886864599E+03  0.15004496886E+02  0.11984873366E+03  0.25668251343E+03  0.12500277347E+03 0.  0.
          5    1    3    3  501    0  0.63872851218E+02  0.96551884115E+01 -0.40441714285E+02  0.76358274210E+02  0.47000000000E+01 0.  1.
         -5    1    3    3    0  501  0.12499579478E+03 -0.24659685298E+02  0.89765902112E+02  0.15592323744E+03  0.47000000000E+01 0.  1.
          5    1    4    4  502    0 -0.85107972278E+02  0.61688143600E+02  0.24196997302E+02  0.10796471037E+03  0.47000000000E+01 0. -1.
         -5    1    4    4    0  502 -0.10376067371E+03 -0.46683646714E+02  0.95651736361E+02  0.14871780307E+03  0.47000000000E+01 0. -1.
<mgrwt>
<rscale>  0 0.45876611E+03</rscale>
<asrwt>0</asrwt>
<pdfrwt beam="1">  1       21 0.50625919E-01 0.45876611E+03</pdfrwt>
<pdfrwt beam="2">  1       21 0.24599316E-01 0.45876611E+03</pdfrwt>
<totfact> 0.53373461E+04</totfact>
</mgrwt>
</event>
<event>
 8    1  0.9478272E-006  0.3360460E+03  0.7546771E-02  0.1068493E+00
         21   -1    0    0  504  503  0.00000000000E+00  0.00000000000E+00  0.64927658274E+02  0.64927658274E+02  0.00000000000E+00 0.  1.
         21   -1    0    0  503  504 -0.00000000000E+00 -0.00000000000E+00 -0.43481833489E+03  0.43481833489E+03  0.00000000000E+00 0.  1.
         25    2    1    2    0    0  0.67914725927E+02 -0.70108272389E+02 -0.26746829764E+03  0.31095350105E+03  0.12500083888E+03 0.  0.
         25    2    1    2    0    0 -0.67914725927E+02  0.70108272389E+02 -0.10242237897E+03  0.18879249211E+03  0.12499872602E+03 0.  0.
          5    1    3    3  501    0  0.46073353062E+02  0.30490208481E+02 -0.98851800124E+02  0.11334096816E+03  0.47000000000E+01 0.  1.
         -5    1    3    3    0  501  0.21841372864E+02 -0.10059848087E+03 -0.16861649752E+03  0.19761253289E+03  0.47000000000E+01 0.  1.
          5    1    4    4  502    0 -0.10291676744E+03  0.66583674381E+02 -0.73444151465E+02  0.14297335451E+03  0.47000000000E+01 0.  1.
         -5    1    4    4    0  502  0.35002041512E+02  0.35245980079E+01 -0.28978227509E+02  0.45819137603E+02  0.47000000000E+01 0.  1.
<mgrwt>
<rscale>  0 0.33604605E+03</rscale>
<asrwt>0</asrwt>
<pdfrwt beam="1">  1       21 0.99888705E-02 0.33604605E+03</pdfrwt>
<pdfrwt beam="2">  1       21 0.66895129E-01 0.33604605E+03</pdfrwt>
<totfact> 0.15982452E+05</totfact>
</mgrwt>
</event>
<event>
 8    1  0.9478272E-006  0.4594995E+03  0.7546771E-02  0.1024926E+00
         21   -1    0    0  504  503  0.00000000000E+00  0.00000000000E+00  0.11851548171E+04  0.11851548171E+04  0.00000000000E+00 0. -1.
         21   -1    0    0  503  504 -0.00000000000E+00 -0.00000000000E+00 -0.44538443534E+02  0.44538443534E+02  0.00000000000E+00 0. -1.
         25    2    1    2    0    0 -0.36942254197E+02  0.18894998201E+03  0.54476551067E+03  0.59115281543E+03  0.12500145490E+03 0.  0.
         25    2    1    2    0    0  0.36942254197E+02 -0.18894998201E+03  0.59585086284E+03  0.63854044515E+03  0.12501529306E+03 0.  0.
          5    1    3    3  501    0  0.75669525770E+01  0.11895563765E+03  0.44802565496E+03  0.46363431711E+03  0.47000000000E+01 0.  1.
         -5    1    3    3    0  501 -0.44509206774E+02  0.69994344364E+02  0.96739855709E+02  0.12751849832E+03  0.47000000000E+01 0.  1.
          5    1    4    4  502    0 -0.21968339305E+02  0.47426568748E+01  0.31680004525E+02  0.39125610701E+02  0.47000000000E+01 0. -1.
         -5    1    4    4    0  502  0.58910593501E+02 -0.19369263889E+03  0.56417085832E+03  0.59941483445E+03  0.47000000000E+01 0. -1.
<mgrwt>
<rscale>  0 0.45949951E+03</rscale>
<asrwt>0</asrwt>
<pdfrwt beam="1">  1       21 0.18233149E+00 0.45949951E+03</pdfrwt>
<pdfrwt beam="2">  1       21 0.68520691E-02 0.45949951E+03</pdfrwt>
<totfact> 0.24429065E+04</totfact>
</mgrwt>
</event>
<event>
 8    1  0.9478272E-006  0.4725708E+03  0.7546771E-02  0.1021197E+00
         21   -1    0    0  504  503  0.00000000000E+00  0.00000000000E+00  0.83397822546E+02  0.83397822546E+02  0.00000000000E+00 0.  1.
         21   -1    0    0  503  504 -0.00000000000E+00 -0.00000000000E+00 -0.66945133147E+03  0.66945133147E+03  0.00000000000E+00 0.  1.
         25    2    1    2    0    0  0.64976118203E+02  0.53628095334E+02 -0.58290769746E+03  0.60207609204E+03  0.12496546846E+03 0.  0.
         25    2    1    2    0    0 -0.64976118203E+02 -0.53628095334E+02 -0.31458114704E+01  0.15077306198E+03  0.12499900616E+03 0.  0.
          5    1    3    3  501    0 -0.99002712880E+01  0.40161650781E+02 -0.56510873841E+02  0.70189332717E+02  0.47000000000E+01 0. -1.
         -5    1    3    3    0  501  0.74876389491E+02  0.13466444553E+02 -0.52639682362E+03  0.53188675932E+03  0.47000000000E+01 0. -1.
          5    1    4    4  502    0 -0.77654284160E+02 -0.46105050380E+02 -0.48665689529E+02  0.10269519393E+03  0.47000000000E+01 0. -1.
         -5    1    4    4    0  502  0.12678165957E+02 -0.75230449543E+01  0.45519878059E+02  0.48077868047E+02  0.47000000000E+01 0. -1.
<mgrwt>
<rscale>  0 0.47257077E+03</rscale>
<asrwt>0</asrwt>
<pdfrwt beam="1">  1       21 0.12830434E-01 0.47257077E+03</pdfrwt>
<pdfrwt beam="2">  1       21 0.10299251E+00 0.47257077E+03</pdfrwt>
<totfact> 0.36094093E+04</totfact>
</mgrwt>
</event>
<event>
 8    1  0.9478272E-006  0.6157611E+03  0.7546771E-02  0.9873236E-01
         21   -1    0    0  504  503  0.00000000000E+00  0.00000000000E+00  0.54511405587E+03  0.54511405587E+03  0.00000000000E+00 0.  1.
         21   -1    0    0  503  504 -0.00000000000E+00 -0.00000000000E+00 -0.17389099196E+03  0.17389099196E+03  0.00000000000E+00 0.  1.
         25    2    1    2    0    0 -0.18145984706E+03  0.20545481671E+03  0.25970988864E+03  0.39775739417E+03  0.12498944176E+03 0.  0.
         25    2    1    2    0    0  0.18145984706E+03 -0.20545481671E+03  0.11151317527E+03  0.32124765365E+03  0.12500203564E+03 0.  0.
          5    1    3    3  501    0  0.13972908849E+02  0.79140025215E+01 -0.91047964715E+00  0.16756866975E+02  0.47000000000E+01 0. -1.
         -5    1    3    3    0  501 -0.19543275591E+03  0.19754081419E+03  0.26062036829E+03  0.38100052719E+03  0.47000000000E+01 0. -1.
          5    1    4    4  502    0  0.13911612885E+03 -0.19553442502E+03  0.13090819579E+03  0.27339724651E+03  0.47000000000E+01 0. -1.
         -5    1    4    4    0  502  0.42343718210E+02 -0.99203916922E+01 -0.19395020516E+02  0.47850407145E+02  0.47000000000E+01 0. -1.
<mgrwt>
<rscale>  0 0.61576107E+03</rscale>
<asrwt>0</asrwt>
<pdfrwt beam="1">  1       21 0.83863700E-01 0.61576107E+03</pdfrwt>
<pdfrwt beam="2">  1       21 0.26752461E-01 0.61576107E+03</pdfrwt>
<totfact> 0.14195086E+04</totfact>
</mgrwt>
</event>
<event>
 8    1  0.9478272E-006  0.3414189E+03  0.7546771E-02  0.1066193E+00
         21   -1    0    0  504  503  0.00000000000E+00  0.00000000000E+00  0.70155881330E+02  0.70155881330E+02  0.00000000000E+00 0.  1.
         21   -1    0    0  503  504 -0.00000000000E+00 -0.00000000000E+00 -0.41538528259E+03  0.41538528259E+03  0.00000000000E+00 0.  1.
         25    2    1    2    0    0 -0.66695058173E+02 -0.40065790531E+02 -0.29547272993E+03  0.33012545369E+03  0.12500073077E+03 0.  0.
         25    2    1    2    0    0  0.66695058173E+02  0.40065790531E+02 -0.49756671337E+02  0.15541571023E+03  0.12499927315E+03 0.  0.
          5    1    3    3  501    0 -0.86623752116E+02 -0.24541251119E+02 -0.29021717100E+03  0.30389808124E+03  0.47000000000E+01 0.  1.
         -5    1    3    3    0  501  0.19928693944E+02 -0.15524539411E+02 -0.52555589234E+01  0.26227372454E+02  0.47000000000E+01 0.  1.
          5    1    4    4  502    0 -0.28284477628E+02 -0.50457727655E+01  0.14056622978E+02  0.32328782022E+02  0.47000000000E+01 0. -1.
         -5    1    4    4    0  502  0.94979535801E+02  0.45111563296E+02 -0.63813294315E+02  0.12308692821E+03  0.47000000000E+01 0. -1.
<mgrwt>
<rscale>  0 0.34141893E+03</rscale>
<asrwt>0</asrwt>
<pdfrwt beam="1">  1       21 0.10793213E-01 0.34141893E+03</pdfrwt>
<pdfrwt beam="2">  1       21 0.63905427E-01 0.34141893E+03</pdfrwt>
<totfact> 0.15370593E+05</totfact>
</mgrwt>
</event>
<event>
 8    1  0.9478272E-006  0.2929486E+03  0.7546771E-02  0.1088820E+00
         21   -1    0    0  504  503  0.00000000000E+00  0.00000000000E+00  0.34816036412E+03  0.34816036412E+03  0.00000000000E+00 0. -1.
         21   -1    0    0  503  504 -0.00000000000E+00 -0.00000000000E+00 -0.61623099522E+02  0.61623099522E+02  0.00000000000E+00 0. -1.
         25    2    1    2    0    0 -0.39900909688E+02  0.55494466071E+02  0.19078031142E+03  0.23812612127E+03  0.12504080953E+03 0.  0.
         25    2    1    2    0    0  0.39900909688E+02 -0.55494466071E+02  0.95756953176E+02  0.17165734237E+03  0.12500052299E+03 0.  0.
          5    1    3    3  501    0 -0.78322053686E+02  0.28719704201E+02  0.71766626731E+02  0.11014401579E+03  0.47000000000E+01 0.  1.
         -5    1    3    3    0  501  0.38421143998E+02  0.26774761870E+02  0.11901368469E+03  0.12798210548E+03  0.47000000000E+01 0.  1.
          5    1    4    4  502    0  0.64660547413E+02 -0.76875693384E+02  0.95386253537E+02  0.13860550490E+03  0.47000000000E+01 0. -1.
         -5    1    4    4    0  502 -0.24759637726E+02  0.21381227314E+02  0.37069963972E+00  0.33051837467E+02  0.47000000000E+01 0. -1.
<mgrwt>
<rscale>  0 0.29294860E+03</rscale>
<asrwt>0</asrwt>
<pdfrwt beam="1">  1       21 0.53563132E-01 0.29294860E+03</pdfrwt>
<pdfrwt beam="2">  1       21 0.94804770E-02 0.29294860E+03</pdfrwt>
<totfact> 0.28696329E+05</totfact>
</mgrwt>
</event>
<event>
 8    1  0.9478272E-006  0.2884506E+03  0.7546771E-02  0.1091161E+00
         21   -1    0    0  504  503  0.00000000000E+00  0.00000000000E+00  0.64852251999E+03  0.64852251999E+03  0.00000000000E+00 0.  1.
         21   -1    0    0  503  504 -0.00000000000E+00 -0.00000000000E+00 -0.32074348008E+02  0.32074348008E+02  0.00000000000E+00 0.  1.
         25    2    1    2    0    0  0.44925327497E+02 -0.39596953855E+01  0.44047769140E+03  0.46008675550E+03  0.12500104688E+03 0.  0.
         25    2    1    2    0    0 -0.44925327497E+02  0.39596953855E+01  0.17597048058E+03  0.22051011250E+03  0.12500054177E+03 0.  0.
          5    1    3    3  501    0  0.43505393018E+02 -0.58579954330E+02  0.31088707084E+03  0.31936999090E+03  0.47000000000E+01 0.  1.
         -5    1    3    3    0  501  0.14199344782E+01  0.54620258944E+02  0.12959062056E+03  0.14071676460E+03  0.47000000000E+01 0.  1.
          5    1    4    4  502    0 -0.88214983313E+02  0.97363714030E+01  0.12148003491E+03  0.15051966347E+03  0.47000000000E+01 0. -1.
         -5    1    4    4    0  502  0.43289655817E+02 -0.57766760175E+01  0.54490445666E+02  0.69990449030E+02  0.47000000000E+01 0. -1.
<mgrwt>
<rscale>  0 0.28845060E+03</rscale>
<asrwt>0</asrwt>
<pdfrwt beam="1">  1       21 0.99772685E-01 0.28845060E+03</pdfrwt>
<pdfrwt beam="2">  1       21 0.49345156E-02 0.28845060E+03</pdfrwt>
<totfact> 0.22068854E+05</totfact>
</mgrwt>
</event>
<event>
 8    1  0.9478272E-006  0.2808279E+03  0.7546771E-02  0.1095238E+00
         21   -1    0    0  504  503  0.00000000000E+00  0.00000000000E+00  0.30635228875E+02  0.30635228875E+02  0.00000000000E+00 0.  1.
         21   -1    0    0  503  504 -0.00000000000E+00 -0.00000000000E+00 -0.64357514021E+03  0.64357514021E+03  0.00000000000E+00 0.  1.
         25    2    1    2    0    0 -0.27850947924E+02  0.26376181639E+02 -0.18360695933E+03  0.22540907337E+03  0.12500542622E+03 0.  0.
         25    2    1    2    0    0  0.27850947924E+02 -0.26376181639E+02 -0.42933295201E+03  0.44880129572E+03  0.12499776438E+03 0.  0.
          5    1    3    3  501    0 -0.64939700005E+02 -0.48793369264E+01 -0.47218973880E+02  0.80577255227E+02  0.47000000000E+01 0.  1.
         -5    1    3    3    0  501  0.37088752081E+02  0.31255518566E+02 -0.13638798545E+03  0.14483181814E+03  0.47000000000E+01 0.  1.
          5    1    4    4  502    0  0.95222394147E+01 -0.27976843465E+02 -0.14005018719E+02  0.33039481882E+02  0.47000000000E+01 0.  1.
         -5    1    4    4    0  502  0.18328708509E+02  0.16006618252E+01 -0.41532793329E+03  0.41576181384E+03  0.47000000000E+01 0.  1.
<mgrwt>
<rscale>  0 0.28082786E+03</rscale>
<asrwt>0</asrwt>
<pdfrwt beam="1">  1       21 0.47131128E-02 0.28082786E+03</pdfrwt>
<pdfrwt beam="2">  1       21 0.99011546E-01 0.28082786E+03</pdfrwt>
<totfact> 0.24354417E+05</totfact>
</mgrwt>
</event>
<event>
 8    1  0.9478272E-006  0.3937919E+03  0.7546771E-02  0.1045951E+00
         21   -1    0    0  504  503  0.00000000000E+00  0.00000000000E+00  0.17703331724E+03  0.17703331724E+03  0.00000000000E+00 0. -1.
         21   -1    0    0  503  504 -0.00000000000E+00 -0.00000000000E+00 -0.21898711528E+03  0.21898711528E+03  0.00000000000E+00 0. -1.
         25    2    1    2    0    0  0.28726018934E+02 -0.40260729330E+02 -0.16565995923E+03  0.21333767146E+03  0.12499451781E+03 0.  0.
         25    2    1    2    0    0 -0.28726018934E+02  0.40260729330E+02  0.12370616120E+03  0.18268276106E+03  0.12499466541E+03 0.  0.
          5    1    3    3  501    0 -0.20655397343E+02  0.36944794723E+02 -0.49359735942E+02  0.65192306515E+02  0.47000000000E+01 0. -1.
         -5    1    3    3    0  501  0.49381416277E+02 -0.77205524053E+02 -0.11630022329E+03  0.14814536494E+03  0.47000000000E+01 0. -1.
          5    1    4    4  502    0 -0.48051379629E+02 -0.28491614967E+02  0.26600976792E+02  0.62051665361E+02  0.47000000000E+01 0.  1.
         -5    1    4    4    0  502  0.19325360695E+02  0.68752344297E+02  0.97105184403E+02  0.12063109570E+03  0.47000000000E+01 0.  1.
<mgrwt>
<rscale>  0 0.39379190E+03</rscale>
<asrwt>0</asrwt>
<pdfrwt beam="1">  1       21 0.27235895E-01 0.39379190E+03</pdfrwt>
<pdfrwt beam="2">  1       21 0.33690325E-01 0.39379190E+03</pdfrwt>
<totfact> 0.10296818E+05</totfact>
</mgrwt>
</event>
<event>
 8    1  0.9478272E-006  0.3295600E+03  0.7546771E-02  0.1071332E+00
         21   -1    0    0  504  503  0.00000000000E+00  0.00000000000E+00  0.13166483339E+02  0.13166483339E+02  0.00000000000E+00 0.  1.
         21   -1    0    0  503  504 -0.00000000000E+00 -0.00000000000E+00 -0.20622395345E+04  0.20622395345E+04  0.00000000000E+00 0.  1.
         25    2    1    2    0    0 -0.80781542128E+02  0.26894855244E+02 -0.61254344364E+03  0.63093710855E+03  0.12499269508E+03 0.  0.
         25    2    1    2    0    0  0.80781542128E+02 -0.26894855244E+02 -0.14365296075E+04  0.14444689093E+04  0.12499650318E+03 0.  0.
          5    1    3    3  501    0  0.22880262292E+02 -0.25993307352E+01 -0.28155731517E+02  0.36675579615E+02  0.47000000000E+01 0.  1.
         -5    1    3    3    0  501 -0.10366180442E+03  0.29494185979E+02 -0.58438771212E+03  0.59426152894E+03  0.47000000000E+01 0.  1.
          5    1    4    4  502    0  0.10414690538E+03  0.11656143704E+02 -0.92263065445E+03  0.92857517634E+03  0.47000000000E+01 0. -1.
         -5    1    4    4    0  502 -0.23365363248E+02 -0.38550998947E+02 -0.51389895307E+03  0.51589373294E+03  0.47000000000E+01 0. -1.
<mgrwt>
<rscale>  0 0.32955996E+03</rscale>
<asrwt>0</asrwt>
<pdfrwt beam="1">  1       21 0.20256144E-02 0.32955996E+03</pdfrwt>
<pdfrwt beam="2">  1       21 0.31726737E+00 0.32955996E+03</pdfrwt>
<totfact> 0.29511189E+04</totfact>
</mgrwt>
</event>
<event>
 8    1  0.9478272E-006  0.5045530E+03  0.7546771E-02  0.1012597E+00
         21   -1    0    0  504  503  0.00000000000E+00  0.00000000000E+00  0.10143550267E+03  0.10143550267E+03  0.00000000000E+00 0. -1.
         21   -1    0    0  503  504 -0.00000000000E+00 -0.00000000000E+00 -0.62742754108E+03  0.62742754108E+03  0.00000000000E+00 0. -1.
         25    2    1    2    0    0 -0.18263848629E+03  0.12098866729E+03 -0.25498340961E+03  0.35866153120E+03  0.12500592186E+03 0.  0.
         25    2    1    2    0    0  0.18263848629E+03 -0.12098866729E+03 -0.27100862880E+03  0.37020151255E+03  0.12493361726E+03 0.  0.
          5    1    3    3  501    0 -0.94578717168E+02 -0.11111581492E+01 -0.14067303908E+03  0.16957995854E+03  0.47000000000E+01 0.  1.
         -5    1    3    3    0  501 -0.88059769123E+02  0.12209982544E+03 -0.11431037053E+03  0.18908157267E+03  0.47000000000E+01 0.  1.
          5    1    4    4  502    0  0.11500745764E+03 -0.13062294425E+03 -0.14410814231E+03  0.22600512286E+03  0.47000000000E+01 0. -1.
         -5    1    4    4    0  502  0.67631028655E+02  0.96342769562E+01 -0.12690048649E+03  0.14419638970E+03  0.47000000000E+01 0. -1.
<mgrwt>
<rscale>  0 0.50455298E+03</rscale>
<asrwt>0</asrwt>
<pdfrwt beam="1">  1       21 0.15605462E-01 0.50455298E+03</pdfrwt>
<pdfrwt beam="2">  1       21 0.96527314E-01 0.50455298E+03</pdfrwt>
<totfact> 0.29209025E+04</totfact>
</mgrwt>
</event>
<event>
 8    1  0.9478272E-006  0.3208109E+03  0.7546771E-02  0.1075277E+00
         21   -1    0    0  504  503  0.00000000000E+00  0.00000000000E+00  0.16961740894E+03  0.16961740894E+03  0.00000000000E+00 0. -1.
         21   -1    0    0  503  504 -0.00000000000E+00 -0.00000000000E+00 -0.15169381512E+03  0.15169381512E+03  0.00000000000E+00 0. -1.
         25    2    1    2    0    0 -0.66834870431E+02 -0.61877669939E+02 -0.33636525345E+02  0.15828099650E+03  0.12500284826E+03 0.  0.
         25    2    1    2    0    0  0.66834870431E+02  0.61877669939E+02  0.51560119161E+02  0.16303022756E+03  0.12499865306E+03 0.  0.
          5    1    3    3  501    0 -0.69336571440E+02 -0.38272520125E+02  0.34097454669E+02  0.86354341817E+02  0.47000000000E+01 0. -1.
         -5    1    3    3    0  501  0.25017010085E+01 -0.23605149814E+02 -0.67733980014E+02  0.71926654685E+02  0.47000000000E+01 0. -1.
          5    1    4    4  502    0  0.44402644118E+02 -0.30232723342E+02 -0.21553232983E+01  0.53966172589E+02  0.47000000000E+01 0.  1.
         -5    1    4    4    0  502  0.22432226313E+02  0.92110393281E+02  0.53715442459E+02  0.10906405497E+03  0.47000000000E+01 0.  1.
<mgrwt>
<rscale>  0 0.32081092E+03</rscale>
<asrwt>0</asrwt>
<pdfrwt beam="1">  1       21 0.26094986E-01 0.32081092E+03</pdfrwt>
<pdfrwt beam="2">  1       21 0.23337510E-01 0.32081092E+03</pdfrwt>
<totfact> 0.23347497E+05</totfact>
</mgrwt>
</event>
