<event>
 8    1  0.4760912E-006  0.2873656E+03  0.7546771E-02  0.1091733E+00
         21   -1    0    0  504  503  0.00000000000E+00  0.00000000000E+00  0.30351428153E+03  0.30351428153E+03  0.00000000000E+00 0.  1.
         21   -1    0    0  503  504 -0.00000000000E+00 -0.00000000000E+00 -0.68019048804E+02  0.68019048804E+02  0.00000000000E+00 0.  1.
         25    2    1    2    0    0 -0.42721552466E+02  0.56080980134E+02  0.10860408666E+03  0.17997191159E+03  0.12499933577E+03 0.  0.
         25    2    1    2    0    0  0.42721552466E+02 -0.56080980134E+02  0.12689114607E+03  0.19156141875E+03  0.12499682726E+03 0.  0.
          5    1    3    3  501    0 -0.18645689893E+02  0.56921212949E+02 -0.81806183021E+01  0.60635787708E+02  0.47000000000E+01 0. -1.
         -5    1    3    3    0  501 -0.24075862573E+02 -0.84023281529E+00  0.11678470496E+03  0.11933612388E+03  0.47000000000E+01 0. -1.
          5    1    4    4  502    0  0.73976029086E+02 -0.74759810259E+02  0.81240016416E+02  0.13297936824E+03  0.47000000000E+01 0. -1.
         -5    1    4    4    0  502 -0.31254476621E+02  0.18678830125E+02  0.45651129656E+02  0.58582050515E+02  0.47000000000E+01 0. -1.
<mgrwt>
<rscale>  0 0.28736564E+03</rscale>
<asrwt>0</asrwt>
<pdfrwt beam="1">  1       21 0.46694504E-01 0.28736564E+03</pdfrwt>
<pdfrwt beam="2">  1       21 0.10464469E-01 0.28736564E+03</pdfrwt>
<totfact> 0.32167334E+05</totfact>
</mgrwt>
</event>
<event>
 8    1  0.4760912E-006  0.3804035E+03  0.7546771E-02  0.1050785E+00
         21   -1    0    0  504  503  0.00000000000E+00  0.00000000000E+00  0.11820689569E+03  0.11820689569E+03  0.00000000000E+00 0.  1.
         21   -1    0    0  503  504 -0.00000000000E+00 -0.00000000000E+00 -0.30604565164E+03  0.30604565164E+03  0.00000000000E+00 0.  1.
         25    2    1    2    0    0 -0.14120765077E+03 -0.45342410343E+01 -0.66785520831E+02  0.20011091453E+03  0.12499564930E+03 0.  0.
         25    2    1    2    0    0  0.14120765077E+03  0.45342410343E+01 -0.12105323512E+03  0.22414163280E+03  0.12500170337E+03 0.  0.
          5    1    3    3  501    0 -0.13005822514E+03  0.37342462058E+02 -0.21209711234E+02  0.13704577063E+03  0.47000000000E+01 0. -1.
         -5    1    3    3    0  501 -0.11149425631E+02 -0.41876703093E+02 -0.45575809597E+02  0.63065143893E+02  0.47000000000E+01 0. -1.
          5    1    4    4  502    0  0.12218597442E+03 -0.43797031799E+02 -0.57807004441E+02  0.14216656464E+03  0.47000000000E+01 0.  1.
         -5    1    4    4    0  502  0.19021676342E+02  0.48331272833E+02 -0.63246230679E+02  0.81975068159E+02  0.47000000000E+01 0.  1.
<mgrwt>
<rscale>  0 0.38040350E+03</rscale>
<asrwt>0</asrwt>
<pdfrwt beam="1">  1       21 0.18185676E-01 0.38040350E+03</pdfrwt>
<pdfrwt beam="2">  1       21 0.47083946E-01 0.38040350E+03</pdfrwt>
<totfact> 0.11268929E+05</totfact>
</mgrwt>
</event>
<event>
 8    1  0.4760912E-006  0.2582834E+03  0.7546771E-02  0.1108179E+00
         21   -1    0    0  504  503  0.00000000000E+00  0.00000000000E+00  0.11388107273E+04  0.11388107273E+04  0.00000000000E+00 0.  1.
         21   -1    0    0  503  504 -0.00000000000E+00 -0.00000000000E+00 -0.14644735069E+02  0.14644735069E+02  0.00000000000E+00 0.  1.
         25    2    1    2    0    0 -0.17876859920E+02  0.26982823877E+02  0.55253715954E+03  0.56742406551E+03  0.12500041017E+03 0.  0.
         25    2    1    2    0    0  0.17876859920E+02 -0.26982823877E+02  0.57162883272E+03  0.58603139689E+03  0.12500248331E+03 0.  0.
          5    1    3    3  501    0 -0.62270859171E+02 -0.17490270369E+00  0.42552759847E+03  0.43008547703E+03  0.47000000000E+01 0. -1.
         -5    1    3    3    0  501  0.44393999251E+02  0.27157726581E+02  0.12700956107E+03  0.13733858848E+03  0.47000000000E+01 0. -1.
          5    1    4    4  502    0  0.62748285504E+02 -0.18599463348E+02  0.46954745328E+03  0.47410989048E+03  0.47000000000E+01 0. -1.
         -5    1    4    4    0  502 -0.44871425584E+02 -0.83833605296E+01  0.10208137945E+03  0.11192150641E+03  0.47000000000E+01 0. -1.
<mgrwt>
<rscale>  0 0.25828342E+03</rscale>
<asrwt>0</asrwt>
<pdfrwt beam="1">  1       21 0.17520158E+00 0.25828342E+03</pdfrwt>
<pdfrwt beam="2">  1       21 0.22530371E-02 0.25828342E+03</pdfrwt>
<totfact> 0.19356237E+05</totfact>
</mgrwt>
</event>
<event>
 8    1  0.4760912E-006  0.3046663E+03  0.7546771E-02  0.1082931E+00
         21   -1    0    0  504  503  0.00000000000E+00  0.00000000000E+00  0.11552099802E+03  0.11552099802E+03  0.00000000000E+00 0.  1.
         21   -1    0    0  503  504 -0.00000000000E+00 -0.00000000000E+00 -0.20087599416E+03  0.20087599416E+03  0.00000000000E+00 0.  1.
         25    2    1    2    0    0 -0.24200440398E+02 -0.82470809008E+01 -0.12915846292E+03  0.18155058354E+03  0.12500012072E+03 0.  0.
         25    2    1    2    0    0  0.24200440398E+02  0.82470809008E+01  0.43803466775E+02  0.13484640864E+03  0.12494452594E+03 0.  0.
          5    1    3    3  501    0 -0.40577340687E+02 -0.19816760538E+02 -0.14727935703E+03  0.15411853744E+03  0.47000000000E+01 0. -1.
         -5    1    3    3    0  501  0.16376900289E+02  0.11569679637E+02  0.18120894108E+02  0.27432046100E+02  0.47000000000E+01 0. -1.
          5    1    4    4  502    0  0.41293078935E+02 -0.31574704644E+02 -0.21403667166E+02  0.56411765701E+02  0.47000000000E+01 0. -1.
         -5    1    4    4    0  502 -0.17092638537E+02  0.39821785545E+02  0.65207133941E+02  0.78434642939E+02  0.47000000000E+01 0. -1.
<mgrwt>
<rscale>  0 0.30466634E+03</rscale>
<asrwt>0</asrwt>
<pdfrwt beam="1">  1       21 0.17772462E-01 0.30466634E+03</pdfrwt>
<pdfrwt beam="2">  1       21 0.30903998E-01 0.30466634E+03</pdfrwt>
<totfact> 0.28156155E+05</totfact>
</mgrwt>
</event>
<event>
 8    1  0.4760912E-006  0.3549291E+03  0.7546771E-02  0.1060610E+00
         21   -1    0    0  504  503  0.00000000000E+00  0.00000000000E+00  0.98059565728E+02  0.98059565728E+02  0.00000000000E+00 0. -1.
         21   -1    0    0  503  504 -0.00000000000E+00 -0.00000000000E+00 -0.32116881323E+03  0.32116881323E+03  0.00000000000E+00 0. -1.
         25    2    1    2    0    0 -0.63646384800E+02 -0.96183874269E+02 -0.51740862117E+02  0.17777633999E+03  0.12500044112E+03 0.  0.
         25    2    1    2    0    0  0.63646384800E+02  0.96183874269E+02 -0.17136838539E+03  0.24145203897E+03  0.12501905312E+03 0.  0.
          5    1    3    3  501    0 -0.77521498866E+02 -0.11736729570E+03 -0.56374171960E+02  0.15160739477E+03  0.47000000000E+01 0.  1.
         -5    1    3    3    0  501  0.13875114066E+02  0.21183421429E+02  0.46333098429E+01  0.26168945219E+02  0.47000000000E+01 0.  1.
          5    1    4    4  502    0 -0.51222159187E+01  0.38476976472E+02  0.88213110885E+01  0.40082668869E+02  0.47000000000E+01 0. -1.
         -5    1    4    4    0  502  0.68768600719E+02  0.57706897797E+02 -0.18018969647E+03  0.20136937010E+03  0.47000000000E+01 0. -1.
<mgrwt>
<rscale>  0 0.35492914E+03</rscale>
<asrwt>0</asrwt>
<pdfrwt beam="1">  1       21 0.15086087E-01 0.35492914E+03</pdfrwt>
<pdfrwt beam="2">  1       21 0.49410587E-01 0.35492914E+03</pdfrwt>
<totfact> 0.14496449E+05</totfact>
</mgrwt>
</event>
<event>
 8    1  0.4760912E-006  0.2775591E+03  0.7546771E-02  0.1097030E+00
         21   -1    0    0  504  503  0.00000000000E+00  0.00000000000E+00  0.27047305945E+02  0.27047305945E+02  0.00000000000E+00 0.  1.
         21   -1    0    0  503  504 -0.00000000000E+00 -0.00000000000E+00 -0.71207686493E+03  0.71207686493E+03  0.00000000000E+00 0.  1.
         25    2    1    2    0    0 -0.18812628919E+01  0.49786400173E+02 -0.43290488930E+03  0.45333760606E+03  0.12500446829E+03 0.  0.
         25    2    1    2    0    0  0.18812628919E+01 -0.49786400173E+02 -0.25212466968E+03  0.28578656481E+03  0.12499954710E+03 0.  0.
          5    1    3    3  501    0 -0.32900979425E+02  0.80090630012E+02 -0.33703471608E+03  0.34801073734E+03  0.47000000000E+01 0.  1.
         -5    1    3    3    0  501  0.31019716533E+02 -0.30304229839E+02 -0.95870173224E+02  0.10532686872E+03  0.47000000000E+01 0.  1.
          5    1    4    4  502    0  0.32950485382E+02 -0.40938358657E+02 -0.28842027869E+02  0.60130161051E+02  0.47000000000E+01 0. -1.
         -5    1    4    4    0  502 -0.31069222490E+02 -0.88480415164E+01 -0.22328264181E+03  0.22565640376E+03  0.47000000000E+01 0. -1.
<mgrwt>
<rscale>  0 0.27755908E+03</rscale>
<asrwt>0</asrwt>
<pdfrwt beam="1">  1       21 0.41611246E-02 0.27755908E+03</pdfrwt>
<pdfrwt beam="2">  1       21 0.10955027E+00 0.27755908E+03</pdfrwt>
<totfact> 0.23572521E+05</totfact>
</mgrwt>
</event>
<event>
 8    1  0.4760912E-006  0.3412548E+03  0.7546771E-02  0.1066263E+00
         21   -1    0    0  504  503  0.00000000000E+00  0.00000000000E+00  0.54517068851E+03  0.54517068851E+03  0.00000000000E+00 0. -1.
         21   -1    0    0  503  504 -0.00000000000E+00 -0.00000000000E+00 -0.53402924717E+02  0.53402924717E+02  0.00000000000E+00 0. -1.
         25    2    1    2    0    0 -0.76470922321E+02  0.76912184807E+02  0.17302596698E+03  0.23943068657E+03  0.12500312913E+03 0.  0.
         25    2    1    2    0    0  0.76470922321E+02 -0.76912184807E+02  0.31874179682E+03  0.35914292665E+03  0.12499609031E+03 0.  0.
          5    1    3    3  501    0 -0.57006218946E+02 -0.16514295436E+02  0.28080516147E+02  0.65825802991E+02  0.47000000000E+01 0.  1.
         -5    1    3    3    0  501 -0.19464703375E+02  0.93426480243E+02  0.14494545083E+03  0.17360488358E+03  0.47000000000E+01 0.  1.
          5    1    4    4  502    0  0.59454908566E+02  0.89946105971E+01  0.21498770259E+03  0.22328813546E+03  0.47000000000E+01 0.  1.
         -5    1    4    4    0  502  0.17016013755E+02 -0.85906795404E+02  0.10375409422E+03  0.13585479119E+03  0.47000000000E+01 0.  1.
<mgrwt>
<rscale>  0 0.34125480E+03</rscale>
<asrwt>0</asrwt>
<pdfrwt beam="1">  1       21 0.83872410E-01 0.34125480E+03</pdfrwt>
<pdfrwt beam="2">  1       21 0.82158350E-02 0.34125480E+03</pdfrwt>
<totfact> 0.13531559E+05</totfact>
</mgrwt>
</event>
<event>
 8    1  0.4760912E-006  0.2509529E+03  0.7546771E-02  0.1112704E+00
         21   -1    0    0  504  503  0.00000000000E+00  0.00000000000E+00  0.71448811983E+03  0.71448811983E+03  0.00000000000E+00 0.  1.
         21   -1    0    0  503  504 -0.00000000000E+00 -0.00000000000E+00 -0.22035834229E+02  0.22035834229E+02  0.00000000000E+00 0.  1.
         25    2    1    2    0    0 -0.41291055564E+01 -0.14333309973E+01  0.37592893551E+03  0.39619076489E+03  0.12500181470E+03 0.  0.
         25    2    1    2    0    0  0.41291055564E+01  0.14333309973E+01  0.31652335009E+03  0.34033318917E+03  0.12498217692E+03 0.  0.
          5    1    3    3  501    0 -0.25191271254E+01 -0.38951057050E+02  0.34522637870E+03  0.34745772893E+03  0.47000000000E+01 0. -1.
         -5    1    3    3    0  501 -0.16099784310E+01  0.37517726052E+02  0.30702556815E+02  0.48733035958E+02  0.47000000000E+01 0. -1.
          5    1    4    4  502    0  0.33915607282E+02  0.29790912585E+02  0.28423424175E+03  0.28783495457E+03  0.47000000000E+01 0.  1.
         -5    1    4    4    0  502 -0.29786501726E+02 -0.28357581587E+02  0.32289108342E+02  0.52498234599E+02  0.47000000000E+01 0.  1.
<mgrwt>
<rscale>  0 0.25095292E+03</rscale>
<asrwt>0</asrwt>
<pdfrwt beam="1">  1       21 0.10992123E+00 0.25095292E+03</pdfrwt>
<pdfrwt beam="2">  1       21 0.33901289E-02 0.25095292E+03</pdfrwt>
<totfact> 0.33235251E+05</totfact>
</mgrwt>
</event>
<event>
 8    1  0.4760912E-006  0.2700134E+03  0.7546771E-02  0.1101272E+00
         21   -1    0    0  504  503  0.00000000000E+00  0.00000000000E+00  0.35406068523E+02  0.35406068523E+02  0.00000000000E+00 0. -1.
         21   -1    0    0  503  504 -0.00000000000E+00 -0.00000000000E+00 -0.51479320527E+03  0.51479320527E+03  0.00000000000E+00 0. -1.
         25    2    1    2    0    0 -0.74460220041E+01  0.50228389179E+02 -0.22973767861E+03  0.26642603760E+03  0.12500039286E+03 0.  0.
         25    2    1    2    0    0  0.74460220041E+01 -0.50228389179E+02 -0.24964945814E+03  0.28377323620E+03  0.12499625317E+03 0.  0.
          5    1    3    3  501    0  0.41861016791E+02 -0.10729419574E+02 -0.32959710886E+02  0.54551789273E+02  0.47000000000E+01 0. -1.
         -5    1    3    3    0  501 -0.49307038796E+02  0.60957808753E+02 -0.19677796772E+03  0.21187424833E+03  0.47000000000E+01 0. -1.
          5    1    4    4  502    0  0.10494161420E+02  0.25435895471E+02 -0.17542865188E+03  0.17763562171E+03  0.47000000000E+01 0.  1.
         -5    1    4    4    0  502 -0.30481394163E+01 -0.75664284650E+02 -0.74220806266E+02  0.10613761448E+03  0.47000000000E+01 0.  1.
<mgrwt>
<rscale>  0 0.27001336E+03</rscale>
<asrwt>0</asrwt>
<pdfrwt beam="1">  1       21 0.54470875E-02 0.27001336E+03</pdfrwt>
<pdfrwt beam="2">  1       21 0.79198954E-01 0.27001336E+03</pdfrwt>
<totfact> 0.32079672E+05</totfact>
</mgrwt>
</event>
<event>
 8    1  0.4760912E-006  0.3194124E+03  0.7546771E-02  0.1075920E+00
         21   -1    0    0  504  503  0.00000000000E+00  0.00000000000E+00  0.85077451118E+02  0.85077451118E+02  0.00000000000E+00 0. -1.
         21   -1    0    0  503  504 -0.00000000000E+00 -0.00000000000E+00 -0.29979816348E+03  0.29979816348E+03  0.00000000000E+00 0. -1.
         25    2    1    2    0    0 -0.71365158535E+02 -0.15611976812E+02 -0.18858794066E+03  0.23775318161E+03  0.12499777731E+03 0.  0.
         25    2    1    2    0    0  0.71365158535E+02  0.15611976812E+02 -0.26132771707E+02  0.14712243299E+03  0.12500147543E+03 0.  0.
          5    1    3    3  501    0 -0.12414305440E+01  0.19910040051E+02 -0.14752554915E+03  0.14894236636E+03  0.47000000000E+01 0. -1.
         -5    1    3    3    0  501 -0.70123727991E+02 -0.35522016863E+02 -0.41062391510E+02  0.88810815253E+02  0.47000000000E+01 0. -1.
          5    1    4    4  502    0  0.45293113863E+02  0.70200449324E+02 -0.95450050322E+01  0.84218563095E+02  0.47000000000E+01 0.  1.
         -5    1    4    4    0  502  0.26072044672E+02 -0.54588472512E+02 -0.16587766675E+02  0.62903869895E+02  0.47000000000E+01 0.  1.
<mgrwt>
<rscale>  0 0.31941236E+03</rscale>
<asrwt>0</asrwt>
<pdfrwt beam="1">  1       21 0.13088839E-01 0.31941236E+03</pdfrwt>
<pdfrwt beam="2">  1       21 0.46122794E-01 0.31941236E+03</pdfrwt>
<totfact> 0.21897879E+05</totfact>
</mgrwt>
</event>
<event>
 8    1  0.4760912E-006  0.2820935E+03  0.7546771E-02  0.1094551E+00
         21   -1    0    0  504  503  0.00000000000E+00  0.00000000000E+00  0.46856995059E+02  0.46856995059E+02  0.00000000000E+00 0. -1.
         21   -1    0    0  503  504 -0.00000000000E+00 -0.00000000000E+00 -0.42457240129E+03  0.42457240129E+03  0.00000000000E+00 0. -1.
         25    2    1    2    0    0  0.32907381620E+02 -0.51473224970E+02 -0.15007126309E+03  0.20464038013E+03  0.12499565000E+03 0.  0.
         25    2    1    2    0    0 -0.32907381620E+02  0.51473224970E+02 -0.22764414314E+03  0.26678901622E+03  0.12498853794E+03 0.  0.
          5    1    3    3  501    0 -0.40654947690E+02  0.10832238501E+02 -0.51796223758E+02  0.66896195394E+02  0.47000000000E+01 0. -1.
         -5    1    3    3    0  501  0.73562329310E+02 -0.62305463470E+02 -0.98275039335E+02  0.13774418473E+03  0.47000000000E+01 0. -1.
          5    1    4    4  502    0 -0.15953672204E+02  0.92291098094E+02 -0.13979729908E+03  0.16833758129E+03  0.47000000000E+01 0.  1.
         -5    1    4    4    0  502 -0.16953709416E+02 -0.40817873124E+02 -0.87846844060E+02  0.98451434934E+02  0.47000000000E+01 0.  1.
<mgrwt>
<rscale>  0 0.28209351E+03</rscale>
<asrwt>0</asrwt>
<pdfrwt beam="1">  1       21 0.72087689E-02 0.28209351E+03</pdfrwt>
<pdfrwt beam="2">  1       21 0.65318827E-01 0.28209351E+03</pdfrwt>
<totfact> 0.30323003E+05</totfact>
</mgrwt>
</event>
<event>
 8    1  0.4760912E-006  0.2778273E+03  0.7546771E-02  0.1096882E+00
         21   -1    0    0  504  503  0.00000000000E+00  0.00000000000E+00  0.13568906868E+03  0.13568906868E+03  0.00000000000E+00 0.  1.
         21   -1    0    0  503  504 -0.00000000000E+00 -0.00000000000E+00 -0.14221487543E+03  0.14221487543E+03  0.00000000000E+00 0.  1.
         25    2    1    2    0    0  0.26088944594E+01 -0.59142852437E+02  0.96105762986E+01  0.13865696195E+03  0.12501482551E+03 0.  0.
         25    2    1    2    0    0 -0.26088944594E+01  0.59142852437E+02 -0.16136383049E+02  0.13924698215E+03  0.12499862342E+03 0.  0.
          5    1    3    3  501    0 -0.42679262062E+02 -0.77250836459E+02  0.13906498875E+02  0.89468943521E+02  0.47000000000E+01 0. -1.
         -5    1    3    3    0  501  0.45288156521E+02  0.18107984022E+02 -0.42959225766E+01  0.49188018432E+02  0.47000000000E+01 0. -1.
          5    1    4    4  502    0  0.22542274706E+01  0.70634251331E+02 -0.60359646922E+02  0.93057272575E+02  0.47000000000E+01 0. -1.
         -5    1    4    4    0  502 -0.48631219300E+01 -0.11491398894E+02  0.44223263873E+02  0.46189709579E+02  0.47000000000E+01 0. -1.
<mgrwt>
<rscale>  0 0.27782731E+03</rscale>
<asrwt>0</asrwt>
<pdfrwt beam="1">  1       21 0.20875241E-01 0.27782731E+03</pdfrwt>
<pdfrwt beam="2">  1       21 0.21879212E-01 0.27782731E+03</pdfrwt>
<totfact> 0.40828315E+05</totfact>
</mgrwt>
</event>
<event>
 8    1  0.4760912E-006  0.3557332E+03  0.7546771E-02  0.1060286E+00
         21   -1    0    0  504  503  0.00000000000E+00  0.00000000000E+00  0.21469176713E+04  0.21469176713E+04  0.00000000000E+00 0. -1.
         21   -1    0    0  503  504 -0.00000000000E+00 -0.00000000000E+00 -0.14735790880E+02  0.14735790880E+02  0.00000000000E+00 0. -1.
         25    2    1    2    0    0 -0.49452582903E+02  0.42165168774E+02  0.17257161134E+04  0.17314573064E+04  0.12499936243E+03 0.  0.
         25    2    1    2    0    0  0.49452582903E+02 -0.42165168774E+02  0.40646576704E+03  0.43019615575E+03  0.12502341073E+03 0.  0.
          5    1    3    3  501    0  0.22273630877E+02 -0.25340693560E+02  0.23171542065E+03  0.23420587429E+03  0.47000000000E+01 0. -1.
         -5    1    3    3    0  501 -0.71726213780E+02  0.67505862334E+02  0.14940006927E+04  0.14972514321E+04  0.47000000000E+01 0. -1.
          5    1    4    4  502    0 -0.19345589018E+02 -0.60762330824E+02  0.13321584363E+03  0.14776624667E+03  0.47000000000E+01 0.  1.
         -5    1    4    4    0  502  0.68798171921E+02  0.18597162050E+02  0.27324992341E+03  0.28242990908E+03  0.47000000000E+01 0.  1.
<mgrwt>
<rscale>  0 0.35573321E+03</rscale>
<asrwt>0</asrwt>
<pdfrwt beam="1">  1       21 0.33029478E+00 0.35573321E+03</pdfrwt>
<pdfrwt beam="2">  1       21 0.22670465E-02 0.35573321E+03</pdfrwt>
<totfact> 0.20183873E+04</totfact>
</mgrwt>
</event>
<event>
 8    1  0.4760912E-006  0.3397904E+03  0.7546771E-02  0.1066885E+00
         21   -1    0    0  504  503  0.00000000000E+00  0.00000000000E+00  0.45607171222E+03  0.45607171222E+03  0.00000000000E+00 0.  1.
         21   -1    0    0  503  504 -0.00000000000E+00 -0.00000000000E+00 -0.63289107170E+02  0.63289107170E+02  0.00000000000E+00 0.  1.
         25    2    1    2    0    0 -0.10629961061E+02  0.57160474203E+02  0.34818695790E+03  0.37448590683E+03  0.12500088353E+03 0.  0.
         25    2    1    2    0    0  0.10629961061E+02 -0.57160474203E+02  0.44595647155E+02  0.14487491256E+03  0.12497860881E+03 0.  0.
          5    1    3    3  501    0  0.36011170666E+01  0.59202523985E+02  0.55362852401E+02  0.81271411433E+02  0.47000000000E+01 0. -1.
         -5    1    3    3    0  501 -0.14231078127E+02 -0.20420497822E+01  0.29282410550E+03  0.29321449540E+03  0.47000000000E+01 0. -1.
          5    1    4    4  502    0  0.21500023422E+02  0.67552206142E+01 -0.35134167896E+02  0.42004568400E+02  0.47000000000E+01 0. -1.
         -5    1    4    4    0  502 -0.10870062361E+02 -0.63915694817E+02  0.79729815051E+02  0.10287034416E+03  0.47000000000E+01 0. -1.
<mgrwt>
<rscale>  0 0.33979036E+03</rscale>
<asrwt>0</asrwt>
<pdfrwt beam="1">  1       21 0.70164877E-01 0.33979036E+03</pdfrwt>
<pdfrwt beam="2">  1       21 0.97367860E-02 0.33979036E+03</pdfrwt>
<totfact> 0.15029342E+05</totfact>
</mgrwt>
</event>
<event>
 8    1  0.4760912E-006  0.2742824E+03  0.7546771E-02  0.1098853E+00
         21   -1    0    0  504  503  0.00000000000E+00  0.00000000000E+00  0.27244423341E+03  0.27244423341E+03  0.00000000000E+00 0.  1.
         21   -1    0    0  503  504 -0.00000000000E+00 -0.00000000000E+00 -0.69033247799E+02  0.69033247799E+02  0.00000000000E+00 0.  1.
         25    2    1    2    0    0  0.48916399079E+02 -0.22783615069E+02  0.81193006797E+02  0.15852356239E+03  0.12500203304E+03 0.  0.
         25    2    1    2    0    0 -0.48916399079E+02  0.22783615069E+02  0.12221797882E+03  0.18295391882E+03  0.12499197915E+03 0.  0.
          5    1    3    3  501    0 -0.37115488479E+02 -0.11586402023E+02  0.55485142317E+02  0.67915353307E+02  0.47000000000E+01 0. -1.
         -5    1    3    3    0  501  0.86031887557E+02 -0.11197213046E+02  0.25707864480E+02  0.90608209081E+02  0.47000000000E+01 0. -1.
          5    1    4    4  502    0 -0.63044627223E+02 -0.16650096056E+02  0.14056622145E+02  0.66869494888E+02  0.47000000000E+01 0.  1.
         -5    1    4    4    0  502  0.14128228144E+02  0.39433711126E+02  0.10816135667E+03  0.11608442394E+03  0.47000000000E+01 0.  1.
<mgrwt>
<rscale>  0 0.27428241E+03</rscale>
<asrwt>0</asrwt>
<pdfrwt beam="1">  1       21 0.41914497E-01 0.27428241E+03</pdfrwt>
<pdfrwt beam="2">  1       21 0.10620500E-01 0.27428241E+03</pdfrwt>
<totfact> 0.39264590E+05</totfact>
</mgrwt>
</event>
<event>
 8    1  0.4760912E-006  0.3950323E+03  0.7546771E-02  0.1045513E+00
         21   -1    0    0  504  503  0.00000000000E+00  0.00000000000E+00  0.21409380209E+03  0.21409380209E+03  0.00000000000E+00 0.  1.
         21   -1    0    0  503  504 -0.00000000000E+00 -0.00000000000E+00 -0.18222217963E+03  0.18222217963E+03  0.00000000000E+00 0.  1.
         25    2    1    2    0    0  0.96504567866E+02  0.11764858560E+03  0.31260890131E+02  0.19938803753E+03  0.12499609972E+03 0.  0.
         25    2    1    2    0    0 -0.96504567866E+02 -0.11764858560E+03  0.61073231992E+00  0.19692794419E+03  0.12500368354E+03 0.  0.
          5    1    3    3  501    0  0.11904654207E+01 -0.24864744446E+02  0.21819511160E+01  0.25426829038E+02  0.47000000000E+01 0. -1.
         -5    1    3    3    0  501  0.95314102446E+02  0.14251333004E+03  0.29078939015E+02  0.17396120849E+03  0.47000000000E+01 0. -1.
          5    1    4    4  502    0 -0.46370210338E+01  0.24214339825E+02 -0.11106653521E+02  0.27446019195E+02  0.47000000000E+01 0. -1.
         -5    1    4    4    0  502 -0.91867546833E+02 -0.14186292542E+03  0.11717385841E+02  0.16948192500E+03  0.47000000000E+01 0. -1.
<mgrwt>
<rscale>  0 0.39503235E+03</rscale>
<asrwt>0</asrwt>
<pdfrwt beam="1">  1       21 0.32937508E-01 0.39503235E+03</pdfrwt>
<pdfrwt beam="2">  1       21 0.28034181E-01 0.39503235E+03</pdfrwt>
<totfact> 0.10177683E+05</totfact>
</mgrwt>
</event>
<event>
 8    1  0.4760912E-006  0.3342401E+03  0.7546771E-02  0.1069276E+00
         21   -1    0    0  504  503  0.00000000000E+00  0.00000000000E+00  0.10116232121E+03  0.10116232121E+03  0.00000000000E+00 0. -1.
         21   -1    0    0  503  504 -0.00000000000E+00 -0.00000000000E+00 -0.27608210878E+03  0.27608210878E+03  0.00000000000E+00 0. -1.
         25    2    1    2    0    0  0.88707502837E+02  0.65463282038E+02 -0.10125211019E+03  0.19501434439E+03  0.12499656933E+03 0.  0.
         25    2    1    2    0    0 -0.88707502837E+02 -0.65463282038E+02 -0.73667677378E+02  0.18223008561E+03  0.12500566010E+03 0.  0.
          5    1    3    3  501    0  0.73542877979E+02 -0.83249979996E+01 -0.93204919554E+02  0.11910964496E+03  0.47000000000E+01 0. -1.
         -5    1    3    3    0  501  0.15164624858E+02  0.73788280038E+02 -0.80471906385E+01  0.75904699428E+02  0.47000000000E+01 0. -1.
          5    1    4    4  502    0 -0.31932795282E+02  0.36236444757E+02 -0.33365744559E+02  0.58890969198E+02  0.47000000000E+01 0. -1.
         -5    1    4    4    0  502 -0.56774707555E+02 -0.10169972680E+03 -0.40301932819E+02  0.12333911641E+03  0.47000000000E+01 0. -1.
<mgrwt>
<rscale>  0 0.33424008E+03</rscale>
<asrwt>0</asrwt>
<pdfrwt beam="1">  1       21 0.15563434E-01 0.33424008E+03</pdfrwt>
<pdfrwt beam="2">  1       21 0.42474170E-01 0.33424008E+03</pdfrwt>
<totfact> 0.18849677E+05</totfact>
</mgrwt>
</event>
<event>
 8    1  0.4760912E-006  0.3561543E+03  0.7546771E-02  0.1060117E+00
         21   -1    0    0  504  503  0.00000000000E+00  0.00000000000E+00  0.28894589758E+03  0.28894589758E+03  0.00000000000E+00 0. -1.
         21   -1    0    0  503  504 -0.00000000000E+00 -0.00000000000E+00 -0.10974882714E+03  0.10974882714E+03  0.00000000000E+00 0. -1.
         25    2    1    2    0    0 -0.11010444750E+03  0.31448673123E+02  0.15065363984E+03  0.22678722865E+03  0.12499567784E+03 0.  0.
         25    2    1    2    0    0  0.11010444750E+03 -0.31448673123E+02  0.28543430592E+02  0.17190749608E+03  0.12500180549E+03 0.  0.
          5    1    3    3  501    0 -0.91488702287E+02  0.17894648757E+02  0.21859313008E+02  0.95866160169E+02  0.47000000000E+01 0. -1.
         -5    1    3    3    0  501 -0.18615745218E+02  0.13554024366E+02  0.12879432683E+03  0.13092106848E+03  0.47000000000E+01 0. -1.
          5    1    4    4  502    0  0.12451829375E+03 -0.41582695480E+02  0.52786661876E+02  0.14157135203E+03  0.47000000000E+01 0.  1.
         -5    1    4    4    0  502 -0.14413846247E+02  0.10134022357E+02 -0.24243231283E+02  0.30336144050E+02  0.47000000000E+01 0.  1.
<mgrwt>
<rscale>  0 0.35615431E+03</rscale>
<asrwt>0</asrwt>
<pdfrwt beam="1">  1       21 0.44453215E-01 0.35615431E+03</pdfrwt>
<pdfrwt beam="2">  1       21 0.16884435E-01 0.35615431E+03</pdfrwt>
<totfact> 0.14677257E+05</totfact>
</mgrwt>
</event>
<event>
 8    1  0.4760912E-006  0.3332067E+03  0.7546771E-02  0.1069727E+00
         21   -1    0    0  504  503  0.00000000000E+00  0.00000000000E+00  0.10434065439E+04  0.10434065439E+04  0.00000000000E+00 0. -1.
         21   -1    0    0  503  504 -0.00000000000E+00 -0.00000000000E+00 -0.26601980995E+02  0.26601980995E+02  0.00000000000E+00 0. -1.
         25    2    1    2    0    0 -0.88762768572E+02  0.41008220672E+02  0.34583572211E+03  0.38052755843E+03  0.12505347971E+03 0.  0.
         25    2    1    2    0    0  0.88762768572E+02 -0.41008220672E+02  0.67096884079E+03  0.68948096647E+03  0.12499725820E+03 0.  0.
          5    1    3    3  501    0  0.18000023272E+02  0.47582975681E+02  0.12740809465E+03  0.13727000035E+03  0.47000000000E+01 0.  1.
         -5    1    3    3    0  501 -0.10676279184E+03 -0.65747550086E+01  0.21842762746E+03  0.24325755808E+03  0.47000000000E+01 0.  1.
          5    1    4    4  502    0 -0.31762910727E+00 -0.15867183107E+02  0.52828165482E+01  0.17374306855E+02  0.47000000000E+01 0.  1.
         -5    1    4    4    0  502  0.89080397679E+02 -0.25141037565E+02  0.66568602424E+03  0.67210665961E+03  0.47000000000E+01 0.  1.
<mgrwt>
<rscale>  0 0.33320673E+03</rscale>
<asrwt>0</asrwt>
<pdfrwt beam="1">  1       21 0.16052405E+00 0.33320673E+03</pdfrwt>
<pdfrwt beam="2">  1       21 0.40926133E-02 0.33320673E+03</pdfrwt>
<totfact> 0.88829891E+04</totfact>
</mgrwt>
</event>
<event>
 8    1  0.4760912E-006  0.2555185E+03  0.7546771E-02  0.1109866E+00
         21   -1    0    0  504  503  0.00000000000E+00  0.00000000000E+00  0.10666862085E+03  0.10666862085E+03  0.00000000000E+00 0. -1.
         21   -1    0    0  503  504 -0.00000000000E+00 -0.00000000000E+00 -0.15301990693E+03  0.15301990693E+03  0.00000000000E+00 0. -1.
         25    2    1    2    0    0  0.19716749845E+01  0.26246693091E+02 -0.25625177453E+02  0.13028240159E+03  0.12499631212E+03 0.  0.
         25    2    1    2    0    0 -0.19716749845E+01 -0.26246693091E+02 -0.20726108633E+02  0.12940612619E+03  0.12499438994E+03 0.  0.
          5    1    3    3  501    0 -0.34111492745E+02  0.43641782719E+02  0.28747877729E+02  0.62583780728E+02  0.47000000000E+01 0. -1.
         -5    1    3    3    0  501  0.36083167730E+02 -0.17395089628E+02 -0.54373055182E+02  0.67698620861E+02  0.47000000000E+01 0. -1.
          5    1    4    4  502    0  0.22248446138E+02 -0.62189321940E+02 -0.44470641397E+02  0.79763607398E+02  0.47000000000E+01 0. -1.
         -5    1    4    4    0  502 -0.24220121123E+02  0.35942628849E+02  0.23744532763E+02  0.49642518791E+02  0.47000000000E+01 0. -1.
<mgrwt>
<rscale>  0 0.25551847E+03</rscale>
<asrwt>0</asrwt>
<pdfrwt beam="1">  1       21 0.16410557E-01 0.25551847E+03</pdfrwt>
<pdfrwt beam="2">  1       21 0.23541524E-01 0.25551847E+03</pdfrwt>
<totfact> 0.55885270E+05</totfact>
</mgrwt>
</event>
<event>
 8    1  0.4760912E-006  0.3316293E+03  0.7546771E-02  0.1070418E+00
         21   -1    0    0  504  503  0.00000000000E+00  0.00000000000E+00  0.77937157057E+02  0.77937157057E+02  0.00000000000E+00 0. -1.
         21   -1    0    0  503  504 -0.00000000000E+00 -0.00000000000E+00 -0.35277788578E+03  0.35277788578E+03  0.00000000000E+00 0. -1.
         25    2    1    2    0    0  0.95270747442E+02  0.51289125256E+02 -0.12085391274E+03  0.20478660445E+03  0.12499918179E+03 0.  0.
         25    2    1    2    0    0 -0.95270747442E+02 -0.51289125256E+02 -0.15398681599E+03  0.22592843839E+03  0.12499852035E+03 0.  0.
          5    1    3    3  501    0  0.45003568060E+02 -0.19049454074E+02 -0.10616583016E+03  0.11696784316E+03  0.47000000000E+01 0. -1.
         -5    1    3    3    0  501  0.50267179381E+02  0.70338579330E+02 -0.14688082581E+02  0.87818761293E+02  0.47000000000E+01 0. -1.
          5    1    4    4  502    0  0.17619799303E+02 -0.48609297165E+02 -0.55768310956E+02  0.76193934176E+02  0.47000000000E+01 0. -1.
         -5    1    4    4    0  502 -0.11289054675E+03 -0.26798280907E+01 -0.98218505030E+02  0.14973450422E+03  0.47000000000E+01 0. -1.
<mgrwt>
<rscale>  0 0.33162934E+03</rscale>
<asrwt>0</asrwt>
<pdfrwt beam="1">  1       21 0.11990332E-01 0.33162934E+03</pdfrwt>
<pdfrwt beam="2">  1       21 0.54273522E-01 0.33162934E+03</pdfrwt>
<totfact> 0.18161442E+05</totfact>
</mgrwt>
</event>
<event>
 8    1  0.4760912E-006  0.3056453E+03  0.7546771E-02  0.1082452E+00
         21   -1    0    0  504  503  0.00000000000E+00  0.00000000000E+00  0.57617687732E+03  0.57617687732E+03  0.00000000000E+00 0.  1.
         21   -1    0    0  503  504 -0.00000000000E+00 -0.00000000000E+00 -0.40534024896E+02  0.40534024896E+02  0.00000000000E+00 0.  1.
         25    2    1    2    0    0  0.81859794670E+02 -0.22901066860E+02  0.22246892546E+03  0.26896208252E+03  0.12499077644E+03 0.  0.
         25    2    1    2    0    0 -0.81859794670E+02  0.22901066860E+02  0.31317392696E+03  0.34774881969E+03  0.12500339282E+03 0.  0.
          5    1    3    3  501    0  0.11460477750E+03 -0.24547321853E+02  0.16186679112E+03  0.19989940996E+03  0.47000000000E+01 0. -1.
         -5    1    3    3    0  501 -0.32744982826E+02  0.16462549925E+01  0.60602134331E+02  0.69062672561E+02  0.47000000000E+01 0. -1.
          5    1    4    4  502    0  0.34105098476E+01 -0.41352299710E+01 -0.10061369296E+02  0.12330971432E+02  0.47000000000E+01 0. -1.
         -5    1    4    4    0  502 -0.85270304518E+02  0.27036296831E+02  0.32323529626E+03  0.33541784825E+03  0.47000000000E+01 0. -1.
<mgrwt>
<rscale>  0 0.30564534E+03</rscale>
<asrwt>0</asrwt>
<pdfrwt beam="1">  1       21 0.88642591E-01 0.30564534E+03</pdfrwt>
<pdfrwt beam="2">  1       21 0.62360042E-02 0.30564534E+03</pdfrwt>
<totfact> 0.19433536E+05</totfact>
</mgrwt>
</event>
<event>
 8    1  0.4760912E-006  0.3063958E+03  0.7546771E-02  0.1082086E+00
         21   -1    0    0  504  503  0.00000000000E+00  0.00000000000E+00  0.65451095793E+02  0.65451095793E+02  0.00000000000E+00 0. -1.
         21   -1    0    0  503  504 -0.00000000000E+00 -0.00000000000E+00 -0.35858208861E+03  0.35858208861E+03  0.00000000000E+00 0. -1.
         25    2    1    2    0    0  0.79653549964E+02  0.35311811502E+02 -0.12468611530E+03  0.19689105886E+03  0.12501139811E+03 0.  0.
         25    2    1    2    0    0 -0.79653549964E+02 -0.35311811502E+02 -0.16844487751E+03  0.22714212554E+03  0.12501302485E+03 0.  0.
          5    1    3    3  501    0  0.74048787652E+02  0.48209356469E+02 -0.14612320596E+03  0.17082577769E+03  0.47000000000E+01 0.  1.
         -5    1    3    3    0  501  0.56047623117E+01 -0.12897544968E+02  0.21437090655E+02  0.26065281171E+02  0.47000000000E+01 0.  1.
          5    1    4    4  502    0 -0.21723022607E+02  0.40743138711E+02 -0.20056626165E+02  0.50559384058E+02  0.47000000000E+01 0.  1.
         -5    1    4    4    0  502 -0.57930527357E+02 -0.76054950213E+02 -0.14838825135E+03  0.17658274148E+03  0.47000000000E+01 0.  1.
<mgrwt>
<rscale>  0 0.30639576E+03</rscale>
<asrwt>0</asrwt>
<pdfrwt beam="1">  1       21 0.10069399E-01 0.30639576E+03</pdfrwt>
<pdfrwt beam="2">  1       21 0.55166476E-01 0.30639576E+03</pdfrwt>
<totfact> 0.24134792E+05</totfact>
</mgrwt>
</event>
<event>
 8    1  0.4760912E-006  0.2988326E+03  0.7546771E-02  0.1085826E+00
         21   -1    0    0  504  503  0.00000000000E+00  0.00000000000E+00  0.14410038355E+03  0.14410038355E+03  0.00000000000E+00 0. -1.
         21   -1    0    0  503  504 -0.00000000000E+00 -0.00000000000E+00 -0.15492834006E+03  0.15492834006E+03  0.00000000000E+00 0. -1.
         25    2    1    2    0    0 -0.21262811679E+02  0.62094459371E+02  0.43503970744E+02  0.14775219097E+03  0.12502113990E+03 0.  0.
         25    2    1    2    0    0  0.21262811679E+02 -0.62094459371E+02 -0.54331927258E+02  0.15127653263E+03  0.12499920784E+03 0.  0.
          5    1    3    3  501    0  0.10776550966E+02  0.41589416231E+02 -0.38087244818E+02  0.57606786154E+02  0.47000000000E+01 0. -1.
         -5    1    3    3    0  501 -0.32039362645E+02  0.20505043140E+02  0.81591215562E+02  0.90145404818E+02  0.47000000000E+01 0. -1.
          5    1    4    4  502    0  0.28428782883E+01 -0.98923387514E+02 -0.44878895487E+02  0.10876637263E+03  0.47000000000E+01 0. -1.
         -5    1    4    4    0  502  0.18419933391E+02  0.36828928143E+02 -0.94530317704E+01  0.42510160008E+02  0.47000000000E+01 0. -1.
<mgrwt>
<rscale>  0 0.29883262E+03</rscale>
<asrwt>0</asrwt>
<pdfrwt beam="1">  1       21 0.22169290E-01 0.29883262E+03</pdfrwt>
<pdfrwt beam="2">  1       21 0.23835129E-01 0.29883262E+03</pdfrwt>
<totfact> 0.30807481E+05</totfact>
</mgrwt>
</event>
<event>
 8    1  0.4760912E-006  0.2876423E+03  0.7546771E-02  0.1091587E+00
         21   -1    0    0  504  503  0.00000000000E+00  0.00000000000E+00  0.11595285819E+03  0.11595285819E+03  0.00000000000E+00 0.  1.
         21   -1    0    0  503  504 -0.00000000000E+00 -0.00000000000E+00 -0.17838733838E+03  0.17838733838E+03  0.00000000000E+00 0.  1.
         25    2    1    2    0    0 -0.71113277824E+02  0.10941943688E+01 -0.32404509981E+02  0.14742019253E+03  0.12499746140E+03 0.  0.
         25    2    1    2    0    0  0.71113277824E+02 -0.10941943688E+01 -0.30029970209E+02  0.14692000404E+03  0.12500157172E+03 0.  0.
          5    1    3    3  501    0 -0.79048942654E+02 -0.43984136048E+02  0.95239055387E+00  0.90588832681E+02  0.47000000000E+01 0. -1.
         -5    1    3    3    0  501  0.79356648301E+01  0.45078330417E+02 -0.33356900535E+02  0.56831359853E+02  0.47000000000E+01 0. -1.
          5    1    4    4  502    0  0.33337718025E+02  0.57176194628E+01 -0.78091666826E+02  0.85231995419E+02  0.47000000000E+01 0. -1.
         -5    1    4    4    0  502  0.37775559799E+02 -0.68118138316E+01  0.48061696617E+02  0.61688008620E+02  0.47000000000E+01 0. -1.
<mgrwt>
<rscale>  0 0.28764229E+03</rscale>
<asrwt>0</asrwt>
<pdfrwt beam="1">  1       21 0.17838901E-01 0.28764229E+03</pdfrwt>
<pdfrwt beam="2">  1       21 0.27444206E-01 0.28764229E+03</pdfrwt>
<totfact> 0.35411886E+05</totfact>
</mgrwt>
</event>
<event>
 8    1  0.4760912E-006  0.2809396E+03  0.7546771E-02  0.1095177E+00
         21   -1    0    0  504  503  0.00000000000E+00  0.00000000000E+00  0.18054284138E+03  0.18054284138E+03  0.00000000000E+00 0.  1.
         21   -1    0    0  503  504 -0.00000000000E+00 -0.00000000000E+00 -0.10929133092E+03  0.10929133092E+03  0.00000000000E+00 0.  1.
         25    2    1    2    0    0 -0.58628892193E+02  0.20540204909E+02  0.51837310680E+02  0.14889930116E+03  0.12499859236E+03 0.  0.
         25    2    1    2    0    0  0.58628892193E+02 -0.20540204909E+02  0.19414199780E+02  0.14093487113E+03  0.12500591878E+03 0.  0.
          5    1    3    3  501    0 -0.24322441223E+02  0.72781533175E+02  0.27081665113E+02  0.81512203404E+02  0.47000000000E+01 0.  1.
         -5    1    3    3    0  501 -0.34306450970E+02 -0.52241328266E+02  0.24755645567E+02  0.67387097761E+02  0.47000000000E+01 0.  1.
          5    1    4    4  502    0  0.42932443239E+02 -0.62194039220E+02  0.46268606008E+02  0.88736503756E+02  0.47000000000E+01 0. -1.
         -5    1    4    4    0  502  0.15696448953E+02  0.41653834311E+02 -0.26854406228E+02  0.52198367373E+02  0.47000000000E+01 0. -1.
<mgrwt>
<rscale>  0 0.28093962E+03</rscale>
<asrwt>0</asrwt>
<pdfrwt beam="1">  1       21 0.27775822E-01 0.28093962E+03</pdfrwt>
<pdfrwt beam="2">  1       21 0.16814051E-01 0.28093962E+03</pdfrwt>
<totfact> 0.38663726E+05</totfact>
</mgrwt>
</event>
<event>
 8    1  0.4760912E-006  0.4083957E+03  0.7546771E-02  0.1040911E+00
         21   -1    0    0  504  503  0.00000000000E+00  0.00000000000E+00  0.31442013929E+03  0.31442013929E+03  0.00000000000E+00 0. -1.
         21   -1    0    0  503  504 -0.00000000000E+00 -0.00000000000E+00 -0.13261477468E+03  0.13261477468E+03  0.00000000000E+00 0. -1.
         25    2    1    2    0    0 -0.10423987210E+03 -0.57793358521E+00  0.22587905847E+03  0.27841123908E+03  0.12500073621E+03 0.  0.
         25    2    1    2    0    0  0.10423987210E+03  0.57793358521E+00 -0.44073693858E+02  0.16862367489E+03  0.12500067321E+03 0.  0.
          5    1    3    3  501    0 -0.26336983071E+02 -0.50222081739E+01  0.19079703809E+03  0.19272897809E+03  0.47000000000E+01 0.  1.
         -5    1    3    3    0  501 -0.77902889026E+02  0.44442745887E+01  0.35082020379E+02  0.85682260994E+02  0.47000000000E+01 0.  1.
          5    1    4    4  502    0  0.78934304706E+02  0.58706971595E+02 -0.34399323996E+02  0.10431939640E+03  0.47000000000E+01 0.  1.
         -5    1    4    4    0  502  0.25305567391E+02 -0.58129038009E+02 -0.96743698619E+01  0.64304278498E+02  0.47000000000E+01 0.  1.
<mgrwt>
<rscale>  0 0.40839567E+03</rscale>
<asrwt>0</asrwt>
<pdfrwt beam="1">  1       21 0.48372329E-01 0.40839567E+03</pdfrwt>
<pdfrwt beam="2">  1       21 0.20402273E-01 0.40839567E+03</pdfrwt>
<totfact> 0.85140396E+04</totfact>
</mgrwt>
</event>
<event>
 8    1  0.4760912E-006  0.2832446E+03  0.7546771E-02  0.1093930E+00
         21   -1    0    0  504  503  0.00000000000E+00  0.00000000000E+00  0.33556240653E+03  0.33556240653E+03  0.00000000000E+00 0. -1.
         21   -1    0    0  503  504 -0.00000000000E+00 -0.00000000000E+00 -0.59770933348E+02  0.59770933348E+02  0.00000000000E+00 0. -1.
         25    2    1    2    0    0 -0.14258585914E+01  0.12622766254E+02  0.22912457759E+03  0.26129684423E+03  0.12496640129E+03 0.  0.
         25    2    1    2    0    0  0.14258585914E+01 -0.12622766254E+02  0.46666895593E+02  0.13403649564E+03  0.12500646271E+03 0.  0.
          5    1    3    3  501    0  0.18909178956E+02  0.28389200996E+02  0.40070857269E+01  0.34664831141E+02  0.47000000000E+01 0.  1.
         -5    1    3    3    0  501 -0.20335037548E+02 -0.15766434742E+02  0.22511749186E+03  0.22663201309E+03  0.47000000000E+01 0.  1.
          5    1    4    4  502    0 -0.40225414316E+02 -0.53435683644E+02  0.27563542471E+02  0.72493414301E+02  0.47000000000E+01 0. -1.
         -5    1    4    4    0  502  0.41651272908E+02  0.40812917390E+02  0.19103353122E+02  0.61543081343E+02  0.47000000000E+01 0. -1.
<mgrwt>
<rscale>  0 0.28324462E+03</rscale>
<asrwt>0</asrwt>
<pdfrwt beam="1">  1       21 0.51624985E-01 0.28324462E+03</pdfrwt>
<pdfrwt beam="2">  1       21 0.91955284E-02 0.28324462E+03</pdfrwt>
<totfact> 0.32822177E+05</totfact>
</mgrwt>
</event>
<event>
 8    1  0.4760912E-006  0.3493583E+03  0.7546771E-02  0.1062879E+00
         21   -1    0    0  504  503  0.00000000000E+00  0.00000000000E+00  0.25034794899E+03  0.25034794899E+03  0.00000000000E+00 0. -1.
         21   -1    0    0  503  504 -0.00000000000E+00 -0.00000000000E+00 -0.12188160254E+03  0.12188160254E+03  0.00000000000E+00 0. -1.
         25    2    1    2    0    0 -0.48722726998E+02 -0.98436357844E+02  0.76043154074E+01  0.16657172436E+03  0.12499877228E+03 0.  0.
         25    2    1    2    0    0  0.48722726998E+02  0.98436357844E+02  0.12086203104E+03  0.20565782718E+03  0.12499556256E+03 0.  0.
          5    1    3    3  501    0  0.39528080249E+02 -0.18119906569E+02 -0.12463476403E+02  0.45477779039E+02  0.47000000000E+01 0. -1.
         -5    1    3    3    0  501 -0.88250807247E+02 -0.80316451275E+02  0.20067791811E+02  0.12109394532E+03  0.47000000000E+01 0. -1.
          5    1    4    4  502    0  0.36897223234E+02  0.11231916210E+03  0.43538810038E+02  0.12607425287E+03  0.47000000000E+01 0. -1.
         -5    1    4    4    0  502  0.11825503764E+02 -0.13882804252E+02  0.77323221005E+02  0.79583574309E+02  0.47000000000E+01 0. -1.
<mgrwt>
<rscale>  0 0.34935832E+03</rscale>
<asrwt>0</asrwt>
<pdfrwt beam="1">  1       21 0.38515069E-01 0.34935832E+03</pdfrwt>
<pdfrwt beam="2">  1       21 0.18751016E-01 0.34935832E+03</pdfrwt>
<totfact> 0.16226250E+05</totfact>
</mgrwt>
</event>
<event>
 8    1  0.4760912E-006  0.3289515E+03  0.7546771E-02  0.1071602E+00
         21   -1    0    0  504  503  0.00000000000E+00  0.00000000000E+00  0.29469008666E+02  0.29469008666E+02  0.00000000000E+00 0. -1.
         21   -1    0    0  503  504 -0.00000000000E+00 -0.00000000000E+00 -0.91799061013E+03  0.91799061013E+03  0.00000000000E+00 0. -1.
         25    2    1    2    0    0 -0.80601197357E+02 -0.63237390416E+02 -0.53216881931E+03  0.55616963418E+03  0.12500195670E+03 0.  0.
         25    2    1    2    0    0  0.80601197357E+02  0.63237390416E+02 -0.35635278216E+03  0.39128998462E+03  0.12500010459E+03 0.  0.
          5    1    3    3  501    0 -0.74856198612E+02  0.18295393635E+02 -0.20936489090E+03  0.22314551181E+03  0.47000000000E+01 0.  1.
         -5    1    3    3    0  501 -0.57449987454E+01 -0.81532784051E+02 -0.32280392840E+03  0.33302412237E+03  0.47000000000E+01 0.  1.
          5    1    4    4  502    0  0.40532851710E+02  0.33120571449E+02 -0.28874103508E+02  0.59964057353E+02  0.47000000000E+01 0.  1.
         -5    1    4    4    0  502  0.40068345647E+02  0.30116818967E+02 -0.32747867865E+03  0.33132592727E+03  0.47000000000E+01 0.  1.
<mgrwt>
<rscale>  0 0.32895151E+03</rscale>
<asrwt>0</asrwt>
<pdfrwt beam="1">  1       21 0.45336936E-02 0.32895151E+03</pdfrwt>
<pdfrwt beam="2">  1       21 0.14122933E+00 0.32895151E+03</pdfrwt>
<totfact> 0.10551396E+05</totfact>
</mgrwt>
</event>
<event>
 8    1  0.4760912E-006  0.2907621E+03  0.7546771E-02  0.1089952E+00
         21   -1    0    0  504  503  0.00000000000E+00  0.00000000000E+00  0.17433993566E+02  0.17433993566E+02  0.00000000000E+00 0. -1.
         21   -1    0    0  503  504 -0.00000000000E+00 -0.00000000000E+00 -0.12123240309E+04  0.12123240309E+04  0.00000000000E+00 0. -1.
         25    2    1    2    0    0 -0.61670492890E+02 -0.24510885448E+02 -0.45672927448E+03  0.47815326176E+03  0.12499951348E+03 0.  0.
         25    2    1    2    0    0  0.61670492890E+02  0.24510885448E+02 -0.73816076286E+03  0.75160476271E+03  0.12499749716E+03 0.  0.
          5    1    3    3  501    0  0.84971172612E+01 -0.36755369311E+02 -0.33413811967E+03  0.33629381676E+03  0.47000000000E+01 0. -1.
         -5    1    3    3    0  501 -0.70167610152E+02  0.12244483863E+02 -0.12259115481E+03  0.14185944501E+03  0.47000000000E+01 0. -1.
          5    1    4    4  502    0  0.38934000429E+02 -0.39062536906E+02 -0.52614270263E+03  0.52904628504E+03  0.47000000000E+01 0.  1.
         -5    1    4    4    0  502  0.22736492461E+02  0.63573422354E+02 -0.21201806023E+03  0.22255847767E+03  0.47000000000E+01 0.  1.
<mgrwt>
<rscale>  0 0.29076210E+03</rscale>
<asrwt>0</asrwt>
<pdfrwt beam="1">  1       21 0.26821524E-02 0.29076210E+03</pdfrwt>
<pdfrwt beam="2">  1       21 0.18651142E+00 0.29076210E+03</pdfrwt>
<totfact> 0.11979822E+05</totfact>
</mgrwt>
</event>
<event>
 8    1  0.4760912E-006  0.2728424E+03  0.7546771E-02  0.1099664E+00
         21   -1    0    0  504  503  0.00000000000E+00  0.00000000000E+00  0.15156758736E+03  0.15156758736E+03  0.00000000000E+00 0. -1.
         21   -1    0    0  503  504 -0.00000000000E+00 -0.00000000000E+00 -0.12278844100E+03  0.12278844100E+03  0.00000000000E+00 0. -1.
         25    2    1    2    0    0 -0.40981904938E+02  0.35140617185E+02  0.59003687458E+01  0.13628624375E+03  0.12499898550E+03 0.  0.
         25    2    1    2    0    0  0.40981904938E+02 -0.35140617185E+02  0.22878777614E+02  0.13806978461E+03  0.12500178978E+03 0.  0.
          5    1    3    3  501    0 -0.76126824499E+02  0.46096210824E+02  0.27601030921E+02  0.93295557068E+02  0.47000000000E+01 0. -1.
         -5    1    3    3    0  501  0.35144919561E+02 -0.10955593638E+02 -0.21700662175E+02  0.42990686686E+02  0.47000000000E+01 0. -1.
          5    1    4    4  502    0  0.60861533840E+02  0.20531868286E+02  0.40654044497E+02  0.76161179420E+02  0.47000000000E+01 0. -1.
         -5    1    4    4    0  502 -0.19879628902E+02 -0.55672485471E+02 -0.17775266883E+02  0.61908605190E+02  0.47000000000E+01 0. -1.
<mgrwt>
<rscale>  0 0.27284243E+03</rscale>
<asrwt>0</asrwt>
<pdfrwt beam="1">  1       21 0.23318090E-01 0.27284243E+03</pdfrwt>
<pdfrwt beam="2">  1       21 0.18890529E-01 0.27284243E+03</pdfrwt>
<totfact> 0.43681840E+05</totfact>
</mgrwt>
</event>
<event>
 8    1  0.4760912E-006  0.3039645E+03  0.7546771E-02  0.1083275E+00
         21   -1    0    0  504  503  0.00000000000E+00  0.00000000000E+00  0.20980717581E+03  0.20980717581E+03  0.00000000000E+00 0. -1.
         21   -1    0    0  503  504 -0.00000000000E+00 -0.00000000000E+00 -0.11009442594E+03  0.11009442594E+03  0.00000000000E+00 0. -1.
         25    2    1    2    0    0 -0.26932664800E+02 -0.11950285057E+02  0.13539068994E+03  0.18661294830E+03  0.12500230320E+03 0.  0.
         25    2    1    2    0    0  0.26932664800E+02  0.11950285057E+02 -0.35677940073E+02  0.13328865346E+03  0.12499908794E+03 0.  0.
          5    1    3    3  501    0 -0.38639780399E+02  0.45646507311E+02  0.33021120116E+02  0.68477154093E+02  0.47000000000E+01 0.  1.
         -5    1    3    3    0  501  0.11707115599E+02 -0.57596792367E+02  0.10236956982E+03  0.11813579421E+03  0.47000000000E+01 0.  1.
          5    1    4    4  502    0 -0.33872706434E+02  0.36994784375E+02  0.12168154978E+02  0.51827871920E+02  0.47000000000E+01 0.  1.
         -5    1    4    4    0  502  0.60805371234E+02 -0.25044499319E+02 -0.47846095051E+02  0.81460781537E+02  0.47000000000E+01 0.  1.
<mgrwt>
<rscale>  0 0.30396448E+03</rscale>
<asrwt>0</asrwt>
<pdfrwt beam="1">  1       21 0.32278027E-01 0.30396448E+03</pdfrwt>
<pdfrwt beam="2">  1       21 0.16937604E-01 0.30396448E+03</pdfrwt>
<totfact> 0.28255660E+05</totfact>
</mgrwt>
</event>
<event>
 8    1  0.4760912E-006  0.3184875E+03  0.7546771E-02  0.1076347E+00
         21   -1    0    0  504  503  0.00000000000E+00  0.00000000000E+00  0.55144232534E+03  0.55144232534E+03  0.00000000000E+00 0. -1.
         21   -1    0    0  503  504 -0.00000000000E+00 -0.00000000000E+00 -0.45985910278E+02  0.45985910278E+02  0.00000000000E+00 0. -1.
         25    2    1    2    0    0  0.28488306269E+01 -0.94560807371E+02  0.30526149204E+03  0.34315895907E+03  0.12499452203E+03 0.  0.
         25    2    1    2    0    0 -0.28488306269E+01  0.94560807371E+02  0.20019492303E+03  0.25426927656E+03  0.12499998267E+03 0.  0.
          5    1    3    3  501    0  0.49916114560E+02 -0.96959697434E+02  0.22145924006E+03  0.24689893970E+03  0.47000000000E+01 0. -1.
         -5    1    3    3    0  501 -0.47067283933E+02  0.23988900637E+01  0.83802251980E+02  0.96260019360E+02  0.47000000000E+01 0. -1.
          5    1    4    4  502    0 -0.51865234221E+02  0.29626566420E+02  0.33315471981E+02  0.68554698102E+02  0.47000000000E+01 0.  1.
         -5    1    4    4    0  502  0.49016403594E+02  0.64934240950E+02  0.16687945105E+03  0.18571457845E+03  0.47000000000E+01 0.  1.
<mgrwt>
<rscale>  0 0.31848753E+03</rscale>
<asrwt>0</asrwt>
<pdfrwt beam="1">  1       21 0.84837276E-01 0.31848753E+03</pdfrwt>
<pdfrwt beam="2">  1       21 0.70747558E-02 0.31848753E+03</pdfrwt>
<totfact> 0.17227198E+05</totfact>
</mgrwt>
</event>
<event>
 8    1  0.4760912E-006  0.3312943E+03  0.7546771E-02  0.1070566E+00
         21   -1    0    0  504  503  0.00000000000E+00  0.00000000000E+00  0.90618022808E+01  0.90618022808E+01  0.00000000000E+00 0.  1.
         21   -1    0    0  503  504 -0.00000000000E+00 -0.00000000000E+00 -0.30279821934E+04  0.30279821934E+04  0.00000000000E+00 0.  1.
         25    2    1    2    0    0  0.62368593268E+02 -0.29040425827E+02 -0.73805740895E+03  0.75172263748E+03  0.12499998815E+03 0.  0.
         25    2    1    2    0    0 -0.62368593268E+02  0.29040425827E+02 -0.22808629822E+04  0.22853213582E+04  0.12499831621E+03 0.  0.
          5    1    3    3  501    0  0.57060432512E+02 -0.14186974990E+02 -0.12266413120E+03  0.13610930277E+03  0.47000000000E+01 0. -1.
         -5    1    3    3    0  501  0.53081607557E+01 -0.14853450837E+02 -0.61539327775E+03  0.61561333471E+03  0.47000000000E+01 0. -1.
          5    1    4    4  502    0  0.35103394383E+02  0.24771173988E+02 -0.87699854601E+03  0.87806286737E+03  0.47000000000E+01 0.  1.
         -5    1    4    4    0  502 -0.97471987651E+02  0.42692518393E+01 -0.14038644361E+04  0.14072584908E+04  0.47000000000E+01 0.  1.
<mgrwt>
<rscale>  0 0.33129429E+03</rscale>
<asrwt>0</asrwt>
<pdfrwt beam="1">  1       21 0.13941259E-02 0.33129429E+03</pdfrwt>
<pdfrwt beam="2">  1       21 0.46584259E+00 0.33129429E+03</pdfrwt>
<totfact> 0.62334816E+03</totfact>
</mgrwt>
</event>
<event>
 8    1  0.4760912E-006  0.3326460E+03  0.7546771E-02  0.1069972E+00
         21   -1    0    0  504  503  0.00000000000E+00  0.00000000000E+00  0.19404348524E+02  0.19404348524E+02  0.00000000000E+00 0. -1.
         21   -1    0    0  503  504 -0.00000000000E+00 -0.00000000000E+00 -0.14256255728E+04  0.14256255728E+04  0.00000000000E+00 0. -1.
         25    2    1    2    0    0 -0.66313660231E+02  0.72799865132E+02 -0.91331375632E+03  0.92707309420E+03  0.12500073041E+03 0.  0.
         25    2    1    2    0    0  0.66313660231E+02 -0.72799865132E+02 -0.49290746791E+03  0.51795682708E+03  0.12499672357E+03 0.  0.
          5    1    3    3  501    0 -0.21684869724E+02  0.66122279905E+02 -0.19100016753E+03  0.20333603584E+03  0.47000000000E+01 0.  1.
         -5    1    3    3    0  501 -0.44628790506E+02  0.66775852267E+01 -0.72231358880E+03  0.72373705836E+03  0.47000000000E+01 0.  1.
          5    1    4    4  502    0  0.48646881312E+02 -0.45978040310E+02 -0.82841507554E+02  0.10660818273E+03  0.47000000000E+01 0. -1.
         -5    1    4    4    0  502  0.17666778918E+02 -0.26821824822E+02 -0.41006596035E+03  0.41134864435E+03  0.47000000000E+01 0. -1.
<mgrwt>
<rscale>  0 0.33264597E+03</rscale>
<asrwt>0</asrwt>
<pdfrwt beam="1">  1       21 0.29852836E-02 0.33264597E+03</pdfrwt>
<pdfrwt beam="2">  1       21 0.21932707E+00 0.33264597E+03</pdfrwt>
<totfact> 0.60197751E+04</totfact>
</mgrwt>
</event>
<event>
 8    1  0.4760912E-006  0.3253461E+03  0.7546771E-02  0.1073215E+00
         21   -1    0    0  504  503  0.00000000000E+00  0.00000000000E+00  0.47608564273E+03  0.47608564273E+03  0.00000000000E+00 0.  1.
         21   -1    0    0  503  504 -0.00000000000E+00 -0.00000000000E+00 -0.55583522034E+02  0.55583522034E+02  0.00000000000E+00 0.  1.
         25    2    1    2    0    0 -0.95045067974E+00  0.67270401390E+02  0.80427756590E+02  0.16315521240E+03  0.12499915618E+03 0.  0.
         25    2    1    2    0    0  0.95045067974E+00 -0.67270401390E+02  0.34007436410E+03  0.36851395236E+03  0.12500299877E+03 0.  0.
          5    1    3    3  501    0  0.34415764902E+01 -0.31797436198E+02 -0.43347260702E+01  0.32615966145E+02  0.47000000000E+01 0. -1.
         -5    1    3    3    0  501 -0.43920271700E+01  0.99067837588E+02  0.84762482660E+02  0.13053924626E+03  0.47000000000E+01 0. -1.
          5    1    4    4  502    0  0.46570499292E+02  0.99147730705E+01  0.16448258307E+03  0.17130010001E+03  0.47000000000E+01 0.  1.
         -5    1    4    4    0  502 -0.45620048612E+02 -0.77185174461E+02  0.17559178104E+03  0.19721385235E+03  0.47000000000E+01 0.  1.
<mgrwt>
<rscale>  0 0.32534607E+03</rscale>
<asrwt>0</asrwt>
<pdfrwt beam="1">  1       21 0.73243942E-01 0.32534607E+03</pdfrwt>
<pdfrwt beam="2">  1       21 0.85513114E-02 0.32534607E+03</pdfrwt>
<totfact> 0.17244908E+05</totfact>
</mgrwt>
</event>
<event>
 8    1  0.4760912E-006  0.2796300E+03  0.7546771E-02  0.1095891E+00
         21   -1    0    0  504  503  0.00000000000E+00  0.00000000000E+00  0.87375275058E+02  0.87375275058E+02  0.00000000000E+00 0.  1.
         21   -1    0    0  503  504 -0.00000000000E+00 -0.00000000000E+00 -0.22372727662E+03  0.22372727662E+03  0.00000000000E+00 0.  1.
         25    2    1    2    0    0 -0.50005439045E+02 -0.35502482617E+02 -0.82347963950E+02  0.16176161924E+03  0.12499865634E+03 0.  0.
         25    2    1    2    0    0  0.50005439045E+02  0.35502482617E+02 -0.54004037609E+02  0.14934093243E+03  0.12500123125E+03 0.  0.
          5    1    3    3  501    0  0.41212620302E+02 -0.17884575732E+02 -0.17869085269E+02  0.48577076174E+02  0.47000000000E+01 0. -1.
         -5    1    3    3    0  501 -0.91218059347E+02 -0.17617906885E+02 -0.64478878681E+02  0.11318454307E+03  0.47000000000E+01 0. -1.
          5    1    4    4  502    0  0.63736631542E+02  0.72764157119E+02 -0.25235669931E+02  0.10007951738E+03  0.47000000000E+01 0.  1.
         -5    1    4    4    0  502 -0.13731192497E+02 -0.37261674502E+02 -0.28768367678E+02  0.49261415052E+02  0.47000000000E+01 0.  1.
<mgrwt>
<rscale>  0 0.27962999E+03</rscale>
<asrwt>0</asrwt>
<pdfrwt beam="1">  1       21 0.13442350E-01 0.27962999E+03</pdfrwt>
<pdfrwt beam="2">  1       21 0.34419581E-01 0.27962999E+03</pdfrwt>
<totfact> 0.38208254E+05</totfact>
</mgrwt>
</event>
<event>
 8    1  0.4760912E-006  0.3055108E+03  0.7546771E-02  0.1082518E+00
         21   -1    0    0  504  503  0.00000000000E+00  0.00000000000E+00  0.15605848324E+04  0.15605848324E+04  0.00000000000E+00 0. -1.
         21   -1    0    0  503  504 -0.00000000000E+00 -0.00000000000E+00 -0.14952218225E+02  0.14952218225E+02  0.00000000000E+00 0. -1.
         25    2    1    2    0    0 -0.76250397418E+02  0.38688270723E+02  0.87592872234E+03  0.88892354355E+03  0.12499213681E+03 0.  0.
         25    2    1    2    0    0  0.76250397418E+02 -0.38688270723E+02  0.66970389183E+03  0.68661350707E+03  0.12499559975E+03 0.  0.
          5    1    3    3  501    0 -0.84050669713E+02  0.32040700969E+02  0.30844337781E+03  0.32132620328E+03  0.47000000000E+01 0.  1.
         -5    1    3    3    0  501  0.78002722950E+01  0.66475697542E+01  0.56748534452E+03  0.56759734027E+03  0.47000000000E+01 0.  1.
          5    1    4    4  502    0  0.10471352676E+03 -0.21404015910E+02  0.37390013380E+03  0.38890417154E+03  0.47000000000E+01 0. -1.
         -5    1    4    4    0  502 -0.28463129346E+02 -0.17284254814E+02  0.29580375803E+03  0.29770933552E+03  0.47000000000E+01 0. -1.
<mgrwt>
<rscale>  0 0.30551075E+03</rscale>
<asrwt>0</asrwt>
<pdfrwt beam="1">  1       21 0.24008985E+00 0.30551075E+03</pdfrwt>
<pdfrwt beam="2">  1       21 0.23003425E-02 0.30551075E+03</pdfrwt>
<totfact> 0.69858847E+04</totfact>
</mgrwt>
</event>
<event>
 8    1  0.4760912E-006  0.3006819E+03  0.7546771E-02  0.1084900E+00
         21   -1    0    0  504  503  0.00000000000E+00  0.00000000000E+00  0.71901411367E+03  0.71901411367E+03  0.00000000000E+00 0. -1.
         21   -1    0    0  503  504 -0.00000000000E+00 -0.00000000000E+00 -0.31435260297E+02  0.31435260297E+02  0.00000000000E+00 0. -1.
         25    2    1    2    0    0 -0.51335322974E+01  0.50941976390E+02  0.17904606335E+03  0.22428166177E+03  0.12499333139E+03 0.  0.
         25    2    1    2    0    0  0.51335322974E+01 -0.50941976390E+02  0.50853279002E+03  0.52616771220E+03  0.12500169887E+03 0.  0.
          5    1    3    3  501    0  0.38093031856E+02 -0.17969516749E+02  0.10857287081E+03  0.11655102266E+03  0.47000000000E+01 0. -1.
         -5    1    3    3    0  501 -0.43226564153E+02  0.68911493138E+02  0.70473192546E+02  0.10773063911E+03  0.47000000000E+01 0. -1.
          5    1    4    4  502    0  0.25916733736E+02  0.88731284698E+01  0.21834046922E+02  0.35344378639E+02  0.47000000000E+01 0.  1.
         -5    1    4    4    0  502 -0.20783201439E+02 -0.59815104859E+02  0.48669874310E+03  0.49082333356E+03  0.47000000000E+01 0.  1.
<mgrwt>
<rscale>  0 0.30068186E+03</rscale>
<asrwt>0</asrwt>
<pdfrwt beam="1">  1       21 0.11061754E+00 0.30068186E+03</pdfrwt>
<pdfrwt beam="2">  1       21 0.48361944E-02 0.30068186E+03</pdfrwt>
<totfact> 0.17717779E+05</totfact>
</mgrwt>
</event>
<event>
 8    1  0.4760912E-006  0.4361180E+03  0.7546771E-02  0.1031945E+00
         21   -1    0    0  504  503  0.00000000000E+00  0.00000000000E+00  0.98723179245E+02  0.98723179245E+02  0.00000000000E+00 0.  1.
         21   -1    0    0  503  504 -0.00000000000E+00 -0.00000000000E+00 -0.48164714712E+03  0.48164714712E+03  0.00000000000E+00 0.  1.
         25    2    1    2    0    0 -0.12631188089E+03  0.81974311743E+02 -0.63475750181E+02  0.20574306577E+03  0.12500623669E+03 0.  0.
         25    2    1    2    0    0  0.12631188089E+03 -0.81974311743E+02 -0.31944821769E+03  0.37462726059E+03  0.12499576614E+03 0.  0.
          5    1    3    3  501    0 -0.75594344687E+02  0.32727047159E+02 -0.97014949622E+02  0.12735601680E+03  0.47000000000E+01 0. -1.
         -5    1    3    3    0  501 -0.50717536203E+02  0.49247264583E+02  0.33539199441E+02  0.78387048972E+02  0.47000000000E+01 0. -1.
          5    1    4    4  502    0 -0.19544175352E+02 -0.48837980562E+01 -0.87763320278E+02  0.90168268586E+02  0.47000000000E+01 0.  1.
         -5    1    4    4    0  502  0.14585605624E+03 -0.77090513687E+02 -0.23168489741E+03  0.28445899200E+03  0.47000000000E+01 0.  1.
<mgrwt>
<rscale>  0 0.43611805E+03</rscale>
<asrwt>0</asrwt>
<pdfrwt beam="1">  1       21 0.15188181E-01 0.43611805E+03</pdfrwt>
<pdfrwt beam="2">  1       21 0.74099561E-01 0.43611805E+03</pdfrwt>
<totfact> 0.57921029E+04</totfact>
</mgrwt>
</event>
<event>
 8    1  0.4760912E-006  0.2976542E+03  0.7546771E-02  0.1086419E+00
         21   -1    0    0  504  503  0.00000000000E+00  0.00000000000E+00  0.24127148868E+03  0.24127148868E+03  0.00000000000E+00 0.  1.
         21   -1    0    0  503  504 -0.00000000000E+00 -0.00000000000E+00 -0.91803245345E+02  0.91803245345E+02  0.00000000000E+00 0.  1.
         25    2    1    2    0    0 -0.26218150379E+01  0.34117680635E+02 -0.71666690624E+01  0.12978371608E+03  0.12498624631E+03 0.  0.
         25    2    1    2    0    0  0.26218150379E+01 -0.34117680635E+02  0.15663491240E+03  0.20329101795E+03  0.12498740797E+03 0.  0.
          5    1    3    3  501    0  0.11928348644E+02  0.62639446223E+02  0.37880684865E+02  0.74317037147E+02  0.47000000000E+01 0.  1.
         -5    1    3    3    0  501 -0.14550163682E+02 -0.28521765588E+02 -0.45047353928E+02  0.55466678928E+02  0.47000000000E+01 0.  1.
          5    1    4    4  502    0 -0.19746657874E+02 -0.37513501681E+02 -0.22712653893E+01  0.42713486769E+02  0.47000000000E+01 0. -1.
         -5    1    4    4    0  502  0.22368472912E+02  0.33958210457E+01  0.15890617779E+03  0.16057753118E+03  0.47000000000E+01 0. -1.
<mgrwt>
<rscale>  0 0.29765420E+03</rscale>
<asrwt>0</asrwt>
<pdfrwt beam="1">  1       21 0.37118690E-01 0.29765420E+03</pdfrwt>
<pdfrwt beam="2">  1       21 0.14123576E-01 0.29765420E+03</pdfrwt>
<totfact> 0.29893961E+05</totfact>
</mgrwt>
</event>
<event>
 8    1  0.4760912E-006  0.2822784E+03  0.7546771E-02  0.1094451E+00
         21   -1    0    0  504  503  0.00000000000E+00  0.00000000000E+00  0.12154751920E+02  0.12154751920E+02  0.00000000000E+00 0.  1.
         21   -1    0    0  503  504 -0.00000000000E+00 -0.00000000000E+00 -0.16388880096E+04  0.16388880096E+04  0.00000000000E+00 0.  1.
         25    2    1    2    0    0 -0.12841899910E+02  0.60420078585E+02 -0.68513169887E+03  0.69917549834E+03  0.12500172955E+03 0.  0.
         25    2    1    2    0    0  0.12841899910E+02 -0.60420078585E+02 -0.94160155885E+03  0.95186726322E+03  0.12498916302E+03 0.  0.
          5    1    3    3  501    0  0.37498572799E+02  0.74832245490E+02 -0.34713900075E+03  0.35711844501E+03  0.47000000000E+01 0. -1.
         -5    1    3    3    0  501 -0.50340472709E+02 -0.14412166905E+02 -0.33799269812E+03  0.34205705333E+03  0.47000000000E+01 0. -1.
          5    1    4    4  502    0 -0.40541867858E+02 -0.56492575119E+01 -0.12364641599E+03  0.13033066925E+03  0.47000000000E+01 0.  1.
         -5    1    4    4    0  502  0.53383767768E+02 -0.54770821073E+02 -0.81795514286E+03  0.82153659397E+03  0.47000000000E+01 0.  1.
<mgrwt>
<rscale>  0 0.28227842E+03</rscale>
<asrwt>0</asrwt>
<pdfrwt beam="1">  1       21 0.18699627E-02 0.28227842E+03</pdfrwt>
<pdfrwt beam="2">  1       21 0.25213650E+00 0.28227842E+03</pdfrwt>
<totfact> 0.83977747E+04</totfact>
</mgrwt>
</event>
<event>
 8    1  0.4760912E-006  0.3249279E+03  0.7546771E-02  0.1073403E+00
         21   -1    0    0  504  503  0.00000000000E+00  0.00000000000E+00  0.18567031896E+03  0.18567031896E+03  0.00000000000E+00 0.  1.
         21   -1    0    0  503  504 -0.00000000000E+00 -0.00000000000E+00 -0.14215806116E+03  0.14215806116E+03  0.00000000000E+00 0.  1.
         25    2    1    2    0    0 -0.57307281897E+02  0.14656883044E+02  0.10778549013E+03  0.17533460302E+03  0.12500224939E+03 0.  0.
         25    2    1    2    0    0  0.57307281897E+02 -0.14656883044E+02 -0.64273232330E+02  0.15249377711E+03  0.12499741951E+03 0.  0.
          5    1    3    3  501    0 -0.97064802074E+02  0.91782330456E+01  0.71129332661E+02  0.12077784453E+03  0.47000000000E+01 0.  1.
         -5    1    3    3    0  501  0.39757520177E+02  0.54786499980E+01  0.36656157470E+02  0.54556758490E+02  0.47000000000E+01 0.  1.
          5    1    4    4  502    0  0.29539191098E+02  0.27694072325E+02  0.26375400002E+02  0.48551798916E+02  0.47000000000E+01 0. -1.
         -5    1    4    4    0  502  0.27768090798E+02 -0.42350955369E+02 -0.90648632331E+02  0.10394197819E+03  0.47000000000E+01 0. -1.
<mgrwt>
<rscale>  0 0.32492788E+03</rscale>
<asrwt>0</asrwt>
<pdfrwt beam="1">  1       21 0.28564665E-01 0.32492788E+03</pdfrwt>
<pdfrwt beam="2">  1       21 0.21870471E-01 0.32492788E+03</pdfrwt>
<totfact> 0.22140219E+05</totfact>
</mgrwt>
</event>
<event>
 8    1  0.4760912E-006  0.3720144E+03  0.7546771E-02  0.1053925E+00
         21   -1    0    0  504  503  0.00000000000E+00  0.00000000000E+00  0.16644065937E+04  0.16644065937E+04  0.00000000000E+00 0. -1.
         21   -1    0    0  503  504 -0.00000000000E+00 -0.00000000000E+00 -0.20787394226E+02  0.20787394226E+02  0.00000000000E+00 0. -1.
         25    2    1    2    0    0 -0.71716574022E+01  0.13272864594E+03  0.98572504623E+03  0.10024673372E+04  0.12497427418E+03 0.  0.
         25    2    1    2    0    0  0.71716574022E+01 -0.13272864594E+03  0.65789415328E+03  0.68272665079E+03  0.12499054627E+03 0.  0.
          5    1    3    3  501    0 -0.22989048623E+02  0.31808655306E+02  0.65736883557E+03  0.65855611977E+03  0.47000000000E+01 0.  1.
         -5    1    3    3    0  501  0.15817391220E+02  0.10091999064E+03  0.32835621066E+03  0.34391121740E+03  0.47000000000E+01 0.  1.
          5    1    4    4  502    0 -0.40744409398E+02 -0.88447841828E+02  0.53192907688E+03  0.54078994115E+03  0.47000000000E+01 0.  1.
         -5    1    4    4    0  502  0.47916066800E+02 -0.44280804113E+02  0.12596507640E+03  0.14193670964E+03  0.47000000000E+01 0.  1.
<mgrwt>
<rscale>  0 0.37201439E+03</rscale>
<asrwt>0</asrwt>
<pdfrwt beam="1">  1       21 0.25606245E+00 0.37201439E+03</pdfrwt>
<pdfrwt beam="2">  1       21 0.31980620E-02 0.37201439E+03</pdfrwt>
<totfact> 0.31321495E+04</totfact>
</mgrwt>
</event>
<event>
 8    1  0.4760912E-006  0.2674686E+03  0.7546771E-02  0.1102737E+00
         21   -1    0    0  504  503  0.00000000000E+00  0.00000000000E+00  0.12259867395E+03  0.12259867395E+03  0.00000000000E+00 0.  1.
         21   -1    0    0  503  504 -0.00000000000E+00 -0.00000000000E+00 -0.14588139067E+03  0.14588139067E+03  0.00000000000E+00 0.  1.
         25    2    1    2    0    0  0.10395027174E+02 -0.36253306811E+02 -0.40686441985E+02  0.13675893283E+03  0.12500104121E+03 0.  0.
         25    2    1    2    0    0 -0.10395027174E+02  0.36253306811E+02  0.17403725271E+02  0.13172113179E+03  0.12500083224E+03 0.  0.
          5    1    3    3  501    0 -0.16536018298E+02 -0.43382028559E+02  0.33454677637E+02  0.57417294945E+02  0.47000000000E+01 0.  1.
         -5    1    3    3    0  501  0.26931045472E+02  0.71287217471E+01 -0.74141119622E+02  0.79341637888E+02  0.47000000000E+01 0.  1.
          5    1    4    4  502    0 -0.22158493604E+02  0.70244607906E+02 -0.23110658005E+02  0.77340133774E+02  0.47000000000E+01 0.  1.
         -5    1    4    4    0  502  0.11763466430E+02 -0.33991301095E+02  0.40514383276E+02  0.54380998012E+02  0.47000000000E+01 0.  1.
<mgrwt>
<rscale>  0 0.26746862E+03</rscale>
<asrwt>0</asrwt>
<pdfrwt beam="1">  1       21 0.18861334E-01 0.26746862E+03</pdfrwt>
<pdfrwt beam="2">  1       21 0.22443291E-01 0.26746862E+03</pdfrwt>
<totfact> 0.47166813E+05</totfact>
</mgrwt>
</event>
<event>
 8    1  0.4760912E-006  0.2642675E+03  0.7546771E-02  0.1104606E+00
         21   -1    0    0  504  503  0.00000000000E+00  0.00000000000E+00  0.11421716548E+04  0.11421716548E+04  0.00000000000E+00 0.  1.
         21   -1    0    0  503  504 -0.00000000000E+00 -0.00000000000E+00 -0.15286076145E+02  0.15286076145E+02  0.00000000000E+00 0.  1.
         25    2    1    2    0    0  0.12030477233E+02  0.28207206556E+02  0.69436976235E+03  0.70619731067E+03  0.12499958343E+03 0.  0.
         25    2    1    2    0    0 -0.12030477233E+02 -0.28207206556E+02  0.43251581629E+03  0.45126042025E+03  0.12500262662E+03 0.  0.
          5    1    3    3  501    0 -0.51897169296E+02  0.35568750643E+02  0.38927906354E+03  0.39435863312E+03  0.47000000000E+01 0.  1.
         -5    1    3    3    0  501  0.63927646529E+02 -0.73615440865E+01  0.30509069881E+03  0.31183867756E+03  0.47000000000E+01 0.  1.
          5    1    4    4  502    0 -0.43255103411E+02 -0.64258839635E+02  0.31340010330E+03  0.32286516875E+03  0.47000000000E+01 0. -1.
         -5    1    4    4    0  502  0.31224626179E+02  0.36051633079E+02  0.11911571299E+03  0.12839525150E+03  0.47000000000E+01 0. -1.
<mgrwt>
<rscale>  0 0.26426746E+03</rscale>
<asrwt>0</asrwt>
<pdfrwt beam="1">  1       21 0.17571865E+00 0.26426746E+03</pdfrwt>
<pdfrwt beam="2">  1       21 0.23517049E-02 0.26426746E+03</pdfrwt>
<totfact> 0.17847619E+05</totfact>
</mgrwt>
</event>
<event>
 8    1  0.4760912E-006  0.2611460E+03  0.7546771E-02  0.1106457E+00
         21   -1    0    0  504  503  0.00000000000E+00  0.00000000000E+00  0.61041622338E+01  0.61041622338E+01  0.00000000000E+00 0. -1.
         21   -1    0    0  503  504 -0.00000000000E+00 -0.00000000000E+00 -0.27930635603E+04  0.27930635603E+04  0.00000000000E+00 0. -1.
         25    2    1    2    0    0  0.13984331764E+02 -0.35052520786E+02 -0.13874692539E+04  0.13935995341E+04  0.12499796090E+03 0.  0.
         25    2    1    2    0    0 -0.13984331764E+02  0.35052520786E+02 -0.13994901442E+04  0.14055681885E+04  0.12500011167E+03 0.  0.
          5    1    3    3  501    0 -0.44144513051E+02 -0.35085930994E+02 -0.10165497412E+04  0.10181233849E+04  0.47000000000E+01 0.  1.
         -5    1    3    3    0  501  0.58128844815E+02  0.33410207983E-01 -0.37091951269E+03  0.37547614919E+03  0.47000000000E+01 0.  1.
          5    1    4    4  502    0 -0.23386973169E+02 -0.41723731739E+02 -0.36007850269E+03  0.36327185193E+03  0.47000000000E+01 0.  1.
         -5    1    4    4    0  502  0.94026414048E+01  0.76776252524E+02 -0.10394116415E+04  0.10422963366E+04  0.47000000000E+01 0.  1.
<mgrwt>
<rscale>  0 0.26114604E+03</rscale>
<asrwt>0</asrwt>
<pdfrwt beam="1">  1       21 0.93909920E-03 0.26114604E+03</pdfrwt>
<pdfrwt beam="2">  1       21 0.42970331E+00 0.26114604E+03</pdfrwt>
<totfact> 0.21778086E+04</totfact>
</mgrwt>
</event>
<event>
 8    1  0.4760912E-006  0.2908837E+03  0.7546771E-02  0.1089889E+00
         21   -1    0    0  504  503  0.00000000000E+00  0.00000000000E+00  0.10054166489E+03  0.10054166489E+03  0.00000000000E+00 0.  1.
         21   -1    0    0  503  504 -0.00000000000E+00 -0.00000000000E+00 -0.21039366771E+03  0.21039366771E+03  0.00000000000E+00 0.  1.
         25    2    1    2    0    0 -0.38548331148E+02  0.46838898743E+02 -0.89508516243E+01  0.13922987534E+03  0.12499993669E+03 0.  0.
         25    2    1    2    0    0  0.38548331148E+02 -0.46838898743E+02 -0.10090115119E+03  0.17170545726E+03  0.12498746125E+03 0.  0.
          5    1    3    3  501    0  0.35055355724E+02  0.23658681693E+02  0.30578310874E+02  0.52399754582E+02  0.47000000000E+01 0. -1.
         -5    1    3    3    0  501 -0.73603686872E+02  0.23180217050E+02 -0.39529162498E+02  0.86830120761E+02  0.47000000000E+01 0. -1.
          5    1    4    4  502    0 -0.25435824771E+02 -0.46541179438E+02 -0.13397939915E+01  0.53263004170E+02  0.47000000000E+01 0. -1.
         -5    1    4    4    0  502  0.63984155919E+02 -0.29771930408E+00 -0.99561357199E+02  0.11844245309E+03  0.47000000000E+01 0. -1.
<mgrwt>
<rscale>  0 0.29088369E+03</rscale>
<asrwt>0</asrwt>
<pdfrwt beam="1">  1       21 0.15467949E-01 0.29088369E+03</pdfrwt>
<pdfrwt beam="2">  1       21 0.32368256E-01 0.29088369E+03</pdfrwt>
<totfact> 0.33322761E+05</totfact>
</mgrwt>
</event>
<event>
 8    1  0.4760912E-006  0.2922336E+03  0.7546771E-02  0.1089189E+00
         21   -1    0    0  504  503  0.00000000000E+00  0.00000000000E+00  0.13623150701E+03  0.13623150701E+03  0.00000000000E+00 0. -1.
         21   -1    0    0  503  504 -0.00000000000E+00 -0.00000000000E+00 -0.15671939508E+03  0.15671939508E+03  0.00000000000E+00 0. -1.
         25    2    1    2    0    0  0.55959241925E+02 -0.12778026121E+00 -0.61318709941E+02  0.15005565131E+03  0.12500104486E+03 0.  0.
         25    2    1    2    0    0 -0.55959241925E+02  0.12778026121E+00  0.40830821874E+02  0.14289525079E+03  0.12498177307E+03 0.  0.
          5    1    3    3  501    0  0.72725374372E+02 -0.45200965792E+02 -0.24144084391E+02  0.89090595447E+02  0.47000000000E+01 0. -1.
         -5    1    3    3    0  501 -0.16766132447E+02  0.45073185530E+02 -0.37174625550E+02  0.60965055859E+02  0.47000000000E+01 0. -1.
          5    1    4    4  502    0  0.86254227875E+01  0.19271932911E+02  0.67053651980E+02  0.70456281198E+02  0.47000000000E+01 0.  1.
         -5    1    4    4    0  502 -0.64584664713E+02 -0.19144152649E+02 -0.26222830106E+02  0.72438969592E+02  0.47000000000E+01 0.  1.
<mgrwt>
<rscale>  0 0.29223360E+03</rscale>
<asrwt>0</asrwt>
<pdfrwt beam="1">  1       21 0.20958693E-01 0.29223360E+03</pdfrwt>
<pdfrwt beam="2">  1       21 0.24110676E-01 0.29223360E+03</pdfrwt>
<totfact> 0.33570097E+05</totfact>
</mgrwt>
</event>
<event>
 8    1  0.4760912E-006  0.3505615E+03  0.7546771E-02  0.1062385E+00
         21   -1    0    0  504  503  0.00000000000E+00  0.00000000000E+00  0.28923587786E+03  0.28923587786E+03  0.00000000000E+00 0.  1.
         21   -1    0    0  503  504 -0.00000000000E+00 -0.00000000000E+00 -0.10622245085E+03  0.10622245085E+03  0.00000000000E+00 0.  1.
         25    2    1    2    0    0  0.91384191892E+02 -0.27589641775E+02  0.17883041953E+03  0.23813223677E+03  0.12495753030E+03 0.  0.
         25    2    1    2    0    0 -0.91384191892E+02  0.27589641775E+02  0.41830074743E+01  0.15732609194E+03  0.12498697049E+03 0.  0.
          5    1    3    3  501    0 -0.29024663973E+02  0.99371418123E+01  0.34845283316E+02  0.46663279734E+02  0.47000000000E+01 0. -1.
         -5    1    3    3    0  501  0.12040885586E+03 -0.37526783587E+02  0.14398513622E+03  0.19146895704E+03  0.47000000000E+01 0. -1.
          5    1    4    4  502    0 -0.49007518458E+01 -0.42439805685E+02  0.14762838523E+02  0.45444316217E+02  0.47000000000E+01 0. -1.
         -5    1    4    4    0  502 -0.86483440046E+02  0.70029447460E+02 -0.10579831048E+02  0.11188177572E+03  0.47000000000E+01 0. -1.
<mgrwt>
<rscale>  0 0.35056151E+03</rscale>
<asrwt>0</asrwt>
<pdfrwt beam="1">  1       21 0.44497827E-01 0.35056151E+03</pdfrwt>
<pdfrwt beam="2">  1       21 0.16341916E-01 0.35056151E+03</pdfrwt>
<totfact> 0.15582928E+05</totfact>
</mgrwt>
</event>
<event>
 8    1  0.4760912E-006  0.2905231E+03  0.7546771E-02  0.1090076E+00
         21   -1    0    0  504  503  0.00000000000E+00  0.00000000000E+00  0.71089379159E+02  0.71089379159E+02  0.00000000000E+00 0. -1.
         21   -1    0    0  503  504 -0.00000000000E+00 -0.00000000000E+00 -0.29682245912E+03  0.29682245912E+03  0.00000000000E+00 0. -1.
         25    2    1    2    0    0  0.19624946308E+02  0.70715988731E+02 -0.12487716029E+03  0.19132419040E+03  0.12499900436E+03 0.  0.
         25    2    1    2    0    0 -0.19624946308E+02 -0.70715988731E+02 -0.10085591967E+03  0.17658764788E+03  0.12500156507E+03 0.  0.
          5    1    3    3  501    0 -0.39084186381E+02  0.57746700699E+02 -0.24187469089E+02  0.73955248141E+02  0.47000000000E+01 0. -1.
         -5    1    3    3    0  501  0.58709132689E+02  0.12969288032E+02 -0.10068969120E+03  0.11736894226E+03  0.47000000000E+01 0. -1.
          5    1    4    4  502    0 -0.62142002971E+02 -0.99183144028E+01 -0.18753781128E+02  0.65831571456E+02  0.47000000000E+01 0.  1.
         -5    1    4    4    0  502  0.42517056662E+02 -0.60797674328E+02 -0.82102138544E+02  0.11075607642E+03  0.47000000000E+01 0.  1.
<mgrwt>
<rscale>  0 0.29052314E+03</rscale>
<asrwt>0</asrwt>
<pdfrwt beam="1">  1       21 0.10936828E-01 0.29052314E+03</pdfrwt>
<pdfrwt beam="2">  1       21 0.45664994E-01 0.29052314E+03</pdfrwt>
<totfact> 0.31114104E+05</totfact>
</mgrwt>
</event>
<event>
 8    1  0.4760912E-006  0.3265641E+03  0.7546771E-02  0.1072667E+00
         21   -1    0    0  504  503  0.00000000000E+00  0.00000000000E+00  0.11103356411E+03  0.11103356411E+03  0.00000000000E+00 0.  1.
         21   -1    0    0  503  504 -0.00000000000E+00 -0.00000000000E+00 -0.24011683801E+03  0.24011683801E+03  0.00000000000E+00 0.  1.
         25    2    1    2    0    0 -0.36295628007E+02 -0.33633958304E+02 -0.16418432530E+03  0.21220246603E+03  0.12499911259E+03 0.  0.
         25    2    1    2    0    0  0.36295628007E+02  0.33633958304E+02  0.35101051404E+02  0.13894793609E+03  0.12500331744E+03 0.  0.
          5    1    3    3  501    0 -0.25411475147E+02 -0.71998152417E+02 -0.50567236090E+02  0.91698486282E+02  0.47000000000E+01 0.  1.
         -5    1    3    3    0  501 -0.10884152860E+02  0.38364194113E+02 -0.11361708921E+03  0.12050397975E+03  0.47000000000E+01 0.  1.
          5    1    4    4  502    0  0.28112257934E+02  0.78335343973E+02  0.40974020452E+02  0.92885335298E+02  0.47000000000E+01 0. -1.
         -5    1    4    4    0  502  0.81833700727E+01 -0.44701385669E+02 -0.58729690479E+01  0.46062600794E+02  0.47000000000E+01 0. -1.
<mgrwt>
<rscale>  0 0.32656410E+03</rscale>
<asrwt>0</asrwt>
<pdfrwt beam="1">  1       21 0.17082087E-01 0.32656410E+03</pdfrwt>
<pdfrwt beam="2">  1       21 0.36941052E-01 0.32656410E+03</pdfrwt>
<totfact> 0.21125395E+05</totfact>
</mgrwt>
</event>
<event>
 8    1  0.4760912E-006  0.3303847E+03  0.7546771E-02  0.1070967E+00
         21   -1    0    0  504  503  0.00000000000E+00  0.00000000000E+00  0.11846841002E+04  0.11846841002E+04  0.00000000000E+00 0.  1.
         21   -1    0    0  503  504 -0.00000000000E+00 -0.00000000000E+00 -0.23034418381E+02  0.23034418381E+02  0.00000000000E+00 0.  1.
         25    2    1    2    0    0  0.45483394244E+02  0.65739964785E+02  0.31538686472E+03  0.34854585661E+03  0.12499943042E+03 0.  0.
         25    2    1    2    0    0 -0.45483394244E+02 -0.65739964785E+02  0.84626281709E+03  0.85917266196E+03  0.12500570123E+03 0.  0.
          5    1    3    3  501    0  0.81903724033E+02  0.56292983986E+02  0.27811629550E+03  0.29537752772E+03  0.47000000000E+01 0.  1.
         -5    1    3    3    0  501 -0.36420329789E+02  0.94469807989E+01  0.37270569216E+02  0.53168328898E+02  0.47000000000E+01 0.  1.
          5    1    4    4  502    0  0.31529430520E+02 -0.50911907931E+02  0.52575752527E+03  0.52917784604E+03  0.47000000000E+01 0. -1.
         -5    1    4    4    0  502 -0.77012824764E+02 -0.14828056854E+02  0.32050529182E+03  0.32999481592E+03  0.47000000000E+01 0. -1.
<mgrwt>
<rscale>  0 0.33038468E+03</rscale>
<asrwt>0</asrwt>
<pdfrwt beam="1">  1       21 0.18225905E+00 0.33038468E+03</pdfrwt>
<pdfrwt beam="2">  1       21 0.35437576E-02 0.33038468E+03</pdfrwt>
<totfact> 0.79234260E+04</totfact>
</mgrwt>
</event>
<event>
 8    1  0.4760912E-006  0.2559857E+03  0.7546771E-02  0.1109579E+00
         21   -1    0    0  504  503  0.00000000000E+00  0.00000000000E+00  0.37059855935E+03  0.37059855935E+03  0.00000000000E+00 0. -1.
         21   -1    0    0  503  504 -0.00000000000E+00 -0.00000000000E+00 -0.44204609594E+02  0.44204609594E+02  0.00000000000E+00 0. -1.
         25    2    1    2    0    0 -0.16210044730E+02 -0.89279892097E+01  0.19619118182E+03  0.23336519458E+03  0.12500343866E+03 0.  0.
         25    2    1    2    0    0  0.16210044730E+02  0.89279892097E+01  0.13020276794E+03  0.18143797436E+03  0.12499801287E+03 0.  0.
          5    1    3    3  501    0 -0.52996471911E+02 -0.43138660507E+02  0.15025748815E+03  0.16513319718E+03  0.47000000000E+01 0.  1.
         -5    1    3    3    0  501  0.36786427181E+02  0.34210671298E+02  0.45933693667E+02  0.68231997401E+02  0.47000000000E+01 0.  1.
          5    1    4    4  502    0  0.14575920817E+02 -0.22526099340E+02 -0.16145756813E+02  0.31664776680E+02  0.47000000000E+01 0.  1.
         -5    1    4    4    0  502  0.16341239129E+01  0.31454088549E+02  0.14634852475E+03  0.14977319768E+03  0.47000000000E+01 0.  1.
<mgrwt>
<rscale>  0 0.25598566E+03</rscale>
<asrwt>0</asrwt>
<pdfrwt beam="1">  1       21 0.57015161E-01 0.25598566E+03</pdfrwt>
<pdfrwt beam="2">  1       21 0.68007094E-02 0.25598566E+03</pdfrwt>
<totfact> 0.45326136E+05</totfact>
</mgrwt>
</event>
<event>
 8    1  0.4760912E-006  0.2645979E+03  0.7546771E-02  0.1104412E+00
         21   -1    0    0  504  503  0.00000000000E+00  0.00000000000E+00  0.15222129925E+03  0.15222129925E+03  0.00000000000E+00 0.  1.
         21   -1    0    0  503  504 -0.00000000000E+00 -0.00000000000E+00 -0.11498398660E+03  0.11498398660E+03  0.00000000000E+00 0.  1.
         25    2    1    2    0    0  0.30012957240E+02 -0.31199191737E+02  0.16347876114E+02  0.13328133318E+03  0.12498997381E+03 0.  0.
         25    2    1    2    0    0 -0.30012957240E+02  0.31199191737E+02  0.20889436529E+02  0.13392395267E+03  0.12500035750E+03 0.  0.
          5    1    3    3  501    0  0.21612666017E+02 -0.92751426011E+01  0.70287102615E+02  0.74266428463E+02  0.47000000000E+01 0. -1.
         -5    1    3    3    0  501  0.84002912232E+01 -0.21924049136E+02 -0.53939226500E+02  0.59014904716E+02  0.47000000000E+01 0. -1.
          5    1    4    4  502    0 -0.20962138794E+02 -0.37182458903E+02 -0.26171585172E+02  0.50289048343E+02  0.47000000000E+01 0.  1.
         -5    1    4    4    0  502 -0.90508184465E+01  0.68381650640E+02  0.47061021702E+02  0.83634904331E+02  0.47000000000E+01 0.  1.
<mgrwt>
<rscale>  0 0.26459790E+03</rscale>
<asrwt>0</asrwt>
<pdfrwt beam="1">  1       21 0.23418661E-01 0.26459790E+03</pdfrwt>
<pdfrwt beam="2">  1       21 0.17689844E-01 0.26459790E+03</pdfrwt>
<totfact> 0.49041763E+05</totfact>
</mgrwt>
</event>
<event>
 8    1  0.4760912E-006  0.2798532E+03  0.7546771E-02  0.1095769E+00
         21   -1    0    0  504  503  0.00000000000E+00  0.00000000000E+00  0.51366000605E+02  0.51366000605E+02  0.00000000000E+00 0. -1.
         21   -1    0    0  503  504 -0.00000000000E+00 -0.00000000000E+00 -0.38117542963E+03  0.38117542963E+03  0.00000000000E+00 0. -1.
         25    2    1    2    0    0 -0.23013168792E+02 -0.38812485801E+02 -0.97186447471E+02  0.16463570214E+03  0.12499477531E+03 0.  0.
         25    2    1    2    0    0  0.23013168792E+02  0.38812485801E+02 -0.23262298155E+03  0.26790572809E+03  0.12499605037E+03 0.  0.
          5    1    3    3  501    0 -0.70926240567E+02 -0.22329969894E+02 -0.29919627161E+02  0.80289683309E+02  0.47000000000E+01 0. -1.
         -5    1    3    3    0  501  0.47913071775E+02 -0.16482515907E+02 -0.67266820310E+02  0.84346018828E+02  0.47000000000E+01 0. -1.
          5    1    4    4  502    0 -0.32109200713E+01  0.62538326512E+02 -0.45844153125E+02  0.77750425506E+02  0.47000000000E+01 0. -1.
         -5    1    4    4    0  502  0.26224088864E+02 -0.23725840711E+02 -0.18677882843E+03  0.19015530259E+03  0.47000000000E+01 0. -1.
<mgrwt>
<rscale>  0 0.27985323E+03</rscale>
<asrwt>0</asrwt>
<pdfrwt beam="1">  1       21 0.79024617E-02 0.27985323E+03</pdfrwt>
<pdfrwt beam="2">  1       21 0.58642373E-01 0.27985323E+03</pdfrwt>
<totfact> 0.32675722E+05</totfact>
</mgrwt>
</event>
<event>
 8    1  0.4760912E-006  0.3400869E+03  0.7546771E-02  0.1066759E+00
         21   -1    0    0  504  503  0.00000000000E+00  0.00000000000E+00  0.56439203595E+02  0.56439203595E+02  0.00000000000E+00 0.  1.
         21   -1    0    0  503  504 -0.00000000000E+00 -0.00000000000E+00 -0.51231722099E+03  0.51231722099E+03  0.00000000000E+00 0.  1.
         25    2    1    2    0    0  0.25914315366E+01 -0.57754598788E+02 -0.39474275078E+03  0.41808072313E+03  0.12500936988E+03 0.  0.
         25    2    1    2    0    0 -0.25914315366E+01  0.57754598788E+02 -0.61135266618E+02  0.15067570146E+03  0.12499334777E+03 0.  0.
          5    1    3    3  501    0  0.52403981889E+02  0.93233454051E+01 -0.13499049549E+03  0.14518135541E+03  0.47000000000E+01 0. -1.
         -5    1    3    3    0  501 -0.49812550353E+02 -0.67077944193E+02 -0.25975225529E+03  0.27289936772E+03  0.47000000000E+01 0. -1.
          5    1    4    4  502    0  0.52876496966E+02  0.19516505199E+02  0.41934649446E+01  0.56714134524E+02  0.47000000000E+01 0.  1.
         -5    1    4    4    0  502 -0.55467928503E+02  0.38238093589E+02 -0.65328731562E+02  0.93961566937E+02  0.47000000000E+01 0.  1.
<mgrwt>
<rscale>  0 0.34008691E+03</rscale>
<asrwt>0</asrwt>
<pdfrwt beam="1">  1       21 0.86829545E-02 0.34008691E+03</pdfrwt>
<pdfrwt beam="2">  1       21 0.78818033E-01 0.34008691E+03</pdfrwt>
<totfact> 0.14162386E+05</totfact>
</mgrwt>
</event>
<event>
 8    1  0.4760912E-006  0.3349569E+03  0.7546771E-02  0.1068964E+00
         21   -1    0    0  504  503  0.00000000000E+00  0.00000000000E+00  0.64091419649E+02  0.64091419649E+02  0.00000000000E+00 0. -1.
         21   -1    0    0  503  504 -0.00000000000E+00 -0.00000000000E+00 -0.43764091053E+03  0.43764091053E+03  0.00000000000E+00 0. -1.
         25    2    1    2    0    0 -0.10768354863E+03 -0.28177437251E+02 -0.17802243623E+03  0.24434872977E+03  0.12499839728E+03 0.  0.
         25    2    1    2    0    0  0.10768354863E+03  0.28177437251E+02 -0.19552705466E+03  0.25738360041E+03  0.12500309614E+03 0.  0.
          5    1    3    3  501    0 -0.13431921499E+03 -0.21934773411E+02 -0.12672124230E+03  0.18601921689E+03  0.47000000000E+01 0. -1.
         -5    1    3    3    0  501  0.26635666365E+02 -0.62426638395E+01 -0.51301193929E+02  0.58329512882E+02  0.47000000000E+01 0. -1.
          5    1    4    4  502    0  0.15056738649E+02  0.20425257493E+02 -0.15281948837E+03  0.15498316860E+03  0.47000000000E+01 0. -1.
         -5    1    4    4    0  502  0.92626809980E+02  0.77521797576E+01 -0.42707566283E+02  0.10240043181E+03  0.47000000000E+01 0. -1.
<mgrwt>
<rscale>  0 0.33495688E+03</rscale>
<asrwt>0</asrwt>
<pdfrwt beam="1">  1       21 0.98602186E-02 0.33495688E+03</pdfrwt>
<pdfrwt beam="2">  1       21 0.67329370E-01 0.33495688E+03</pdfrwt>
<totfact> 0.16127794E+05</totfact>
</mgrwt>
</event>
<event>
 8    1  0.4760912E-006  0.5111669E+03  0.7546771E-02  0.1010905E+00
         21   -1    0    0  504  503  0.00000000000E+00  0.00000000000E+00  0.20513490602E+03  0.20513490602E+03  0.00000000000E+00 0.  1.
         21   -1    0    0  503  504 -0.00000000000E+00 -0.00000000000E+00 -0.31843879367E+03  0.31843879367E+03  0.00000000000E+00 0.  1.
         25    2    1    2    0    0  0.21541579728E+03  0.57385568152E+02 -0.56997221572E+02  0.26186184144E+03  0.12500348629E+03 0.  0.
         25    2    1    2    0    0 -0.21541579728E+03 -0.57385568152E+02 -0.56306666072E+02  0.26171185825E+03  0.12500234780E+03 0.  0.
          5    1    3    3  501    0  0.35767282086E+02  0.46657977370E+02 -0.56728128225E+02  0.81831753324E+02  0.47000000000E+01 0.  1.
         -5    1    3    3    0  501  0.17964851519E+03  0.10727590781E+02 -0.26909334684E+00  0.18003008811E+03  0.47000000000E+01 0.  1.
          5    1    4    4  502    0 -0.13297383405E+03 -0.75014664685E+02 -0.82114843350E+02  0.17341908187E+03  0.47000000000E+01 0.  1.
         -5    1    4    4    0  502 -0.82441963231E+02  0.17629096533E+02  0.25808177278E+02  0.88292776377E+02  0.47000000000E+01 0.  1.
<mgrwt>
<rscale>  0 0.51116695E+03</rscale>
<asrwt>0</asrwt>
<pdfrwt beam="1">  1       21 0.31559216E-01 0.51116695E+03</pdfrwt>
<pdfrwt beam="2">  1       21 0.48990584E-01 0.51116695E+03</pdfrwt>
<totfact> 0.34631858E+04</totfact>
</mgrwt>
</event>
<event>
 8    1  0.4760912E-006  0.4119315E+03  0.7546771E-02  0.1039725E+00
         21   -1    0    0  504  503  0.00000000000E+00  0.00000000000E+00  0.39086120465E+03  0.39086120465E+03  0.00000000000E+00 0. -1.
         21   -1    0    0  503  504 -0.00000000000E+00 -0.00000000000E+00 -0.10853440371E+03  0.10853440371E+03  0.00000000000E+00 0. -1.
         25    2    1    2    0    0  0.92362279302E+02 -0.10123634571E+03  0.24971332602E+03  0.31106603611E+03  0.12500298117E+03 0.  0.
         25    2    1    2    0    0 -0.92362279302E+02  0.10123634571E+03  0.32613474923E+02  0.18832957225E+03  0.12499920283E+03 0.  0.
          5    1    3    3  501    0  0.68866877583E+02 -0.12169393600E+03  0.14406741910E+03  0.20082224014E+03  0.47000000000E+01 0.  1.
         -5    1    3    3    0  501  0.23495401719E+02  0.20457590294E+02  0.10564590691E+03  0.11024379597E+03  0.47000000000E+01 0.  1.
          5    1    4    4  502    0 -0.13956311531E+02  0.10136431181E+03 -0.21092313960E+01  0.10245018886E+03  0.47000000000E+01 0.  1.
         -5    1    4    4    0  502 -0.78405967772E+02 -0.12796610295E+00  0.34722706319E+02  0.85879383391E+02  0.47000000000E+01 0.  1.
<mgrwt>
<rscale>  0 0.41193149E+03</rscale>
<asrwt>0</asrwt>
<pdfrwt beam="1">  1       21 0.60132492E-01 0.41193149E+03</pdfrwt>
<pdfrwt beam="2">  1       21 0.16697601E-01 0.41193149E+03</pdfrwt>
<totfact> 0.77767780E+04</totfact>
</mgrwt>
</event>
<event>
 8    1  0.4760912E-006  0.2997401E+03  0.7546771E-02  0.1085371E+00
         21   -1    0    0  504  503  0.00000000000E+00  0.00000000000E+00  0.12411773259E+03  0.12411773259E+03  0.00000000000E+00 0.  1.
         21   -1    0    0  503  504 -0.00000000000E+00 -0.00000000000E+00 -0.18096552083E+03  0.18096552083E+03  0.00000000000E+00 0.  1.
         25    2    1    2    0    0  0.65554688797E+02 -0.32638919444E+02 -0.67503413802E+02  0.15982179365E+03  0.12499431413E+03 0.  0.
         25    2    1    2    0    0 -0.65554688797E+02  0.32638919444E+02  0.10655625561E+02  0.14526145976E+03  0.12499853220E+03 0.  0.
          5    1    3    3  501    0  0.49481418071E+02  0.43959190822E+02 -0.33972657388E+02  0.74545641335E+02  0.47000000000E+01 0.  1.
         -5    1    3    3    0  501  0.16073270725E+02 -0.76598110266E+02 -0.33530756413E+02  0.85276152316E+02  0.47000000000E+01 0.  1.
          5    1    4    4  502    0 -0.34380002537E+02 -0.12364168586E+02  0.60658766555E+02  0.70967832145E+02  0.47000000000E+01 0.  1.
         -5    1    4    4    0  502 -0.31174686259E+02  0.45003088030E+02 -0.50003140995E+02  0.74293627620E+02  0.47000000000E+01 0.  1.
<mgrwt>
<rscale>  0 0.29974009E+03</rscale>
<asrwt>0</asrwt>
<pdfrwt beam="1">  1       21 0.19095036E-01 0.29974009E+03</pdfrwt>
<pdfrwt beam="2">  1       21 0.27840849E-01 0.29974009E+03</pdfrwt>
<totfact> 0.30247583E+05</totfact>
</mgrwt>
</event>
<event>
 8    1  0.4760912E-006  0.7321193E+03  0.7546771E-02  0.9663828E-01
         21   -1    0    0  504  503  0.00000000000E+00  0.00000000000E+00  0.52014743231E+03  0.52014743231E+03  0.00000000000E+00 0. -1.
         21   -1    0    0  503  504 -0.00000000000E+00 -0.00000000000E+00 -0.25761864799E+03  0.25761864799E+03  0.00000000000E+00 0. -1.
         25    2    1    2    0    0 -0.28522477237E+03 -0.18939629504E+03  0.95224141315E+02  0.37671654187E+03  0.12499435379E+03 0.  0.
         25    2    1    2    0    0  0.28522477237E+03  0.18939629504E+03  0.16730464301E+03  0.40104953843E+03  0.12500304535E+03 0.  0.
          5    1    3    3  501    0 -0.10433458586E+03 -0.75374615449E+02 -0.25235899147E+02  0.13124777738E+03  0.47000000000E+01 0.  1.
         -5    1    3    3    0  501 -0.18089018651E+03 -0.11402167959E+03  0.12046004046E+03  0.24546876449E+03  0.47000000000E+01 0.  1.
          5    1    4    4  502    0  0.96166029563E+02  0.14123477033E+02  0.72868469162E+01  0.97583635838E+02  0.47000000000E+01 0. -1.
         -5    1    4    4    0  502  0.18905874281E+03  0.17527281801E+03  0.16001779610E+03  0.30346590259E+03  0.47000000000E+01 0. -1.
<mgrwt>
<rscale>  0 0.73211933E+03</rscale>
<asrwt>0</asrwt>
<pdfrwt beam="1">  1       21 0.80022682E-01 0.73211933E+03</pdfrwt>
<pdfrwt beam="2">  1       21 0.39633638E-01 0.73211933E+03</pdfrwt>
<totfact> 0.69931152E+03</totfact>
</mgrwt>
</event>
<event>
 8    1  0.4760912E-006  0.3671400E+03  0.7546771E-02  0.1055792E+00
         21   -1    0    0  504  503  0.00000000000E+00  0.00000000000E+00  0.36109905183E+03  0.36109905183E+03  0.00000000000E+00 0.  1.
         21   -1    0    0  503  504 -0.00000000000E+00 -0.00000000000E+00 -0.93320487320E+02  0.93320487320E+02  0.00000000000E+00 0.  1.
         25    2    1    2    0    0  0.18187573512E+02  0.77999661534E+02  0.26752012607E+03  0.30596218544E+03  0.12502442175E+03 0.  0.
         25    2    1    2    0    0 -0.18187573512E+02 -0.77999661534E+02  0.25843844088E+00  0.14845735372E+03  0.12499913621E+03 0.  0.
          5    1    3    3  501    0  0.23333767200E+02  0.23265925127E+02  0.48675011436E+00  0.33288059262E+02  0.47000000000E+01 0.  1.
         -5    1    3    3    0  501 -0.51461936883E+01  0.54733736408E+02  0.26703337596E+03  0.27267412618E+03  0.47000000000E+01 0.  1.
          5    1    4    4  502    0  0.53607642337E+02 -0.29015706414E+02 -0.43730613335E+01  0.61293590212E+02  0.47000000000E+01 0.  1.
         -5    1    4    4    0  502 -0.71795215849E+02 -0.48983955120E+02  0.46314997744E+01  0.87163763504E+02  0.47000000000E+01 0.  1.
<mgrwt>
<rscale>  0 0.36713997E+03</rscale>
<asrwt>0</asrwt>
<pdfrwt beam="1">  1       21 0.55553700E-01 0.36713997E+03</pdfrwt>
<pdfrwt beam="2">  1       21 0.14356998E-01 0.36713997E+03</pdfrwt>
<totfact> 0.12339385E+05</totfact>
</mgrwt>
</event>
<event>
 8    1  0.4760912E-006  0.2852804E+03  0.7546771E-02  0.1092839E+00
         21   -1    0    0  504  503  0.00000000000E+00  0.00000000000E+00  0.25663586735E+03  0.25663586735E+03  0.00000000000E+00 0. -1.
         21   -1    0    0  503  504 -0.00000000000E+00 -0.00000000000E+00 -0.79280537819E+02  0.79280537819E+02  0.00000000000E+00 0. -1.
         25    2    1    2    0    0 -0.10899755892E+02 -0.28080452275E+02  0.16140106896E+03  0.20635658769E+03  0.12500167896E+03 0.  0.
         25    2    1    2    0    0  0.10899755892E+02  0.28080452275E+02  0.15954260566E+02  0.12955981748E+03  0.12499556551E+03 0.  0.
          5    1    3    3  501    0  0.26464461034E+02  0.26352510118E+02  0.12556980565E+03  0.13109038324E+03  0.47000000000E+01 0. -1.
         -5    1    3    3    0  501 -0.37364216926E+02 -0.54432962393E+02  0.35831263314E+02  0.75266204449E+02  0.47000000000E+01 0. -1.
          5    1    4    4  502    0 -0.52707853817E+02  0.30037939411E+02  0.23658004070E+02  0.65285425744E+02  0.47000000000E+01 0.  1.
         -5    1    4    4    0  502  0.63607609709E+02 -0.19574871354E+01 -0.77037435043E+01  0.64274391734E+02  0.47000000000E+01 0.  1.
<mgrwt>
<rscale>  0 0.28528042E+03</rscale>
<asrwt>0</asrwt>
<pdfrwt beam="1">  1       21 0.39482441E-01 0.28528042E+03</pdfrwt>
<pdfrwt beam="2">  1       21 0.12197006E-01 0.28528042E+03</pdfrwt>
<totfact> 0.34522727E+05</totfact>
</mgrwt>
</event>
<event>
 8    1  0.4760912E-006  0.3180909E+03  0.7546771E-02  0.1076531E+00
         21   -1    0    0  504  503  0.00000000000E+00  0.00000000000E+00  0.39434444819E+03  0.39434444819E+03  0.00000000000E+00 0. -1.
         21   -1    0    0  503  504 -0.00000000000E+00 -0.00000000000E+00 -0.64145566668E+02  0.64145566668E+02  0.00000000000E+00 0. -1.
         25    2    1    2    0    0 -0.21264352653E+02 -0.82432824052E+02  0.23604531282E+03  0.28033956861E+03  0.12500216336E+03 0.  0.
         25    2    1    2    0    0  0.21264352653E+02  0.82432824052E+02  0.94153568696E+02  0.17815044625E+03  0.12500137529E+03 0.  0.
          5    1    3    3  501    0 -0.84136773376E+01  0.32602793950E+02  0.70704056990E+02  0.78453080338E+02  0.47000000000E+01 0. -1.
         -5    1    3    3    0  501 -0.12850675315E+02 -0.11503561800E+03  0.16534125583E+03  0.20188648827E+03  0.47000000000E+01 0. -1.
          5    1    4    4  502    0  0.50657653799E+02  0.26700393332E+02  0.99335112023E+02  0.11475479673E+03  0.47000000000E+01 0. -1.
         -5    1    4    4    0  502 -0.29393301146E+02  0.55732430720E+02 -0.51815433272E+01  0.63395649515E+02  0.47000000000E+01 0. -1.
<mgrwt>
<rscale>  0 0.31809086E+03</rscale>
<asrwt>0</asrwt>
<pdfrwt beam="1">  1       21 0.60668375E-01 0.31809086E+03</pdfrwt>
<pdfrwt beam="2">  1       21 0.98685490E-02 0.31809086E+03</pdfrwt>
<totfact> 0.20324637E+05</totfact>
</mgrwt>
</event>
<event>
 8    1  0.4760912E-006  0.3257044E+03  0.7546771E-02  0.1073054E+00
         21   -1    0    0  504  503  0.00000000000E+00  0.00000000000E+00  0.98470091113E+02  0.98470091113E+02  0.00000000000E+00 0.  1.
         21   -1    0    0  503  504 -0.00000000000E+00 -0.00000000000E+00 -0.26932888586E+03  0.26932888586E+03  0.00000000000E+00 0.  1.
         25    2    1    2    0    0 -0.52707434713E+02  0.41065096664E+01  0.16215555304E+02  0.13668003478E+03  0.12499420218E+03 0.  0.
         25    2    1    2    0    0  0.52707434713E+02 -0.41065096664E+01 -0.18707435005E+03  0.23111894219E+03  0.12499686355E+03 0.  0.
          5    1    3    3  501    0 -0.89176305469E+02  0.13898962827E+02 -0.93191884281E+01  0.90854454473E+02  0.47000000000E+01 0. -1.
         -5    1    3    3    0  501  0.36468870756E+02 -0.97924531604E+01  0.25534743732E+02  0.45825580308E+02  0.47000000000E+01 0. -1.
          5    1    4    4  502    0  0.65057572947E+02  0.38280736728E+02 -0.60089036234E+02  0.96595470276E+02  0.47000000000E+01 0.  1.
         -5    1    4    4    0  502 -0.12350138234E+02 -0.42387246394E+02 -0.12698531382E+03  0.13452347192E+03  0.47000000000E+01 0.  1.
<mgrwt>
<rscale>  0 0.32570441E+03</rscale>
<asrwt>0</asrwt>
<pdfrwt beam="1">  1       21 0.15149245E-01 0.32570441E+03</pdfrwt>
<pdfrwt beam="2">  1       21 0.41435213E-01 0.32570441E+03</pdfrwt>
<totfact> 0.20885898E+05</totfact>
</mgrwt>
</event>
<event>
 8    1  0.4760912E-006  0.3409441E+03  0.7546771E-02  0.1066395E+00
         21   -1    0    0  504  503  0.00000000000E+00  0.00000000000E+00  0.53752367199E+03  0.53752367199E+03  0.00000000000E+00 0.  1.
         21   -1    0    0  503  504 -0.00000000000E+00 -0.00000000000E+00 -0.54064061264E+02  0.54064061264E+02  0.00000000000E+00 0.  1.
         25    2    1    2    0    0  0.55620346514E+02  0.71404162425E+02  0.11607145286E+03  0.19310282276E+03  0.12499576246E+03 0.  0.
         25    2    1    2    0    0 -0.55620346514E+02 -0.71404162425E+02  0.36738815787E+03  0.39848491049E+03  0.12499595190E+03 0.  0.
          5    1    3    3  501    0  0.47919252389E+02  0.30747361463E+02  0.13557216834E+03  0.14711749663E+03  0.47000000000E+01 0. -1.
         -5    1    3    3    0  501  0.77010941248E+01  0.40656800961E+02 -0.19500715480E+02  0.45985326131E+02  0.47000000000E+01 0. -1.
          5    1    4    4  502    0 -0.64779209954E+02 -0.39057318883E+01  0.80115300698E+02  0.10320926407E+03  0.47000000000E+01 0.  1.
         -5    1    4    4    0  502  0.91588634400E+01 -0.67498430536E+02  0.28727285717E+03  0.29527564642E+03  0.47000000000E+01 0.  1.
<mgrwt>
<rscale>  0 0.34094406E+03</rscale>
<asrwt>0</asrwt>
<pdfrwt beam="1">  1       21 0.82695946E-01 0.34094406E+03</pdfrwt>
<pdfrwt beam="2">  1       21 0.83175483E-02 0.34094406E+03</pdfrwt>
<totfact> 0.13681583E+05</totfact>
</mgrwt>
</event>
<event>
 8    1  0.4760912E-006  0.2529689E+03  0.7546771E-02  0.1111443E+00
         21   -1    0    0  504  503  0.00000000000E+00  0.00000000000E+00  0.90897798968E+02  0.90897798968E+02  0.00000000000E+00 0.  1.
         21   -1    0    0  503  504 -0.00000000000E+00 -0.00000000000E+00 -0.17600335782E+03  0.17600335782E+03  0.00000000000E+00 0.  1.
         25    2    1    2    0    0 -0.70938639867E+01  0.57424698373E+01 -0.60575526843E+02  0.13919063109E+03  0.12498535300E+03 0.  0.
         25    2    1    2    0    0  0.70938639867E+01 -0.57424698373E+01 -0.24530032006E+02  0.12771052570E+03  0.12499982815E+03 0.  0.
          5    1    3    3  501    0  0.17299402408E+01 -0.39698600162E+02  0.21067283885E+02  0.45220482066E+02  0.47000000000E+01 0. -1.
         -5    1    3    3    0  501 -0.88238042275E+01  0.45441069999E+02 -0.81642810728E+02  0.93970149022E+02  0.47000000000E+01 0. -1.
          5    1    4    4  502    0 -0.28954673559E+02 -0.40559897309E+02  0.25983794535E+02  0.56397925220E+02  0.47000000000E+01 0. -1.
         -5    1    4    4    0  502  0.36048537546E+02  0.34817427472E+02 -0.50513826541E+02  0.71312600477E+02  0.47000000000E+01 0. -1.
<mgrwt>
<rscale>  0 0.25296891E+03</rscale>
<asrwt>0</asrwt>
<pdfrwt beam="1">  1       21 0.13984277E-01 0.25296891E+03</pdfrwt>
<pdfrwt beam="2">  1       21 0.27077440E-01 0.25296891E+03</pdfrwt>
<totfact> 0.57281061E+05</totfact>
</mgrwt>
</event>
<event>
 8    1  0.4760912E-006  0.2724773E+03  0.7546771E-02  0.1099870E+00
         21   -1    0    0  504  503  0.00000000000E+00  0.00000000000E+00  0.22208005747E+03  0.22208005747E+03  0.00000000000E+00 0. -1.
         21   -1    0    0  503  504 -0.00000000000E+00 -0.00000000000E+00 -0.83577855503E+02  0.83577855503E+02  0.00000000000E+00 0. -1.
         25    2    1    2    0    0 -0.22441801213E+02  0.16928746345E+02  0.12122673979E+03  0.17637919392E+03  0.12499392270E+03 0.  0.
         25    2    1    2    0    0  0.22441801213E+02 -0.16928746345E+02  0.17275462170E+02  0.12927871905E+03  0.12499731482E+03 0.  0.
          5    1    3    3  501    0  0.42143156039E+02 -0.23433260716E+02  0.67373106329E+02  0.82984268178E+02  0.47000000000E+01 0.  1.
         -5    1    3    3    0  501 -0.64584957252E+02  0.40362007061E+02  0.53853633466E+02  0.93394925744E+02  0.47000000000E+01 0.  1.
          5    1    4    4  502    0 -0.34199834137E+02  0.30224725730E+02 -0.15571561774E+02  0.48453340819E+02  0.47000000000E+01 0. -1.
         -5    1    4    4    0  502  0.56641635350E+02 -0.47153472075E+02  0.32847023944E+02  0.80825378229E+02  0.47000000000E+01 0. -1.
<mgrwt>
<rscale>  0 0.27247734E+03</rscale>
<asrwt>0</asrwt>
<pdfrwt beam="1">  1       21 0.34166162E-01 0.27247734E+03</pdfrwt>
<pdfrwt beam="2">  1       21 0.12858132E-01 0.27247734E+03</pdfrwt>
<totfact> 0.42091696E+05</totfact>
</mgrwt>
</event>
<event>
 8    1  0.4760912E-006  0.2694886E+03  0.7546771E-02  0.1101573E+00
         21   -1    0    0  504  503  0.00000000000E+00  0.00000000000E+00  0.64730142396E+02  0.64730142396E+02  0.00000000000E+00 0. -1.
         21   -1    0    0  503  504 -0.00000000000E+00 -0.00000000000E+00 -0.28048796839E+03  0.28048796839E+03  0.00000000000E+00 0. -1.
         25    2    1    2    0    0 -0.49951514023E+02 -0.55862810913E+01 -0.10544132722E+03  0.17108293523E+03  0.12500054780E+03 0.  0.
         25    2    1    2    0    0  0.49951514023E+02  0.55862810913E+01 -0.11031649878E+03  0.17413517556E+03  0.12500787646E+03 0.  0.
          5    1    3    3  501    0 -0.46643008921E+02 -0.37408439560E+02 -0.12111214707E+03  0.13514882093E+03  0.47000000000E+01 0. -1.
         -5    1    3    3    0  501 -0.33085051020E+01  0.31822158469E+02  0.15670819847E+02  0.35934114297E+02  0.47000000000E+01 0. -1.
          5    1    4    4  502    0  0.65615627116E+02 -0.40682907552E+02 -0.36579867472E+02  0.85561008602E+02  0.47000000000E+01 0.  1.
         -5    1    4    4    0  502 -0.15664113093E+02  0.46269188643E+02 -0.73736631306E+02  0.88574166962E+02  0.47000000000E+01 0.  1.
<mgrwt>
<rscale>  0 0.26948860E+03</rscale>
<asrwt>0</asrwt>
<pdfrwt beam="1">  1       21 0.99584835E-02 0.26948860E+03</pdfrwt>
<pdfrwt beam="2">  1       21 0.43151995E-01 0.26948860E+03</pdfrwt>
<totfact> 0.41522649E+05</totfact>
</mgrwt>
</event>
<event>
 8    1  0.4760912E-006  0.3460002E+03  0.7546771E-02  0.1064269E+00
         21   -1    0    0  504  503  0.00000000000E+00  0.00000000000E+00  0.30729707636E+02  0.30729707636E+02  0.00000000000E+00 0.  1.
         21   -1    0    0  503  504 -0.00000000000E+00 -0.00000000000E+00 -0.97394489475E+03  0.97394489475E+03  0.00000000000E+00 0.  1.
         25    2    1    2    0    0  0.82232215001E+02  0.76128407290E+02 -0.59313581512E+03  0.61641765201E+03  0.12491178867E+03 0.  0.
         25    2    1    2    0    0 -0.82232215001E+02 -0.76128407290E+02 -0.35007937199E+03  0.38825695037E+03  0.12502088322E+03 0.  0.
          5    1    3    3  501    0  0.52457153174E+02  0.10124968494E+03 -0.30558123087E+03  0.32619814573E+03  0.47000000000E+01 0.  1.
         -5    1    3    3    0  501  0.29775061827E+02 -0.25121277655E+02 -0.28755458426E+03  0.29021950628E+03  0.47000000000E+01 0.  1.
          5    1    4    4  502    0  0.40091832995E+01  0.28674723208E+02 -0.92926505186E+02  0.97446080824E+02  0.47000000000E+01 0.  1.
         -5    1    4    4    0  502 -0.86241398300E+02 -0.10480313050E+03 -0.25715286680E+03  0.29081086955E+03  0.47000000000E+01 0.  1.
<mgrwt>
<rscale>  0 0.34600024E+03</rscale>
<asrwt>0</asrwt>
<pdfrwt beam="1">  1       21 0.47276467E-02 0.34600024E+03</pdfrwt>
<pdfrwt beam="2">  1       21 0.14983770E+00 0.34600024E+03</pdfrwt>
<totfact> 0.83470362E+04</totfact>
</mgrwt>
</event>
<event>
 8    1  0.4760912E-006  0.2936323E+03  0.7546771E-02  0.1088468E+00
         21   -1    0    0  504  503  0.00000000000E+00  0.00000000000E+00  0.13389669219E+03  0.13389669219E+03  0.00000000000E+00 0. -1.
         21   -1    0    0  503  504 -0.00000000000E+00 -0.00000000000E+00 -0.16098218926E+03  0.16098218926E+03  0.00000000000E+00 0. -1.
         25    2    1    2    0    0  0.57084135364E+02  0.30609614406E+01  0.38261282713E+02  0.14267624926E+03  0.12499847341E+03 0.  0.
         25    2    1    2    0    0 -0.57084135364E+02 -0.30609614406E+01 -0.65346779782E+02  0.15220263219E+03  0.12500988610E+03 0.  0.
          5    1    3    3  501    0  0.56616188608E+02  0.17821230092E+02 -0.34140651409E+02  0.68634270835E+02  0.47000000000E+01 0.  1.
         -5    1    3    3    0  501  0.46794675593E+00 -0.14760268651E+02  0.72401934123E+02  0.74041978428E+02  0.47000000000E+01 0.  1.
          5    1    4    4  502    0 -0.52357570113E+02  0.44606623983E+02  0.25337498363E+01  0.68989679949E+02  0.47000000000E+01 0.  1.
         -5    1    4    4    0  502 -0.47265652510E+01 -0.47667585424E+02 -0.67880529618E+02  0.83212952240E+02  0.47000000000E+01 0.  1.
<mgrwt>
<rscale>  0 0.29363231E+03</rscale>
<asrwt>0</asrwt>
<pdfrwt beam="1">  1       21 0.20599491E-01 0.29363231E+03</pdfrwt>
<pdfrwt beam="2">  1       21 0.24766491E-01 0.29363231E+03</pdfrwt>
<totfact> 0.32933073E+05</totfact>
</mgrwt>
</event>
<event>
 8    1  0.4760912E-006  0.4004556E+03  0.7546771E-02  0.1043622E+00
         21   -1    0    0  504  503  0.00000000000E+00  0.00000000000E+00  0.38262242513E+02  0.38262242513E+02  0.00000000000E+00 0.  1.
         21   -1    0    0  503  504 -0.00000000000E+00 -0.00000000000E+00 -0.10477999805E+04  0.10477999805E+04  0.00000000000E+00 0.  1.
         25    2    1    2    0    0 -0.16017209078E+02  0.15549475338E+03 -0.52034202122E+03  0.55750562368E+03  0.12498612753E+03 0.  0.
         25    2    1    2    0    0  0.16017209078E+02 -0.15549475338E+03 -0.48919571678E+03  0.52855659934E+03  0.12499784030E+03 0.  0.
          5    1    3    3  501    0 -0.16254644277E+02 -0.15673300094E+02 -0.11814286292E+03  0.12037313594E+03  0.47000000000E+01 0. -1.
         -5    1    3    3    0  501  0.23743519913E+00  0.17116805347E+03 -0.40219915830E+03  0.43713248774E+03  0.47000000000E+01 0. -1.
          5    1    4    4  502    0  0.10876451369E+01 -0.17395671217E+03 -0.45015615818E+03  0.48262281072E+03  0.47000000000E+01 0.  1.
         -5    1    4    4    0  502  0.14929563941E+02  0.18461958786E+02 -0.39039558599E+02  0.45933788623E+02  0.47000000000E+01 0.  1.
<mgrwt>
<rscale>  0 0.40045563E+03</rscale>
<asrwt>0</asrwt>
<pdfrwt beam="1">  1       21 0.58864998E-02 0.40045563E+03</pdfrwt>
<pdfrwt beam="2">  1       21 0.16119997E+00 0.40045563E+03</pdfrwt>
<totfact> 0.46082854E+04</totfact>
</mgrwt>
</event>
<event>
 8    1  0.4760912E-006  0.3152285E+03  0.7546771E-02  0.1077866E+00
         21   -1    0    0  504  503  0.00000000000E+00  0.00000000000E+00  0.39780863017E+02  0.39780863017E+02  0.00000000000E+00 0. -1.
         21   -1    0    0  503  504 -0.00000000000E+00 -0.00000000000E+00 -0.62447736833E+03  0.62447736833E+03  0.00000000000E+00 0. -1.
         25    2    1    2    0    0  0.24874909193E+02 -0.73766694659E+02 -0.41077052569E+03  0.43636645017E+03  0.12499187059E+03 0.  0.
         25    2    1    2    0    0 -0.24874909193E+02  0.73766694659E+02 -0.17392597962E+03  0.22789178117E+03  0.12499652471E+03 0.  0.
          5    1    3    3  501    0  0.11855312260E+02  0.81508915410E+01  0.20462135782E+01  0.15272931995E+02  0.47000000000E+01 0.  1.
         -5    1    3    3    0  501  0.13019596933E+02 -0.81917586200E+02 -0.41281673927E+03  0.42109351818E+03  0.47000000000E+01 0.  1.
          5    1    4    4  502    0 -0.12708374647E+02 -0.17053161269E+02 -0.11895595368E+03  0.12093354378E+03  0.47000000000E+01 0.  1.
         -5    1    4    4    0  502 -0.12166534546E+02  0.90819855928E+02 -0.54970025942E+02  0.10695823739E+03  0.47000000000E+01 0.  1.
<mgrwt>
<rscale>  0 0.31522848E+03</rscale>
<asrwt>0</asrwt>
<pdfrwt beam="1">  1       21 0.61201328E-02 0.31522848E+03</pdfrwt>
<pdfrwt beam="2">  1       21 0.96073442E-01 0.31522848E+03</pdfrwt>
<totfact> 0.16565609E+05</totfact>
</mgrwt>
</event>
<event>
 8    1  0.4760912E-006  0.2607821E+03  0.7546771E-02  0.1106674E+00
         21   -1    0    0  504  503  0.00000000000E+00  0.00000000000E+00  0.13068704437E+03  0.13068704437E+03  0.00000000000E+00 0.  1.
         21   -1    0    0  503  504 -0.00000000000E+00 -0.00000000000E+00 -0.13009567818E+03  0.13009567818E+03  0.00000000000E+00 0.  1.
         25    2    1    2    0    0 -0.29484856486E+02 -0.22604640222E+02  0.43419962152E+00  0.13040778653E+03  0.12500270292E+03 0.  0.
         25    2    1    2    0    0  0.29484856486E+02  0.22604640222E+02  0.15716656885E+00  0.13037493602E+03  0.12496908705E+03 0.  0.
          5    1    3    3  501    0  0.40829956134E+00 -0.11821130200E+02  0.60750871767E+02  0.62069833641E+02  0.47000000000E+01 0. -1.
         -5    1    3    3    0  501 -0.29893156047E+02 -0.10783510022E+02 -0.60316672145E+02  0.68337952892E+02  0.47000000000E+01 0. -1.
          5    1    4    4  502    0 -0.28467031958E+02  0.39848232721E+02  0.35052213708E+02  0.60406963550E+02  0.47000000000E+01 0.  1.
         -5    1    4    4    0  502  0.57951888444E+02 -0.17243592499E+02 -0.34895047139E+02  0.69967972468E+02  0.47000000000E+01 0.  1.
<mgrwt>
<rscale>  0 0.26078205E+03</rscale>
<asrwt>0</asrwt>
<pdfrwt beam="1">  1       21 0.20105699E-01 0.26078205E+03</pdfrwt>
<pdfrwt beam="2">  1       21 0.20014720E-01 0.26078205E+03</pdfrwt>
<totfact> 0.52018446E+05</totfact>
</mgrwt>
</event>
<event>
 8    1  0.4760912E-006  0.3226745E+03  0.7546771E-02  0.1074425E+00
         21   -1    0    0  504  503  0.00000000000E+00  0.00000000000E+00  0.21859964342E+03  0.21859964342E+03  0.00000000000E+00 0. -1.
         21   -1    0    0  503  504 -0.00000000000E+00 -0.00000000000E+00 -0.11907481893E+03  0.11907481893E+03  0.00000000000E+00 0. -1.
         25    2    1    2    0    0  0.82183423180E+01 -0.78729370329E+02  0.11711315203E+03  0.18869711607E+03  0.12500102533E+03 0.  0.
         25    2    1    2    0    0 -0.82183423180E+01  0.78729370329E+02 -0.17588327535E+02  0.14897734629E+03  0.12497617988E+03 0.  0.
          5    1    3    3  501    0  0.27024156314E+02  0.27975426907E+02  0.25670696440E+02  0.46840198450E+02  0.47000000000E+01 0. -1.
         -5    1    3    3    0  501 -0.18805813996E+02 -0.10670479724E+03  0.91442455586E+02  0.14185691762E+03  0.47000000000E+01 0. -1.
          5    1    4    4  502    0 -0.27285633040E+02  0.44980584309E+02 -0.67434954138E+02  0.85658168173E+02  0.47000000000E+01 0.  1.
         -5    1    4    4    0  502  0.19067290722E+02  0.33748786020E+02  0.49846626603E+02  0.63319178114E+02  0.47000000000E+01 0.  1.
<mgrwt>
<rscale>  0 0.32267453E+03</rscale>
<asrwt>0</asrwt>
<pdfrwt beam="1">  1       21 0.33630714E-01 0.32267453E+03</pdfrwt>
<pdfrwt beam="2">  1       21 0.18319203E-01 0.32267453E+03</pdfrwt>
<totfact> 0.22408887E+05</totfact>
</mgrwt>
</event>
<event>
 8    1  0.4760912E-006  0.3545275E+03  0.7546771E-02  0.1060772E+00
         21   -1    0    0  504  503  0.00000000000E+00  0.00000000000E+00  0.56389747692E+03  0.56389747692E+03  0.00000000000E+00 0.  1.
         21   -1    0    0  503  504 -0.00000000000E+00 -0.00000000000E+00 -0.55723661962E+02  0.55723661962E+02  0.00000000000E+00 0.  1.
         25    2    1    2    0    0  0.91371959479E+02  0.85341924260E+02  0.27644020547E+03  0.32814251601E+03  0.12500497829E+03 0.  0.
         25    2    1    2    0    0 -0.91371959479E+02 -0.85341924260E+02  0.23173360948E+03  0.29147862287E+03  0.12500897092E+03 0.  0.
          5    1    3    3  501    0  0.99476491225E+02  0.30482186815E+02  0.23999052583E+03  0.26161475208E+03  0.47000000000E+01 0.  1.
         -5    1    3    3    0  501 -0.81045317462E+01  0.54859737445E+02  0.36449679648E+02  0.66527763932E+02  0.47000000000E+01 0.  1.
          5    1    4    4  502    0 -0.10723159585E+03 -0.57950203920E+02  0.22887732121E+03  0.25935257749E+03  0.47000000000E+01 0.  1.
         -5    1    4    4    0  502  0.15859636375E+02 -0.27391720340E+02  0.28562882697E+01  0.32126045381E+02  0.47000000000E+01 0.  1.
<mgrwt>
<rscale>  0 0.35452747E+03</rscale>
<asrwt>0</asrwt>
<pdfrwt beam="1">  1       21 0.86753454E-01 0.35452747E+03</pdfrwt>
<pdfrwt beam="2">  1       21 0.85728715E-02 0.35452747E+03</pdfrwt>
<totfact> 0.11566487E+05</totfact>
</mgrwt>
</event>
<event>
 8    1  0.4760912E-006  0.3235101E+03  0.7546771E-02  0.1074045E+00
         21   -1    0    0  504  503  0.00000000000E+00  0.00000000000E+00  0.70465189953E+02  0.70465189953E+02  0.00000000000E+00 0.  1.
         21   -1    0    0  503  504 -0.00000000000E+00 -0.00000000000E+00 -0.37131374532E+03  0.37131374532E+03  0.00000000000E+00 0.  1.
         25    2    1    2    0    0  0.64030059446E+02  0.79277097466E+02 -0.16754396867E+03  0.23254896345E+03  0.12499332888E+03 0.  0.
         25    2    1    2    0    0 -0.64030059446E+02 -0.79277097466E+02 -0.13330458670E+03  0.20922997183E+03  0.12498944589E+03 0.  0.
          5    1    3    3  501    0 -0.25486352287E+02 -0.10642138741E+02 -0.89899763268E+01  0.29423102220E+02  0.47000000000E+01 0. -1.
         -5    1    3    3    0  501  0.89516411733E+02  0.89919236207E+02 -0.15855399235E+03  0.20312586123E+03  0.47000000000E+01 0. -1.
          5    1    4    4  502    0  0.35719104716E+02 -0.23546675130E+02 -0.17453150759E+02  0.46443544469E+02  0.47000000000E+01 0. -1.
         -5    1    4    4    0  502 -0.99749164162E+02 -0.55730422336E+02 -0.11585143594E+03  0.16278642736E+03  0.47000000000E+01 0. -1.
<mgrwt>
<rscale>  0 0.32351008E+03</rscale>
<asrwt>0</asrwt>
<pdfrwt beam="1">  1       21 0.10840798E-01 0.32351008E+03</pdfrwt>
<pdfrwt beam="2">  1       21 0.57125192E-01 0.32351008E+03</pdfrwt>
<totfact> 0.19547612E+05</totfact>
</mgrwt>
</event>
<event>
 8    1  0.4760912E-006  0.4093257E+03  0.7546771E-02  0.1040598E+00
         21   -1    0    0  504  503  0.00000000000E+00  0.00000000000E+00  0.70300674334E+02  0.70300674334E+02  0.00000000000E+00 0.  1.
         21   -1    0    0  503  504 -0.00000000000E+00 -0.00000000000E+00 -0.59582469847E+03  0.59582469847E+03  0.00000000000E+00 0.  1.
         25    2    1    2    0    0 -0.12660062118E+03 -0.71060115267E+02 -0.14555958175E+03  0.24059540198E+03  0.12498519252E+03 0.  0.
         25    2    1    2    0    0  0.12660062118E+03  0.71060115267E+02 -0.37996444239E+03  0.42552997083E+03  0.12500208528E+03 0.  0.
          5    1    3    3  501    0 -0.61561415205E+02 -0.10106190302E+03 -0.76497172815E+02  0.14098660764E+03  0.47000000000E+01 0. -1.
         -5    1    3    3    0  501 -0.65039205978E+02  0.30001787756E+02 -0.69062408931E+02  0.99608794341E+02  0.47000000000E+01 0. -1.
          5    1    4    4  502    0  0.72060454699E+02  0.50959605928E+02 -0.34795899233E+03  0.35900855270E+03  0.47000000000E+01 0.  1.
         -5    1    4    4    0  502  0.54540166485E+02  0.20100509339E+02 -0.32005450057E+02  0.66521418124E+02  0.47000000000E+01 0.  1.
<mgrwt>
<rscale>  0 0.40932568E+03</rscale>
<asrwt>0</asrwt>
<pdfrwt beam="1">  1       21 0.10815488E-01 0.40932568E+03</pdfrwt>
<pdfrwt beam="2">  1       21 0.91665339E-01 0.40932568E+03</pdfrwt>
<totfact> 0.66188803E+04</totfact>
</mgrwt>
</event>
<event>
 8    1  0.4760912E-006  0.2846819E+03  0.7546771E-02  0.1093159E+00
         21   -1    0    0  504  503  0.00000000000E+00  0.00000000000E+00  0.10808815210E+03  0.10808815210E+03  0.00000000000E+00 0. -1.
         21   -1    0    0  503  504 -0.00000000000E+00 -0.00000000000E+00 -0.18744832458E+03  0.18744832458E+03  0.00000000000E+00 0. -1.
         25    2    1    2    0    0  0.36215716166E+02 -0.81406423509E+01  0.19575300500E+02  0.13185584114E+03  0.12499968919E+03 0.  0.
         25    2    1    2    0    0 -0.36215716166E+02  0.81406423509E+01 -0.98935472981E+02  0.16368063555E+03  0.12500109793E+03 0.  0.
          5    1    3    3  501    0 -0.28507024183E+02 -0.25010857383E+02  0.45986308684E+02  0.59791504423E+02  0.47000000000E+01 0. -1.
         -5    1    3    3    0  501  0.64722740349E+02  0.16870215032E+02 -0.26411008183E+02  0.72064336720E+02  0.47000000000E+01 0. -1.
          5    1    4    4  502    0  0.80628132354E+01  0.38761646702E+02  0.10846884970E+02  0.41318508273E+02  0.47000000000E+01 0.  1.
         -5    1    4    4    0  502 -0.44278529402E+02 -0.30621004351E+02 -0.10978235795E+03  0.12236212727E+03  0.47000000000E+01 0.  1.
<mgrwt>
<rscale>  0 0.28468188E+03</rscale>
<asrwt>0</asrwt>
<pdfrwt beam="1">  1       21 0.16628947E-01 0.28468188E+03</pdfrwt>
<pdfrwt beam="2">  1       21 0.28838203E-01 0.28468188E+03</pdfrwt>
<totfact> 0.36648867E+05</totfact>
</mgrwt>
</event>
<event>
 8    1  0.4760912E-006  0.4140429E+03  0.7546771E-02  0.1039023E+00
         21   -1    0    0  504  503  0.00000000000E+00  0.00000000000E+00  0.82610558228E+02  0.82610558228E+02  0.00000000000E+00 0. -1.
         21   -1    0    0  503  504 -0.00000000000E+00 -0.00000000000E+00 -0.51879411297E+03  0.51879411297E+03  0.00000000000E+00 0. -1.
         25    2    1    2    0    0 -0.56661934088E+02  0.94857600520E+02 -0.39613129385E+03  0.42982980870E+03  0.12500049335E+03 0.  0.
         25    2    1    2    0    0  0.56661934088E+02 -0.94857600520E+02 -0.40052260901E+02  0.17157486250E+03  0.12500084274E+03 0.  0.
          5    1    3    3  501    0 -0.34497693385E+02  0.20669286003E+01 -0.16903500535E+02  0.38757984636E+02  0.47000000000E+01 0.  1.
         -5    1    3    3    0  501 -0.22164240703E+02  0.92790671920E+02 -0.37922779331E+03  0.39107182407E+03  0.47000000000E+01 0.  1.
          5    1    4    4  502    0  0.87795912358E+02 -0.73204886123E+02 -0.59217370617E+02  0.12882493765E+03  0.47000000000E+01 0. -1.
         -5    1    4    4    0  502 -0.31133978269E+02 -0.21652714397E+02  0.19165109716E+02  0.42749924843E+02  0.47000000000E+01 0. -1.
<mgrwt>
<rscale>  0 0.41404285E+03</rscale>
<asrwt>0</asrwt>
<pdfrwt beam="1">  1       21 0.12709317E-01 0.41404285E+03</pdfrwt>
<pdfrwt beam="2">  1       21 0.79814479E-01 0.41404285E+03</pdfrwt>
<totfact> 0.68174612E+04</totfact>
</mgrwt>
</event>
<event>
 8    1  0.4760912E-006  0.2724776E+03  0.7546771E-02  0.1099870E+00
         21   -1    0    0  504  503  0.00000000000E+00  0.00000000000E+00  0.11079053629E+04  0.11079053629E+04  0.00000000000E+00 0. -1.
         21   -1    0    0  503  504 -0.00000000000E+00 -0.00000000000E+00 -0.16753250121E+02  0.16753250121E+02  0.00000000000E+00 0. -1.
         25    2    1    2    0    0  0.51830422966E+02  0.32821770166E+01  0.48107561305E+03  0.49974709229E+03  0.12496497648E+03 0.  0.
         25    2    1    2    0    0 -0.51830422966E+02 -0.32821770166E+01  0.61007649973E+03  0.62491152074E+03  0.12499563110E+03 0.  0.
          5    1    3    3  501    0  0.75181564202E+02 -0.58058703014E+01  0.15255103449E+03  0.17023479037E+03  0.47000000000E+01 0. -1.
         -5    1    3    3    0  501 -0.23351141236E+02  0.90880473180E+01  0.32852457856E+03  0.32951230192E+03  0.47000000000E+01 0. -1.
          5    1    4    4  502    0  0.23738642534E+02 -0.42559565760E+02  0.18551022505E+03  0.19186186016E+03  0.47000000000E+01 0.  1.
         -5    1    4    4    0  502 -0.75569065500E+02  0.39277388744E+02  0.42456627469E+03  0.43304966058E+03  0.47000000000E+01 0.  1.
<mgrwt>
<rscale>  0 0.27247764E+03</rscale>
<asrwt>0</asrwt>
<pdfrwt beam="1">  1       21 0.17044692E+00 0.27247764E+03</pdfrwt>
<pdfrwt beam="2">  1       21 0.25774240E-02 0.27247764E+03</pdfrwt>
<totfact> 0.16661587E+05</totfact>
</mgrwt>
</event>
<event>
 8    1  0.4760912E-006  0.4291582E+03  0.7546771E-02  0.1034126E+00
         21   -1    0    0  504  503  0.00000000000E+00  0.00000000000E+00  0.43871948662E+02  0.43871948662E+02  0.00000000000E+00 0. -1.
         21   -1    0    0  503  504 -0.00000000000E+00 -0.00000000000E+00 -0.10495130658E+04  0.10495130658E+04  0.00000000000E+00 0. -1.
         25    2    1    2    0    0 -0.44417082717E+01  0.11167317359E+03 -0.84395388260E+03  0.86045057667E+03  0.12500564974E+03 0.  0.
         25    2    1    2    0    0  0.44417082717E+01 -0.11167317359E+03 -0.16168723459E+03  0.23293443784E+03  0.12500025613E+03 0.  0.
          5    1    3    3  501    0 -0.39884663550E+02  0.11291958311E+03 -0.75694238046E+03  0.76637163046E+03  0.47000000000E+01 0. -1.
         -5    1    3    3    0  501  0.35442955279E+02 -0.12464095224E+01 -0.87011502136E+02  0.94078946208E+02  0.47000000000E+01 0. -1.
          5    1    4    4  502    0  0.60994963685E+02 -0.67996935075E+02 -0.63248004112E+02  0.11120417617E+03  0.47000000000E+01 0. -1.
         -5    1    4    4    0  502 -0.56553255413E+02 -0.43676238513E+02 -0.98439230476E+02  0.12173026167E+03  0.47000000000E+01 0. -1.
<mgrwt>
<rscale>  0 0.42915817E+03</rscale>
<asrwt>0</asrwt>
<pdfrwt beam="1">  1       21 0.67495314E-02 0.42915817E+03</pdfrwt>
<pdfrwt beam="2">  1       21 0.16146353E+00 0.42915817E+03</pdfrwt>
<totfact> 0.35832644E+04</totfact>
</mgrwt>
</event>
<event>
 8    1  0.4760912E-006  0.3619486E+03  0.7546771E-02  0.1057815E+00
         21   -1    0    0  504  503  0.00000000000E+00  0.00000000000E+00  0.80893526771E+02  0.80893526771E+02  0.00000000000E+00 0. -1.
         21   -1    0    0  503  504 -0.00000000000E+00 -0.00000000000E+00 -0.40487420695E+03  0.40487420695E+03  0.00000000000E+00 0. -1.
         25    2    1    2    0    0  0.72134087705E+02  0.18797440410E+02 -0.17636394320E+02  0.14660939409E+03  0.12500640646E+03 0.  0.
         25    2    1    2    0    0 -0.72134087705E+02 -0.18797440410E+02 -0.30634428586E+03  0.33915833963E+03  0.12499954995E+03 0.  0.
          5    1    3    3  501    0  0.61044420804E+02  0.91187798108E+01 -0.69161767152E+02  0.92817096981E+02  0.47000000000E+01 0. -1.
         -5    1    3    3    0  501  0.11089666901E+02  0.96786605988E+01  0.51525372831E+02  0.53792297110E+02  0.47000000000E+01 0. -1.
          5    1    4    4  502    0 -0.28310054493E+02  0.27086032917E+02 -0.17113534738E+02  0.43012503249E+02  0.47000000000E+01 0.  1.
         -5    1    4    4    0  502 -0.43824033212E+02 -0.45883473326E+02 -0.28923075112E+03  0.29614583638E+03  0.47000000000E+01 0.  1.
<mgrwt>
<rscale>  0 0.36194863E+03</rscale>
<asrwt>0</asrwt>
<pdfrwt beam="1">  1       21 0.12445158E-01 0.36194863E+03</pdfrwt>
<pdfrwt beam="2">  1       21 0.62288338E-01 0.36194863E+03</pdfrwt>
<totfact> 0.12512496E+05</totfact>
</mgrwt>
</event>
<event>
 8    1  0.4760912E-006  0.4860488E+03  0.7546771E-02  0.1017486E+00
         21   -1    0    0  504  503  0.00000000000E+00  0.00000000000E+00  0.51622748092E+03  0.51622748092E+03  0.00000000000E+00 0.  1.
         21   -1    0    0  503  504 -0.00000000000E+00 -0.00000000000E+00 -0.11440856852E+03  0.11440856852E+03  0.00000000000E+00 0.  1.
         25    2    1    2    0    0  0.14513798228E+03  0.14927956993E+03  0.18879027017E+03  0.30759490799E+03  0.12499374949E+03 0.  0.
         25    2    1    2    0    0 -0.14513798228E+03 -0.14927956993E+03  0.21302864224E+03  0.32304114145E+03  0.12499981102E+03 0.  0.
          5    1    3    3  501    0  0.13505115913E+03  0.92591511691E+02  0.75388450874E+02  0.18032612719E+03  0.47000000000E+01 0. -1.
         -5    1    3    3    0  501  0.10086823146E+02  0.56688058239E+02  0.11340181929E+03  0.12726878080E+03  0.47000000000E+01 0. -1.
          5    1    4    4  502    0 -0.15832797716E+03 -0.12723177312E+03  0.21625751624E+03  0.29672390496E+03  0.47000000000E+01 0. -1.
         -5    1    4    4    0  502  0.13189994881E+02 -0.22047796809E+02 -0.32288740037E+01  0.26317236489E+02  0.47000000000E+01 0. -1.
<mgrwt>
<rscale>  0 0.48604875E+03</rscale>
<asrwt>0</asrwt>
<pdfrwt beam="1">  1       21 0.79419611E-01 0.48604875E+03</pdfrwt>
<pdfrwt beam="2">  1       21 0.17601318E-01 0.48604875E+03</pdfrwt>
<totfact> 0.37096507E+04</totfact>
</mgrwt>
</event>
<event>
 8    1  0.4760912E-006  0.2963518E+03  0.7546771E-02  0.1087079E+00
         21   -1    0    0  504  503  0.00000000000E+00  0.00000000000E+00  0.41308895233E+02  0.41308895233E+02  0.00000000000E+00 0.  1.
         21   -1    0    0  503  504 -0.00000000000E+00 -0.00000000000E+00 -0.53151008606E+03  0.53151008606E+03  0.00000000000E+00 0.  1.
         25    2    1    2    0    0 -0.72469045003E+01 -0.77636275569E+02 -0.27574781824E+03  0.31263799777E+03  0.12500299787E+03 0.  0.
         25    2    1    2    0    0  0.72469045003E+01  0.77636275569E+02 -0.21445337259E+03  0.26018098353E+03  0.12499594499E+03 0.  0.
          5    1    3    3  501    0  0.35079398670E+02 -0.13617479522E+02 -0.20392618378E+03  0.20742222250E+03  0.47000000000E+01 0.  1.
         -5    1    3    3    0  501 -0.42326303170E+02 -0.64018796047E+02 -0.71821634466E+02  0.10521577527E+03  0.47000000000E+01 0.  1.
          5    1    4    4  502    0  0.50764864137E+02  0.13006098796E+02 -0.31627750019E+02  0.61389205957E+02  0.47000000000E+01 0. -1.
         -5    1    4    4    0  502 -0.43517959637E+02  0.64630176773E+02 -0.18282562257E+03  0.19879177757E+03  0.47000000000E+01 0. -1.
<mgrwt>
<rscale>  0 0.29635178E+03</rscale>
<asrwt>0</asrwt>
<pdfrwt beam="1">  1       21 0.63552143E-02 0.29635178E+03</pdfrwt>
<pdfrwt beam="2">  1       21 0.81770787E-01 0.29635178E+03</pdfrwt>
<totfact> 0.22720960E+05</totfact>
</mgrwt>
</event>
<event>
 8    1  0.4760912E-006  0.2971083E+03  0.7546771E-02  0.1086695E+00
         21   -1    0    0  504  503  0.00000000000E+00  0.00000000000E+00  0.42514654073E+03  0.42514654073E+03  0.00000000000E+00 0. -1.
         21   -1    0    0  503  504 -0.00000000000E+00 -0.00000000000E+00 -0.51907583373E+02  0.51907583373E+02  0.00000000000E+00 0. -1.
         25    2    1    2    0    0 -0.15634108302E+02 -0.61057263787E+02  0.26643090703E+03  0.30097176643E+03  0.12500464458E+03 0.  0.
         25    2    1    2    0    0  0.15634108302E+02  0.61057263787E+02  0.10680805033E+03  0.17608235767E+03  0.12499848905E+03 0.  0.
          5    1    3    3  501    0  0.32247907421E+02  0.14389036294E+02  0.14975439032E+03  0.15393323006E+03  0.47000000000E+01 0.  1.
         -5    1    3    3    0  501 -0.47882015722E+02 -0.75446300081E+02  0.11667651671E+03  0.14703853637E+03  0.47000000000E+01 0.  1.
          5    1    4    4  502    0  0.57929149653E+02 -0.36166089511E+01  0.24767477365E+02  0.63280203657E+02  0.47000000000E+01 0. -1.
         -5    1    4    4    0  502 -0.42295041352E+02  0.64673872738E+02  0.82040572961E+02  0.11280215401E+03  0.47000000000E+01 0. -1.
<mgrwt>
<rscale>  0 0.29710826E+03</rscale>
<asrwt>0</asrwt>
<pdfrwt beam="1">  1       21 0.65407158E-01 0.29710826E+03</pdfrwt>
<pdfrwt beam="2">  1       21 0.79857824E-02 0.29710826E+03</pdfrwt>
<totfact> 0.25190668E+05</totfact>
</mgrwt>
</event>
<event>
 8    1  0.4760912E-006  0.2726305E+03  0.7546771E-02  0.1099783E+00
         21   -1    0    0  504  503  0.00000000000E+00  0.00000000000E+00  0.24196927433E+03  0.24196927433E+03  0.00000000000E+00 0. -1.
         21   -1    0    0  503  504 -0.00000000000E+00 -0.00000000000E+00 -0.76794249755E+02  0.76794249755E+02  0.00000000000E+00 0. -1.
         25    2    1    2    0    0  0.28107960634E+02  0.46479565078E+02  0.85793168597E+02  0.16104549797E+03  0.12499910887E+03 0.  0.
         25    2    1    2    0    0 -0.28107960634E+02 -0.46479565078E+02  0.79381855974E+02  0.15771802611E+03  0.12499235689E+03 0.  0.
          5    1    3    3  501    0 -0.30861209787E+01  0.59590727131E+02 -0.87757333935E+01  0.60495308903E+02  0.47000000000E+01 0.  1.
         -5    1    3    3    0  501  0.31194081613E+02 -0.13111162053E+02  0.94568901991E+02  0.10055018907E+03  0.47000000000E+01 0.  1.
          5    1    4    4  502    0 -0.63189308045E+02  0.78622182165E+01  0.65351763958E+02  0.91365453969E+02  0.47000000000E+01 0. -1.
         -5    1    4    4    0  502  0.35081347410E+02 -0.54341783295E+02  0.14030092016E+02  0.66352572141E+02  0.47000000000E+01 0. -1.
<mgrwt>
<rscale>  0 0.27263051E+03</rscale>
<asrwt>0</asrwt>
<pdfrwt beam="1">  1       21 0.37226042E-01 0.27263051E+03</pdfrwt>
<pdfrwt beam="2">  1       21 0.11814500E-01 0.27263051E+03</pdfrwt>
<totfact> 0.41292842E+05</totfact>
</mgrwt>
</event>
<event>
 8    1  0.4760912E-006  0.3566614E+03  0.7546771E-02  0.1059914E+00
         21   -1    0    0  504  503  0.00000000000E+00  0.00000000000E+00  0.36894517606E+02  0.36894517606E+02  0.00000000000E+00 0.  1.
         21   -1    0    0  503  504 -0.00000000000E+00 -0.00000000000E+00 -0.86196636839E+03  0.86196636839E+03  0.00000000000E+00 0.  1.
         25    2    1    2    0    0 -0.11390659149E+03 -0.43022637548E+02 -0.50520861452E+03  0.53449383715E+03  0.12498903490E+03 0.  0.
         25    2    1    2    0    0  0.11390659149E+03  0.43022637548E+02 -0.31986323627E+03  0.36436704885E+03  0.12500078975E+03 0.  0.
          5    1    3    3  501    0 -0.31586803767E+02 -0.49792412940E+02 -0.70714567315E+02  0.92193549607E+02  0.47000000000E+01 0. -1.
         -5    1    3    3    0  501 -0.82319787728E+02  0.67697753921E+01 -0.43449404720E+03  0.44230028755E+03  0.47000000000E+01 0. -1.
          5    1    4    4  502    0  0.75846344555E+02 -0.25315609314E+02 -0.85079531991E+02  0.11685103688E+03  0.47000000000E+01 0. -1.
         -5    1    4    4    0  502  0.38060246940E+02  0.68338246862E+02 -0.23478370428E+03  0.24751601196E+03  0.47000000000E+01 0. -1.
<mgrwt>
<rscale>  0 0.35666137E+03</rscale>
<asrwt>0</asrwt>
<pdfrwt beam="1">  1       21 0.56760794E-02 0.35666137E+03</pdfrwt>
<pdfrwt beam="2">  1       21 0.13261022E+00 0.35666137E+03</pdfrwt>
<totfact> 0.83893937E+04</totfact>
</mgrwt>
</event>
<event>
 8    1  0.4760912E-006  0.2686888E+03  0.7546771E-02  0.1102032E+00
         21   -1    0    0  504  503  0.00000000000E+00  0.00000000000E+00  0.16486608436E+02  0.16486608436E+02  0.00000000000E+00 0. -1.
         21   -1    0    0  503  504 -0.00000000000E+00 -0.00000000000E+00 -0.10947323297E+04  0.10947323297E+04  0.00000000000E+00 0. -1.
         25    2    1    2    0    0 -0.39112586442E+02 -0.23895025579E+02 -0.61387095610E+03  0.62814313235E+03  0.12500190925E+03 0.  0.
         25    2    1    2    0    0  0.39112586442E+02  0.23895025579E+02 -0.46437476517E+03  0.48307580579E+03  0.12497017621E+03 0.  0.
          5    1    3    3  501    0  0.13007703585E+02  0.44733209259E+02 -0.21173282001E+03  0.21684818983E+03  0.47000000000E+01 0. -1.
         -5    1    3    3    0  501 -0.52120290027E+02 -0.68628234838E+02 -0.40213813608E+03  0.41129494252E+03  0.47000000000E+01 0. -1.
          5    1    4    4  502    0 -0.95436560651E+01 -0.45307063400E+02 -0.12810794209E+03  0.13629947245E+03  0.47000000000E+01 0. -1.
         -5    1    4    4    0  502  0.48656242507E+02  0.69202088978E+02 -0.33626682308E+03  0.34677633333E+03  0.47000000000E+01 0. -1.
<mgrwt>
<rscale>  0 0.26868884E+03</rscale>
<asrwt>0</asrwt>
<pdfrwt beam="1">  1       21 0.25364006E-02 0.26868884E+03</pdfrwt>
<pdfrwt beam="2">  1       21 0.16842040E+00 0.26868884E+03</pdfrwt>
<totfact> 0.17714017E+05</totfact>
</mgrwt>
</event>
<event>
 8    1  0.4760912E-006  0.3065596E+03  0.7546771E-02  0.1082007E+00
         21   -1    0    0  504  503  0.00000000000E+00  0.00000000000E+00  0.19342904463E+02  0.19342904463E+02  0.00000000000E+00 0. -1.
         21   -1    0    0  503  504 -0.00000000000E+00 -0.00000000000E+00 -0.12146415353E+04  0.12146415353E+04  0.00000000000E+00 0. -1.
         25    2    1    2    0    0  0.38087621710E+02 -0.24873095197E+02 -0.29112158917E+03  0.32007508879E+03  0.12500777972E+03 0.  0.
         25    2    1    2    0    0 -0.38087621710E+02  0.24873095197E+02 -0.90417704163E+03  0.91390935094E+03  0.12499936532E+03 0.  0.
          5    1    3    3  501    0 -0.61851692766E+01 -0.59787978249E+02 -0.72713211330E+02  0.94457184819E+02  0.47000000000E+01 0. -1.
         -5    1    3    3    0  501  0.44272790987E+02  0.34914883052E+02 -0.21840837784E+03  0.22561790397E+03  0.47000000000E+01 0. -1.
          5    1    4    4  502    0 -0.47920167972E+02  0.70644572846E+02 -0.61921995538E+03  0.62509394598E+03  0.47000000000E+01 0. -1.
         -5    1    4    4    0  502  0.98325462615E+01 -0.45771477649E+02 -0.28495708625E+03  0.28881540495E+03  0.47000000000E+01 0. -1.
<mgrwt>
<rscale>  0 0.30655959E+03</rscale>
<asrwt>0</asrwt>
<pdfrwt beam="1">  1       21 0.29758305E-02 0.30655959E+03</pdfrwt>
<pdfrwt beam="2">  1       21 0.18686799E+00 0.30655959E+03</pdfrwt>
<totfact> 0.99622831E+04</totfact>
</mgrwt>
</event>
<event>
 8    1  0.4760912E-006  0.3105547E+03  0.7546771E-02  0.1080080E+00
         21   -1    0    0  504  503  0.00000000000E+00  0.00000000000E+00  0.13702569982E+03  0.13702569982E+03  0.00000000000E+00 0.  1.
         21   -1    0    0  503  504 -0.00000000000E+00 -0.00000000000E+00 -0.17596013789E+03  0.17596013789E+03  0.00000000000E+00 0.  1.
         25    2    1    2    0    0 -0.51512532565E+02  0.71080078625E+01 -0.96100907178E+02  0.16602549993E+03  0.12500006991E+03 0.  0.
         25    2    1    2    0    0  0.51512532565E+02 -0.71080078625E+01  0.57166469109E+02  0.14696033778E+03  0.12500108360E+03 0.  0.
          5    1    3    3  501    0 -0.75625436816E+02 -0.24668899098E+02 -0.97393882134E+02  0.12583886345E+03  0.47000000000E+01 0.  1.
         -5    1    3    3    0  501  0.24112904250E+02  0.31776906961E+02  0.12929749560E+01  0.40186636481E+02  0.47000000000E+01 0.  1.
          5    1    4    4  502    0  0.73691768367E+02 -0.26395722920E+02 -0.44364904883E+01  0.78542875943E+02  0.47000000000E+01 0.  1.
         -5    1    4    4    0  502 -0.22179235801E+02  0.19287715058E+02  0.61602959597E+02  0.68417461835E+02  0.47000000000E+01 0.  1.
<mgrwt>
<rscale>  0 0.31055474E+03</rscale>
<asrwt>0</asrwt>
<pdfrwt beam="1">  1       21 0.21080877E-01 0.31055474E+03</pdfrwt>
<pdfrwt beam="2">  1       21 0.27070790E-01 0.31055474E+03</pdfrwt>
<totfact> 0.26448265E+05</totfact>
</mgrwt>
</event>
<event>
 8    1  0.4760912E-006  0.3801905E+03  0.7546771E-02  0.1050863E+00
         21   -1    0    0  504  503  0.00000000000E+00  0.00000000000E+00  0.12855404043E+03  0.12855404043E+03  0.00000000000E+00 0. -1.
         21   -1    0    0  503  504 -0.00000000000E+00 -0.00000000000E+00 -0.28109744321E+03  0.28109744321E+03  0.00000000000E+00 0. -1.
         25    2    1    2    0    0 -0.98782042690E+02 -0.51736714259E+02  0.20563695728E+02  0.16876451554E+03  0.12499606619E+03 0.  0.
         25    2    1    2    0    0  0.98782042690E+02  0.51736714259E+02 -0.17310709851E+03  0.24088696810E+03  0.12500353710E+03 0.  0.
          5    1    3    3  501    0 -0.18356108404E+02  0.40460614337E+02  0.40663609343E+00  0.44679563351E+02  0.47000000000E+01 0.  1.
         -5    1    3    3    0  501 -0.80425934286E+02 -0.92197328596E+02  0.20157059634E+02  0.12408495219E+03  0.47000000000E+01 0.  1.
          5    1    4    4  502    0  0.19754381444E+02  0.80597715171E+02 -0.90747008408E+02  0.12305826592E+03  0.47000000000E+01 0. -1.
         -5    1    4    4    0  502  0.79027661246E+02 -0.28861000913E+02 -0.82360090100E+02  0.11782870218E+03  0.47000000000E+01 0. -1.
<mgrwt>
<rscale>  0 0.38019054E+03</rscale>
<asrwt>0</asrwt>
<pdfrwt beam="1">  1       21 0.19777545E-01 0.38019054E+03</pdfrwt>
<pdfrwt beam="2">  1       21 0.43245760E-01 0.38019054E+03</pdfrwt>
<totfact> 0.11487800E+05</totfact>
</mgrwt>
</event>
<event>
 8    1  0.4760912E-006  0.3673654E+03  0.7546771E-02  0.1055705E+00
         21   -1    0    0  504  503  0.00000000000E+00  0.00000000000E+00  0.76751871685E+02  0.76751871685E+02  0.00000000000E+00 0.  1.
         21   -1    0    0  503  504 -0.00000000000E+00 -0.00000000000E+00 -0.43958973750E+03  0.43958973750E+03  0.00000000000E+00 0.  1.
         25    2    1    2    0    0 -0.31065025785E+02  0.84585607093E+02 -0.32193028755E+03  0.35690844803E+03  0.12499907792E+03 0.  0.
         25    2    1    2    0    0  0.31065025785E+02 -0.84585607093E+02 -0.40907578266E+02  0.15943316115E+03  0.12500296861E+03 0.  0.
          5    1    3    3  501    0  0.63648415264E+00  0.69069949987E+02 -0.57230921818E+02  0.89825004956E+02  0.47000000000E+01 0. -1.
         -5    1    3    3    0  501 -0.31701509937E+02  0.15515657106E+02 -0.26469936573E+03  0.26708344307E+03  0.47000000000E+01 0. -1.
          5    1    4    4  502    0 -0.81183908731E+01 -0.10486236413E+03 -0.45768055834E+02  0.11479907934E+03  0.47000000000E+01 0.  1.
         -5    1    4    4    0  502  0.39183416658E+02  0.20276757040E+02  0.48604775681E+01  0.44634081812E+02  0.47000000000E+01 0.  1.
<mgrwt>
<rscale>  0 0.36736540E+03</rscale>
<asrwt>0</asrwt>
<pdfrwt beam="1">  1       21 0.11807980E-01 0.36736540E+03</pdfrwt>
<pdfrwt beam="2">  1       21 0.67629192E-01 0.36736540E+03</pdfrwt>
<totfact> 0.11462515E+05</totfact>
</mgrwt>
</event>
<event>
 8    1  0.4760912E-006  0.2895072E+03  0.7546771E-02  0.1090607E+00
         21   -1    0    0  504  503  0.00000000000E+00  0.00000000000E+00  0.12575464271E+03  0.12575464271E+03  0.00000000000E+00 0. -1.
         21   -1    0    0  503  504 -0.00000000000E+00 -0.00000000000E+00 -0.16662287697E+03  0.16662287697E+03  0.00000000000E+00 0. -1.
         25    2    1    2    0    0 -0.47806759648E+02 -0.49347062576E+02 -0.45328044414E+02  0.14967033006E+03  0.12500382889E+03 0.  0.
         25    2    1    2    0    0  0.47806759648E+02  0.49347062576E+02  0.44598101584E+01  0.14270718962E+03  0.12499933284E+03 0.  0.
          5    1    3    3  501    0 -0.13958473935E+02 -0.70923033252E+02 -0.71292024390E+02  0.10163443502E+03  0.47000000000E+01 0.  1.
         -5    1    3    3    0  501 -0.33848285714E+02  0.21575970677E+02  0.25963979976E+02  0.48035895043E+02  0.47000000000E+01 0.  1.
          5    1    4    4  502    0  0.44508187226E+02  0.84834224250E+01 -0.54317906430E+02  0.70890564570E+02  0.47000000000E+01 0. -1.
         -5    1    4    4    0  502  0.32985724228E+01  0.40863640151E+02  0.58777716588E+02  0.71816625051E+02  0.47000000000E+01 0. -1.
<mgrwt>
<rscale>  0 0.28950717E+03</rscale>
<asrwt>0</asrwt>
<pdfrwt beam="1">  1       21 0.19346868E-01 0.28950717E+03</pdfrwt>
<pdfrwt beam="2">  1       21 0.25634289E-01 0.28950717E+03</pdfrwt>
<totfact> 0.34712910E+05</totfact>
</mgrwt>
</event>
<event>
 8    1  0.4760912E-006  0.3260883E+03  0.7546771E-02  0.1072881E+00
         21   -1    0    0  504  503  0.00000000000E+00  0.00000000000E+00  0.54113156406E+02  0.54113156406E+02  0.00000000000E+00 0.  1.
         21   -1    0    0  503  504 -0.00000000000E+00 -0.00000000000E+00 -0.49125560944E+03  0.49125560944E+03  0.00000000000E+00 0.  1.
         25    2    1    2    0    0 -0.83625678351E+00 -0.93680159849E+02 -0.14044604885E+03  0.21006398884E+03  0.12500046037E+03 0.  0.
         25    2    1    2    0    0  0.83625678351E+00  0.93680159849E+02 -0.29669640418E+03  0.33530477701E+03  0.12499546214E+03 0.  0.
          5    1    3    3  501    0  0.65123149572E+01 -0.38548687680E+02  0.17094929920E+02  0.42927126586E+02  0.47000000000E+01 0. -1.
         -5    1    3    3    0  501 -0.73485717407E+01 -0.55131472169E+02 -0.15754097877E+03  0.16713686225E+03  0.47000000000E+01 0. -1.
          5    1    4    4  502    0 -0.24069165677E+02  0.11660084716E+03 -0.25446437481E+03  0.28097916353E+03  0.47000000000E+01 0. -1.
         -5    1    4    4    0  502  0.24905422461E+02 -0.22920687307E+02 -0.42232029376E+02  0.54325613478E+02  0.47000000000E+01 0. -1.
<mgrwt>
<rscale>  0 0.32608828E+03</rscale>
<asrwt>0</asrwt>
<pdfrwt beam="1">  1       21 0.83251007E-02 0.32608828E+03</pdfrwt>
<pdfrwt beam="2">  1       21 0.75577788E-01 0.32608828E+03</pdfrwt>
<totfact> 0.16841088E+05</totfact>
</mgrwt>
</event>
<event>
 8    1  0.4760912E-006  0.2522831E+03  0.7546771E-02  0.1111870E+00
         21   -1    0    0  504  503  0.00000000000E+00  0.00000000000E+00  0.20290350012E+02  0.20290350012E+02  0.00000000000E+00 0. -1.
         21   -1    0    0  503  504 -0.00000000000E+00 -0.00000000000E+00 -0.78419968984E+03  0.78419968984E+03  0.00000000000E+00 0. -1.
         25    2    1    2    0    0 -0.81904828544E+01  0.14285268794E+02 -0.39409587048E+03  0.41377808820E+03  0.12501839156E+03 0.  0.
         25    2    1    2    0    0  0.81904828544E+01 -0.14285268794E+02 -0.36981346934E+03  0.39071195165E+03  0.12499069621E+03 0.  0.
          5    1    3    3  501    0 -0.41561869891E+02  0.53608167738E+02 -0.15699029250E+03  0.17108263096E+03  0.47000000000E+01 0.  1.
         -5    1    3    3    0  501  0.33371387037E+02 -0.39322898944E+02 -0.23710557798E+03  0.24269545724E+03  0.47000000000E+01 0.  1.
          5    1    4    4  502    0 -0.25309943985E+02  0.25186658687E+01 -0.34397863115E+03  0.34494974363E+03  0.47000000000E+01 0. -1.
         -5    1    4    4    0  502  0.33500426840E+02 -0.16803934663E+02 -0.25834838198E+02  0.45762208025E+02  0.47000000000E+01 0. -1.
<mgrwt>
<rscale>  0 0.25228306E+03</rscale>
<asrwt>0</asrwt>
<pdfrwt beam="1">  1       21 0.31215925E-02 0.25228306E+03</pdfrwt>
<pdfrwt beam="2">  1       21 0.12064610E+00 0.25228306E+03</pdfrwt>
<totfact> 0.30316034E+05</totfact>
</mgrwt>
</event>
<event>
 8    1  0.4760912E-006  0.2561810E+03  0.7546771E-02  0.1109460E+00
         21   -1    0    0  504  503  0.00000000000E+00  0.00000000000E+00  0.38523834303E+03  0.38523834303E+03  0.00000000000E+00 0.  1.
         21   -1    0    0  503  504 -0.00000000000E+00 -0.00000000000E+00 -0.42589686696E+02  0.42589686696E+02  0.00000000000E+00 0.  1.
         25    2    1    2    0    0  0.24627503987E+02 -0.16964887472E+01  0.19333004064E+03  0.23153981615E+03  0.12499915929E+03 0.  0.
         25    2    1    2    0    0 -0.24627503987E+02  0.16964887472E+01  0.14931861570E+03  0.19628821358E+03  0.12499448696E+03 0.  0.
          5    1    3    3  501    0 -0.40621880371E+02  0.22809906008E+02  0.34924808480E+02  0.58414563461E+02  0.47000000000E+01 0.  1.
         -5    1    3    3    0  501  0.65249384358E+02 -0.24506394756E+02  0.15840523216E+03  0.17312525269E+03  0.47000000000E+01 0.  1.
          5    1    4    4  502    0  0.48071001430E+02  0.70422439422E+01  0.89209327170E+02  0.10168976562E+03  0.47000000000E+01 0.  1.
         -5    1    4    4    0  502 -0.72698505417E+02 -0.53457551950E+01  0.60109288526E+02  0.94598447955E+02  0.47000000000E+01 0.  1.
<mgrwt>
<rscale>  0 0.25618103E+03</rscale>
<asrwt>0</asrwt>
<pdfrwt beam="1">  1       21 0.59267435E-01 0.25618103E+03</pdfrwt>
<pdfrwt beam="2">  1       21 0.65522598E-02 0.25618103E+03</pdfrwt>
<totfact> 0.44478570E+05</totfact>
</mgrwt>
</event>
<event>
 8    1  0.4760912E-006  0.3039087E+03  0.7546771E-02  0.1083303E+00
         21   -1    0    0  504  503  0.00000000000E+00  0.00000000000E+00  0.76432986705E+02  0.76432986705E+02  0.00000000000E+00 0. -1.
         21   -1    0    0  503  504 -0.00000000000E+00 -0.00000000000E+00 -0.30209640136E+03  0.30209640136E+03  0.00000000000E+00 0. -1.
         25    2    1    2    0    0  0.82869476077E+02 -0.21462027904E+02 -0.12746558974E+03  0.19798989937E+03  0.12499821990E+03 0.  0.
         25    2    1    2    0    0 -0.82869476077E+02  0.21462027904E+02 -0.98197824915E+02  0.18053948869E+03  0.12499490170E+03 0.  0.
          5    1    3    3  501    0  0.10583061328E+03 -0.47701131773E+02 -0.10136290252E+03  0.15418185589E+03  0.47000000000E+01 0. -1.
         -5    1    3    3    0  501 -0.22961137201E+02  0.26239103869E+02 -0.26102687221E+02  0.43808043480E+02  0.47000000000E+01 0. -1.
          5    1    4    4  502    0 -0.46496607889E+02  0.57052518270E+02 -0.45933094683E+01  0.73892576609E+02  0.47000000000E+01 0.  1.
         -5    1    4    4    0  502 -0.36372868188E+02 -0.35590490366E+02 -0.93604515447E+02  0.10664691208E+03  0.47000000000E+01 0.  1.
<mgrwt>
<rscale>  0 0.30390874E+03</rscale>
<asrwt>0</asrwt>
<pdfrwt beam="1">  1       21 0.11758921E-01 0.30390874E+03</pdfrwt>
<pdfrwt beam="2">  1       21 0.46476369E-01 0.30390874E+03</pdfrwt>
<totfact> 0.26255808E+05</totfact>
</mgrwt>
</event>
<event>
 8    1  0.4760912E-006  0.2559036E+03  0.7546771E-02  0.1109630E+00
         21   -1    0    0  504  503  0.00000000000E+00  0.00000000000E+00  0.96060550982E+02  0.96060550982E+02  0.00000000000E+00 0. -1.
         21   -1    0    0  503  504 -0.00000000000E+00 -0.00000000000E+00 -0.17043071982E+03  0.17043071982E+03  0.00000000000E+00 0. -1.
         25    2    1    2    0    0  0.84514382714E+01  0.12768768154E+02 -0.60731736629E+02  0.13981388677E+03  0.12500044341E+03 0.  0.
         25    2    1    2    0    0 -0.84514382714E+01 -0.12768768154E+02 -0.13638432207E+02  0.12667738403E+03  0.12500673799E+03 0.  0.
          5    1    3    3  501    0  0.17678147522E+02 -0.34129318271E+02  0.21717151577E+02  0.44396530698E+02  0.47000000000E+01 0.  1.
         -5    1    3    3    0  501 -0.92267092507E+01  0.46898086425E+02 -0.82448888206E+02  0.95417356075E+02  0.47000000000E+01 0.  1.
          5    1    4    4  502    0 -0.65814286867E+02  0.34050592399E+01 -0.95093591606E+01  0.66750525810E+02  0.47000000000E+01 0.  1.
         -5    1    4    4    0  502  0.57362848595E+02 -0.16173827394E+02 -0.41290730461E+01  0.59926858217E+02  0.47000000000E+01 0.  1.
<mgrwt>
<rscale>  0 0.25590364E+03</rscale>
<asrwt>0</asrwt>
<pdfrwt beam="1">  1       21 0.14778547E-01 0.25590364E+03</pdfrwt>
<pdfrwt beam="2">  1       21 0.26220110E-01 0.25590364E+03</pdfrwt>
<totfact> 0.55082379E+05</totfact>
</mgrwt>
</event>
<event>
 8    1  0.4760912E-006  0.6045338E+03  0.7546771E-02  0.9896044E-01
         21   -1    0    0  504  503  0.00000000000E+00  0.00000000000E+00  0.59364456875E+03  0.59364456875E+03  0.00000000000E+00 0. -1.
         21   -1    0    0  503  504 -0.00000000000E+00 -0.00000000000E+00 -0.15390567776E+03  0.15390567776E+03  0.00000000000E+00 0. -1.
         25    2    1    2    0    0 -0.81297467593E+01 -0.17808942744E+02 -0.11959737336E+03  0.17408166317E+03  0.12497056660E+03 0.  0.
         25    2    1    2    0    0  0.81297467593E+01  0.17808942744E+02  0.55933626435E+03  0.57346858333E+03  0.12500363286E+03 0.  0.
          5    1    3    3  501    0 -0.21895026755E+02 -0.67230481507E+02 -0.46884379164E+02  0.84968022514E+02  0.47000000000E+01 0. -1.
         -5    1    3    3    0  501  0.13765279995E+02  0.49421538763E+02 -0.72712994195E+02  0.89113640661E+02  0.47000000000E+01 0. -1.
          5    1    4    4  502    0  0.15396953222E+02 -0.51629366121E+02  0.18927988545E+03  0.19685431834E+03  0.47000000000E+01 0.  1.
         -5    1    4    4    0  502 -0.72672064628E+01  0.69438308865E+02  0.37005637890E+03  0.37661426499E+03  0.47000000000E+01 0.  1.
<mgrwt>
<rscale>  0 0.60453377E+03</rscale>
<asrwt>0</asrwt>
<pdfrwt beam="1">  1       21 0.91329932E-01 0.60453377E+03</pdfrwt>
<pdfrwt beam="2">  1       21 0.23677797E-01 0.60453377E+03</pdfrwt>
<totfact> 0.14761887E+04</totfact>
</mgrwt>
</event>
<event>
 8    1  0.4760912E-006  0.3418817E+03  0.7546771E-02  0.1065997E+00
         21   -1    0    0  504  503  0.00000000000E+00  0.00000000000E+00  0.99688280523E+02  0.99688280523E+02  0.00000000000E+00 0.  1.
         21   -1    0    0  503  504 -0.00000000000E+00 -0.00000000000E+00 -0.29312139725E+03  0.29312139725E+03  0.00000000000E+00 0.  1.
         25    2    1    2    0    0  0.11248793643E+03  0.10072793574E+02 -0.63424788454E+02  0.18001377176E+03  0.12500902856E+03 0.  0.
         25    2    1    2    0    0 -0.11248793643E+03 -0.10072793574E+02 -0.13000832827E+03  0.21279590601E+03  0.12499974073E+03 0.  0.
          5    1    3    3  501    0  0.92833746020E+02 -0.31375080480E+02  0.41642660129E+01  0.98193335755E+02  0.47000000000E+01 0.  1.
         -5    1    3    3    0  501  0.19654190408E+02  0.41447874054E+02 -0.67589054467E+02  0.81820436004E+02  0.47000000000E+01 0.  1.
          5    1    4    4  502    0 -0.35595278981E+02  0.56185956527E+02 -0.56272419204E+02  0.87249990027E+02  0.47000000000E+01 0. -1.
         -5    1    4    4    0  502 -0.76892657447E+02 -0.66258750101E+02 -0.73735909064E+02  0.12554591598E+03  0.47000000000E+01 0. -1.
<mgrwt>
<rscale>  0 0.34188166E+03</rscale>
<asrwt>0</asrwt>
<pdfrwt beam="1">  1       21 0.15336659E-01 0.34188166E+03</pdfrwt>
<pdfrwt beam="2">  1       21 0.45095599E-01 0.34188166E+03</pdfrwt>
<totfact> 0.17079372E+05</totfact>
</mgrwt>
</event>
<event>
 8    1  0.4760912E-006  0.3558379E+03  0.7546771E-02  0.1060244E+00
         21   -1    0    0  504  503  0.00000000000E+00  0.00000000000E+00  0.34804772989E+02  0.34804772989E+02  0.00000000000E+00 0.  1.
         21   -1    0    0  503  504 -0.00000000000E+00 -0.00000000000E+00 -0.90950594621E+03  0.90950594621E+03  0.00000000000E+00 0.  1.
         25    2    1    2    0    0  0.43899065789E+01  0.10115157220E+03 -0.23559602370E+03  0.28527252240E+03  0.12499605520E+03 0.  0.
         25    2    1    2    0    0 -0.43899065789E+01 -0.10115157220E+03 -0.63910514952E+03  0.65903819679E+03  0.12500016341E+03 0.  0.
          5    1    3    3  501    0  0.59940493781E+02  0.56903802048E+02 -0.84715944076E+02  0.11844740041E+03  0.47000000000E+01 0.  1.
         -5    1    3    3    0  501 -0.55550587202E+02  0.44247770151E+02 -0.15088007962E+03  0.16682512200E+03  0.47000000000E+01 0.  1.
          5    1    4    4  502    0 -0.19155854104E+02 -0.10260379742E+03 -0.63415732113E+03  0.64270684136E+03  0.47000000000E+01 0. -1.
         -5    1    4    4    0  502  0.14765947525E+02  0.14522252208E+01 -0.49478283878E+01  0.16331355430E+02  0.47000000000E+01 0. -1.
<mgrwt>
<rscale>  0 0.35583787E+03</rscale>
<asrwt>0</asrwt>
<pdfrwt beam="1">  1       21 0.53545803E-02 0.35583787E+03</pdfrwt>
<pdfrwt beam="2">  1       21 0.13992400E+00 0.35583787E+03</pdfrwt>
<totfact> 0.80656759E+04</totfact>
</mgrwt>
</event>
<event>
 8    1  0.4760912E-006  0.3199637E+03  0.7546771E-02  0.1075666E+00
         21   -1    0    0  504  503  0.00000000000E+00  0.00000000000E+00  0.52126334551E+02  0.52126334551E+02  0.00000000000E+00 0. -1.
         21   -1    0    0  503  504 -0.00000000000E+00 -0.00000000000E+00 -0.49100312970E+03  0.49100312970E+03  0.00000000000E+00 0. -1.
         25    2    1    2    0    0 -0.75724581983E+01 -0.80591475103E+02 -0.12021999075E+03  0.19138862271E+03  0.12499772296E+03 0.  0.
         25    2    1    2    0    0  0.75724581983E+01  0.80591475103E+02 -0.31865680440E+03  0.35174084154E+03  0.12500853024E+03 0.  0.
          5    1    3    3  501    0 -0.47216473299E+02  0.48395041571E+01 -0.14781812450E+02  0.49934037796E+02  0.47000000000E+01 0.  1.
         -5    1    3    3    0  501  0.39644015101E+02 -0.85430979260E+02 -0.10543817830E+03  0.14145458492E+03  0.47000000000E+01 0.  1.
          5    1    4    4  502    0  0.53633905119E+01 -0.12525435248E+02 -0.20141350673E+03  0.20192855959E+03  0.47000000000E+01 0.  1.
         -5    1    4    4    0  502  0.22090676864E+01  0.93116910351E+02 -0.11724329767E+03  0.14981228195E+03  0.47000000000E+01 0.  1.
<mgrwt>
<rscale>  0 0.31996371E+03</rscale>
<asrwt>0</asrwt>
<pdfrwt beam="1">  1       21 0.80194358E-02 0.31996371E+03</pdfrwt>
<pdfrwt beam="2">  1       21 0.75538945E-01 0.31996371E+03</pdfrwt>
<totfact> 0.18035185E+05</totfact>
</mgrwt>
</event>
<event>
 8    1  0.4760912E-006  0.2633958E+03  0.7546771E-02  0.1105120E+00
         21   -1    0    0  504  503  0.00000000000E+00  0.00000000000E+00  0.18930276624E+02  0.18930276624E+02  0.00000000000E+00 0.  1.
         21   -1    0    0  503  504 -0.00000000000E+00 -0.00000000000E+00 -0.91622228022E+03  0.91622228022E+03  0.00000000000E+00 0.  1.
         25    2    1    2    0    0  0.27748400906E+02  0.14375266889E+02 -0.54536709190E+03  0.56038188505E+03  0.12500388039E+03 0.  0.
         25    2    1    2    0    0 -0.27748400906E+02 -0.14375266889E+02 -0.35192491169E+03  0.37477067179E+03  0.12500116365E+03 0.  0.
          5    1    3    3  501    0  0.77559056144E+02  0.10233949851E+02 -0.31429526966E+03  0.32391935331E+03  0.47000000000E+01 0.  1.
         -5    1    3    3    0  501 -0.49810655238E+02  0.41413170377E+01 -0.23107182224E+03  0.23646253174E+03  0.47000000000E+01 0.  1.
          5    1    4    4  502    0 -0.20630928727E+02 -0.69709248430E+02 -0.20142207811E+03  0.21419140526E+03  0.47000000000E+01 0. -1.
         -5    1    4    4    0  502 -0.71174721784E+01  0.55333981541E+02 -0.15050283358E+03  0.16057926653E+03  0.47000000000E+01 0. -1.
<mgrwt>
<rscale>  0 0.26339583E+03</rscale>
<asrwt>0</asrwt>
<pdfrwt beam="1">  1       21 0.29123503E-02 0.26339583E+03</pdfrwt>
<pdfrwt beam="2">  1       21 0.14095727E+00 0.26339583E+03</pdfrwt>
<totfact> 0.22794791E+05</totfact>
</mgrwt>
</event>
<event>
 8    1  0.4760912E-006  0.3446563E+03  0.7546771E-02  0.1064830E+00
         21   -1    0    0  504  503  0.00000000000E+00  0.00000000000E+00  0.20586684265E+03  0.20586684265E+03  0.00000000000E+00 0.  1.
         21   -1    0    0  503  504 -0.00000000000E+00 -0.00000000000E+00 -0.14425340674E+03  0.14425340674E+03  0.00000000000E+00 0.  1.
         25    2    1    2    0    0  0.97176744704E+02 -0.55566221414E+02 -0.90624013594E+01  0.16804125792E+03  0.12499925029E+03 0.  0.
         25    2    1    2    0    0 -0.97176744704E+02  0.55566221414E+02  0.70675837266E+02  0.18207899147E+03  0.12500704175E+03 0.  0.
          5    1    3    3  501    0  0.10241001388E+03 -0.63408659555E+02  0.32757865841E+02  0.12491451806E+03  0.47000000000E+01 0. -1.
         -5    1    3    3    0  501 -0.52332691708E+01  0.78424381406E+01 -0.41820267201E+02  0.43126739860E+02  0.47000000000E+01 0. -1.
          5    1    4    4  502    0  0.12908108834E+01  0.58067614162E+02 -0.39614555733E+01  0.58406310768E+02  0.47000000000E+01 0. -1.
         -5    1    4    4    0  502 -0.98467555588E+02 -0.25013927481E+01  0.74637292839E+02  0.12367268070E+03  0.47000000000E+01 0. -1.
<mgrwt>
<rscale>  0 0.34465631E+03</rscale>
<asrwt>0</asrwt>
<pdfrwt beam="1">  1       21 0.31671822E-01 0.34465631E+03</pdfrwt>
<pdfrwt beam="2">  1       21 0.22192832E-01 0.34465631E+03</pdfrwt>
<totfact> 0.17488825E+05</totfact>
</mgrwt>
</event>
<event>
 8    1  0.4760912E-006  0.9103233E+03  0.7546771E-02  0.9412768E-01
         21   -1    0    0  504  503  0.00000000000E+00  0.00000000000E+00  0.11504947786E+03  0.11504947786E+03  0.00000000000E+00 0.  1.
         21   -1    0    0  503  504 -0.00000000000E+00 -0.00000000000E+00 -0.18007221055E+04  0.18007221055E+04  0.00000000000E+00 0.  1.
         25    2    1    2    0    0  0.14915244746E+03 -0.92998719464E+02 -0.16863508044E+04  0.17000880670E+04  0.12500074242E+03 0.  0.
         25    2    1    2    0    0 -0.14915244746E+03  0.92998719464E+02  0.67817677745E+00  0.21568351635E+03  0.12499481947E+03 0.  0.
          5    1    3    3  501    0 -0.15276771704E+02 -0.33765378148E+02 -0.43182769190E+03  0.43344056802E+03  0.47000000000E+01 0.  1.
         -5    1    3    3    0  501  0.16442921917E+03 -0.59233341316E+02 -0.12545231125E+04  0.12666474990E+04  0.47000000000E+01 0.  1.
          5    1    4    4  502    0 -0.22878867762E+02 -0.30408274183E+02 -0.66076027934E+01  0.38908304300E+02  0.47000000000E+01 0.  1.
         -5    1    4    4    0  502 -0.12627357970E+03  0.12340699365E+03  0.72857795708E+01  0.17677521205E+03  0.47000000000E+01 0.  1.
<mgrwt>
<rscale>  0 0.91032332E+03</rscale>
<asrwt>0</asrwt>
<pdfrwt beam="1">  1       21 0.17699919E-01 0.91032332E+03</pdfrwt>
<pdfrwt beam="2">  1       21 0.27703418E+00 0.91032332E+03</pdfrwt>
<totfact> 0.93247046E+02</totfact>
</mgrwt>
</event>
<event>
 8    1  0.4760912E-006  0.3193854E+03  0.7546771E-02  0.1075933E+00
         21   -1    0    0  504  503  0.00000000000E+00  0.00000000000E+00  0.59801728715E+02  0.59801728715E+02  0.00000000000E+00 0. -1.
         21   -1    0    0  503  504 -0.00000000000E+00 -0.00000000000E+00 -0.42643851128E+03  0.42643851128E+03  0.00000000000E+00 0. -1.
         25    2    1    2    0    0 -0.30126124954E+02 -0.33812516715E+02 -0.31799439614E+03  0.34467137682E+03  0.12500820906E+03 0.  0.
         25    2    1    2    0    0  0.30126124954E+02  0.33812516715E+02 -0.48642386422E+02  0.14156886317E+03  0.12499916628E+03 0.  0.
          5    1    3    3  501    0 -0.70355735392E+02 -0.91692701314E+01 -0.26111516890E+03  0.27062377288E+03  0.47000000000E+01 0.  1.
         -5    1    3    3    0  501  0.40229610438E+02 -0.24643246584E+02 -0.56879227237E+02  0.74047603940E+02  0.47000000000E+01 0.  1.
          5    1    4    4  502    0  0.32811167361E+02  0.18213167229E+02  0.37854403685E+02  0.53510167655E+02  0.47000000000E+01 0. -1.
         -5    1    4    4    0  502 -0.26850424076E+01  0.15599349486E+02 -0.86496790108E+02  0.88058695516E+02  0.47000000000E+01 0. -1.
<mgrwt>
<rscale>  0 0.31938541E+03</rscale>
<asrwt>0</asrwt>
<pdfrwt beam="1">  1       21 0.92002658E-02 0.31938541E+03</pdfrwt>
<pdfrwt beam="2">  1       21 0.65605926E-01 0.31938541E+03</pdfrwt>
<totfact> 0.19391391E+05</totfact>
</mgrwt>
</event>
<event>
 8    1  0.4760912E-006  0.4181350E+03  0.7546771E-02  0.1037675E+00
         21   -1    0    0  504  503  0.00000000000E+00  0.00000000000E+00  0.45688678982E+02  0.45688678982E+02  0.00000000000E+00 0. -1.
         21   -1    0    0  503  504 -0.00000000000E+00 -0.00000000000E+00 -0.95667501461E+03  0.95667501461E+03  0.00000000000E+00 0. -1.
         25    2    1    2    0    0 -0.12590893078E+03 -0.86843003375E+02 -0.29135416617E+03  0.35200544399E+03  0.12500326544E+03 0.  0.
         25    2    1    2    0    0  0.12590893078E+03  0.86843003375E+02 -0.61963216946E+03  0.65035824960E+03  0.12500824496E+03 0.  0.
          5    1    3    3  501    0  0.43698080878E+01 -0.26300585608E+02 -0.14262358136E+03  0.14517021728E+03  0.47000000000E+01 0. -1.
         -5    1    3    3    0  501 -0.13027873887E+03 -0.60542417768E+02 -0.14873058481E+03  0.20683522671E+03  0.47000000000E+01 0. -1.
          5    1    4    4  502    0  0.36874995990E+01  0.40832830139E+02 -0.33049169199E+03  0.33305820234E+03  0.47000000000E+01 0.  1.
         -5    1    4    4    0  502  0.12222143118E+03  0.46010173236E+02 -0.28914047747E+03  0.31730004726E+03  0.47000000000E+01 0.  1.
<mgrwt>
<rscale>  0 0.41813499E+03</rscale>
<asrwt>0</asrwt>
<pdfrwt beam="1">  1       21 0.70290273E-02 0.41813499E+03</pdfrwt>
<pdfrwt beam="2">  1       21 0.14718078E+00 0.41813499E+03</pdfrwt>
<totfact> 0.43139735E+04</totfact>
</mgrwt>
</event>
<event>
 8    1  0.4760912E-006  0.2744649E+03  0.7546771E-02  0.1098751E+00
         21   -1    0    0  504  503  0.00000000000E+00  0.00000000000E+00  0.18799451802E+03  0.18799451802E+03  0.00000000000E+00 0. -1.
         21   -1    0    0  503  504 -0.00000000000E+00 -0.00000000000E+00 -0.10017712250E+03  0.10017712250E+03  0.00000000000E+00 0. -1.
         25    2    1    2    0    0 -0.32425879289E+02 -0.12205650922E+02 -0.31637909338E+01  0.12974550314E+03  0.12499388165E+03 0.  0.
         25    2    1    2    0    0  0.32425879289E+02  0.12205650922E+02  0.90981186455E+02  0.15842613739E+03  0.12498339552E+03 0.  0.
          5    1    3    3  501    0 -0.63010423354E+02  0.10767973754E+02  0.37059649246E+02  0.74038978331E+02  0.47000000000E+01 0. -1.
         -5    1    3    3    0  501  0.30584544065E+02 -0.22973624676E+02 -0.40223440179E+02  0.55706524809E+02  0.47000000000E+01 0. -1.
          5    1    4    4  502    0  0.47301803415E+02 -0.47447737743E+02  0.38233312761E+02  0.77282757637E+02  0.47000000000E+01 0. -1.
         -5    1    4    4    0  502 -0.14875924126E+02  0.59653388665E+02  0.52747873694E+02  0.81143379749E+02  0.47000000000E+01 0. -1.
<mgrwt>
<rscale>  0 0.27446493E+03</rscale>
<asrwt>0</asrwt>
<pdfrwt beam="1">  1       21 0.28922233E-01 0.27446493E+03</pdfrwt>
<pdfrwt beam="2">  1       21 0.15411865E-01 0.27446493E+03</pdfrwt>
<totfact> 0.42009004E+05</totfact>
</mgrwt>
</event>
<event>
 8    1  0.4760912E-006  0.2583614E+03  0.7546771E-02  0.1108132E+00
         21   -1    0    0  504  503  0.00000000000E+00  0.00000000000E+00  0.65865155020E+03  0.65865155020E+03  0.00000000000E+00 0. -1.
         21   -1    0    0  503  504 -0.00000000000E+00 -0.00000000000E+00 -0.25336095182E+02  0.25336095182E+02  0.00000000000E+00 0. -1.
         25    2    1    2    0    0  0.95852077135E+01  0.23493278721E+02  0.26247664697E+03  0.29182831837E+03  0.12500386733E+03 0.  0.
         25    2    1    2    0    0 -0.95852077135E+01 -0.23493278721E+02  0.37083880805E+03  0.39215932702E+03  0.12499482331E+03 0.  0.
          5    1    3    3  501    0  0.59339813675E+02  0.30487395511E+02  0.90047349999E+02  0.11216643889E+03  0.47000000000E+01 0. -1.
         -5    1    3    3    0  501 -0.49754605962E+02 -0.69941167897E+01  0.17242929697E+03  0.17966187948E+03  0.47000000000E+01 0. -1.
          5    1    4    4  502    0 -0.55821704533E+02  0.21332138385E+02  0.22132046858E+03  0.22929448890E+03  0.47000000000E+01 0.  1.
         -5    1    4    4    0  502  0.46236496820E+02 -0.44825417106E+02  0.14951833947E+03  0.16286483812E+03  0.47000000000E+01 0.  1.
<mgrwt>
<rscale>  0 0.25836144E+03</rscale>
<asrwt>0</asrwt>
<pdfrwt beam="1">  1       21 0.10133099E+00 0.25836144E+03</pdfrwt>
<pdfrwt beam="2">  1       21 0.38978613E-02 0.25836144E+03</pdfrwt>
<totfact> 0.31963508E+05</totfact>
</mgrwt>
</event>
<event>
 8    1  0.4760912E-006  0.3001916E+03  0.7546771E-02  0.1085145E+00
         21   -1    0    0  504  503  0.00000000000E+00  0.00000000000E+00  0.70518203831E+02  0.70518203831E+02  0.00000000000E+00 0. -1.
         21   -1    0    0  503  504 -0.00000000000E+00 -0.00000000000E+00 -0.31947425237E+03  0.31947425237E+03  0.00000000000E+00 0. -1.
         25    2    1    2    0    0 -0.22715839644E+02  0.47773866809E+02 -0.20771722643E+03  0.24813132207E+03  0.12499742044E+03 0.  0.
         25    2    1    2    0    0  0.22715839644E+02 -0.47773866809E+02 -0.41238822118E+02  0.14186113414E+03  0.12500235681E+03 0.  0.
          5    1    3    3  501    0 -0.73553853215E+02  0.34794265229E+02 -0.10740923852E+03  0.13483191290E+03  0.47000000000E+01 0. -1.
         -5    1    3    3    0  501  0.50838013571E+02  0.12979601580E+02 -0.10030798790E+03  0.11329940917E+03  0.47000000000E+01 0. -1.
          5    1    4    4  502    0  0.73220790622E+02 -0.39230064687E+02 -0.34152680153E+02  0.89937632370E+02  0.47000000000E+01 0. -1.
         -5    1    4    4    0  502 -0.50504950978E+02 -0.85438021225E+01 -0.70861419653E+01  0.51923501769E+02  0.47000000000E+01 0. -1.
<mgrwt>
<rscale>  0 0.30019161E+03</rscale>
<asrwt>0</asrwt>
<pdfrwt beam="1">  1       21 0.10848954E-01 0.30019161E+03</pdfrwt>
<pdfrwt beam="2">  1       21 0.49149885E-01 0.30019161E+03</pdfrwt>
<totfact> 0.27016493E+05</totfact>
</mgrwt>
</event>
<event>
 8    1  0.4760912E-006  0.4832804E+03  0.7546771E-02  0.1018237E+00
         21   -1    0    0  504  503  0.00000000000E+00  0.00000000000E+00  0.64965000341E+02  0.64965000341E+02  0.00000000000E+00 0.  1.
         21   -1    0    0  503  504 -0.00000000000E+00 -0.00000000000E+00 -0.89879147855E+03  0.89879147855E+03  0.00000000000E+00 0.  1.
         25    2    1    2    0    0 -0.93644386268E+01  0.73232375856E+01 -0.82862753178E+03  0.83808646797E+03  0.12499607538E+03 0.  0.
         25    2    1    2    0    0  0.93644386268E+01 -0.73232375856E+01 -0.51989464285E+01  0.12567001092E+03  0.12499840031E+03 0.  0.
          5    1    3    3  501    0 -0.10779793165E+02 -0.20111451472E+02 -0.79058023227E+03  0.79092342744E+03  0.47000000000E+01 0. -1.
         -5    1    3    3    0  501  0.14153545385E+01  0.27434689058E+02 -0.38047299505E+02  0.47163040527E+02  0.47000000000E+01 0. -1.
          5    1    4    4  502    0  0.42890374820E+02  0.11873615292E+02 -0.49481432222E+02  0.66716333286E+02  0.47000000000E+01 0.  1.
         -5    1    4    4    0  502 -0.33525936194E+02 -0.19196852878E+02  0.44282485793E+02  0.58953677630E+02  0.47000000000E+01 0.  1.
<mgrwt>
<rscale>  0 0.48328041E+03</rscale>
<asrwt>0</asrwt>
<pdfrwt beam="1">  1       21 0.99946162E-02 0.48328041E+03</pdfrwt>
<pdfrwt beam="2">  1       21 0.13827560E+00 0.48328041E+03</pdfrwt>
<totfact> 0.26799618E+04</totfact>
</mgrwt>
</event>
<event>
 8    1  0.4760912E-006  0.3068121E+03  0.7546771E-02  0.1081884E+00
         21   -1    0    0  504  503  0.00000000000E+00  0.00000000000E+00  0.15251837739E+03  0.15251837739E+03  0.00000000000E+00 0.  1.
         21   -1    0    0  503  504 -0.00000000000E+00 -0.00000000000E+00 -0.15429886734E+03  0.15429886734E+03  0.00000000000E+00 0.  1.
         25    2    1    2    0    0  0.70793324364E+02  0.22008738969E+02 -0.50050508858E+02  0.15370930826E+03  0.12500167456E+03 0.  0.
         25    2    1    2    0    0 -0.70793324364E+02 -0.22008738969E+02  0.48270018908E+02  0.15310793647E+03  0.12496385925E+03 0.  0.
          5    1    3    3  501    0  0.65175432455E+02  0.30162190587E+02 -0.88303272587E+02  0.11391730635E+03  0.47000000000E+01 0. -1.
         -5    1    3    3    0  501  0.56178919093E+01 -0.81534516182E+01  0.38252763729E+02  0.39792001906E+02  0.47000000000E+01 0. -1.
          5    1    4    4  502    0 -0.84572652535E+02 -0.42296288810E+02  0.71780461449E+02  0.11881091806E+03  0.47000000000E+01 0. -1.
         -5    1    4    4    0  502  0.13779328171E+02  0.20287549841E+02 -0.23510442541E+02  0.34297018411E+02  0.47000000000E+01 0. -1.
<mgrwt>
<rscale>  0 0.30681208E+03</rscale>
<asrwt>0</asrwt>
<pdfrwt beam="1">  1       21 0.23464366E-01 0.30681208E+03</pdfrwt>
<pdfrwt beam="2">  1       21 0.23738287E-01 0.30681208E+03</pdfrwt>
<totfact> 0.27813217E+05</totfact>
</mgrwt>
</event>
<event>
 8    1  0.4760912E-006  0.3929339E+03  0.7546771E-02  0.1046254E+00
         21   -1    0    0  504  503  0.00000000000E+00  0.00000000000E+00  0.18180450278E+02  0.18180450278E+02  0.00000000000E+00 0. -1.
         21   -1    0    0  503  504 -0.00000000000E+00 -0.00000000000E+00 -0.21231195712E+04  0.21231195712E+04  0.00000000000E+00 0. -1.
         25    2    1    2    0    0 -0.85795130115E+02  0.12123618657E+03 -0.12172569160E+04  0.12326385012E+04  0.12499703045E+03 0.  0.
         25    2    1    2    0    0  0.85795130115E+02 -0.12123618657E+03 -0.88768220487E+03  0.90866152030E+03  0.12500817713E+03 0.  0.
          5    1    3    3  501    0  0.18772021659E+01 -0.23913016026E+02 -0.16198543192E+03  0.16381918807E+03  0.47000000000E+01 0. -1.
         -5    1    3    3    0  501 -0.87672332280E+02  0.14514920260E+03 -0.10552714841E+04  0.10688193131E+04  0.47000000000E+01 0. -1.
          5    1    4    4  502    0 -0.19365124990E+02 -0.43705630898E+02 -0.10947725436E+03  0.11955145110E+03  0.47000000000E+01 0. -1.
         -5    1    4    4    0  502  0.10516025510E+03 -0.77530555671E+02 -0.77820495051E+03  0.78911006920E+03  0.47000000000E+01 0. -1.
<mgrwt>
<rscale>  0 0.39293394E+03</rscale>
<asrwt>0</asrwt>
<pdfrwt beam="1">  1       21 0.27969933E-02 0.39293394E+03</pdfrwt>
<pdfrwt beam="2">  1       21 0.32663367E+00 0.39293394E+03</pdfrwt>
<totfact> 0.14669348E+04</totfact>
</mgrwt>
</event>
<event>
 8    1  0.4760912E-006  0.3681418E+03  0.7546771E-02  0.1055406E+00
         21   -1    0    0  504  503  0.00000000000E+00  0.00000000000E+00  0.76978929262E+03  0.76978929262E+03  0.00000000000E+00 0. -1.
         21   -1    0    0  503  504 -0.00000000000E+00 -0.00000000000E+00 -0.44014765901E+02  0.44014765901E+02  0.00000000000E+00 0. -1.
         25    2    1    2    0    0 -0.58933542992E+02 -0.24637474113E+02  0.62607621657E+03  0.64162772233E+03  0.12503814413E+03 0.  0.
         25    2    1    2    0    0  0.58933542992E+02  0.24637474113E+02  0.99698310147E+02  0.17217633619E+03  0.12499908030E+03 0.  0.
          5    1    3    3  501    0 -0.73605358048E+02 -0.35730444018E+02  0.61328406997E+03  0.61873568981E+03  0.47000000000E+01 0.  1.
         -5    1    3    3    0  501  0.14671815056E+02  0.11092969906E+02  0.12792146604E+02  0.22892032525E+02  0.47000000000E+01 0.  1.
          5    1    4    4  502    0  0.90786777223E+02  0.15553246368E+02  0.10335441373E+03  0.13852208210E+03  0.47000000000E+01 0.  1.
         -5    1    4    4    0  502 -0.31853234232E+02  0.90842277444E+01 -0.36561035882E+01  0.33654254087E+02  0.47000000000E+01 0.  1.
<mgrwt>
<rscale>  0 0.36814180E+03</rscale>
<asrwt>0</asrwt>
<pdfrwt beam="1">  1       21 0.11842911E+00 0.36814180E+03</pdfrwt>
<pdfrwt beam="2">  1       21 0.67715030E-02 0.36814180E+03</pdfrwt>
<totfact> 0.82171101E+04</totfact>
</mgrwt>
</event>
<event>
 8    1  0.4760912E-006  0.2781169E+03  0.7546771E-02  0.1096722E+00
         21   -1    0    0  504  503  0.00000000000E+00  0.00000000000E+00  0.32866214220E+02  0.32866214220E+02  0.00000000000E+00 0.  1.
         21   -1    0    0  503  504 -0.00000000000E+00 -0.00000000000E+00 -0.58836282554E+03  0.58836282554E+03  0.00000000000E+00 0.  1.
         25    2    1    2    0    0 -0.43587436192E+02  0.40899280252E+02 -0.30415399300E+03  0.33422686355E+03  0.12500131654E+03 0.  0.
         25    2    1    2    0    0  0.43587436192E+02 -0.40899280252E+02 -0.25134261832E+03  0.28700217622E+03  0.12499808659E+03 0.  0.
          5    1    3    3  501    0  0.48510039146E+01  0.76912904584E+02 -0.18812721805E+03  0.20335453597E+03  0.47000000000E+01 0. -1.
         -5    1    3    3    0  501 -0.48438440107E+02 -0.36013624332E+02 -0.11602677495E+03  0.13087232757E+03  0.47000000000E+01 0. -1.
          5    1    4    4  502    0  0.47652184937E+02  0.21740621677E+02 -0.38849706063E+02  0.65381763675E+02  0.47000000000E+01 0.  1.
         -5    1    4    4    0  502 -0.40647487441E+01 -0.62639901929E+02 -0.21249291226E+03  0.22162041254E+03  0.47000000000E+01 0.  1.
<mgrwt>
<rscale>  0 0.27811694E+03</rscale>
<asrwt>0</asrwt>
<pdfrwt beam="1">  1       21 0.50563405E-02 0.27811694E+03</pdfrwt>
<pdfrwt beam="2">  1       21 0.90517360E-01 0.27811694E+03</pdfrwt>
<totfact> 0.26721956E+05</totfact>
</mgrwt>
</event>
<event>
 8    1  0.4760912E-006  0.3010441E+03  0.7546771E-02  0.1084720E+00
         21   -1    0    0  504  503  0.00000000000E+00  0.00000000000E+00  0.17625279968E+03  0.17625279968E+03  0.00000000000E+00 0.  1.
         21   -1    0    0  503  504 -0.00000000000E+00 -0.00000000000E+00 -0.12854766233E+03  0.12854766233E+03  0.00000000000E+00 0.  1.
         25    2    1    2    0    0  0.57138190381E+02  0.54491586411E+02 -0.47990965443E+01  0.14790458615E+03  0.12497451535E+03 0.  0.
         25    2    1    2    0    0 -0.57138190381E+02 -0.54491586411E+02  0.52504233896E+02  0.15689587587E+03  0.12500206197E+03 0.  0.
          5    1    3    3  501    0  0.34718154450E+02 -0.30888321111E+02  0.27012264750E+02  0.53955454557E+02  0.47000000000E+01 0.  1.
         -5    1    3    3    0  501  0.22420035931E+02  0.85379907522E+02 -0.31811361295E+02  0.93949131593E+02  0.47000000000E+01 0.  1.
          5    1    4    4  502    0 -0.92977664447E+02 -0.24871759309E+02  0.16188068528E+02  0.97711790792E+02  0.47000000000E+01 0. -1.
         -5    1    4    4    0  502  0.35839474066E+02 -0.29619827102E+02  0.36316165368E+02  0.59184085073E+02  0.47000000000E+01 0. -1.
<mgrwt>
<rscale>  0 0.30104409E+03</rscale>
<asrwt>0</asrwt>
<pdfrwt beam="1">  1       21 0.27115815E-01 0.30104409E+03</pdfrwt>
<pdfrwt beam="2">  1       21 0.19776563E-01 0.30104409E+03</pdfrwt>
<totfact> 0.29803138E+05</totfact>
</mgrwt>
</event>
<event>
 8    1  0.4760912E-006  0.2724204E+03  0.7546771E-02  0.1099902E+00
         21   -1    0    0  504  503  0.00000000000E+00  0.00000000000E+00  0.92354090412E+02  0.92354090412E+02  0.00000000000E+00 0. -1.
         21   -1    0    0  503  504 -0.00000000000E+00 -0.00000000000E+00 -0.20089217733E+03  0.20089217733E+03  0.00000000000E+00 0. -1.
         25    2    1    2    0    0 -0.12738535156E+02  0.49121907674E+02 -0.74491705717E+02  0.15410904602E+03  0.12500140701E+03 0.  0.
         25    2    1    2    0    0  0.12738535156E+02 -0.49121907674E+02 -0.34046381200E+02  0.13913722172E+03  0.12499911321E+03 0.  0.
          5    1    3    3  501    0 -0.47379305762E+02  0.75813335097E+02 -0.39256745847E+02  0.97752966643E+02  0.47000000000E+01 0. -1.
         -5    1    3    3    0  501  0.34640770606E+02 -0.26691427423E+02 -0.35234959870E+02  0.56356079380E+02  0.47000000000E+01 0. -1.
          5    1    4    4  502    0  0.24641448094E+02 -0.79663791056E+02  0.99069894716E+01  0.84105641963E+02  0.47000000000E+01 0.  1.
         -5    1    4    4    0  502 -0.11902912938E+02  0.30541883382E+02 -0.43953370671E+02  0.55031579755E+02  0.47000000000E+01 0.  1.
<mgrwt>
<rscale>  0 0.27242037E+03</rscale>
<asrwt>0</asrwt>
<pdfrwt beam="1">  1       21 0.14208322E-01 0.27242037E+03</pdfrwt>
<pdfrwt beam="2">  1       21 0.30906488E-01 0.27242037E+03</pdfrwt>
<totfact> 0.42819028E+05</totfact>
</mgrwt>
</event>
<event>
 8    1  0.4760912E-006  0.3636418E+03  0.7546771E-02  0.1057151E+00
         21   -1    0    0  504  503  0.00000000000E+00  0.00000000000E+00  0.19765835199E+02  0.19765835199E+02  0.00000000000E+00 0. -1.
         21   -1    0    0  503  504 -0.00000000000E+00 -0.00000000000E+00 -0.16725244293E+04  0.16725244293E+04  0.00000000000E+00 0. -1.
         25    2    1    2    0    0 -0.11305229191E+03 -0.43675140148E+02 -0.10701281325E+04  0.10841990361E+04  0.12499996567E+03 0.  0.
         25    2    1    2    0    0  0.11305229191E+03  0.43675140148E+02 -0.58263046159E+03  0.60809122835E+03  0.12501339390E+03 0.  0.
          5    1    3    3  501    0 -0.86368822670E+02 -0.62524899765E+02 -0.42393415677E+03  0.43716266526E+03  0.47000000000E+01 0. -1.
         -5    1    3    3    0  501 -0.26683469238E+02  0.18849759617E+02 -0.64619397571E+03  0.64703637086E+03  0.47000000000E+01 0. -1.
          5    1    4    4  502    0  0.61346247110E+02  0.85072580783E+00 -0.79756889493E+02  0.10073399223E+03  0.47000000000E+01 0.  1.
         -5    1    4    4    0  502  0.51706044799E+02  0.42824414340E+02 -0.50287357210E+03  0.50735723612E+03  0.47000000000E+01 0.  1.
<mgrwt>
<rscale>  0 0.36364181E+03</rscale>
<asrwt>0</asrwt>
<pdfrwt beam="1">  1       21 0.30408965E-02 0.36364181E+03</pdfrwt>
<pdfrwt beam="2">  1       21 0.25731155E+00 0.36364181E+03</pdfrwt>
<totfact> 0.33623134E+04</totfact>
</mgrwt>
</event>
<event>
 8    1  0.4760912E-006  0.3389747E+03  0.7546771E-02  0.1067233E+00
         21   -1    0    0  504  503  0.00000000000E+00  0.00000000000E+00  0.47598518684E+03  0.47598518684E+03  0.00000000000E+00 0.  1.
         21   -1    0    0  503  504 -0.00000000000E+00 -0.00000000000E+00 -0.60350529868E+02  0.60350529868E+02  0.00000000000E+00 0.  1.
         25    2    1    2    0    0  0.33410964863E+02  0.30056313123E+02  0.37436754419E+03  0.39723518759E+03  0.12500024632E+03 0.  0.
         25    2    1    2    0    0 -0.33410964863E+02 -0.30056313123E+02  0.41267112774E+02  0.13910052912E+03  0.12500523218E+03 0.  0.
          5    1    3    3  501    0 -0.26928850722E+02  0.38724909548E+02  0.57482357937E+02  0.74505658139E+02  0.47000000000E+01 0. -1.
         -5    1    3    3    0  501  0.60339815585E+02 -0.86685964245E+01  0.31688518626E+03  0.32272952945E+03  0.47000000000E+01 0. -1.
          5    1    4    4  502    0 -0.75419264236E+02 -0.59766438099E+01  0.77462668652E+00  0.75805512568E+02  0.47000000000E+01 0.  1.
         -5    1    4    4    0  502  0.42008299373E+02 -0.24079669314E+02  0.40492486088E+02  0.63295016550E+02  0.47000000000E+01 0.  1.
<mgrwt>
<rscale>  0 0.33897468E+03</rscale>
<asrwt>0</asrwt>
<pdfrwt beam="1">  1       21 0.73228488E-01 0.33897468E+03</pdfrwt>
<pdfrwt beam="2">  1       21 0.92846972E-02 0.33897468E+03</pdfrwt>
<totfact> 0.14863875E+05</totfact>
</mgrwt>
</event>
<event>
 8    1  0.4760912E-006  0.3262524E+03  0.7546771E-02  0.1072807E+00
         21   -1    0    0  504  503  0.00000000000E+00  0.00000000000E+00  0.14351038489E+02  0.14351038489E+02  0.00000000000E+00 0. -1.
         21   -1    0    0  503  504 -0.00000000000E+00 -0.00000000000E+00 -0.18542319072E+04  0.18542319072E+04  0.00000000000E+00 0. -1.
         25    2    1    2    0    0  0.58090816930E+02  0.18968472415E+02 -0.14076389520E+04  0.14144987431E+04  0.12499971556E+03 0.  0.
         25    2    1    2    0    0 -0.58090816930E+02 -0.18968472415E+02 -0.43224191665E+03  0.45408420260E+03  0.12500017033E+03 0.  0.
          5    1    3    3  501    0  0.27533579755E+02  0.46665632926E+02 -0.12589618219E+04  0.12601359999E+04  0.47000000000E+01 0. -1.
         -5    1    3    3    0  501  0.30557237176E+02 -0.27697160511E+02 -0.14867713015E+03  0.15436274315E+03  0.47000000000E+01 0. -1.
          5    1    4    4  502    0  0.23575410034E+02 -0.20319971299E+02 -0.27534251907E+03  0.27713587642E+03  0.47000000000E+01 0.  1.
         -5    1    4    4    0  502 -0.81666226964E+02  0.13514988838E+01 -0.15689939758E+03  0.17694832617E+03  0.47000000000E+01 0.  1.
<mgrwt>
<rscale>  0 0.32625238E+03</rscale>
<asrwt>0</asrwt>
<pdfrwt beam="1">  1       21 0.22078527E-02 0.32625238E+03</pdfrwt>
<pdfrwt beam="2">  1       21 0.28526637E+00 0.32625238E+03</pdfrwt>
<totfact> 0.39698043E+04</totfact>
</mgrwt>
</event>
<event>
 8    1  0.4760912E-006  0.3122886E+03  0.7546771E-02  0.1079254E+00
         21   -1    0    0  504  503  0.00000000000E+00  0.00000000000E+00  0.71397964054E+02  0.71397964054E+02  0.00000000000E+00 0. -1.
         21   -1    0    0  503  504 -0.00000000000E+00 -0.00000000000E+00 -0.34148095487E+03  0.34148095487E+03  0.00000000000E+00 0. -1.
         25    2    1    2    0    0 -0.64829844622E+02 -0.10880750819E+02 -0.47004083686E+02  0.14885104848E+03  0.12500380497E+03 0.  0.
         25    2    1    2    0    0  0.64829844622E+02  0.10880750819E+02 -0.22307890713E+03  0.26402787045E+03  0.12500087230E+03 0.  0.
          5    1    3    3  501    0 -0.36924787617E+02  0.56407463994E+02 -0.29766112764E+02  0.73846823925E+02  0.47000000000E+01 0.  1.
         -5    1    3    3    0  501 -0.27905057005E+02 -0.67288214812E+02 -0.17237970922E+02  0.75004224552E+02  0.47000000000E+01 0.  1.
          5    1    4    4  502    0  0.58349030074E+02 -0.50719550445E+02 -0.14356739431E+03  0.16312807489E+03  0.47000000000E+01 0.  1.
         -5    1    4    4    0  502  0.64808145484E+01  0.61600301263E+02 -0.79511512818E+02  0.10089979556E+03  0.47000000000E+01 0.  1.
<mgrwt>
<rscale>  0 0.31228862E+03</rscale>
<asrwt>0</asrwt>
<pdfrwt beam="1">  1       21 0.10984302E-01 0.31228862E+03</pdfrwt>
<pdfrwt beam="2">  1       21 0.52535531E-01 0.31228862E+03</pdfrwt>
<totfact> 0.22893773E+05</totfact>
</mgrwt>
</event>
<event>
 8    1  0.4760912E-006  0.2801663E+03  0.7546771E-02  0.1095598E+00
         21   -1    0    0  504  503  0.00000000000E+00  0.00000000000E+00  0.10952564105E+02  0.10952564105E+02  0.00000000000E+00 0. -1.
         21   -1    0    0  503  504 -0.00000000000E+00 -0.00000000000E+00 -0.17916622623E+04  0.17916622623E+04  0.00000000000E+00 0. -1.
         25    2    1    2    0    0  0.43546713939E+02  0.45104381146E+02 -0.83753626218E+03  0.84913080299E+03  0.12500163451E+03 0.  0.
         25    2    1    2    0    0 -0.43546713939E+02 -0.45104381146E+02 -0.94317343607E+03  0.95348402347E+03  0.12499972403E+03 0.  0.
          5    1    3    3  501    0  0.13396093854E+02 -0.24733094711E+02 -0.47328486572E+02  0.55256284219E+02  0.47000000000E+01 0.  1.
         -5    1    3    3    0  501  0.30150620085E+02  0.69837475857E+02 -0.79020777560E+03  0.79387451877E+03  0.47000000000E+01 0.  1.
          5    1    4    4  502    0  0.24425412831E+01 -0.65288515754E+02 -0.24871617332E+03  0.25719716400E+03  0.47000000000E+01 0.  1.
         -5    1    4    4    0  502 -0.45989255222E+02  0.20184134608E+02 -0.69445726275E+03  0.69628685947E+03  0.47000000000E+01 0.  1.
<mgrwt>
<rscale>  0 0.28016635E+03</rscale>
<asrwt>0</asrwt>
<pdfrwt beam="1">  1       21 0.16850096E-02 0.28016635E+03</pdfrwt>
<pdfrwt beam="2">  1       21 0.27564040E+00 0.28016635E+03</pdfrwt>
<totfact> 0.72267129E+04</totfact>
</mgrwt>
</event>
<event>
 8    1  0.4760912E-006  0.4017218E+03  0.7546771E-02  0.1043185E+00
         21   -1    0    0  504  503  0.00000000000E+00  0.00000000000E+00  0.68634436901E+02  0.68634436901E+02  0.00000000000E+00 0. -1.
         21   -1    0    0  503  504 -0.00000000000E+00 -0.00000000000E+00 -0.58782604263E+03  0.58782604263E+03  0.00000000000E+00 0. -1.
         25    2    1    2    0    0 -0.78641020339E+02  0.63774226813E+02 -0.45615478514E+03  0.48368533986E+03  0.12499103132E+03 0.  0.
         25    2    1    2    0    0  0.78641020339E+02 -0.63774226813E+02 -0.63036820595E+02  0.17277513967E+03  0.12500418413E+03 0.  0.
          5    1    3    3  501    0 -0.12489992733E+02  0.88702176556E+02 -0.26957585823E+03  0.28410791855E+03  0.47000000000E+01 0. -1.
         -5    1    3    3    0  501 -0.66151027606E+02 -0.24927949743E+02 -0.18657892691E+03  0.19957742131E+03  0.47000000000E+01 0. -1.
          5    1    4    4  502    0 -0.33880833044E+02 -0.88808917849E+01 -0.17832291497E+02  0.39583604013E+02  0.47000000000E+01 0. -1.
         -5    1    4    4    0  502  0.11252185338E+03 -0.54893335028E+02 -0.45204529097E+02  0.13319153566E+03  0.47000000000E+01 0. -1.
<mgrwt>
<rscale>  0 0.40172184E+03</rscale>
<asrwt>0</asrwt>
<pdfrwt beam="1">  1       21 0.10559144E-01 0.40172184E+03</pdfrwt>
<pdfrwt beam="2">  1       21 0.90434774E-01 0.40172184E+03</pdfrwt>
<totfact> 0.71491241E+04</totfact>
</mgrwt>
</event>
<event>
 8    1  0.4760912E-006  0.2746412E+03  0.7546771E-02  0.1098652E+00
         21   -1    0    0  504  503  0.00000000000E+00  0.00000000000E+00  0.10897760562E+04  0.10897760562E+04  0.00000000000E+00 0.  1.
         21   -1    0    0  503  504 -0.00000000000E+00 -0.00000000000E+00 -0.17303507628E+02  0.17303507628E+02  0.00000000000E+00 0.  1.
         25    2    1    2    0    0  0.23646172060E+01  0.10482768859E+02  0.76132568125E+03  0.77159372950E+03  0.12499844241E+03 0.  0.
         25    2    1    2    0    0 -0.23646172060E+01 -0.10482768859E+02  0.31114686732E+03  0.33548583433E+03  0.12499156826E+03 0.  0.
          5    1    3    3  501    0  0.59428067912E+02 -0.16498696673E+02  0.40337587221E+03  0.40809078222E+03  0.47000000000E+01 0. -1.
         -5    1    3    3    0  501 -0.57063450706E+02  0.26981465533E+02  0.35794980904E+03  0.36350294728E+03  0.47000000000E+01 0. -1.
          5    1    4    4  502    0  0.46310803464E+02  0.12285330481E+02  0.24711548356E+03  0.25176133953E+03  0.47000000000E+01 0.  1.
         -5    1    4    4    0  502 -0.48675420670E+02 -0.22768099341E+02  0.64031383757E+02  0.83724494808E+02  0.47000000000E+01 0.  1.
<mgrwt>
<rscale>  0 0.27464121E+03</rscale>
<asrwt>0</asrwt>
<pdfrwt beam="1">  1       21 0.16765780E+00 0.27464121E+03</pdfrwt>
<pdfrwt beam="2">  1       21 0.26620790E-02 0.27464121E+03</pdfrwt>
<totfact> 0.16523029E+05</totfact>
</mgrwt>
</event>
<event>
 8    1  0.4760912E-006  0.3381457E+03  0.7546771E-02  0.1067588E+00
         21   -1    0    0  504  503  0.00000000000E+00  0.00000000000E+00  0.21036035389E+03  0.21036035389E+03  0.00000000000E+00 0.  1.
         21   -1    0    0  503  504 -0.00000000000E+00 -0.00000000000E+00 -0.13588882767E+03  0.13588882767E+03  0.00000000000E+00 0.  1.
         25    2    1    2    0    0  0.99309063167E+00  0.24267418373E+00  0.15379613712E+03  0.19819307350E+03  0.12500478979E+03 0.  0.
         25    2    1    2    0    0 -0.99309063167E+00 -0.24267418373E+00 -0.79324610899E+02  0.14805610806E+03  0.12500868818E+03 0.  0.
          5    1    3    3  501    0  0.62616515289E+02  0.38032662572E+01  0.83065885513E+02  0.10419848443E+03  0.47000000000E+01 0.  1.
         -5    1    3    3    0  501 -0.61623424657E+02 -0.35605920734E+01  0.70730251603E+02  0.93994589069E+02  0.47000000000E+01 0.  1.
          5    1    4    4  502    0  0.19338485167E+01 -0.52418655766E+02  0.33948348362E+00  0.52665553177E+02  0.47000000000E+01 0. -1.
         -5    1    4    4    0  502 -0.29269391483E+01  0.52175981582E+02 -0.79664094383E+02  0.95390554882E+02  0.47000000000E+01 0. -1.
<mgrwt>
<rscale>  0 0.33814566E+03</rscale>
<asrwt>0</asrwt>
<pdfrwt beam="1">  1       21 0.32363131E-01 0.33814566E+03</pdfrwt>
<pdfrwt beam="2">  1       21 0.20905974E-01 0.33814566E+03</pdfrwt>
<totfact> 0.18798243E+05</totfact>
</mgrwt>
</event>
<event>
 8    1  0.4760912E-006  0.4002715E+03  0.7546771E-02  0.1043686E+00
         21   -1    0    0  504  503  0.00000000000E+00  0.00000000000E+00  0.93243012425E+02  0.93243012425E+02  0.00000000000E+00 0.  1.
         21   -1    0    0  503  504 -0.00000000000E+00 -0.00000000000E+00 -0.42956914258E+03  0.42956914258E+03  0.00000000000E+00 0.  1.
         25    2    1    2    0    0 -0.54572605967E+02  0.86775659901E+02 -0.32227411084E+03  0.36054387873E+03  0.12499240577E+03 0.  0.
         25    2    1    2    0    0  0.54572605967E+02 -0.86775659901E+02 -0.14052019313E+02  0.16226827627E+03  0.12500139905E+03 0.  0.
          5    1    3    3  501    0 -0.64695443640E+02  0.68454150627E+02 -0.10081433116E+03  0.13804742132E+03  0.47000000000E+01 0. -1.
         -5    1    3    3    0  501  0.10122837673E+02  0.18321509274E+02 -0.22145977968E+03  0.22249645742E+03  0.47000000000E+01 0. -1.
          5    1    4    4  502    0  0.29906506145E+02 -0.67652582162E+02  0.50996556521E+02  0.89966714734E+02  0.47000000000E+01 0.  1.
         -5    1    4    4    0  502  0.24666099822E+02 -0.19123077738E+02 -0.65048575834E+02  0.72301561537E+02  0.47000000000E+01 0.  1.
<mgrwt>
<rscale>  0 0.40027151E+03</rscale>
<asrwt>0</asrwt>
<pdfrwt beam="1">  1       21 0.14345079E-01 0.40027151E+03</pdfrwt>
<pdfrwt beam="2">  1       21 0.66087562E-01 0.40027151E+03</pdfrwt>
<totfact> 0.83921179E+04</totfact>
</mgrwt>
</event>
<event>
 8    1  0.4760912E-006  0.3358338E+03  0.7546771E-02  0.1068584E+00
         21   -1    0    0  504  503  0.00000000000E+00  0.00000000000E+00  0.60661986246E+02  0.60661986246E+02  0.00000000000E+00 0.  1.
         21   -1    0    0  503  504 -0.00000000000E+00 -0.00000000000E+00 -0.46480643914E+03  0.46480643914E+03  0.00000000000E+00 0.  1.
         25    2    1    2    0    0  0.36223767061E+02 -0.62078727210E+02 -0.67441545332E+02  0.15918699269E+03  0.12500482764E+03 0.  0.
         25    2    1    2    0    0 -0.36223767061E+02  0.62078727210E+02 -0.33670290756E+03  0.36628143269E+03  0.12500924087E+03 0.  0.
          5    1    3    3  501    0  0.64891101909E+02 -0.81435862320E+02 -0.67677148194E+02  0.12427767767E+03  0.47000000000E+01 0. -1.
         -5    1    3    3    0  501 -0.28667334848E+02  0.19357135110E+02  0.23560286150E+00  0.34909315027E+02  0.47000000000E+01 0. -1.
          5    1    4    4  502    0  0.25626741089E+02 -0.25160813787E+02 -0.68062747156E+02  0.77100090530E+02  0.47000000000E+01 0.  1.
         -5    1    4    4    0  502 -0.61850508150E+02  0.87239540996E+02 -0.26864016041E+03  0.28918134216E+03  0.47000000000E+01 0.  1.
<mgrwt>
<rscale>  0 0.33583378E+03</rscale>
<asrwt>0</asrwt>
<pdfrwt beam="1">  1       21 0.93326132E-02 0.33583378E+03</pdfrwt>
<pdfrwt beam="2">  1       21 0.71508684E-01 0.33583378E+03</pdfrwt>
<totfact> 0.15548455E+05</totfact>
</mgrwt>
</event>
<event>
 8    1  0.4760912E-006  0.3282165E+03  0.7546771E-02  0.1071929E+00
         21   -1    0    0  504  503  0.00000000000E+00  0.00000000000E+00  0.48465547846E+03  0.48465547846E+03  0.00000000000E+00 0. -1.
         21   -1    0    0  503  504 -0.00000000000E+00 -0.00000000000E+00 -0.55568361790E+02  0.55568361790E+02  0.00000000000E+00 0. -1.
         25    2    1    2    0    0  0.36450479699E+02 -0.71169265063E+02  0.32991395932E+03  0.36174855707E+03  0.12500038493E+03 0.  0.
         25    2    1    2    0    0 -0.36450479699E+02  0.71169265063E+02  0.99173157350E+02  0.17847528317E+03  0.12499763920E+03 0.  0.
          5    1    3    3  501    0  0.44660890061E+02  0.71603386291E+01  0.37698069515E+02  0.59068604143E+02  0.47000000000E+01 0.  1.
         -5    1    3    3    0  501 -0.82104103612E+01 -0.78329603692E+02  0.29221588980E+03  0.30267995293E+03  0.47000000000E+01 0.  1.
          5    1    4    4  502    0 -0.23425440183E+02 -0.84755792982E+01 -0.21490928530E+02  0.33234570876E+02  0.47000000000E+01 0. -1.
         -5    1    4    4    0  502 -0.13025039517E+02  0.79644844361E+02  0.12066408588E+03  0.14524071230E+03  0.47000000000E+01 0. -1.
<mgrwt>
<rscale>  0 0.32821646E+03</rscale>
<asrwt>0</asrwt>
<pdfrwt beam="1">  1       21 0.74562379E-01 0.32821646E+03</pdfrwt>
<pdfrwt beam="2">  1       21 0.85489791E-02 0.32821646E+03</pdfrwt>
<totfact> 0.16561430E+05</totfact>
</mgrwt>
</event>
<event>
 8    1  0.4760912E-006  0.2947572E+03  0.7546771E-02  0.1087891E+00
         21   -1    0    0  504  503  0.00000000000E+00  0.00000000000E+00  0.39274128883E+02  0.39274128883E+02  0.00000000000E+00 0.  1.
         21   -1    0    0  503  504 -0.00000000000E+00 -0.00000000000E+00 -0.55304723277E+03  0.55304723277E+03  0.00000000000E+00 0.  1.
         25    2    1    2    0    0 -0.64328856530E+02  0.36513141172E+02 -0.20669706730E+03  0.25262712501E+03  0.12500150158E+03 0.  0.
         25    2    1    2    0    0  0.64328856530E+02 -0.36513141172E+02 -0.30707603658E+03  0.33969423664E+03  0.12500028361E+03 0.  0.
          5    1    3    3  501    0 -0.79300530678E+02 -0.23774555181E+02 -0.12055636861E+03  0.14632064670E+03  0.47000000000E+01 0.  1.
         -5    1    3    3    0  501  0.14971674147E+02  0.60287696353E+02 -0.86140698699E+02  0.10630647831E+03  0.47000000000E+01 0.  1.
          5    1    4    4  502    0  0.36423084398E+02 -0.34667760694E+02 -0.30721149390E+03  0.31133500717E+03  0.47000000000E+01 0. -1.
         -5    1    4    4    0  502  0.27905772133E+02 -0.18453804783E+01  0.13545731410E+00  0.28359229470E+02  0.47000000000E+01 0. -1.
<mgrwt>
<rscale>  0 0.29475718E+03</rscale>
<asrwt>0</asrwt>
<pdfrwt beam="1">  1       21 0.60421743E-02 0.29475718E+03</pdfrwt>
<pdfrwt beam="2">  1       21 0.85084181E-01 0.29475718E+03</pdfrwt>
<totfact> 0.22635447E+05</totfact>
</mgrwt>
</event>
<event>
 8    1  0.4760912E-006  0.3011821E+03  0.7546771E-02  0.1084651E+00
         21   -1    0    0  504  503  0.00000000000E+00  0.00000000000E+00  0.17467801393E+04  0.17467801393E+04  0.00000000000E+00 0.  1.
         21   -1    0    0  503  504 -0.00000000000E+00 -0.00000000000E+00 -0.12982552831E+02  0.12982552831E+02  0.00000000000E+00 0.  1.
         25    2    1    2    0    0  0.11486284627E+02  0.64564878048E+02  0.56046444548E+03  0.57796874636E+03  0.12500767543E+03 0.  0.
         25    2    1    2    0    0 -0.11486284627E+02 -0.64564878048E+02  0.11733331410E+04  0.11817939458E+04  0.12500284913E+03 0.  0.
          5    1    3    3  501    0 -0.53065050629E+02  0.12140403692E+02  0.28489627858E+03  0.29008838058E+03  0.47000000000E+01 0.  1.
         -5    1    3    3    0  501  0.64551335256E+02  0.52424474357E+02  0.27556816690E+03  0.28788036578E+03  0.47000000000E+01 0.  1.
          5    1    4    4  502    0  0.24458194409E+02 -0.42550544372E+02  0.15662939790E+03  0.16420599985E+03  0.47000000000E+01 0.  1.
         -5    1    4    4    0  502 -0.35944479036E+02 -0.22014333676E+02  0.10167037431E+04  0.10175879459E+04  0.47000000000E+01 0.  1.
<mgrwt>
<rscale>  0 0.30118211E+03</rscale>
<asrwt>0</asrwt>
<pdfrwt beam="1">  1       21 0.26873522E+00 0.30118211E+03</pdfrwt>
<pdfrwt beam="2">  1       21 0.19973172E-02 0.30118211E+03</pdfrwt>
<totfact> 0.59454765E+04</totfact>
</mgrwt>
</event>
<event>
 8    1  0.4760912E-006  0.2617332E+03  0.7546771E-02  0.1106106E+00
         21   -1    0    0  504  503  0.00000000000E+00  0.00000000000E+00  0.34074124219E+03  0.34074124219E+03  0.00000000000E+00 0.  1.
         21   -1    0    0  503  504 -0.00000000000E+00 -0.00000000000E+00 -0.50261215241E+02  0.50261215241E+02  0.00000000000E+00 0.  1.
         25    2    1    2    0    0  0.26671092377E+02  0.26573147741E+02  0.15884510500E+03  0.20561005561E+03  0.12500499285E+03 0.  0.
         25    2    1    2    0    0 -0.26671092377E+02 -0.26573147741E+02  0.13163492195E+03  0.18539240182E+03  0.12500044250E+03 0.  0.
          5    1    3    3  501    0 -0.44801360640E+02  0.30001657743E+02  0.41969102034E+02  0.68489100652E+02  0.47000000000E+01 0.  1.
         -5    1    3    3    0  501  0.71472453017E+02 -0.34285100021E+01  0.11687600296E+03  0.13712095496E+03  0.47000000000E+01 0.  1.
          5    1    4    4  502    0 -0.16089378958E+02 -0.70526103426E+02  0.11700946304E+03  0.13764484669E+03  0.47000000000E+01 0. -1.
         -5    1    4    4    0  502 -0.10581713419E+02  0.43952955685E+02  0.14625458916E+02  0.47747555130E+02  0.47000000000E+01 0. -1.
<mgrwt>
<rscale>  0 0.26173321E+03</rscale>
<asrwt>0</asrwt>
<pdfrwt beam="1">  1       21 0.52421728E-01 0.26173321E+03</pdfrwt>
<pdfrwt beam="2">  1       21 0.77324949E-02 0.26173321E+03</pdfrwt>
<totfact> 0.43290400E+05</totfact>
</mgrwt>
</event>
<event>
 8    1  0.4760912E-006  0.3611335E+03  0.7546771E-02  0.1058136E+00
         21   -1    0    0  504  503  0.00000000000E+00  0.00000000000E+00  0.14884100364E+03  0.14884100364E+03  0.00000000000E+00 0.  1.
         21   -1    0    0  503  504 -0.00000000000E+00 -0.00000000000E+00 -0.21905486088E+03  0.21905486088E+03  0.00000000000E+00 0.  1.
         25    2    1    2    0    0 -0.26439009348E+02 -0.51221511594E+02  0.83944400728E+02  0.16122858112E+03  0.12500131396E+03 0.  0.
         25    2    1    2    0    0  0.26439009348E+02  0.51221511594E+02 -0.15415825796E+03  0.20666728340E+03  0.12499573218E+03 0.  0.
          5    1    3    3  501    0  0.29288278136E+02  0.24409926097E+02  0.45667677288E+02  0.59676414747E+02  0.47000000000E+01 0. -1.
         -5    1    3    3    0  501 -0.55727287484E+02 -0.75631437691E+02  0.38276723440E+02  0.10155216637E+03  0.47000000000E+01 0. -1.
          5    1    4    4  502    0 -0.11113047388E+02  0.84275256076E+02 -0.11435149279E+03  0.14256287214E+03  0.47000000000E+01 0.  1.
         -5    1    4    4    0  502  0.37552056736E+02 -0.33053744483E+02 -0.39806765174E+02  0.64104411261E+02  0.47000000000E+01 0.  1.
<mgrwt>
<rscale>  0 0.36113347E+03</rscale>
<asrwt>0</asrwt>
<pdfrwt beam="1">  1       21 0.22898616E-01 0.36113347E+03</pdfrwt>
<pdfrwt beam="2">  1       21 0.33700748E-01 0.36113347E+03</pdfrwt>
<totfact> 0.14501354E+05</totfact>
</mgrwt>
</event>
<event>
 8    1  0.4760912E-006  0.2963278E+03  0.7546771E-02  0.1087091E+00
         21   -1    0    0  504  503  0.00000000000E+00  0.00000000000E+00  0.27817428033E+02  0.27817428033E+02  0.00000000000E+00 0. -1.
         21   -1    0    0  503  504 -0.00000000000E+00 -0.00000000000E+00 -0.78916512420E+03  0.78916512420E+03  0.00000000000E+00 0. -1.
         25    2    1    2    0    0  0.75983341683E+02 -0.98731393417E+01 -0.32166643492E+03  0.35350429389E+03  0.12500017341E+03 0.  0.
         25    2    1    2    0    0 -0.75983341683E+02  0.98731393417E+01 -0.43968126125E+03  0.46347825834E+03  0.12498614871E+03 0.  0.
          5    1    3    3  501    0  0.66157995371E+02 -0.63541116195E+02 -0.20042852453E+03  0.22047230493E+03  0.47000000000E+01 0. -1.
         -5    1    3    3    0  501  0.98253463123E+01  0.53667976853E+02 -0.12123791040E+03  0.13303198896E+03  0.47000000000E+01 0. -1.
          5    1    4    4  502    0 -0.49394255075E+02  0.65990238911E+02 -0.28540597331E+03  0.29710800001E+03  0.47000000000E+01 0. -1.
         -5    1    4    4    0  502 -0.26589086608E+02 -0.56117099569E+02 -0.15427528793E+03  0.16637025833E+03  0.47000000000E+01 0. -1.
<mgrwt>
<rscale>  0 0.29632782E+03</rscale>
<asrwt>0</asrwt>
<pdfrwt beam="1">  1       21 0.42796040E-02 0.29632782E+03</pdfrwt>
<pdfrwt beam="2">  1       21 0.12141003E+00 0.29632782E+03</pdfrwt>
<totfact> 0.17338726E+05</totfact>
</mgrwt>
</event>
<event>
 8    1  0.4760912E-006  0.2886572E+03  0.7546771E-02  0.1091052E+00
         21   -1    0    0  504  503  0.00000000000E+00  0.00000000000E+00  0.15569561712E+03  0.15569561712E+03  0.00000000000E+00 0. -1.
         21   -1    0    0  503  504 -0.00000000000E+00 -0.00000000000E+00 -0.13379143047E+03  0.13379143047E+03  0.00000000000E+00 0. -1.
         25    2    1    2    0    0 -0.82554322446E+00 -0.65157608253E+02 -0.20090053923E+02  0.14240397811E+03  0.12501634806E+03 0.  0.
         25    2    1    2    0    0  0.82554322446E+00  0.65157608253E+02  0.41994240572E+02  0.14708306947E+03  0.12499487049E+03 0.  0.
          5    1    3    3  501    0 -0.48239359881E+02 -0.77817565318E+02 -0.12611202179E+02  0.92540486999E+02  0.47000000000E+01 0. -1.
         -5    1    3    3    0  501  0.47413816656E+02  0.12659957064E+02 -0.74788517440E+01  0.49863491115E+02  0.47000000000E+01 0. -1.
          5    1    4    4  502    0 -0.27955393568E+02 -0.13409793703E+02 -0.24748102052E+02  0.39948531286E+02  0.47000000000E+01 0. -1.
         -5    1    4    4    0  502  0.28780936793E+02  0.78567401956E+02  0.66742342623E+02  0.10713453818E+03  0.47000000000E+01 0. -1.
<mgrwt>
<rscale>  0 0.28865716E+03</rscale>
<asrwt>0</asrwt>
<pdfrwt beam="1">  1       21 0.23953172E-01 0.28865716E+03</pdfrwt>
<pdfrwt beam="2">  1       21 0.20583297E-01 0.28865716E+03</pdfrwt>
<totfact> 0.35201752E+05</totfact>
</mgrwt>
</event>
<event>
 8    1  0.4760912E-006  0.4151826E+03  0.7546771E-02  0.1038646E+00
         21   -1    0    0  504  503  0.00000000000E+00  0.00000000000E+00  0.10400911611E+03  0.10400911611E+03  0.00000000000E+00 0. -1.
         21   -1    0    0  503  504 -0.00000000000E+00 -0.00000000000E+00 -0.41433051260E+03  0.41433051260E+03  0.00000000000E+00 0. -1.
         25    2    1    2    0    0 -0.66722908099E+02 -0.47188782432E+01 -0.34445627387E+03  0.37249603754E+03  0.12501583537E+03 0.  0.
         25    2    1    2    0    0  0.66722908099E+02  0.47188782432E+01  0.34134877383E+02  0.14584359118E+03  0.12502379356E+03 0.  0.
          5    1    3    3  501    0 -0.95610311097E+02 -0.11594863153E+02 -0.31850301066E+03  0.33277925152E+03  0.47000000000E+01 0. -1.
         -5    1    3    3    0  501  0.28887402998E+02  0.68759849102E+01 -0.25953263215E+02  0.39716786022E+02  0.47000000000E+01 0. -1.
          5    1    4    4  502    0  0.41965541318E+02 -0.58949577311E+02  0.97952851534E+01  0.73172378221E+02  0.47000000000E+01 0. -1.
         -5    1    4    4    0  502  0.24757366781E+02  0.63668455555E+02  0.24339592230E+02  0.72671212956E+02  0.47000000000E+01 0. -1.
<mgrwt>
<rscale>  0 0.41518261E+03</rscale>
<asrwt>0</asrwt>
<pdfrwt beam="1">  1       21 0.16001403E-01 0.41518261E+03</pdfrwt>
<pdfrwt beam="2">  1       21 0.63743155E-01 0.41518261E+03</pdfrwt>
<totfact> 0.74010374E+04</totfact>
</mgrwt>
</event>
<event>
 8    1  0.4760912E-006  0.3301741E+03  0.7546771E-02  0.1071060E+00
         21   -1    0    0  504  503  0.00000000000E+00  0.00000000000E+00  0.27196725036E+02  0.27196725036E+02  0.00000000000E+00 0. -1.
         21   -1    0    0  503  504 -0.00000000000E+00 -0.00000000000E+00 -0.10020959485E+04  0.10020959485E+04  0.00000000000E+00 0. -1.
         25    2    1    2    0    0  0.93792005558E+02 -0.53150215533E+02 -0.47933431423E+03  0.50695903649E+03  0.12499677662E+03 0.  0.
         25    2    1    2    0    0 -0.93792005558E+02  0.53150215533E+02 -0.49556490919E+03  0.52233363700E+03  0.12500385356E+03 0.  0.
          5    1    3    3  501    0  0.78449903086E+02 -0.85991191123E+02 -0.26421928615E+03  0.28876078927E+03  0.47000000000E+01 0. -1.
         -5    1    3    3    0  501  0.15342102472E+02  0.32840975590E+02 -0.21511502808E+03  0.21819824722E+03  0.47000000000E+01 0. -1.
          5    1    4    4  502    0 -0.12125346690E+03  0.49462721561E+02 -0.34252772632E+03  0.36673736837E+03  0.47000000000E+01 0. -1.
         -5    1    4    4    0  502  0.27461461347E+02  0.36874939719E+01 -0.15303718287E+03  0.15559626863E+03  0.47000000000E+01 0. -1.
<mgrwt>
<rscale>  0 0.33017406E+03</rscale>
<asrwt>0</asrwt>
<pdfrwt beam="1">  1       21 0.41841110E-02 0.33017406E+03</pdfrwt>
<pdfrwt beam="2">  1       21 0.15416863E+00 0.33017406E+03</pdfrwt>
<totfact> 0.95654907E+04</totfact>
</mgrwt>
</event>
<event>
 8    1  0.4760912E-006  0.2682713E+03  0.7546771E-02  0.1102273E+00
         21   -1    0    0  504  503  0.00000000000E+00  0.00000000000E+00  0.27469663130E+02  0.27469663130E+02  0.00000000000E+00 0.  1.
         21   -1    0    0  503  504 -0.00000000000E+00 -0.00000000000E+00 -0.65499064825E+03  0.65499064825E+03  0.00000000000E+00 0.  1.
         25    2    1    2    0    0  0.26353305638E+02  0.37650681580E+02 -0.27313352106E+03  0.30387375923E+03  0.12500108271E+03 0.  0.
         25    2    1    2    0    0 -0.26353305638E+02 -0.37650681580E+02 -0.35438746407E+03  0.37858655216E+03  0.12500092898E+03 0.  0.
          5    1    3    3  501    0  0.70717718356E+02 -0.45996579458E+01 -0.13065824162E+03  0.14871388182E+03  0.47000000000E+01 0.  1.
         -5    1    3    3    0  501 -0.44364412718E+02  0.42250339526E+02 -0.14247527943E+03  0.15515987740E+03  0.47000000000E+01 0.  1.
          5    1    4    4  502    0 -0.19159359876E+02 -0.82544339007E+02 -0.19267527419E+03  0.21053859565E+03  0.47000000000E+01 0. -1.
         -5    1    4    4    0  502 -0.71939457620E+01  0.44893657427E+02 -0.16171218987E+03  0.16804795651E+03  0.47000000000E+01 0. -1.
<mgrwt>
<rscale>  0 0.26827130E+03</rscale>
<asrwt>0</asrwt>
<pdfrwt beam="1">  1       21 0.42261020E-02 0.26827130E+03</pdfrwt>
<pdfrwt beam="2">  1       21 0.10076779E+00 0.26827130E+03</pdfrwt>
<totfact> 0.28190771E+05</totfact>
</mgrwt>
</event>
<event>
 8    1  0.4760912E-006  0.2642242E+03  0.7546771E-02  0.1104631E+00
         21   -1    0    0  504  503  0.00000000000E+00  0.00000000000E+00  0.11848092009E+03  0.11848092009E+03  0.00000000000E+00 0.  1.
         21   -1    0    0  503  504 -0.00000000000E+00 -0.00000000000E+00 -0.14731158773E+03  0.14731158773E+03  0.00000000000E+00 0.  1.
         25    2    1    2    0    0 -0.31512494922E+02  0.30131469898E+01  0.14498595732E+02  0.12975783308E+03  0.12499907830E+03 0.  0.
         25    2    1    2    0    0  0.31512494922E+02 -0.30131469898E+01 -0.43329263370E+02  0.13603467474E+03  0.12500356506E+03 0.  0.
          5    1    3    3  501    0 -0.63627584944E+02 -0.38864132486E+02  0.17364842559E+02  0.76697575690E+02  0.47000000000E+01 0.  1.
         -5    1    3    3    0  501  0.32115090021E+02  0.41877279476E+02 -0.28662468277E+01  0.53060257390E+02  0.47000000000E+01 0.  1.
          5    1    4    4  502    0  0.14810095346E+02  0.58788745882E+02 -0.37815393527E+02  0.71606909961E+02  0.47000000000E+01 0.  1.
         -5    1    4    4    0  502  0.16702399576E+02 -0.61801892872E+02 -0.55138698425E+01  0.64427764782E+02  0.47000000000E+01 0.  1.
<mgrwt>
<rscale>  0 0.26422424E+03</rscale>
<asrwt>0</asrwt>
<pdfrwt beam="1">  1       21 0.18227834E-01 0.26422424E+03</pdfrwt>
<pdfrwt beam="2">  1       21 0.22663321E-01 0.26422424E+03</pdfrwt>
<totfact> 0.49377221E+05</totfact>
</mgrwt>
</event>
<event>
 8    1  0.4760912E-006  0.3426167E+03  0.7546771E-02  0.1065687E+00
         21   -1    0    0  504  503  0.00000000000E+00  0.00000000000E+00  0.18447457192E+02  0.18447457192E+02  0.00000000000E+00 0. -1.
         21   -1    0    0  503  504 -0.00000000000E+00 -0.00000000000E+00 -0.15908178465E+04  0.15908178465E+04  0.00000000000E+00 0. -1.
         25    2    1    2    0    0 -0.11360980201E+03  0.26079943268E+02 -0.73173030813E+03  0.75142654357E+03  0.12500102392E+03 0.  0.
         25    2    1    2    0    0  0.11360980201E+03 -0.26079943268E+02 -0.84064008117E+03  0.85783876012E+03  0.12499696694E+03 0.  0.
          5    1    3    3  501    0 -0.98096555328E+02  0.47164360211E+02 -0.70622096193E+03  0.71457508221E+03  0.47000000000E+01 0.  1.
         -5    1    3    3    0  501 -0.15513246685E+02 -0.21084416943E+02 -0.25509346200E+02  0.36851461356E+02  0.47000000000E+01 0.  1.
          5    1    4    4  502    0  0.68864348068E+02 -0.73080968925E+02 -0.60873041068E+03  0.61697482067E+03  0.47000000000E+01 0. -1.
         -5    1    4    4    0  502  0.44745453945E+02  0.47001025657E+02 -0.23190967049E+03  0.24086393946E+03  0.47000000000E+01 0. -1.
<mgrwt>
<rscale>  0 0.34261666E+03</rscale>
<asrwt>0</asrwt>
<pdfrwt beam="1">  1       21 0.28380694E-02 0.34261666E+03</pdfrwt>
<pdfrwt beam="2">  1       21 0.24474129E+00 0.34261666E+03</pdfrwt>
<totfact> 0.45397892E+04</totfact>
</mgrwt>
</event>
<event>
 8    1  0.4760912E-006  0.3672611E+03  0.7546771E-02  0.1055745E+00
         21   -1    0    0  504  503  0.00000000000E+00  0.00000000000E+00  0.13566855333E+03  0.13566855333E+03  0.00000000000E+00 0. -1.
         21   -1    0    0  503  504 -0.00000000000E+00 -0.00000000000E+00 -0.24854819979E+03  0.24854819979E+03  0.00000000000E+00 0. -1.
         25    2    1    2    0    0 -0.12752376554E+03 -0.97883263455E+01 -0.10003671682E+03  0.20491662489E+03  0.12500142534E+03 0.  0.
         25    2    1    2    0    0  0.12752376554E+03  0.97883263455E+01 -0.12842929644E+02  0.17930012822E+03  0.12500189210E+03 0.  0.
          5    1    3    3  501    0 -0.10159406442E+03 -0.54627769507E+02 -0.10026326113E+03  0.15290637220E+03  0.47000000000E+01 0.  1.
         -5    1    3    3    0  501 -0.25929701120E+02  0.44839443162E+02  0.22654431226E+00  0.52010252696E+02  0.47000000000E+01 0.  1.
          5    1    4    4  502    0 -0.17259081522E+02  0.22151589346E+02 -0.18241203864E+02  0.33814202992E+02  0.47000000000E+01 0.  1.
         -5    1    4    4    0  502  0.14478284706E+03 -0.12363263001E+02  0.53982742197E+01  0.14548592523E+03  0.47000000000E+01 0.  1.
<mgrwt>
<rscale>  0 0.36726108E+03</rscale>
<asrwt>0</asrwt>
<pdfrwt beam="1">  1       21 0.20872085E-01 0.36726108E+03</pdfrwt>
<pdfrwt beam="2">  1       21 0.38238185E-01 0.36726108E+03</pdfrwt>
<totfact> 0.13393957E+05</totfact>
</mgrwt>
</event>
<event>
 8    1  0.4760912E-006  0.3722301E+03  0.7546771E-02  0.1053843E+00
         21   -1    0    0  504  503  0.00000000000E+00  0.00000000000E+00  0.14551761207E+04  0.14551761207E+04  0.00000000000E+00 0.  1.
         21   -1    0    0  503  504 -0.00000000000E+00 -0.00000000000E+00 -0.23803867110E+02  0.23803867110E+02  0.00000000000E+00 0.  1.
         25    2    1    2    0    0 -0.97986260555E+02 -0.96493974708E+02  0.67554834876E+03  0.70064509573E+03  0.12500233696E+03 0.  0.
         25    2    1    2    0    0  0.97986260555E+02  0.96493974708E+02  0.75582390479E+03  0.77833489203E+03  0.12499213856E+03 0.  0.
          5    1    3    3  501    0 -0.97521626105E+02 -0.96366168780E+02  0.68027082344E+03  0.69396497697E+03  0.47000000000E+01 0.  1.
         -5    1    3    3    0  501 -0.46463444973E+00 -0.12780592854E+00 -0.47224746782E+01  0.66801187575E+01  0.47000000000E+01 0.  1.
          5    1    4    4  502    0  0.58750508409E+01  0.10616561121E+02  0.41096956956E+03  0.41117551569E+03  0.47000000000E+01 0. -1.
         -5    1    4    4    0  502  0.92111209714E+02  0.85877413587E+02  0.34485433522E+03  0.36715937635E+03  0.47000000000E+01 0. -1.
<mgrwt>
<rscale>  0 0.37223014E+03</rscale>
<asrwt>0</asrwt>
<pdfrwt beam="1">  1       21 0.22387318E+00 0.37223014E+03</pdfrwt>
<pdfrwt beam="2">  1       21 0.36621345E-02 0.37223014E+03</pdfrwt>
<totfact> 0.39338817E+04</totfact>
</mgrwt>
</event>
<event>
 8    1  0.4760912E-006  0.3518211E+03  0.7546771E-02  0.1061870E+00
         21   -1    0    0  504  503  0.00000000000E+00  0.00000000000E+00  0.11002093627E+03  0.11002093627E+03  0.00000000000E+00 0. -1.
         21   -1    0    0  503  504 -0.00000000000E+00 -0.00000000000E+00 -0.28126032020E+03  0.28126032020E+03  0.00000000000E+00 0. -1.
         25    2    1    2    0    0  0.75753447167E+02  0.26334491389E+02 -0.19047008247E+03  0.24152723077E+03  0.12499784276E+03 0.  0.
         25    2    1    2    0    0 -0.75753447167E+02 -0.26334491389E+02  0.19230698542E+02  0.14975402569E+03  0.12499743297E+03 0.  0.
          5    1    3    3  501    0 -0.31032944024E+02  0.10917866584E+02 -0.17360693956E+02  0.37493027621E+02  0.47000000000E+01 0. -1.
         -5    1    3    3    0  501  0.10678639119E+03  0.15416624804E+02 -0.17310938851E+03  0.20403420315E+03  0.47000000000E+01 0. -1.
          5    1    4    4  502    0 -0.54532328434E+02 -0.53200596994E+02 -0.36164768544E+02  0.84463358025E+02  0.47000000000E+01 0.  1.
         -5    1    4    4    0  502 -0.21221118733E+02  0.26866105606E+02  0.55395467086E+02  0.65290667667E+02  0.47000000000E+01 0.  1.
<mgrwt>
<rscale>  0 0.35182111E+03</rscale>
<asrwt>0</asrwt>
<pdfrwt beam="1">  1       21 0.16926298E-01 0.35182111E+03</pdfrwt>
<pdfrwt beam="2">  1       21 0.43270819E-01 0.35182111E+03</pdfrwt>
<totfact> 0.15464691E+05</totfact>
</mgrwt>
</event>
<event>
 8    1  0.4760912E-006  0.3245294E+03  0.7546771E-02  0.1073583E+00
         21   -1    0    0  504  503  0.00000000000E+00  0.00000000000E+00  0.92629753921E+03  0.92629753921E+03  0.00000000000E+00 0. -1.
         21   -1    0    0  503  504 -0.00000000000E+00 -0.00000000000E+00 -0.28424806453E+02  0.28424806453E+02  0.00000000000E+00 0. -1.
         25    2    1    2    0    0  0.38387494437E+02 -0.78327761584E+02  0.28523238245E+03  0.32340434529E+03  0.12499608231E+03 0.  0.
         25    2    1    2    0    0 -0.38387494437E+02  0.78327761584E+02  0.61264035031E+03  0.63131800038E+03  0.12500152321E+03 0.  0.
          5    1    3    3  501    0  0.95125349089E+01  0.32675336886E+02  0.97289379265E+02  0.10317693191E+03  0.47000000000E+01 0.  1.
         -5    1    3    3    0  501  0.28874959528E+02 -0.11100309847E+03  0.18794300318E+03  0.22022741338E+03  0.47000000000E+01 0.  1.
          5    1    4    4  502    0 -0.66859117689E+02  0.25582098861E+02  0.48439517714E+03  0.48967883662E+03  0.47000000000E+01 0. -1.
         -5    1    4    4    0  502  0.28471623253E+02  0.52745662723E+02  0.12824517318E+03  0.14163916376E+03  0.47000000000E+01 0. -1.
<mgrwt>
<rscale>  0 0.32452937E+03</rscale>
<asrwt>0</asrwt>
<pdfrwt beam="1">  1       21 0.14250729E+00 0.32452937E+03</pdfrwt>
<pdfrwt beam="2">  1       21 0.43730478E-02 0.32452937E+03</pdfrwt>
<totfact> 0.10971034E+05</totfact>
</mgrwt>
</event>
<event>
 8    1  0.4760912E-006  0.4478745E+03  0.7546771E-02  0.1028358E+00
         21   -1    0    0  504  503  0.00000000000E+00  0.00000000000E+00  0.99737218947E+02  0.99737218947E+02  0.00000000000E+00 0.  1.
         21   -1    0    0  503  504 -0.00000000000E+00 -0.00000000000E+00 -0.50280010714E+03  0.50280010714E+03  0.00000000000E+00 0.  1.
         25    2    1    2    0    0 -0.83233314742E+02 -0.65753890625E+02 -0.40676070184E+03  0.43855548915E+03  0.12500115875E+03 0.  0.
         25    2    1    2    0    0  0.83233314742E+02  0.65753890625E+02  0.36978136413E+01  0.16398183694E+03  0.12500004082E+03 0.  0.
          5    1    3    3  501    0 -0.46945402465E+02 -0.10196113435E+03 -0.28650944691E+03  0.30774940601E+03  0.47000000000E+01 0. -1.
         -5    1    3    3    0  501 -0.36287912277E+02  0.36207243722E+02 -0.12025125492E+03  0.13080608314E+03  0.47000000000E+01 0. -1.
          5    1    4    4  502    0  0.56204795944E+02  0.84546436703E+02  0.44837156198E+02  0.11108348042E+03  0.47000000000E+01 0. -1.
         -5    1    4    4    0  502  0.27028518798E+02 -0.18792546078E+02 -0.41139342557E+02  0.52898356520E+02  0.47000000000E+01 0. -1.
<mgrwt>
<rscale>  0 0.44787447E+03</rscale>
<asrwt>0</asrwt>
<pdfrwt beam="1">  1       21 0.15344187E-01 0.44787447E+03</pdfrwt>
<pdfrwt beam="2">  1       21 0.77353863E-01 0.44787447E+03</pdfrwt>
<totfact> 0.51383817E+04</totfact>
</mgrwt>
</event>
<event>
 8    1  0.4760912E-006  0.3573083E+03  0.7546771E-02  0.1059655E+00
         21   -1    0    0  504  503  0.00000000000E+00  0.00000000000E+00  0.84686214654E+02  0.84686214654E+02  0.00000000000E+00 0.  1.
         21   -1    0    0  503  504 -0.00000000000E+00 -0.00000000000E+00 -0.37688892926E+03  0.37688892926E+03  0.00000000000E+00 0.  1.
         25    2    1    2    0    0 -0.83993730883E+02  0.64333862641E+02 -0.53869972834E+02  0.17239881625E+03  0.12500234062E+03 0.  0.
         25    2    1    2    0    0  0.83993730883E+02 -0.64333862641E+02 -0.23833274177E+03  0.28917632766E+03  0.12500663971E+03 0.  0.
          5    1    3    3  501    0 -0.11470602853E+02 -0.54572051758E+01 -0.69170597410E+02  0.70484163925E+02  0.47000000000E+01 0. -1.
         -5    1    3    3    0  501 -0.72523128029E+02  0.69791067817E+02  0.15300624576E+02  0.10191465233E+03  0.47000000000E+01 0. -1.
          5    1    4    4  502    0  0.95749203038E+01 -0.21963264582E+02  0.10049911578E+02  0.26403689375E+02  0.47000000000E+01 0. -1.
         -5    1    4    4    0  502  0.74418810579E+02 -0.42370598059E+02 -0.24838265335E+03  0.26277263828E+03  0.47000000000E+01 0. -1.
<mgrwt>
<rscale>  0 0.35730825E+03</rscale>
<asrwt>0</asrwt>
<pdfrwt beam="1">  1       21 0.13028648E-01 0.35730825E+03</pdfrwt>
<pdfrwt beam="2">  1       21 0.57982913E-01 0.35730825E+03</pdfrwt>
<totfact> 0.13470274E+05</totfact>
</mgrwt>
</event>
<event>
 8    1  0.4760912E-006  0.3017749E+03  0.7546771E-02  0.1084357E+00
         21   -1    0    0  504  503  0.00000000000E+00  0.00000000000E+00  0.30366225522E+03  0.30366225522E+03  0.00000000000E+00 0.  1.
         21   -1    0    0  503  504 -0.00000000000E+00 -0.00000000000E+00 -0.74974815917E+02  0.74974815917E+02  0.00000000000E+00 0.  1.
         25    2    1    2    0    0 -0.29975262996E+02 -0.40011074868E+02  0.19983649141E+03  0.24095421307E+03  0.12499962798E+03 0.  0.
         25    2    1    2    0    0  0.29975262996E+02  0.40011074868E+02  0.28850947897E+02  0.13768285807E+03  0.12499915883E+03 0.  0.
          5    1    3    3  501    0  0.38844263541E+02  0.11853018692E+02  0.30889659858E+02  0.51240920642E+02  0.47000000000E+01 0. -1.
         -5    1    3    3    0  501 -0.68819526537E+02 -0.51864093560E+02  0.16894683155E+03  0.18971329243E+03  0.47000000000E+01 0. -1.
          5    1    4    4  502    0 -0.35013591267E+02 -0.99958045462E+01  0.40568433903E+02  0.54715221934E+02  0.47000000000E+01 0. -1.
         -5    1    4    4    0  502  0.64988854263E+02  0.50006879414E+02 -0.11717486006E+02  0.82967636133E+02  0.47000000000E+01 0. -1.
<mgrwt>
<rscale>  0 0.30177489E+03</rscale>
<asrwt>0</asrwt>
<pdfrwt beam="1">  1       21 0.46717269E-01 0.30177489E+03</pdfrwt>
<pdfrwt beam="2">  1       21 0.11534587E-01 0.30177489E+03</pdfrwt>
<totfact> 0.26903876E+05</totfact>
</mgrwt>
</event>
<event>
 8    1  0.4760912E-006  0.2688259E+03  0.7546771E-02  0.1101953E+00
         21   -1    0    0  504  503  0.00000000000E+00  0.00000000000E+00  0.76151974600E+02  0.76151974600E+02  0.00000000000E+00 0. -1.
         21   -1    0    0  503  504 -0.00000000000E+00 -0.00000000000E+00 -0.23724718028E+03  0.23724718028E+03  0.00000000000E+00 0. -1.
         25    2    1    2    0    0 -0.37884197415E+01 -0.36620525853E+02 -0.11875925556E+03  0.17630746908E+03  0.12500059134E+03 0.  0.
         25    2    1    2    0    0  0.37884197415E+01  0.36620525853E+02 -0.42335950123E+02  0.13709168580E+03  0.12508550118E+03 0.  0.
          5    1    3    3  501    0  0.46018536623E+02  0.19469449313E+02 -0.72082443947E+02  0.87833557908E+02  0.47000000000E+01 0. -1.
         -5    1    3    3    0  501 -0.49806956365E+02 -0.56089975165E+02 -0.46676811615E+02  0.88473911176E+02  0.47000000000E+01 0. -1.
          5    1    4    4  502    0  0.19756144331E+01  0.32591125601E+02 -0.86438883639E+02  0.92519485111E+02  0.47000000000E+01 0. -1.
         -5    1    4    4    0  502  0.18128053084E+01  0.40294002520E+01  0.44102933517E+02  0.44572200689E+02  0.47000000000E+01 0. -1.
<mgrwt>
<rscale>  0 0.26882590E+03</rscale>
<asrwt>0</asrwt>
<pdfrwt beam="1">  1       21 0.11715689E-01 0.26882590E+03</pdfrwt>
<pdfrwt beam="2">  1       21 0.36499566E-01 0.26882590E+03</pdfrwt>
<totfact> 0.43649717E+05</totfact>
</mgrwt>
</event>
<event>
 8    1  0.4760912E-006  0.3219308E+03  0.7546771E-02  0.1074764E+00
         21   -1    0    0  504  503  0.00000000000E+00  0.00000000000E+00  0.73690734486E+03  0.73690734486E+03  0.00000000000E+00 0. -1.
         21   -1    0    0  503  504 -0.00000000000E+00 -0.00000000000E+00 -0.35160258520E+02  0.35160258520E+02  0.00000000000E+00 0. -1.
         25    2    1    2    0    0  0.86015034366E+01  0.77874721219E+02  0.19644677112E+03  0.24567314517E+03  0.12500200922E+03 0.  0.
         25    2    1    2    0    0 -0.86015034366E+01 -0.77874721219E+02  0.50530031523E+03  0.52639445822E+03  0.12499703598E+03 0.  0.
          5    1    3    3  501    0 -0.33174311050E+02 -0.29722990111E+01  0.12622826229E+03  0.13063320281E+03  0.47000000000E+01 0. -1.
         -5    1    3    3    0  501  0.41775814486E+02  0.80847020230E+02  0.70218508821E+02  0.11503994236E+03  0.47000000000E+01 0. -1.
          5    1    4    4  502    0 -0.20426220761E+02 -0.86995373890E+02  0.50260450139E+03  0.51050837446E+03  0.47000000000E+01 0.  1.
         -5    1    4    4    0  502  0.11824717324E+02  0.91206526712E+01  0.26958138381E+01  0.15886083759E+02  0.47000000000E+01 0.  1.
<mgrwt>
<rscale>  0 0.32193075E+03</rscale>
<asrwt>0</asrwt>
<pdfrwt beam="1">  1       21 0.11337035E+00 0.32193075E+03</pdfrwt>
<pdfrwt beam="2">  1       21 0.54092711E-02 0.32193075E+03</pdfrwt>
<totfact> 0.13686273E+05</totfact>
</mgrwt>
</event>
<event>
 8    1  0.4760912E-006  0.3465481E+03  0.7546771E-02  0.1064041E+00
         21   -1    0    0  504  503  0.00000000000E+00  0.00000000000E+00  0.46709980676E+03  0.46709980676E+03  0.00000000000E+00 0. -1.
         21   -1    0    0  503  504 -0.00000000000E+00 -0.00000000000E+00 -0.64277248092E+02  0.64277248092E+02  0.00000000000E+00 0. -1.
         25    2    1    2    0    0  0.86701148099E+02  0.33101348312E+02  0.84773956679E+02  0.17726783748E+03  0.12499789651E+03 0.  0.
         25    2    1    2    0    0 -0.86701148099E+02 -0.33101348312E+02  0.31804860199E+03  0.35410921737E+03  0.12500254500E+03 0.  0.
          5    1    3    3  501    0  0.52082653130E+01  0.20041151119E+01  0.89492450505E+02  0.89789371322E+02  0.47000000000E+01 0.  1.
         -5    1    3    3    0  501  0.81492882786E+02  0.31097233201E+02 -0.47184938264E+01  0.87478466159E+02  0.47000000000E+01 0.  1.
          5    1    4    4  502    0  0.20035691406E+01  0.12540505281E+02 -0.61532568182E+01  0.14873840509E+02  0.47000000000E+01 0. -1.
         -5    1    4    4    0  502 -0.88704717240E+02 -0.45641853594E+02  0.32420185880E+03  0.33923537686E+03  0.47000000000E+01 0. -1.
<mgrwt>
<rscale>  0 0.34654806E+03</rscale>
<asrwt>0</asrwt>
<pdfrwt beam="1">  1       21 0.71861507E-01 0.34654806E+03</pdfrwt>
<pdfrwt beam="2">  1       21 0.98888077E-02 0.34654806E+03</pdfrwt>
<totfact> 0.13835027E+05</totfact>
</mgrwt>
</event>
<event>
 8    1  0.4760912E-006  0.7538855E+03  0.7546771E-02  0.9629274E-01
         21   -1    0    0  504  503  0.00000000000E+00  0.00000000000E+00  0.13070562748E+04  0.13070562748E+04  0.00000000000E+00 0. -1.
         21   -1    0    0  503  504 -0.00000000000E+00 -0.00000000000E+00 -0.10870673379E+03  0.10870673379E+03  0.00000000000E+00 0. -1.
         25    2    1    2    0    0 -0.34899115185E+02  0.73262414761E+02 -0.51031658755E+02  0.15752560792E+03  0.12499902919E+03 0.  0.
         25    2    1    2    0    0  0.34899115185E+02 -0.73262414761E+02  0.12493811998E+04  0.12582374007E+04  0.12499057747E+03 0.  0.
          5    1    3    3  501    0 -0.61590104669E+02  0.16405200204E+02  0.15650672970E+02  0.65798975306E+02  0.47000000000E+01 0. -1.
         -5    1    3    3    0  501  0.26690989484E+02  0.56857214557E+02 -0.66682331726E+02  0.91726632616E+02  0.47000000000E+01 0. -1.
          5    1    4    4  502    0  0.68677450436E+02 -0.84734037541E+02  0.79945360359E+03  0.80687335041E+03  0.47000000000E+01 0. -1.
         -5    1    4    4    0  502 -0.33778335250E+02  0.11471622780E+02  0.44992759616E+03  0.45136405024E+03  0.47000000000E+01 0. -1.
<mgrwt>
<rscale>  0 0.75388545E+03</rscale>
<asrwt>0</asrwt>
<pdfrwt beam="1">  1       21 0.20108557E+00 0.75388545E+03</pdfrwt>
<pdfrwt beam="2">  1       21 0.16724114E-01 0.75388545E+03</pdfrwt>
<totfact> 0.33130073E+03</totfact>
</mgrwt>
</event>
<event>
 8    1  0.4760912E-006  0.3373659E+03  0.7546771E-02  0.1067923E+00
         21   -1    0    0  504  503  0.00000000000E+00  0.00000000000E+00  0.11168472660E+04  0.11168472660E+04  0.00000000000E+00 0.  1.
         21   -1    0    0  503  504 -0.00000000000E+00 -0.00000000000E+00 -0.25477014918E+02  0.25477014918E+02  0.00000000000E+00 0.  1.
         25    2    1    2    0    0  0.60988386495E+02  0.61047558550E+01  0.22317970325E+03  0.26304240980E+03  0.12500111233E+03 0.  0.
         25    2    1    2    0    0 -0.60988386495E+02 -0.61047558550E+01  0.86819054782E+03  0.87928187110E+03  0.12499972074E+03 0.  0.
          5    1    3    3  501    0  0.61648057445E+02  0.49245740706E+02  0.19722014673E+03  0.21247000316E+03  0.47000000000E+01 0. -1.
         -5    1    3    3    0  501 -0.65967094926E+00 -0.43140984851E+02  0.25959556512E+02  0.50572406647E+02  0.47000000000E+01 0. -1.
          5    1    4    4  502    0 -0.16455871975E+02  0.53396332477E+02  0.22885818597E+03  0.23562708530E+03  0.47000000000E+01 0. -1.
         -5    1    4    4    0  502 -0.44532514521E+02 -0.59501088332E+02  0.63933236186E+03  0.64365478580E+03  0.47000000000E+01 0. -1.
<mgrwt>
<rscale>  0 0.33736588E+03</rscale>
<asrwt>0</asrwt>
<pdfrwt beam="1">  1       21 0.17182262E+00 0.33736588E+03</pdfrwt>
<pdfrwt beam="2">  1       21 0.39195416E-02 0.33736588E+03</pdfrwt>
<totfact> 0.78941512E+04</totfact>
</mgrwt>
</event>
<event>
 8    1  0.4760912E-006  0.3357321E+03  0.7546771E-02  0.1068628E+00
         21   -1    0    0  504  503  0.00000000000E+00  0.00000000000E+00  0.16766294816E+03  0.16766294816E+03  0.00000000000E+00 0.  1.
         21   -1    0    0  503  504 -0.00000000000E+00 -0.00000000000E+00 -0.16806940661E+03  0.16806940661E+03  0.00000000000E+00 0.  1.
         25    2    1    2    0    0 -0.81874657766E+02  0.76342006517E+02 -0.52046849757E+01  0.16786665032E+03  0.12498224675E+03 0.  0.
         25    2    1    2    0    0  0.81874657766E+02 -0.76342006517E+02  0.47982265249E+01  0.16786570445E+03  0.12499724081E+03 0.  0.
          5    1    3    3  501    0 -0.36849169366E+02 -0.12150470615E+02 -0.46051583067E+02  0.60401436424E+02  0.47000000000E+01 0. -1.
         -5    1    3    3    0  501 -0.45025488400E+02  0.88492477132E+02  0.40846898091E+02  0.10746521390E+03  0.47000000000E+01 0. -1.
          5    1    4    4  502    0  0.61714450137E+01  0.22769244687E+02  0.32097482544E+02  0.40110642264E+02  0.47000000000E+01 0.  1.
         -5    1    4    4    0  502  0.75703212752E+02 -0.99111251203E+02 -0.27299256019E+02  0.12775506219E+03  0.47000000000E+01 0.  1.
<mgrwt>
<rscale>  0 0.33573211E+03</rscale>
<asrwt>0</asrwt>
<pdfrwt beam="1">  1       21 0.25794300E-01 0.33573211E+03</pdfrwt>
<pdfrwt beam="2">  1       21 0.25856832E-01 0.33573211E+03</pdfrwt>
<totfact> 0.19535376E+05</totfact>
</mgrwt>
</event>
<event>
 8    1  0.4760912E-006  0.4024463E+03  0.7546771E-02  0.1042936E+00
         21   -1    0    0  504  503  0.00000000000E+00  0.00000000000E+00  0.36900453547E+03  0.36900453547E+03  0.00000000000E+00 0.  1.
         21   -1    0    0  503  504 -0.00000000000E+00 -0.00000000000E+00 -0.10972968955E+03  0.10972968955E+03  0.00000000000E+00 0.  1.
         25    2    1    2    0    0 -0.12933979208E+02 -0.89377623005E+02  0.28340856805E+03  0.32264733716E+03  0.12500096169E+03 0.  0.
         25    2    1    2    0    0  0.12933979208E+02  0.89377623005E+02 -0.24133722128E+02  0.15608688785E+03  0.12500013082E+03 0.  0.
          5    1    3    3  501    0 -0.57560090835E+02 -0.25386607064E+02  0.64573918152E+02  0.90274718391E+02  0.47000000000E+01 0.  1.
         -5    1    3    3    0  501  0.44626111627E+02 -0.63991015942E+02  0.21883464989E+03  0.23237261877E+03  0.47000000000E+01 0.  1.
          5    1    4    4  502    0 -0.40691678240E+01 -0.13130115591E+02 -0.47336668160E+02  0.49515737041E+02  0.47000000000E+01 0.  1.
         -5    1    4    4    0  502  0.17003147032E+02  0.10250773860E+03  0.23202946032E+02  0.10657115081E+03  0.47000000000E+01 0.  1.
<mgrwt>
<rscale>  0 0.40244629E+03</rscale>
<asrwt>0</asrwt>
<pdfrwt beam="1">  1       21 0.56769928E-01 0.40244629E+03</pdfrwt>
<pdfrwt beam="2">  1       21 0.16881491E-01 0.40244629E+03</pdfrwt>
<totfact> 0.86537818E+04</totfact>
</mgrwt>
</event>
<event>
 8    1  0.4760912E-006  0.3023455E+03  0.7546771E-02  0.1084074E+00
         21   -1    0    0  504  503  0.00000000000E+00  0.00000000000E+00  0.10569581005E+03  0.10569581005E+03  0.00000000000E+00 0.  1.
         21   -1    0    0  503  504 -0.00000000000E+00 -0.00000000000E+00 -0.21621672811E+03  0.21621672811E+03  0.00000000000E+00 0.  1.
         25    2    1    2    0    0 -0.77466339045E+02 -0.93924153328E+01 -0.91198640562E+02  0.17329383461E+03  0.12499723966E+03 0.  0.
         25    2    1    2    0    0  0.77466339045E+02  0.93924153328E+01 -0.19322277500E+02  0.14861870355E+03  0.12499966994E+03 0.  0.
          5    1    3    3  501    0 -0.26330530466E+02 -0.67691510890E+01  0.30530900443E+02  0.41150262732E+02  0.47000000000E+01 0.  1.
         -5    1    3    3    0  501 -0.51135808579E+02 -0.26232642438E+01 -0.12172954101E+03  0.13214357187E+03  0.47000000000E+01 0.  1.
          5    1    4    4  502    0 -0.17868104737E+02  0.32168727412E+02  0.20883839733E+02  0.42571363053E+02  0.47000000000E+01 0. -1.
         -5    1    4    4    0  502  0.95334443782E+02 -0.22776312080E+02 -0.40206117233E+02  0.10604734050E+03  0.47000000000E+01 0. -1.
<mgrwt>
<rscale>  0 0.30234551E+03</rscale>
<asrwt>0</asrwt>
<pdfrwt beam="1">  1       21 0.16260894E-01 0.30234551E+03</pdfrwt>
<pdfrwt beam="2">  1       21 0.33264112E-01 0.30234551E+03</pdfrwt>
<totfact> 0.28713170E+05</totfact>
</mgrwt>
</event>
<event>
 8    1  0.4760912E-006  0.9125108E+03  0.7546771E-02  0.9410076E-01
         21   -1    0    0  504  503  0.00000000000E+00  0.00000000000E+00  0.11392211295E+04  0.11392211295E+04  0.00000000000E+00 0.  1.
         21   -1    0    0  503  504 -0.00000000000E+00 -0.00000000000E+00 -0.18272921711E+03  0.18272921711E+03  0.00000000000E+00 0.  1.
         25    2    1    2    0    0 -0.20294965236E+03 -0.49136434236E+02  0.10373396527E+04  0.10655051947E+04  0.12499925702E+03 0.  0.
         25    2    1    2    0    0  0.20294965236E+03  0.49136434236E+02 -0.80847740296E+02  0.25644515195E+03  0.12499923313E+03 0.  0.
          5    1    3    3  501    0 -0.19931637900E+03 -0.32178348494E+02  0.72365344171E+03  0.75130477088E+03  0.47000000000E+01 0. -1.
         -5    1    3    3    0  501 -0.36332733593E+01 -0.16958085742E+02  0.31368621102E+03  0.31420042383E+03  0.47000000000E+01 0. -1.
          5    1    4    4  502    0  0.23482478419E+02  0.48594652792E+02 -0.51090716626E+02  0.74466223203E+02  0.47000000000E+01 0.  1.
         -5    1    4    4    0  502  0.17946717394E+03  0.54178144459E+00 -0.29757023670E+02  0.18197892874E+03  0.47000000000E+01 0.  1.
<mgrwt>
<rscale>  0 0.91251079E+03</rscale>
<asrwt>0</asrwt>
<pdfrwt beam="1">  1       21 0.17526478E+00 0.91251079E+03</pdfrwt>
<pdfrwt beam="2">  1       21 0.28112188E-01 0.91251079E+03</pdfrwt>
<totfact> 0.17765772E+03</totfact>
</mgrwt>
</event>
<event>
 8    1  0.4760912E-006  0.3454032E+03  0.7546771E-02  0.1064518E+00
         21   -1    0    0  504  503  0.00000000000E+00  0.00000000000E+00  0.32766420057E+03  0.32766420057E+03  0.00000000000E+00 0. -1.
         21   -1    0    0  503  504 -0.00000000000E+00 -0.00000000000E+00 -0.91025629443E+02  0.91025629443E+02  0.00000000000E+00 0. -1.
         25    2    1    2    0    0  0.69635780383E+02  0.70918428499E+02  0.19805235846E+03  0.25441958903E+03  0.12500410065E+03 0.  0.
         25    2    1    2    0    0 -0.69635780383E+02 -0.70918428499E+02  0.38586212669E+02  0.16427024099E+03  0.12496899958E+03 0.  0.
          5    1    3    3  501    0  0.72226251833E+02  0.70064465940E+02  0.21456507587E+03  0.23703569905E+03  0.47000000000E+01 0. -1.
         -5    1    3    3    0  501 -0.25904714505E+01  0.85396255943E+00 -0.16512717411E+02  0.17383889976E+02  0.47000000000E+01 0. -1.
          5    1    4    4  502    0 -0.60980279881E+02 -0.80533815426E+02  0.74633549068E+02  0.12568431329E+03  0.47000000000E+01 0. -1.
         -5    1    4    4    0  502 -0.86555005014E+01  0.96153869270E+01 -0.36047336399E+02  0.38585927695E+02  0.47000000000E+01 0. -1.
<mgrwt>
<rscale>  0 0.34540319E+03</rscale>
<asrwt>0</asrwt>
<pdfrwt beam="1">  1       21 0.50409876E-01 0.34540319E+03</pdfrwt>
<pdfrwt beam="2">  1       21 0.14003943E-01 0.34540319E+03</pdfrwt>
<totfact> 0.15968230E+05</totfact>
</mgrwt>
</event>
<event>
 8    1  0.4760912E-006  0.2625256E+03  0.7546771E-02  0.1105635E+00
         21   -1    0    0  504  503  0.00000000000E+00  0.00000000000E+00  0.30531033062E+02  0.30531033062E+02  0.00000000000E+00 0. -1.
         21   -1    0    0  503  504 -0.00000000000E+00 -0.00000000000E+00 -0.56434123977E+03  0.56434123977E+03  0.00000000000E+00 0. -1.
         25    2    1    2    0    0  0.16469975598E+02 -0.35733370544E+02 -0.24975888077E+03  0.28204933117E+03  0.12499677126E+03 0.  0.
         25    2    1    2    0    0 -0.16469975598E+02  0.35733370544E+02 -0.28405132594E+03  0.31282294165E+03  0.12499961277E+03 0.  0.
          5    1    3    3  501    0 -0.50378485561E+02 -0.34095101039E+02 -0.89316925696E+02  0.10816686618E+03  0.47000000000E+01 0.  1.
         -5    1    3    3    0  501  0.66848461159E+02 -0.16382695047E+01 -0.16044195507E+03  0.17388246500E+03  0.47000000000E+01 0.  1.
          5    1    4    4  502    0  0.81681496758E+01 -0.36436250552E+02 -0.31853507248E+02  0.49305729357E+02  0.47000000000E+01 0.  1.
         -5    1    4    4    0  502 -0.24638125274E+02  0.72169621096E+02 -0.25219781869E+03  0.26351721230E+03  0.47000000000E+01 0.  1.
<mgrwt>
<rscale>  0 0.26252559E+03</rscale>
<asrwt>0</asrwt>
<pdfrwt beam="1">  1       21 0.46970822E-02 0.26252559E+03</pdfrwt>
<pdfrwt beam="2">  1       21 0.86821726E-01 0.26252559E+03</pdfrwt>
<totfact> 0.33513726E+05</totfact>
</mgrwt>
</event>
<event>
 8    1  0.4760912E-006  0.2858869E+03  0.7546771E-02  0.1092516E+00
         21   -1    0    0  504  503  0.00000000000E+00  0.00000000000E+00  0.97708676375E+01  0.97708676375E+01  0.00000000000E+00 0.  1.
         21   -1    0    0  503  504 -0.00000000000E+00 -0.00000000000E+00 -0.20911996122E+04  0.20911996122E+04  0.00000000000E+00 0.  1.
         25    2    1    2    0    0  0.50853416327E+02 -0.17434222263E+02 -0.71896616742E+03  0.73173012076E+03  0.12500639050E+03 0.  0.
         25    2    1    2    0    0 -0.50853416327E+02  0.17434222263E+02 -0.13624625771E+04  0.13692403591E+04  0.12499945909E+03 0.  0.
          5    1    3    3  501    0  0.18452515678E+02 -0.44774364505E+02 -0.99117871788E+02  0.11041594794E+03  0.47000000000E+01 0.  1.
         -5    1    3    3    0  501  0.32400900649E+02  0.27340142242E+02 -0.61984829563E+03  0.62131417282E+03  0.47000000000E+01 0.  1.
          5    1    4    4  502    0 -0.35542395213E+02  0.71333558562E+02 -0.80493630797E+03  0.80888583145E+03  0.47000000000E+01 0. -1.
         -5    1    4    4    0  502 -0.15311021114E+02 -0.53899336299E+02 -0.55752626917E+03  0.56035452763E+03  0.47000000000E+01 0. -1.
<mgrwt>
<rscale>  0 0.28588693E+03</rscale>
<asrwt>0</asrwt>
<pdfrwt beam="1">  1       21 0.15032126E-02 0.28588693E+03</pdfrwt>
<pdfrwt beam="2">  1       21 0.32172254E+00 0.28588693E+03</pdfrwt>
<totfact> 0.46436245E+04</totfact>
</mgrwt>
</event>
<event>
 8    1  0.4760912E-006  0.3079260E+03  0.7546771E-02  0.1081344E+00
         21   -1    0    0  504  503  0.00000000000E+00  0.00000000000E+00  0.34226402768E+02  0.34226402768E+02  0.00000000000E+00 0.  1.
         21   -1    0    0  503  504 -0.00000000000E+00 -0.00000000000E+00 -0.69258250398E+03  0.69258250398E+03  0.00000000000E+00 0.  1.
         25    2    1    2    0    0  0.74576324924E+01 -0.82030061503E+02 -0.41412298764E+03  0.44035046867E+03  0.12500455628E+03 0.  0.
         25    2    1    2    0    0 -0.74576324924E+01  0.82030061503E+02 -0.24423311357E+03  0.28645843808E+03  0.12499630279E+03 0.  0.
          5    1    3    3  501    0  0.27766686240E+02  0.23048750645E+02 -0.58068166973E+02  0.68529087158E+02  0.47000000000E+01 0.  1.
         -5    1    3    3    0  501 -0.20309053747E+02 -0.10507881215E+03 -0.35605482067E+03  0.37182138151E+03  0.47000000000E+01 0.  1.
          5    1    4    4  502    0 -0.26048437687E+02  0.38169684718E+02 -0.10168772481E+02  0.47549341438E+02  0.47000000000E+01 0.  1.
         -5    1    4    4    0  502  0.18590805194E+02  0.43860376785E+02 -0.23406434109E+03  0.23890909664E+03  0.47000000000E+01 0.  1.
<mgrwt>
<rscale>  0 0.30792602E+03</rscale>
<asrwt>0</asrwt>
<pdfrwt beam="1">  1       21 0.52656007E-02 0.30792602E+03</pdfrwt>
<pdfrwt beam="2">  1       21 0.10655115E+00 0.30792602E+03</pdfrwt>
<totfact> 0.16754793E+05</totfact>
</mgrwt>
</event>
<event>
 8    1  0.4760912E-006  0.2570187E+03  0.7546771E-02  0.1108948E+00
         21   -1    0    0  504  503  0.00000000000E+00  0.00000000000E+00  0.24444552724E+03  0.24444552724E+03  0.00000000000E+00 0. -1.
         21   -1    0    0  503  504 -0.00000000000E+00 -0.00000000000E+00 -0.67559621180E+02  0.67559621180E+02  0.00000000000E+00 0. -1.
         25    2    1    2    0    0 -0.22740660196E+02 -0.12151182495E+02  0.10669653936E+03  0.16634473799E+03  0.12498652521E+03 0.  0.
         25    2    1    2    0    0  0.22740660196E+02  0.12151182495E+02  0.70189366698E+02  0.14566041042E+03  0.12500247640E+03 0.  0.
          5    1    3    3  501    0 -0.91095123181E+01 -0.31772833705E+02 -0.18930928632E+02  0.38379242244E+02  0.47000000000E+01 0. -1.
         -5    1    3    3    0  501 -0.13631147878E+02  0.19621651210E+02  0.12562746799E+03  0.12796549575E+03  0.47000000000E+01 0. -1.
          5    1    4    4  502    0  0.27416168679E+02 -0.19343021737E+02 -0.26973039831E+02  0.43306277521E+02  0.47000000000E+01 0.  1.
         -5    1    4    4    0  502 -0.46755084833E+01  0.31494204232E+02  0.97162406529E+02  0.10235413290E+03  0.47000000000E+01 0.  1.
<mgrwt>
<rscale>  0 0.25701865E+03</rscale>
<asrwt>0</asrwt>
<pdfrwt beam="1">  1       21 0.37607004E-01 0.25701865E+03</pdfrwt>
<pdfrwt beam="2">  1       21 0.10393788E-01 0.25701865E+03</pdfrwt>
<totfact> 0.51036267E+05</totfact>
</mgrwt>
</event>
<event>
 8    1  0.4760912E-006  0.2839887E+03  0.7546771E-02  0.1093530E+00
         21   -1    0    0  504  503  0.00000000000E+00  0.00000000000E+00  0.10276634190E+04  0.10276634190E+04  0.00000000000E+00 0. -1.
         21   -1    0    0  503  504 -0.00000000000E+00 -0.00000000000E+00 -0.19619642674E+02  0.19619642674E+02  0.00000000000E+00 0. -1.
         25    2    1    2    0    0  0.42069041145E+02 -0.54129566410E+01  0.69704313085E+03  0.70942841316E+03  0.12498176994E+03 0.  0.
         25    2    1    2    0    0 -0.42069041145E+02  0.54129566410E+01  0.31100064545E+03  0.33785464848E+03  0.12500103083E+03 0.  0.
          5    1    3    3  501    0  0.38241382315E+02  0.43852784002E+02  0.16400050941E+03  0.17407965726E+03  0.47000000000E+01 0. -1.
         -5    1    3    3    0  501  0.38276588307E+01 -0.49265740643E+02  0.53304262144E+03  0.53534875590E+03  0.47000000000E+01 0. -1.
          5    1    4    4  502    0  0.42579285565E+01  0.32127632650E+02  0.13288470272E+02  0.35341026831E+02  0.47000000000E+01 0.  1.
         -5    1    4    4    0  502 -0.46326969702E+02 -0.26714676009E+02  0.29771217517E+03  0.30251362165E+03  0.47000000000E+01 0.  1.
<mgrwt>
<rscale>  0 0.28398866E+03</rscale>
<asrwt>0</asrwt>
<pdfrwt beam="1">  1       21 0.15810202E+00 0.28398866E+03</pdfrwt>
<pdfrwt beam="2">  1       21 0.30184074E-02 0.28398866E+03</pdfrwt>
<totfact> 0.15708290E+05</totfact>
</mgrwt>
</event>
<event>
 8    1  0.4760912E-006  0.3854124E+03  0.7546771E-02  0.1048951E+00
         21   -1    0    0  504  503  0.00000000000E+00  0.00000000000E+00  0.23284698345E+03  0.23284698345E+03  0.00000000000E+00 0.  1.
         21   -1    0    0  503  504 -0.00000000000E+00 -0.00000000000E+00 -0.15948537689E+03  0.15948537689E+03  0.00000000000E+00 0.  1.
         25    2    1    2    0    0  0.93138381672E+02  0.10990777742E+03  0.64690248017E+02  0.20139375134E+03  0.12498054734E+03 0.  0.
         25    2    1    2    0    0 -0.93138381672E+02 -0.10990777742E+03  0.86713585482E+01  0.19093860900E+03  0.12501152855E+03 0.  0.
          5    1    3    3  501    0  0.42891556569E+02  0.81152051114E+00  0.68692417981E+02  0.81123871200E+02  0.47000000000E+01 0. -1.
         -5    1    3    3    0  501  0.50246825103E+02  0.10909625691E+03 -0.40021699640E+01  0.12026988014E+03  0.47000000000E+01 0. -1.
          5    1    4    4  502    0 -0.65997314713E+02 -0.82924282233E+02  0.63702879059E+02  0.12374259143E+03  0.47000000000E+01 0. -1.
         -5    1    4    4    0  502 -0.27141066959E+02 -0.26983495188E+02 -0.55031520511E+02  0.67196017575E+02  0.47000000000E+01 0. -1.
<mgrwt>
<rscale>  0 0.38541245E+03</rscale>
<asrwt>0</asrwt>
<pdfrwt beam="1">  1       21 0.35822613E-01 0.38541245E+03</pdfrwt>
<pdfrwt beam="2">  1       21 0.24536212E-01 0.38541245E+03</pdfrwt>
<totfact> 0.11168539E+05</totfact>
</mgrwt>
</event>
<event>
 8    1  0.4760912E-006  0.3179104E+03  0.7546771E-02  0.1076615E+00
         21   -1    0    0  504  503  0.00000000000E+00  0.00000000000E+00  0.18094727924E+04  0.18094727924E+04  0.00000000000E+00 0.  1.
         21   -1    0    0  503  504 -0.00000000000E+00 -0.00000000000E+00 -0.13963600400E+02  0.13963600400E+02  0.00000000000E+00 0.  1.
         25    2    1    2    0    0 -0.72071714407E+02  0.37547226697E+02  0.12138578963E+04  0.12229813384E+04  0.12501294072E+03 0.  0.
         25    2    1    2    0    0  0.72071714407E+02 -0.37547226697E+02  0.58165129569E+03  0.60045505442E+03  0.12499566531E+03 0.  0.
          5    1    3    3  501    0 -0.13254829225E+02 -0.25898187930E+02  0.78001213110E+03  0.78056865253E+03  0.47000000000E+01 0.  1.
         -5    1    3    3    0  501 -0.58816885182E+02  0.63445414627E+02  0.43384576518E+03  0.44241268583E+03  0.47000000000E+01 0.  1.
          5    1    4    4  502    0  0.10255384875E+02  0.42459157401E+02  0.11870969217E+03  0.12657817340E+03  0.47000000000E+01 0. -1.
         -5    1    4    4    0  502  0.61816329532E+02 -0.80006384098E+02  0.46294160352E+03  0.47387688102E+03  0.47000000000E+01 0. -1.
<mgrwt>
<rscale>  0 0.31791040E+03</rscale>
<asrwt>0</asrwt>
<pdfrwt beam="1">  1       21 0.27838024E+00 0.31791040E+03</pdfrwt>
<pdfrwt beam="2">  1       21 0.21482477E-02 0.31791040E+03</pdfrwt>
<totfact> 0.45825909E+04</totfact>
</mgrwt>
</event>
<event>
 8    1  0.4760912E-006  0.3685924E+03  0.7546771E-02  0.1055232E+00
         21   -1    0    0  504  503  0.00000000000E+00  0.00000000000E+00  0.98255129282E+02  0.98255129282E+02  0.00000000000E+00 0. -1.
         21   -1    0    0  503  504 -0.00000000000E+00 -0.00000000000E+00 -0.34568266486E+03  0.34568266486E+03  0.00000000000E+00 0. -1.
         25    2    1    2    0    0  0.19360424110E+02 -0.97342770096E+02 -0.23468626213E+03  0.28381767920E+03  0.12499756989E+03 0.  0.
         25    2    1    2    0    0 -0.19360424110E+02  0.97342770096E+02 -0.12741273447E+02  0.16012011495E+03  0.12500268097E+03 0.  0.
          5    1    3    3  501    0 -0.26571106935E+01 -0.40973661140E+02  0.83706367128E-01  0.41327934272E+02  0.47000000000E+01 0.  1.
         -5    1    3    3    0  501  0.22017534803E+02 -0.56369108956E+02 -0.23476996850E+03  0.24248974492E+03  0.47000000000E+01 0.  1.
          5    1    4    4  502    0 -0.62903936147E+02  0.18082833987E+02  0.10925257126E+02  0.66523268945E+02  0.47000000000E+01 0.  1.
         -5    1    4    4    0  502  0.43543512037E+02  0.79259936109E+02 -0.23666530574E+02  0.93596846004E+02  0.47000000000E+01 0.  1.
<mgrwt>
<rscale>  0 0.36859243E+03</rscale>
<asrwt>0</asrwt>
<pdfrwt beam="1">  1       21 0.15116174E-01 0.36859243E+03</pdfrwt>
<pdfrwt beam="2">  1       21 0.53181948E-01 0.36859243E+03</pdfrwt>
<totfact> 0.12317437E+05</totfact>
</mgrwt>
</event>
<event>
 8    1  0.4760912E-006  0.4753808E+03  0.7546771E-02  0.1020412E+00
         21   -1    0    0  504  503  0.00000000000E+00  0.00000000000E+00  0.67383761443E+02  0.67383761443E+02  0.00000000000E+00 0. -1.
         21   -1    0    0  503  504 -0.00000000000E+00 -0.00000000000E+00 -0.83843245404E+03  0.83843245404E+03  0.00000000000E+00 0. -1.
         25    2    1    2    0    0  0.65296102288E+02  0.18168397294E+03 -0.49983559983E+03  0.55021250403E+03  0.12500210294E+03 0.  0.
         25    2    1    2    0    0 -0.65296102288E+02 -0.18168397294E+03 -0.27121309277E+03  0.35560371146E+03  0.12499924365E+03 0.  0.
          5    1    3    3  501    0 -0.73172194685E+01  0.35313751500E+02 -0.24345507226E+03  0.24615658625E+03  0.47000000000E+01 0. -1.
         -5    1    3    3    0  501  0.72613321757E+02  0.14637022144E+03 -0.25638052757E+03  0.30405591778E+03  0.47000000000E+01 0. -1.
          5    1    4    4  502    0 -0.27423006002E+02 -0.56006707523E+02 -0.19267435752E+03  0.20256917483E+03  0.47000000000E+01 0. -1.
         -5    1    4    4    0  502 -0.37873096287E+02 -0.12567726542E+03 -0.78538735250E+02  0.15303453662E+03  0.47000000000E+01 0. -1.
<mgrwt>
<rscale>  0 0.47538083E+03</rscale>
<asrwt>0</asrwt>
<pdfrwt beam="1">  1       21 0.10366733E-01 0.47538083E+03</pdfrwt>
<pdfrwt beam="2">  1       21 0.12898961E+00 0.47538083E+03</pdfrwt>
<totfact> 0.30160643E+04</totfact>
</mgrwt>
</event>
<event>
 8    1  0.4760912E-006  0.2573935E+03  0.7546771E-02  0.1108719E+00
         21   -1    0    0  504  503  0.00000000000E+00  0.00000000000E+00  0.14502027848E+03  0.14502027848E+03  0.00000000000E+00 0. -1.
         21   -1    0    0  503  504 -0.00000000000E+00 -0.00000000000E+00 -0.11421062530E+03  0.11421062530E+03  0.00000000000E+00 0. -1.
         25    2    1    2    0    0  0.18261169128E+02  0.19327534792E+02  0.11190081394E+00  0.12779719811E+03  0.12500034969E+03 0.  0.
         25    2    1    2    0    0 -0.18261169128E+02 -0.19327534792E+02  0.30697752364E+02  0.13143370568E+03  0.12500177235E+03 0.  0.
          5    1    3    3  501    0  0.33629788623E+02 -0.43184812117E+02  0.22661214965E+02  0.59426520545E+02  0.47000000000E+01 0. -1.
         -5    1    3    3    0  501 -0.15368619496E+02  0.62512346909E+02 -0.22549314151E+02  0.68370677560E+02  0.47000000000E+01 0. -1.
          5    1    4    4  502    0  0.80357016810E+01  0.19909892989E+02  0.67744273029E+02  0.71220452600E+02  0.47000000000E+01 0. -1.
         -5    1    4    4    0  502 -0.26296870809E+02 -0.39237427781E+02 -0.37046520665E+02  0.60213253081E+02  0.47000000000E+01 0. -1.
<mgrwt>
<rscale>  0 0.25739353E+03</rscale>
<asrwt>0</asrwt>
<pdfrwt beam="1">  1       21 0.22310812E-01 0.25739353E+03</pdfrwt>
<pdfrwt beam="2">  1       21 0.17570865E-01 0.25739353E+03</pdfrwt>
<totfact> 0.54531361E+05</totfact>
</mgrwt>
</event>
<event>
 8    1  0.4760912E-006  0.6202107E+03  0.7546771E-02  0.9864340E-01
         21   -1    0    0  504  503  0.00000000000E+00  0.00000000000E+00  0.24550839839E+03  0.24550839839E+03  0.00000000000E+00 0. -1.
         21   -1    0    0  503  504 -0.00000000000E+00 -0.00000000000E+00 -0.39169873508E+03  0.39169873508E+03  0.00000000000E+00 0. -1.
         25    2    1    2    0    0  0.10674134579E+03  0.10975738082E+03  0.17241719675E+03  0.26226830247E+03  0.12496629625E+03 0.  0.
         25    2    1    2    0    0 -0.10674134579E+03 -0.10975738082E+03 -0.31860753345E+03  0.37493883101E+03  0.12501187578E+03 0.  0.
          5    1    3    3  501    0 -0.22359475984E+02  0.50345726684E+02  0.43775601015E+02  0.70519724942E+02  0.47000000000E+01 0. -1.
         -5    1    3    3    0  501  0.12910082177E+03  0.59411654133E+02  0.12864159574E+03  0.19174857752E+03  0.47000000000E+01 0. -1.
          5    1    4    4  502    0 -0.11561649885E+03 -0.12716782434E+03 -0.30662379056E+03  0.35153814770E+03  0.47000000000E+01 0.  1.
         -5    1    4    4    0  502  0.88751530596E+01  0.17410443527E+02 -0.11983742887E+02  0.23400683307E+02  0.47000000000E+01 0.  1.
<mgrwt>
<rscale>  0 0.62021070E+03</rscale>
<asrwt>0</asrwt>
<pdfrwt beam="1">  1       21 0.37770523E-01 0.62021070E+03</pdfrwt>
<pdfrwt beam="2">  1       21 0.60261344E-01 0.62021070E+03</pdfrwt>
<totfact> 0.15024818E+04</totfact>
</mgrwt>
</event>
<event>
 8    1  0.4760912E-006  0.3382765E+03  0.7546771E-02  0.1067532E+00
         21   -1    0    0  504  503  0.00000000000E+00  0.00000000000E+00  0.78950532836E+02  0.78950532836E+02  0.00000000000E+00 0.  1.
         21   -1    0    0  503  504 -0.00000000000E+00 -0.00000000000E+00 -0.36235031054E+03  0.36235031054E+03  0.00000000000E+00 0.  1.
         25    2    1    2    0    0  0.18880422607E+02 -0.54474590871E+02 -0.13487736283E+02  0.13831400385E+03  0.12499957288E+03 0.  0.
         25    2    1    2    0    0 -0.18880422607E+02  0.54474590871E+02 -0.26991204142E+03  0.30298683953E+03  0.12499825365E+03 0.  0.
          5    1    3    3  501    0 -0.13802585578E+02 -0.19765378344E+02 -0.64088007401E+02  0.68633404712E+02  0.47000000000E+01 0.  1.
         -5    1    3    3    0  501  0.32683008185E+02 -0.34709212527E+02  0.50600271119E+02  0.69680599133E+02  0.47000000000E+01 0.  1.
          5    1    4    4  502    0 -0.29922549104E+02 -0.23549518794E+02 -0.25314068799E+02  0.45965539913E+02  0.47000000000E+01 0. -1.
         -5    1    4    4    0  502  0.11042126497E+02  0.78024109665E+02 -0.24459797262E+03  0.25702129962E+03  0.47000000000E+01 0. -1.
<mgrwt>
<rscale>  0 0.33827651E+03</rscale>
<asrwt>0</asrwt>
<pdfrwt beam="1">  1       21 0.12146236E-01 0.33827651E+03</pdfrwt>
<pdfrwt beam="2">  1       21 0.55746202E-01 0.33827651E+03</pdfrwt>
<totfact> 0.16727645E+05</totfact>
</mgrwt>
</event>
<event>
 8    1  0.4760912E-006  0.2889936E+03  0.7546771E-02  0.1090876E+00
         21   -1    0    0  504  503  0.00000000000E+00  0.00000000000E+00  0.10141211748E+03  0.10141211748E+03  0.00000000000E+00 0. -1.
         21   -1    0    0  503  504 -0.00000000000E+00 -0.00000000000E+00 -0.20588586473E+03  0.20588586473E+03  0.00000000000E+00 0. -1.
         25    2    1    2    0    0 -0.35446394090E+02 -0.47001847652E+02 -0.97206792769E+02  0.16893003242E+03  0.12499029864E+03 0.  0.
         25    2    1    2    0    0  0.35446394090E+02  0.47001847652E+02 -0.72669544818E+01  0.13836794979E+03  0.12500904113E+03 0.  0.
          5    1    3    3  501    0  0.35009838547E+02  0.13332125578E+02 -0.50549027677E+01  0.38092996856E+02  0.47000000000E+01 0.  1.
         -5    1    3    3    0  501 -0.70456232637E+02 -0.60333973230E+02 -0.92151890001E+02  0.13083703556E+03  0.47000000000E+01 0.  1.
          5    1    4    4  502    0 -0.21920537572E+02 -0.14805510928E+02 -0.39666305476E+02  0.47908443007E+02  0.47000000000E+01 0.  1.
         -5    1    4    4    0  502  0.57366931662E+02  0.61807358580E+02  0.32399350994E+02  0.90459506785E+02  0.47000000000E+01 0.  1.
<mgrwt>
<rscale>  0 0.28899357E+03</rscale>
<asrwt>0</asrwt>
<pdfrwt beam="1">  1       21 0.15601864E-01 0.28899357E+03</pdfrwt>
<pdfrwt beam="2">  1       21 0.31674748E-01 0.28899357E+03</pdfrwt>
<totfact> 0.34249044E+05</totfact>
</mgrwt>
</event>
<event>
 8    1  0.4760912E-006  0.4654456E+03  0.7546771E-02  0.1023214E+00
         21   -1    0    0  504  503  0.00000000000E+00  0.00000000000E+00  0.73613421284E+03  0.73613421284E+03  0.00000000000E+00 0. -1.
         21   -1    0    0  503  504 -0.00000000000E+00 -0.00000000000E+00 -0.73573404381E+02  0.73573404381E+02  0.00000000000E+00 0. -1.
         25    2    1    2    0    0 -0.11183040918E+03 -0.42973928714E+02  0.60180395058E+03  0.62621757672E+03  0.12501063755E+03 0.  0.
         25    2    1    2    0    0  0.11183040918E+03  0.42973928714E+02  0.60756857881E+02  0.18349004050E+03  0.12499760084E+03 0.  0.
          5    1    3    3  501    0  0.48530768754E+01 -0.14732120946E+02  0.43192566159E+01  0.16773005707E+02  0.47000000000E+01 0. -1.
         -5    1    3    3    0  501 -0.11668348605E+03 -0.28241807768E+02  0.59748469396E+03  0.60944457102E+03  0.47000000000E+01 0. -1.
          5    1    4    4  502    0  0.75416831709E+01 -0.38795240581E+02  0.21283203657E+02  0.45133274141E+02  0.47000000000E+01 0. -1.
         -5    1    4    4    0  502  0.10428872601E+03  0.81769169294E+02  0.39473654223E+02  0.13835676636E+03  0.47000000000E+01 0. -1.
<mgrwt>
<rscale>  0 0.46544559E+03</rscale>
<asrwt>0</asrwt>
<pdfrwt beam="1">  1       21 0.11325141E+00 0.46544559E+03</pdfrwt>
<pdfrwt beam="2">  1       21 0.11318986E-01 0.46544559E+03</pdfrwt>
<totfact> 0.35921938E+04</totfact>
</mgrwt>
</event>
<event>
 8    1  0.4760912E-006  0.2922093E+03  0.7546771E-02  0.1089201E+00
         21   -1    0    0  504  503  0.00000000000E+00  0.00000000000E+00  0.29711367584E+03  0.29711367584E+03  0.00000000000E+00 0. -1.
         21   -1    0    0  503  504 -0.00000000000E+00 -0.00000000000E+00 -0.71846470341E+02  0.71846470341E+02  0.00000000000E+00 0. -1.
         25    2    1    2    0    0  0.66582356927E+01 -0.47511057624E+02  0.38796306588E+02  0.13940038182E+03  0.12500272137E+03 0.  0.
         25    2    1    2    0    0 -0.66582356927E+01  0.47511057624E+02  0.18647089891E+03  0.22955976435E+03  0.12499862628E+03 0.  0.
          5    1    3    3  501    0  0.21884082688E+02 -0.86481803420E+02  0.13673308873E+02  0.90371814043E+02  0.47000000000E+01 0.  1.
         -5    1    3    3    0  501 -0.15225846995E+02  0.38970745796E+02  0.25122997715E+02  0.49028567782E+02  0.47000000000E+01 0.  1.
          5    1    4    4  502    0  0.22155699348E+02  0.83998867146E+02  0.11588710864E+03  0.14490892534E+03  0.47000000000E+01 0.  1.
         -5    1    4    4    0  502 -0.28813935041E+02 -0.36487809522E+02  0.70583790269E+02  0.84650839010E+02  0.47000000000E+01 0.  1.
<mgrwt>
<rscale>  0 0.29220930E+03</rscale>
<asrwt>0</asrwt>
<pdfrwt beam="1">  1       21 0.45709796E-01 0.29220930E+03</pdfrwt>
<pdfrwt beam="2">  1       21 0.11053303E-01 0.29220930E+03</pdfrwt>
<totfact> 0.30455742E+05</totfact>
</mgrwt>
</event>
<event>
 8    1  0.4760912E-006  0.3157119E+03  0.7546771E-02  0.1077640E+00
         21   -1    0    0  504  503  0.00000000000E+00  0.00000000000E+00  0.10576209863E+03  0.10576209863E+03  0.00000000000E+00 0. -1.
         21   -1    0    0  503  504 -0.00000000000E+00 -0.00000000000E+00 -0.23560903797E+03  0.23560903797E+03  0.00000000000E+00 0. -1.
         25    2    1    2    0    0  0.24932377551E+02 -0.90913695252E+02 -0.86833985894E+02  0.17902963932E+03  0.12499818885E+03 0.  0.
         25    2    1    2    0    0 -0.24932377551E+02  0.90913695252E+02 -0.43012953439E+02  0.16234149727E+03  0.12497089317E+03 0.  0.
          5    1    3    3  501    0  0.10253567164E+02  0.31345465030E+02 -0.17273864692E+02  0.37525327699E+02  0.47000000000E+01 0. -1.
         -5    1    3    3    0  501  0.14678810388E+02 -0.12225916028E+03 -0.69560121202E+02  0.14150431163E+03  0.47000000000E+01 0. -1.
          5    1    4    4  502    0 -0.11820658231E+02  0.74591200210E+02 -0.85846013164E+02  0.11443427409E+03  0.47000000000E+01 0. -1.
         -5    1    4    4    0  502 -0.13111719320E+02  0.16322495042E+02  0.42833059726E+02  0.47907223186E+02  0.47000000000E+01 0. -1.
<mgrwt>
<rscale>  0 0.31571193E+03</rscale>
<asrwt>0</asrwt>
<pdfrwt beam="1">  1       21 0.16271092E-01 0.31571193E+03</pdfrwt>
<pdfrwt beam="2">  1       21 0.36247545E-01 0.31571193E+03</pdfrwt>
<totfact> 0.24078553E+05</totfact>
</mgrwt>
</event>
<event>
 8    1  0.4760912E-006  0.4035628E+03  0.7546771E-02  0.1042553E+00
         21   -1    0    0  504  503  0.00000000000E+00  0.00000000000E+00  0.33549127676E+03  0.33549127676E+03  0.00000000000E+00 0.  1.
         21   -1    0    0  503  504 -0.00000000000E+00 -0.00000000000E+00 -0.12136150161E+03  0.12136150161E+03  0.00000000000E+00 0.  1.
         25    2    1    2    0    0  0.96754535406E+02  0.11998372680E+03  0.65742691959E+02  0.20905910288E+03  0.12500428845E+03 0.  0.
         25    2    1    2    0    0 -0.96754535406E+02 -0.11998372680E+03  0.14838708320E+03  0.24779367549E+03  0.12500177731E+03 0.  0.
          5    1    3    3  501    0  0.10908210185E+03  0.10573360825E+03  0.12636001395E+02  0.15251314497E+03  0.47000000000E+01 0.  1.
         -5    1    3    3    0  501 -0.12327566440E+02  0.14250118551E+02  0.53106690564E+02  0.56545957908E+02  0.47000000000E+01 0.  1.
          5    1    4    4  502    0 -0.32928577878E+02  0.21285361344E+02  0.12022166371E+02  0.41279296661E+02  0.47000000000E+01 0.  1.
         -5    1    4    4    0  502 -0.63825957528E+02 -0.14126908815E+03  0.13636491682E+03  0.20651437882E+03  0.47000000000E+01 0.  1.
<mgrwt>
<rscale>  0 0.40356276E+03</rscale>
<asrwt>0</asrwt>
<pdfrwt beam="1">  1       21 0.51614042E-01 0.40356276E+03</pdfrwt>
<pdfrwt beam="2">  1       21 0.18671000E-01 0.40356276E+03</pdfrwt>
<totfact> 0.87857979E+04</totfact>
</mgrwt>
</event>
<event>
 8    1  0.4760912E-006  0.2975184E+03  0.7546771E-02  0.1086488E+00
         21   -1    0    0  504  503  0.00000000000E+00  0.00000000000E+00  0.58254144617E+03  0.58254144617E+03  0.00000000000E+00 0. -1.
         21   -1    0    0  503  504 -0.00000000000E+00 -0.00000000000E+00 -0.37987515689E+02  0.37987515689E+02  0.00000000000E+00 0. -1.
         25    2    1    2    0    0  0.92177718507E+01 -0.38302903029E+02  0.41903702653E+03  0.43905803930E+03  0.12501140976E+03 0.  0.
         25    2    1    2    0    0 -0.92177718507E+01  0.38302903029E+02  0.12551690395E+03  0.18147092256E+03  0.12500049144E+03 0.  0.
          5    1    3    3  501    0  0.49299425465E+02  0.24452869536E+02  0.20849685929E+03  0.21568821598E+03  0.47000000000E+01 0. -1.
         -5    1    3    3    0  501 -0.40081653614E+02 -0.62755772565E+02  0.21054016724E+03  0.22336982332E+03  0.47000000000E+01 0. -1.
          5    1    4    4  502    0  0.49805110522E+02 -0.30840772145E+01  0.20828534475E+02  0.54276868137E+02  0.47000000000E+01 0. -1.
         -5    1    4    4    0  502 -0.59022882373E+02  0.41386980244E+02  0.10468836948E+03  0.12719405442E+03  0.47000000000E+01 0. -1.
<mgrwt>
<rscale>  0 0.29751842E+03</rscale>
<asrwt>0</asrwt>
<pdfrwt beam="1">  1       21 0.89621754E-01 0.29751842E+03</pdfrwt>
<pdfrwt beam="2">  1       21 0.58442336E-02 0.29751842E+03</pdfrwt>
<totfact> 0.21230303E+05</totfact>
</mgrwt>
</event>
<event>
 8    1  0.4760912E-006  0.2923912E+03  0.7546771E-02  0.1089107E+00
         21   -1    0    0  504  503  0.00000000000E+00  0.00000000000E+00  0.41996967870E+03  0.41996967870E+03  0.00000000000E+00 0.  1.
         21   -1    0    0  503  504 -0.00000000000E+00 -0.00000000000E+00 -0.50892145816E+02  0.50892145816E+02  0.00000000000E+00 0.  1.
         25    2    1    2    0    0  0.17491027688E+01 -0.50730142165E+02  0.93836666975E+02  0.16433483455E+03  0.12499604432E+03 0.  0.
         25    2    1    2    0    0 -0.17491027688E+01  0.50730142165E+02  0.27524086591E+03  0.30652698996E+03  0.12499861849E+03 0.  0.
          5    1    3    3  501    0  0.31302789736E+02 -0.83667858975E+02  0.71631718644E+02  0.11460090919E+03  0.47000000000E+01 0. -1.
         -5    1    3    3    0  501 -0.29553686967E+02  0.32937716811E+02  0.22204948331E+02  0.49733925367E+02  0.47000000000E+01 0. -1.
          5    1    4    4  502    0  0.38175918094E+02  0.69424845933E+02  0.11132171362E+03  0.13671804518E+03  0.47000000000E+01 0.  1.
         -5    1    4    4    0  502 -0.39925020863E+02 -0.18694703768E+02  0.16391915229E+03  0.16980894478E+03  0.47000000000E+01 0.  1.
<mgrwt>
<rscale>  0 0.29239123E+03</rscale>
<asrwt>0</asrwt>
<pdfrwt beam="1">  1       21 0.64610718E-01 0.29239123E+03</pdfrwt>
<pdfrwt beam="2">  1       21 0.78295612E-02 0.29239123E+03</pdfrwt>
<totfact> 0.26819658E+05</totfact>
</mgrwt>
</event>
<event>
 8    1  0.4760912E-006  0.4354271E+03  0.7546771E-02  0.1032159E+00
         21   -1    0    0  504  503  0.00000000000E+00  0.00000000000E+00  0.78344260360E+03  0.78344260360E+03  0.00000000000E+00 0.  1.
         21   -1    0    0  503  504 -0.00000000000E+00 -0.00000000000E+00 -0.60501167141E+02  0.60501167141E+02  0.00000000000E+00 0.  1.
         25    2    1    2    0    0 -0.15882568159E+03 -0.78750916111E+02  0.32536726097E+03  0.39104463702E+03  0.12499899882E+03 0.  0.
         25    2    1    2    0    0  0.15882568159E+03  0.78750916111E+02  0.39757417549E+03  0.45289913372E+03  0.12500038557E+03 0.  0.
          5    1    3    3  501    0 -0.10461979251E+03 -0.11108622942E+03  0.24611201455E+03  0.28961813662E+03  0.47000000000E+01 0. -1.
         -5    1    3    3    0  501 -0.54205889085E+02  0.32335313311E+02  0.79255246423E+02  0.10142650040E+03  0.47000000000E+01 0. -1.
          5    1    4    4  502    0  0.66093772009E+02  0.94641314758E+02  0.16017298630E+03  0.19749136867E+03  0.47000000000E+01 0. -1.
         -5    1    4    4    0  502  0.92731909581E+02 -0.15890398647E+02  0.23740118919E+03  0.25540776505E+03  0.47000000000E+01 0. -1.
<mgrwt>
<rscale>  0 0.43542711E+03</rscale>
<asrwt>0</asrwt>
<pdfrwt beam="1">  1       21 0.12052962E+00 0.43542711E+03</pdfrwt>
<pdfrwt beam="2">  1       21 0.93078724E-02 0.43542711E+03</pdfrwt>
<totfact> 0.44017069E+04</totfact>
</mgrwt>
</event>
<event>
 8    1  0.4760912E-006  0.3809311E+03  0.7546771E-02  0.1050590E+00
         21   -1    0    0  504  503  0.00000000000E+00  0.00000000000E+00  0.40228372545E+03  0.40228372545E+03  0.00000000000E+00 0.  1.
         21   -1    0    0  503  504 -0.00000000000E+00 -0.00000000000E+00 -0.90177974859E+02  0.90177974859E+02  0.00000000000E+00 0.  1.
         25    2    1    2    0    0  0.86667234484E+02 -0.16920707998E+02  0.30262360127E+03  0.33912149279E+03  0.12499929173E+03 0.  0.
         25    2    1    2    0    0 -0.86667234484E+02  0.16920707998E+02  0.94821493185E+01  0.15334020752E+03  0.12500315273E+03 0.  0.
          5    1    3    3  501    0  0.93174621414E+02  0.31567227256E+02  0.15608530843E+03  0.18456086644E+03  0.47000000000E+01 0.  1.
         -5    1    3    3    0  501 -0.65073869298E+01 -0.48487935254E+02  0.14653829284E+03  0.15456062636E+03  0.47000000000E+01 0.  1.
          5    1    4    4  502    0 -0.59861876078E+02  0.15435475449E+02  0.66025333760E+02  0.90571147768E+02  0.47000000000E+01 0. -1.
         -5    1    4    4    0  502 -0.26805358406E+02  0.14852325491E+01 -0.56543184442E+02  0.62769059749E+02  0.47000000000E+01 0. -1.
<mgrwt>
<rscale>  0 0.38093113E+03</rscale>
<asrwt>0</asrwt>
<pdfrwt beam="1">  1       21 0.61889803E-01 0.38093113E+03</pdfrwt>
<pdfrwt beam="2">  1       21 0.13873535E-01 0.38093113E+03</pdfrwt>
<totfact> 0.10360688E+05</totfact>
</mgrwt>
</event>
<event>
 8    1  0.4760912E-006  0.2929138E+03  0.7546771E-02  0.1088838E+00
         21   -1    0    0  504  503  0.00000000000E+00  0.00000000000E+00  0.20200683329E+03  0.20200683329E+03  0.00000000000E+00 0.  1.
         21   -1    0    0  503  504 -0.00000000000E+00 -0.00000000000E+00 -0.10618267064E+03  0.10618267064E+03  0.00000000000E+00 0.  1.
         25    2    1    2    0    0 -0.99978695569E+01  0.30210172562E+02  0.12089824153E+03  0.17678919516E+03  0.12500169119E+03 0.  0.
         25    2    1    2    0    0  0.99978695569E+01 -0.30210172562E+02 -0.25074078880E+02  0.13140030877E+03  0.12499887916E+03 0.  0.
          5    1    3    3  501    0 -0.45323330655E+02 -0.17105183728E+02  0.80402682233E+01  0.49330796924E+02  0.47000000000E+01 0. -1.
         -5    1    3    3    0  501  0.35325461098E+02  0.47315356290E+02  0.11285797330E+03  0.12745839824E+03  0.47000000000E+01 0. -1.
          5    1    4    4  502    0 -0.19467192730E+02  0.27019245794E+02  0.31122506439E+02  0.45822610610E+02  0.47000000000E+01 0. -1.
         -5    1    4    4    0  502  0.29465062287E+02 -0.57229418355E+02 -0.56196585319E+02  0.85577698160E+02  0.47000000000E+01 0. -1.
<mgrwt>
<rscale>  0 0.29291381E+03</rscale>
<asrwt>0</asrwt>
<pdfrwt beam="1">  1       21 0.31077974E-01 0.29291381E+03</pdfrwt>
<pdfrwt beam="2">  1       21 0.16335796E-01 0.29291381E+03</pdfrwt>
<totfact> 0.32642416E+05</totfact>
</mgrwt>
</event>
<event>
 8    1  0.4760912E-006  0.2825620E+03  0.7546771E-02  0.1094298E+00
         21   -1    0    0  504  503  0.00000000000E+00  0.00000000000E+00  0.20022748417E+03  0.20022748417E+03  0.00000000000E+00 0. -1.
         21   -1    0    0  503  504 -0.00000000000E+00 -0.00000000000E+00 -0.99688189806E+02  0.99688189806E+02  0.00000000000E+00 0. -1.
         25    2    1    2    0    0  0.13240054986E+02 -0.15493316743E+02 -0.16192454516E+02  0.12767974808E+03  0.12499832225E+03 0.  0.
         25    2    1    2    0    0 -0.13240054986E+02  0.15493316743E+02  0.11673174888E+03  0.17223592590E+03  0.12499428408E+03 0.  0.
          5    1    3    3  501    0 -0.83345844979E+01  0.19320586713E+02 -0.62243313617E+02  0.65871621050E+02  0.47000000000E+01 0.  1.
         -5    1    3    3    0  501  0.21574639484E+02 -0.34813903456E+02  0.46050859101E+02  0.61808127028E+02  0.47000000000E+01 0.  1.
          5    1    4    4  502    0 -0.44148395408E+02  0.25744587821E+02  0.38178684048E+00  0.51323487609E+02  0.47000000000E+01 0. -1.
         -5    1    4    4    0  502  0.30908340422E+02 -0.10251271078E+02  0.11634996204E+03  0.12091243829E+03  0.47000000000E+01 0. -1.
<mgrwt>
<rscale>  0 0.28256196E+03</rscale>
<asrwt>0</asrwt>
<pdfrwt beam="1">  1       21 0.30804228E-01 0.28256196E+03</pdfrwt>
<pdfrwt beam="2">  1       21 0.15336645E-01 0.28256196E+03</pdfrwt>
<totfact> 0.37395010E+05</totfact>
</mgrwt>
</event>
<event>
 8    1  0.4760912E-006  0.2986787E+03  0.7546771E-02  0.1085903E+00
         21   -1    0    0  504  503  0.00000000000E+00  0.00000000000E+00  0.82939607909E+03  0.82939607909E+03  0.00000000000E+00 0. -1.
         21   -1    0    0  503  504 -0.00000000000E+00 -0.00000000000E+00 -0.26889728353E+02  0.26889728353E+02  0.00000000000E+00 0. -1.
         25    2    1    2    0    0  0.26346792473E+02  0.40863843718E+02  0.58954241321E+03  0.60460729413E+03  0.12500286377E+03 0.  0.
         25    2    1    2    0    0 -0.26346792473E+02 -0.40863843718E+02  0.21296393753E+03  0.25167851331E+03  0.12499771269E+03 0.  0.
          5    1    3    3  501    0  0.32374924244E+02  0.48612538670E+02  0.10741979665E+03  0.12236182962E+03  0.47000000000E+01 0.  1.
         -5    1    3    3    0  501 -0.60281317710E+01 -0.77486949518E+01  0.48212261656E+03  0.48224546451E+03  0.47000000000E+01 0.  1.
          5    1    4    4  502    0 -0.26962422694E+02  0.61006241956E+00 -0.66176073455E+01  0.28164288393E+02  0.47000000000E+01 0.  1.
         -5    1    4    4    0  502  0.61563022057E+00 -0.41473906138E+02  0.21958154487E+03  0.22351422492E+03  0.47000000000E+01 0.  1.
<mgrwt>
<rscale>  0 0.29867866E+03</rscale>
<asrwt>0</asrwt>
<pdfrwt beam="1">  1       21 0.12759938E+00 0.29867866E+03</pdfrwt>
<pdfrwt beam="2">  1       21 0.41368819E-02 0.29867866E+03</pdfrwt>
<totfact> 0.16178791E+05</totfact>
</mgrwt>
</event>
<event>
 8    1  0.4760912E-006  0.3002178E+03  0.7546771E-02  0.1085132E+00
         21   -1    0    0  504  503  0.00000000000E+00  0.00000000000E+00  0.24338019702E+03  0.24338019702E+03  0.00000000000E+00 0. -1.
         21   -1    0    0  503  504 -0.00000000000E+00 -0.00000000000E+00 -0.92582201400E+02  0.92582201400E+02  0.00000000000E+00 0. -1.
         25    2    1    2    0    0 -0.48337401254E+02  0.38249729913E+02  0.13016033419E+02  0.13997549778E+03  0.12499670657E+03 0.  0.
         25    2    1    2    0    0  0.48337401254E+02 -0.38249729913E+02  0.13778196220E+03  0.19598690064E+03  0.12500979928E+03 0.  0.
          5    1    3    3  501    0 -0.26406016660E+02 -0.43888207676E+02  0.18482874522E+02  0.54654909564E+02  0.47000000000E+01 0. -1.
         -5    1    3    3    0  501 -0.21931384595E+02  0.82137937589E+02 -0.54668411030E+01  0.85320588214E+02  0.47000000000E+01 0. -1.
          5    1    4    4  502    0  0.40408653003E+02  0.56171719195E+01  0.14489404973E+03  0.15060141933E+03  0.47000000000E+01 0. -1.
         -5    1    4    4    0  502  0.79287482508E+01 -0.43866901832E+02 -0.71120875239E+01  0.45385481314E+02  0.47000000000E+01 0. -1.
<mgrwt>
<rscale>  0 0.30021775E+03</rscale>
<asrwt>0</asrwt>
<pdfrwt beam="1">  1       21 0.37443107E-01 0.30021775E+03</pdfrwt>
<pdfrwt beam="2">  1       21 0.14243416E-01 0.30021775E+03</pdfrwt>
<totfact> 0.28907209E+05</totfact>
</mgrwt>
</event>
<event>
 8    1  0.4760912E-006  0.4167694E+03  0.7546771E-02  0.1038123E+00
         21   -1    0    0  504  503  0.00000000000E+00  0.00000000000E+00  0.14176854954E+04  0.14176854954E+04  0.00000000000E+00 0.  1.
         21   -1    0    0  503  504 -0.00000000000E+00 -0.00000000000E+00 -0.30630339369E+02  0.30630339369E+02  0.00000000000E+00 0.  1.
         25    2    1    2    0    0 -0.14050848787E+03  0.86265528738E+02  0.60732161687E+03  0.64159823974E+03  0.12499751324E+03 0.  0.
         25    2    1    2    0    0  0.14050848787E+03 -0.86265528738E+02  0.77973353913E+03  0.80671759499E+03  0.12499803764E+03 0.  0.
          5    1    3    3  501    0 -0.15969218837E+03  0.94235104318E+02  0.55117279663E+03  0.58154569180E+03  0.47000000000E+01 0. -1.
         -5    1    3    3    0  501  0.19183700500E+02 -0.79695755794E+01  0.56148820239E+02  0.60052547940E+02  0.47000000000E+01 0. -1.
          5    1    4    4  502    0  0.14225141174E+03 -0.28426481105E+02  0.48206593693E+03  0.50344134368E+03  0.47000000000E+01 0. -1.
         -5    1    4    4    0  502 -0.17429238763E+01 -0.57839047634E+02  0.29766760220E+03  0.30327625131E+03  0.47000000000E+01 0. -1.
<mgrwt>
<rscale>  0 0.41676942E+03</rscale>
<asrwt>0</asrwt>
<pdfrwt beam="1">  1       21 0.21810541E+00 0.41676942E+03</pdfrwt>
<pdfrwt beam="2">  1       21 0.47123610E-02 0.41676942E+03</pdfrwt>
<totfact> 0.27387138E+04</totfact>
</mgrwt>
</event>
<event>
 8    1  0.4760912E-006  0.3885752E+03  0.7546771E-02  0.1047809E+00
         21   -1    0    0  504  503  0.00000000000E+00  0.00000000000E+00  0.15534678836E+03  0.15534678836E+03  0.00000000000E+00 0. -1.
         21   -1    0    0  503  504 -0.00000000000E+00 -0.00000000000E+00 -0.24298975396E+03  0.24298975396E+03  0.00000000000E+00 0. -1.
         25    2    1    2    0    0  0.46092556114E+02  0.31776445898E+02 -0.18509358422E+03  0.23026083307E+03  0.12500460024E+03 0.  0.
         25    2    1    2    0    0 -0.46092556114E+02 -0.31776445898E+02  0.97450618626E+02  0.16807570925E+03  0.12497421624E+03 0.  0.
          5    1    3    3  501    0  0.52346824472E+02  0.40024304492E+02 -0.26370334933E+02  0.71131002712E+02  0.47000000000E+01 0.  1.
         -5    1    3    3    0  501 -0.62542683571E+01 -0.82478585941E+01 -0.15872324929E+03  0.15912983036E+03  0.47000000000E+01 0.  1.
          5    1    4    4  502    0 -0.69831888927E+02 -0.63370386976E+02  0.52467751953E+02  0.10801506215E+03  0.47000000000E+01 0.  1.
         -5    1    4    4    0  502  0.23739332813E+02  0.31593941078E+02  0.44982866674E+02  0.60060647094E+02  0.47000000000E+01 0.  1.
<mgrwt>
<rscale>  0 0.38857523E+03</rscale>
<asrwt>0</asrwt>
<pdfrwt beam="1">  1       21 0.23899506E-01 0.38857523E+03</pdfrwt>
<pdfrwt beam="2">  1       21 0.37383039E-01 0.38857523E+03</pdfrwt>
<totfact> 0.10770204E+05</totfact>
</mgrwt>
</event>
<event>
 8    1  0.4760912E-006  0.2710544E+03  0.7546771E-02  0.1100678E+00
         21   -1    0    0  504  503  0.00000000000E+00  0.00000000000E+00  0.19341066097E+03  0.19341066097E+03  0.00000000000E+00 0.  1.
         21   -1    0    0  503  504 -0.00000000000E+00 -0.00000000000E+00 -0.94966943507E+02  0.94966943507E+02  0.00000000000E+00 0.  1.
         25    2    1    2    0    0  0.19838971713E+02 -0.42837570441E+02  0.73313200709E+02  0.15240631860E+03  0.12499687320E+03 0.  0.
         25    2    1    2    0    0 -0.19838971713E+02  0.42837570441E+02  0.25130516749E+02  0.13597128588E+03  0.12501202131E+03 0.  0.
          5    1    3    3  501    0 -0.44505299192E+02  0.12980821057E+02  0.14552822825E+02  0.48816984991E+02  0.47000000000E+01 0.  1.
         -5    1    3    3    0  501  0.64344270904E+02 -0.55818391497E+02  0.58760377884E+02  0.10358933360E+03  0.47000000000E+01 0.  1.
          5    1    4    4  502    0  0.39646314237E+02 -0.12993231137E+02 -0.15444116397E+02  0.44735500660E+02  0.47000000000E+01 0.  1.
         -5    1    4    4    0  502 -0.59485285950E+02  0.55830801578E+02  0.40574633146E+02  0.91235785218E+02  0.47000000000E+01 0.  1.
<mgrwt>
<rscale>  0 0.27105438E+03</rscale>
<asrwt>0</asrwt>
<pdfrwt beam="1">  1       21 0.29755486E-01 0.27105438E+03</pdfrwt>
<pdfrwt beam="2">  1       21 0.14610299E-01 0.27105438E+03</pdfrwt>
<totfact> 0.43853568E+05</totfact>
</mgrwt>
</event>
<event>
 8    1  0.4760912E-006  0.2784448E+03  0.7546771E-02  0.1096541E+00
         21   -1    0    0  504  503  0.00000000000E+00  0.00000000000E+00  0.43033901406E+02  0.43033901406E+02  0.00000000000E+00 0.  1.
         21   -1    0    0  503  504 -0.00000000000E+00 -0.00000000000E+00 -0.45040959247E+03  0.45040959247E+03  0.00000000000E+00 0.  1.
         25    2    1    2    0    0  0.93302161608E+00 -0.53588994111E+02 -0.25644125355E+03  0.29027344627E+03  0.12499562501E+03 0.  0.
         25    2    1    2    0    0 -0.93302161608E+00  0.53588994111E+02 -0.15093443751E+03  0.20317004760E+03  0.12499685194E+03 0.  0.
          5    1    3    3  501    0 -0.40232422403E+02 -0.77926104125E+02 -0.17163990324E+03  0.19280423206E+03  0.47000000000E+01 0. -1.
         -5    1    3    3    0  501  0.41165444019E+02  0.24337110014E+02 -0.84801350312E+02  0.97469214216E+02  0.47000000000E+01 0. -1.
          5    1    4    4  502    0 -0.49466216305E+02  0.65721718856E+01 -0.16729420444E+02  0.52839980197E+02  0.47000000000E+01 0.  1.
         -5    1    4    4    0  502  0.48533194689E+02  0.47016822226E+02 -0.13420501707E+03  0.15033006740E+03  0.47000000000E+01 0.  1.
<mgrwt>
<rscale>  0 0.27844484E+03</rscale>
<asrwt>0</asrwt>
<pdfrwt beam="1">  1       21 0.66205998E-02 0.27844484E+03</pdfrwt>
<pdfrwt beam="2">  1       21 0.69293788E-01 0.27844484E+03</pdfrwt>
<totfact> 0.30882800E+05</totfact>
</mgrwt>
</event>
<event>
 8    1  0.4760912E-006  0.2582138E+03  0.7546771E-02  0.1108221E+00
         21   -1    0    0  504  503  0.00000000000E+00  0.00000000000E+00  0.55441615290E+02  0.55441615290E+02  0.00000000000E+00 0.  1.
         21   -1    0    0  503  504 -0.00000000000E+00 -0.00000000000E+00 -0.30065119221E+03  0.30065119221E+03  0.00000000000E+00 0.  1.
         25    2    1    2    0    0  0.14334483792E+02  0.57833472438E+01 -0.16146152293E+03  0.20477765572E+03  0.12500056146E+03 0.  0.
         25    2    1    2    0    0 -0.14334483792E+02 -0.57833472438E+01 -0.83748053991E+02  0.15131515178E+03  0.12507443416E+03 0.  0.
          5    1    3    3  501    0 -0.39932369491E+02  0.35448376518E+02 -0.35265806809E+02  0.64163452687E+02  0.47000000000E+01 0. -1.
         -5    1    3    3    0  501  0.54266853283E+02 -0.29665029274E+02 -0.12619571612E+03  0.14061420304E+03  0.47000000000E+01 0. -1.
          5    1    4    4  502    0 -0.16608320249E+02  0.58482676715E+02 -0.33521467236E+02  0.69583320867E+02  0.47000000000E+01 0. -1.
         -5    1    4    4    0  502  0.22738364563E+01 -0.64266023959E+02 -0.50226586754E+02  0.81731830915E+02  0.47000000000E+01 0. -1.
<mgrwt>
<rscale>  0 0.25821377E+03</rscale>
<asrwt>0</asrwt>
<pdfrwt beam="1">  1       21 0.85294792E-02 0.25821377E+03</pdfrwt>
<pdfrwt beam="2">  1       21 0.46254030E-01 0.25821377E+03</pdfrwt>
<totfact> 0.47412528E+05</totfact>
</mgrwt>
</event>
<event>
 8    1  0.4760912E-006  0.3541918E+03  0.7546771E-02  0.1060908E+00
         21   -1    0    0  504  503  0.00000000000E+00  0.00000000000E+00  0.12874651714E+03  0.12874651714E+03  0.00000000000E+00 0. -1.
         21   -1    0    0  503  504 -0.00000000000E+00 -0.00000000000E+00 -0.24360240589E+03  0.24360240589E+03  0.00000000000E+00 0. -1.
         25    2    1    2    0    0  0.21697994898E+02 -0.15832200500E+02 -0.18626094613E+03  0.22591774445E+03  0.12499690257E+03 0.  0.
         25    2    1    2    0    0 -0.21697994898E+02  0.15832200500E+02  0.71405057384E+02  0.14643117858E+03  0.12498778454E+03 0.  0.
          5    1    3    3  501    0 -0.48793738747E+02 -0.13553543307E+02 -0.44785398122E+02  0.67766875109E+02  0.47000000000E+01 0.  1.
         -5    1    3    3    0  501  0.70491733645E+02 -0.22786571932E+01 -0.14147554800E+03  0.15815086934E+03  0.47000000000E+01 0.  1.
          5    1    4    4  502    0 -0.13743847196E+02 -0.97838833801E+01  0.10313887907E+03  0.10461518095E+03  0.47000000000E+01 0. -1.
         -5    1    4    4    0  502 -0.79541477022E+01  0.25616083881E+02 -0.31733821683E+02  0.41815997629E+02  0.47000000000E+01 0. -1.
<mgrwt>
<rscale>  0 0.35419182E+03</rscale>
<asrwt>0</asrwt>
<pdfrwt beam="1">  1       21 0.19807157E-01 0.35419182E+03</pdfrwt>
<pdfrwt beam="2">  1       21 0.37477293E-01 0.35419182E+03</pdfrwt>
<totfact> 0.15452598E+05</totfact>
</mgrwt>
</event>
<event>
 8    1  0.4760912E-006  0.2827581E+03  0.7546771E-02  0.1094192E+00
         21   -1    0    0  504  503  0.00000000000E+00  0.00000000000E+00  0.32804664754E+04  0.32804664754E+04  0.00000000000E+00 0.  1.
         21   -1    0    0  503  504 -0.00000000000E+00 -0.00000000000E+00 -0.60930474482E+01  0.60930474482E+01  0.00000000000E+00 0.  1.
         25    2    1    2    0    0 -0.37222054615E+02  0.40683405022E+02  0.20597221294E+04  0.20642486608E+04  0.12500664949E+03 0.  0.
         25    2    1    2    0    0  0.37222054615E+02 -0.40683405022E+02  0.12146512986E+04  0.12223108621E+04  0.12500178259E+03 0.  0.
          5    1    3    3  501    0 -0.49476053116E+02  0.60603922555E+01  0.18841276833E+04  0.18847927804E+04  0.47000000000E+01 0.  1.
         -5    1    3    3    0  501  0.12253998501E+02  0.34623012766E+02  0.17559444608E+03  0.17945588033E+03  0.47000000000E+01 0.  1.
          5    1    4    4  502    0  0.67347708961E+02 -0.16172153702E+02  0.10762543530E+04  0.10784909711E+04  0.47000000000E+01 0. -1.
         -5    1    4    4    0  502 -0.30125654346E+02 -0.24511251320E+02  0.13839694565E+03  0.14381989103E+03  0.47000000000E+01 0. -1.
<mgrwt>
<rscale>  0 0.28275811E+03</rscale>
<asrwt>0</asrwt>
<pdfrwt beam="1">  1       21 0.50468574E+00 0.28275811E+03</pdfrwt>
<pdfrwt beam="2">  1       21 0.93739454E-03 0.28275811E+03</pdfrwt>
<totfact> 0.65848395E+03</totfact>
</mgrwt>
</event>
<event>
 8    1  0.4760912E-006  0.3154303E+03  0.7546771E-02  0.1077772E+00
         21   -1    0    0  504  503  0.00000000000E+00  0.00000000000E+00  0.25959039214E+03  0.25959039214E+03  0.00000000000E+00 0. -1.
         21   -1    0    0  503  504 -0.00000000000E+00 -0.00000000000E+00 -0.95820452768E+02  0.95820452768E+02  0.00000000000E+00 0. -1.
         25    2    1    2    0    0  0.68963059788E+02  0.58648232212E+02  0.45374489928E+02  0.16088098278E+03  0.12501330940E+03 0.  0.
         25    2    1    2    0    0 -0.68963059788E+02 -0.58648232212E+02  0.11839544945E+03  0.19452986213E+03  0.12501546326E+03 0.  0.
          5    1    3    3  501    0 -0.15492869593E+02  0.64206446995E+02  0.36602491589E+02  0.75659297078E+02  0.47000000000E+01 0.  1.
         -5    1    3    3    0  501  0.84455929381E+02 -0.55582147822E+01  0.87719983391E+01  0.85221685703E+02  0.47000000000E+01 0.  1.
          5    1    4    4  502    0 -0.69541832315E+02  0.12111804222E+01  0.11488518662E+03  0.13438091198E+03  0.47000000000E+01 0.  1.
         -5    1    4    4    0  502  0.57877252723E+00 -0.59859412635E+02  0.35102628232E+01  0.60148950146E+02  0.47000000000E+01 0.  1.
<mgrwt>
<rscale>  0 0.31543030E+03</rscale>
<asrwt>0</asrwt>
<pdfrwt beam="1">  1       21 0.39936983E-01 0.31543030E+03</pdfrwt>
<pdfrwt beam="2">  1       21 0.14741608E-01 0.31543030E+03</pdfrwt>
<totfact> 0.23733469E+05</totfact>
</mgrwt>
</event>
<event>
 8    1  0.4760912E-006  0.3543753E+03  0.7546771E-02  0.1060833E+00
         21   -1    0    0  504  503  0.00000000000E+00  0.00000000000E+00  0.49704829273E+03  0.49704829273E+03  0.00000000000E+00 0. -1.
         21   -1    0    0  503  504 -0.00000000000E+00 -0.00000000000E+00 -0.63163792883E+02  0.63163792883E+02  0.00000000000E+00 0. -1.
         25    2    1    2    0    0 -0.34746019533E+02 -0.60024126878E+02  0.38245345475E+03  0.40828895608E+03  0.12497617742E+03 0.  0.
         25    2    1    2    0    0  0.34746019533E+02  0.60024126878E+02  0.51431045093E+02  0.15192312954E+03  0.12500121282E+03 0.  0.
          5    1    3    3  501    0  0.32876863064E+02 -0.67309265925E+01  0.29413317403E+02  0.44871223946E+02  0.47000000000E+01 0.  1.
         -5    1    3    3    0  501 -0.67622882597E+02 -0.53293200285E+02  0.35304013735E+03  0.36341773213E+03  0.47000000000E+01 0.  1.
          5    1    4    4  502    0 -0.14262976438E+01 -0.36336589402E+02 -0.22065604549E+00  0.36667707093E+02  0.47000000000E+01 0.  1.
         -5    1    4    4    0  502  0.36172317177E+02  0.96360716280E+02  0.51651701138E+02  0.11525542244E+03  0.47000000000E+01 0.  1.
<mgrwt>
<rscale>  0 0.35437526E+03</rscale>
<asrwt>0</asrwt>
<pdfrwt beam="1">  1       21 0.76468966E-01 0.35437526E+03</pdfrwt>
<pdfrwt beam="2">  1       21 0.97175069E-02 0.35437526E+03</pdfrwt>
<totfact> 0.12379772E+05</totfact>
</mgrwt>
</event>
<event>
 8    1  0.4760912E-006  0.4299640E+03  0.7546771E-02  0.1033871E+00
         21   -1    0    0  504  503  0.00000000000E+00  0.00000000000E+00  0.10063082241E+03  0.10063082241E+03  0.00000000000E+00 0.  1.
         21   -1    0    0  503  504 -0.00000000000E+00 -0.00000000000E+00 -0.45927546004E+03  0.45927546004E+03  0.00000000000E+00 0.  1.
         25    2    1    2    0    0  0.12119511046E+03 -0.12302073536E+03 -0.14316806168E+03  0.25679469792E+03  0.12499626741E+03 0.  0.
         25    2    1    2    0    0 -0.12119511046E+03  0.12302073536E+03 -0.21547657595E+03  0.30311158453E+03  0.12499648701E+03 0.  0.
          5    1    3    3  501    0  0.21676422151E+02  0.22449641660E+01 -0.82775573615E+02  0.85725099759E+02  0.47000000000E+01 0. -1.
         -5    1    3    3    0  501  0.99518688305E+02 -0.12526569953E+03 -0.60392488066E+02  0.17106959816E+03  0.47000000000E+01 0. -1.
          5    1    4    4  502    0 -0.52880516322E+02  0.11684998642E+03 -0.80134372759E+02  0.15130722399E+03  0.47000000000E+01 0. -1.
         -5    1    4    4    0  502 -0.68314594133E+02  0.61707489402E+01 -0.13534220319E+03  0.15180436054E+03  0.47000000000E+01 0. -1.
<mgrwt>
<rscale>  0 0.42996403E+03</rscale>
<asrwt>0</asrwt>
<pdfrwt beam="1">  1       21 0.15481665E-01 0.42996403E+03</pdfrwt>
<pdfrwt beam="2">  1       21 0.70657762E-01 0.42996403E+03</pdfrwt>
<totfact> 0.62337375E+04</totfact>
</mgrwt>
</event>
<event>
 8    1  0.4760912E-006  0.3079682E+03  0.7546771E-02  0.1081324E+00
         21   -1    0    0  504  503  0.00000000000E+00  0.00000000000E+00  0.18412043904E+03  0.18412043904E+03  0.00000000000E+00 0.  1.
         21   -1    0    0  503  504 -0.00000000000E+00 -0.00000000000E+00 -0.12878040809E+03  0.12878040809E+03  0.00000000000E+00 0.  1.
         25    2    1    2    0    0 -0.46090374484E+02  0.13065235572E+01 -0.50772362412E+02  0.14257466215E+03  0.12499468740E+03 0.  0.
         25    2    1    2    0    0  0.46090374484E+02 -0.13065235572E+01  0.10611239337E+03  0.17032618498E+03  0.12500055856E+03 0.  0.
          5    1    3    3  501    0 -0.48897636613E+02 -0.24122941464E+01 -0.90123957136E+02  0.10267042261E+03  0.47000000000E+01 0.  1.
         -5    1    3    3    0  501  0.28072621296E+01  0.37188177036E+01  0.39351594724E+02  0.39904239538E+02  0.47000000000E+01 0.  1.
          5    1    4    4  502    0  0.78711825186E+02  0.13574220042E+02  0.28910661266E+02  0.85074832992E+02  0.47000000000E+01 0. -1.
         -5    1    4    4    0  502 -0.32621450702E+02 -0.14880743599E+02  0.77201732104E+02  0.85251351988E+02  0.47000000000E+01 0. -1.
<mgrwt>
<rscale>  0 0.30796821E+03</rscale>
<asrwt>0</asrwt>
<pdfrwt beam="1">  1       21 0.28326222E-01 0.30796821E+03</pdfrwt>
<pdfrwt beam="2">  1       21 0.19812370E-01 0.30796821E+03</pdfrwt>
<totfact> 0.27237547E+05</totfact>
</mgrwt>
</event>
<event>
 8    1  0.4760912E-006  0.3368441E+03  0.7546771E-02  0.1068148E+00
         21   -1    0    0  504  503  0.00000000000E+00  0.00000000000E+00  0.18738045491E+03  0.18738045491E+03  0.00000000000E+00 0.  1.
         21   -1    0    0  503  504 -0.00000000000E+00 -0.00000000000E+00 -0.15138178858E+03  0.15138178858E+03  0.00000000000E+00 0.  1.
         25    2    1    2    0    0 -0.87180623643E+02  0.49948353470E+02  0.69720463259E+02  0.17488706565E+03  0.12501697317E+03 0.  0.
         25    2    1    2    0    0  0.87180623643E+02 -0.49948353470E+02 -0.33721796927E+02  0.16387517784E+03  0.12499046032E+03 0.  0.
          5    1    3    3  501    0 -0.56397312533E+01 -0.20222647949E+02  0.63479814201E+02  0.67026404272E+02  0.47000000000E+01 0. -1.
         -5    1    3    3    0  501 -0.81540892390E+02  0.70171001419E+02  0.62406490579E+01  0.10786066138E+03  0.47000000000E+01 0. -1.
          5    1    4    4  502    0  0.54819261125E+02  0.17078424099E+02  0.30740679101E+02  0.65298570518E+02  0.47000000000E+01 0.  1.
         -5    1    4    4    0  502  0.32361362518E+02 -0.67026777569E+02 -0.64462476028E+02  0.98576607321E+02  0.47000000000E+01 0.  1.
<mgrwt>
<rscale>  0 0.33684411E+03</rscale>
<asrwt>0</asrwt>
<pdfrwt beam="1">  1       21 0.28827762E-01 0.33684411E+03</pdfrwt>
<pdfrwt beam="2">  1       21 0.23289506E-01 0.33684411E+03</pdfrwt>
<totfact> 0.19234955E+05</totfact>
</mgrwt>
</event>
<event>
 8    1  0.4760912E-006  0.2613603E+03  0.7546771E-02  0.1106329E+00
         21   -1    0    0  504  503  0.00000000000E+00  0.00000000000E+00  0.39728530545E+03  0.39728530545E+03  0.00000000000E+00 0. -1.
         21   -1    0    0  503  504 -0.00000000000E+00 -0.00000000000E+00 -0.42984993602E+02  0.42984993602E+02  0.00000000000E+00 0. -1.
         25    2    1    2    0    0 -0.12661893630E+02  0.24111219300E+02  0.13224925810E+03  0.18400144577E+03  0.12499996531E+03 0.  0.
         25    2    1    2    0    0  0.12661893630E+02 -0.24111219300E+02  0.22205105375E+03  0.25626885329E+03  0.12500152099E+03 0.  0.
          5    1    3    3  501    0 -0.37252682434E+02  0.43484147171E+02  0.14006913694E+03  0.15139381271E+03  0.47000000000E+01 0. -1.
         -5    1    3    3    0  501  0.24590788804E+02 -0.19372927871E+02 -0.78198788394E+01  0.32607633054E+02  0.47000000000E+01 0. -1.
          5    1    4    4  502    0  0.52770618313E+02  0.29213654054E+02  0.11728310378E+03  0.13196814833E+03  0.47000000000E+01 0. -1.
         -5    1    4    4    0  502 -0.40108724683E+02 -0.53324873354E+02  0.10476794997E+03  0.12430070496E+03  0.47000000000E+01 0. -1.
<mgrwt>
<rscale>  0 0.26136034E+03</rscale>
<asrwt>0</asrwt>
<pdfrwt beam="1">  1       21 0.61120814E-01 0.26136034E+03</pdfrwt>
<pdfrwt beam="2">  1       21 0.66130762E-02 0.26136034E+03</pdfrwt>
<totfact> 0.40907872E+05</totfact>
</mgrwt>
</event>
<event>
 8    1  0.4760912E-006  0.2895631E+03  0.7546771E-02  0.1090577E+00
         21   -1    0    0  504  503  0.00000000000E+00  0.00000000000E+00  0.61368599641E+02  0.61368599641E+02  0.00000000000E+00 0.  1.
         21   -1    0    0  503  504 -0.00000000000E+00 -0.00000000000E+00 -0.34157041147E+03  0.34157041147E+03  0.00000000000E+00 0.  1.
         25    2    1    2    0    0 -0.22382836657E+02 -0.38065717211E+02 -0.22108374725E+03  0.25778423698E+03  0.12499879733E+03 0.  0.
         25    2    1    2    0    0  0.22382836657E+02  0.38065717211E+02 -0.59118064578E+02  0.14515477413E+03  0.12499989076E+03 0.  0.
          5    1    3    3  501    0 -0.73140759817E+02 -0.23187448705E+02 -0.10500549843E+03  0.13013636396E+03  0.47000000000E+01 0.  1.
         -5    1    3    3    0  501  0.50757923160E+02 -0.14878268506E+02 -0.11607824882E+03  0.12764787302E+03  0.47000000000E+01 0.  1.
          5    1    4    4  502    0  0.49507598067E+02 -0.20242831179E+02 -0.60199808115E+02  0.80665242686E+02  0.47000000000E+01 0. -1.
         -5    1    4    4    0  502 -0.27124761410E+02  0.58308548390E+02  0.10817435365E+01  0.64489531445E+02  0.47000000000E+01 0. -1.
<mgrwt>
<rscale>  0 0.28956310E+03</rscale>
<asrwt>0</asrwt>
<pdfrwt beam="1">  1       21 0.94413232E-02 0.28956310E+03</pdfrwt>
<pdfrwt beam="2">  1       21 0.52549293E-01 0.28956310E+03</pdfrwt>
<totfact> 0.30127220E+05</totfact>
</mgrwt>
</event>
<event>
 8    1  0.4760912E-006  0.3503488E+03  0.7546771E-02  0.1062472E+00
         21   -1    0    0  504  503  0.00000000000E+00  0.00000000000E+00  0.15147910243E+04  0.15147910243E+04  0.00000000000E+00 0. -1.
         21   -1    0    0  503  504 -0.00000000000E+00 -0.00000000000E+00 -0.20257621705E+02  0.20257621705E+02  0.00000000000E+00 0. -1.
         25    2    1    2    0    0  0.86438691197E+02  0.76359369196E+02  0.93101843621E+03  0.94642630515E+03  0.12500008765E+03 0.  0.
         25    2    1    2    0    0 -0.86438691197E+02 -0.76359369196E+02  0.56351496643E+03  0.58862234090E+03  0.12499896887E+03 0.  0.
          5    1    3    3  501    0  0.43357073882E+01  0.61325076763E+02  0.65831861614E+03  0.66119970792E+03  0.47000000000E+01 0. -1.
         -5    1    3    3    0  501  0.82102983809E+02  0.15034292432E+02  0.27269982007E+03  0.28522659723E+03  0.47000000000E+01 0. -1.
          5    1    4    4  502    0 -0.10192269823E+03 -0.99052121635E+02  0.47294474953E+03  0.49386069425E+03  0.47000000000E+01 0. -1.
         -5    1    4    4    0  502  0.15484007038E+02  0.22692752439E+02  0.90570216901E+02  0.94761646655E+02  0.47000000000E+01 0. -1.
<mgrwt>
<rscale>  0 0.35034876E+03</rscale>
<asrwt>0</asrwt>
<pdfrwt beam="1">  1       21 0.23304468E+00 0.35034876E+03</pdfrwt>
<pdfrwt beam="2">  1       21 0.31165584E-02 0.35034876E+03</pdfrwt>
<totfact> 0.45645633E+04</totfact>
</mgrwt>
</event>
<event>
 8    1  0.4760912E-006  0.3925648E+03  0.7546771E-02  0.1046385E+00
         21   -1    0    0  504  503  0.00000000000E+00  0.00000000000E+00  0.22523894422E+03  0.22523894422E+03  0.00000000000E+00 0.  1.
         21   -1    0    0  503  504 -0.00000000000E+00 -0.00000000000E+00 -0.17104845384E+03  0.17104845384E+03  0.00000000000E+00 0.  1.
         25    2    1    2    0    0 -0.67709853699E+02  0.13526868328E+03  0.22562653605E+02  0.19752289150E+03  0.12499591340E+03 0.  0.
         25    2    1    2    0    0  0.67709853699E+02 -0.13526868328E+03  0.31627836770E+02  0.19876450656E+03  0.12499907217E+03 0.  0.
          5    1    3    3  501    0 -0.54267645925E+02  0.10883461880E+02 -0.28356336389E+02  0.62366649342E+02  0.47000000000E+01 0. -1.
         -5    1    3    3    0  501 -0.13442207773E+02  0.12438522140E+03  0.50918989994E+02  0.13515624216E+03  0.47000000000E+01 0. -1.
          5    1    4    4  502    0  0.16846989250E+02  0.66340867771E+01  0.43630482717E+02  0.47471477502E+02  0.47000000000E+01 0. -1.
         -5    1    4    4    0  502  0.50862864448E+02 -0.14190277006E+03 -0.12002645946E+02  0.15129302905E+03  0.47000000000E+01 0. -1.
<mgrwt>
<rscale>  0 0.39256476E+03</rscale>
<asrwt>0</asrwt>
<pdfrwt beam="1">  1       21 0.34652145E-01 0.39256476E+03</pdfrwt>
<pdfrwt beam="2">  1       21 0.26315147E-01 0.39256476E+03</pdfrwt>
<totfact> 0.10409027E+05</totfact>
</mgrwt>
</event>
<event>
 8    1  0.4760912E-006  0.2696385E+03  0.7546771E-02  0.1101487E+00
         21   -1    0    0  504  503  0.00000000000E+00  0.00000000000E+00  0.14038624101E+03  0.14038624101E+03  0.00000000000E+00 0. -1.
         21   -1    0    0  503  504 -0.00000000000E+00 -0.00000000000E+00 -0.12947298617E+03  0.12947298617E+03  0.00000000000E+00 0. -1.
         25    2    1    2    0    0  0.38894355236E+02 -0.18400228829E+02 -0.20974427712E+02  0.13387160319E+03  0.12502135911E+03 0.  0.
         25    2    1    2    0    0 -0.38894355236E+02  0.18400228829E+02  0.31887682561E+02  0.13598762399E+03  0.12499788114E+03 0.  0.
          5    1    3    3  501    0  0.38637710539E+02  0.49433505666E+02 -0.71841260581E+00  0.62921779018E+02  0.47000000000E+01 0.  1.
         -5    1    3    3    0  501  0.25664469684E+00 -0.67833734495E+02 -0.20256015106E+02  0.70949824172E+02  0.47000000000E+01 0.  1.
          5    1    4    4  502    0 -0.79162455724E+02  0.21593473762E+02 -0.32352514900E+01  0.82252837991E+02  0.47000000000E+01 0. -1.
         -5    1    4    4    0  502  0.40268100488E+02 -0.31932449333E+01  0.35122934051E+02  0.53734786000E+02  0.47000000000E+01 0. -1.
<mgrwt>
<rscale>  0 0.26963847E+03</rscale>
<asrwt>0</asrwt>
<pdfrwt beam="1">  1       21 0.21597883E-01 0.26963847E+03</pdfrwt>
<pdfrwt beam="2">  1       21 0.19918921E-01 0.26963847E+03</pdfrwt>
<totfact> 0.45780480E+05</totfact>
</mgrwt>
</event>
<event>
 8    1  0.4760912E-006  0.3566601E+03  0.7546771E-02  0.1059914E+00
         21   -1    0    0  504  503  0.00000000000E+00  0.00000000000E+00  0.23459257095E+03  0.23459257095E+03  0.00000000000E+00 0.  1.
         21   -1    0    0  503  504 -0.00000000000E+00 -0.00000000000E+00 -0.13556103013E+03  0.13556103013E+03  0.00000000000E+00 0.  1.
         25    2    1    2    0    0  0.10235041344E+03 -0.14530238324E+02 -0.27358532868E+02  0.16451260153E+03  0.12501668602E+03 0.  0.
         25    2    1    2    0    0 -0.10235041344E+03  0.14530238324E+02  0.12639007369E+03  0.20564099955E+03  0.12500813978E+03 0.  0.
          5    1    3    3  501    0 -0.44474324072E+01  0.11399229755E+02 -0.50440718482E+02  0.52116006898E+02  0.47000000000E+01 0.  1.
         -5    1    3    3    0  501  0.10679784584E+03 -0.25929468079E+02  0.23082185614E+02  0.11239659463E+03  0.47000000000E+01 0.  1.
          5    1    4    4  502    0 -0.12128812480E+03  0.23678062366E+01  0.13456795866E+03  0.18123752708E+03  0.47000000000E+01 0.  1.
         -5    1    4    4    0  502  0.18937711366E+02  0.12162432088E+02 -0.81778849636E+01  0.24403472470E+02  0.47000000000E+01 0.  1.
<mgrwt>
<rscale>  0 0.35666012E+03</rscale>
<asrwt>0</asrwt>
<pdfrwt beam="1">  1       21 0.36091165E-01 0.35666012E+03</pdfrwt>
<pdfrwt beam="2">  1       21 0.20855543E-01 0.35666012E+03</pdfrwt>
<totfact> 0.15116375E+05</totfact>
</mgrwt>
</event>
<event>
 8    1  0.4760912E-006  0.3256815E+03  0.7546771E-02  0.1073064E+00
         21   -1    0    0  504  503  0.00000000000E+00  0.00000000000E+00  0.39998442334E+02  0.39998442334E+02  0.00000000000E+00 0.  1.
         21   -1    0    0  503  504 -0.00000000000E+00 -0.00000000000E+00 -0.66295373728E+03  0.66295373728E+03  0.00000000000E+00 0.  1.
         25    2    1    2    0    0  0.89854795540E+02 -0.49290462841E+02 -0.26899433840E+03  0.31382753205E+03  0.12500532699E+03 0.  0.
         25    2    1    2    0    0 -0.89854795540E+02  0.49290462841E+02 -0.35396095654E+03  0.38912464756E+03  0.12500479419E+03 0.  0.
          5    1    3    3  501    0  0.11937862398E+03 -0.22846631180E+02 -0.20717520667E+03  0.24024337801E+03  0.47000000000E+01 0.  1.
         -5    1    3    3    0  501 -0.29523828436E+02 -0.26443831661E+02 -0.61819131728E+02  0.73584154042E+02  0.47000000000E+01 0.  1.
          5    1    4    4  502    0 -0.10203730312E+03  0.68505253063E+02 -0.34104424580E+03  0.36254358154E+03  0.47000000000E+01 0. -1.
         -5    1    4    4    0  502  0.12182507578E+02 -0.19214790222E+02 -0.12916710748E+02  0.26581066019E+02  0.47000000000E+01 0. -1.
<mgrwt>
<rscale>  0 0.32568154E+03</rscale>
<asrwt>0</asrwt>
<pdfrwt beam="1">  1       21 0.61536072E-02 0.32568154E+03</pdfrwt>
<pdfrwt beam="2">  1       21 0.10199287E+00 0.32568154E+03</pdfrwt>
<totfact> 0.14178289E+05</totfact>
</mgrwt>
</event>
<event>
 8    1  0.4760912E-006  0.3996803E+03  0.7546771E-02  0.1043890E+00
         21   -1    0    0  504  503  0.00000000000E+00  0.00000000000E+00  0.52257515115E+02  0.52257515115E+02  0.00000000000E+00 0.  1.
         21   -1    0    0  503  504 -0.00000000000E+00 -0.00000000000E+00 -0.76421704578E+03  0.76421704578E+03  0.00000000000E+00 0.  1.
         25    2    1    2    0    0  0.28610078717E+00 -0.10369064079E+03 -0.59387906892E+03  0.61568330771E+03  0.12498702353E+03 0.  0.
         25    2    1    2    0    0 -0.28610078717E+00  0.10369064079E+03 -0.11808046175E+03  0.20079125319E+03  0.12498920382E+03 0.  0.
          5    1    3    3  501    0 -0.40325598967E+02 -0.16773995311E+02 -0.66970677951E+02  0.80091713404E+02  0.47000000000E+01 0. -1.
         -5    1    3    3    0  501  0.40611699754E+02 -0.86916645475E+02 -0.52690839097E+03  0.53559159430E+03  0.47000000000E+01 0. -1.
          5    1    4    4  502    0 -0.18329936799E+02 -0.17136236273E+02 -0.60474709691E+02  0.65642346765E+02  0.47000000000E+01 0.  1.
         -5    1    4    4    0  502  0.18043836012E+02  0.12082687706E+03 -0.57605752059E+02  0.13514890643E+03  0.47000000000E+01 0.  1.
<mgrwt>
<rscale>  0 0.39968029E+03</rscale>
<asrwt>0</asrwt>
<pdfrwt beam="1">  1       21 0.80396180E-02 0.39968029E+03</pdfrwt>
<pdfrwt beam="2">  1       21 0.11757185E+00 0.39968029E+03</pdfrwt>
<totfact> 0.61374929E+04</totfact>
</mgrwt>
</event>
<event>
 8    1  0.4760912E-006  0.2671087E+03  0.7546771E-02  0.1102946E+00
         21   -1    0    0  504  503  0.00000000000E+00  0.00000000000E+00  0.86126775346E+02  0.86126775346E+02  0.00000000000E+00 0. -1.
         21   -1    0    0  503  504 -0.00000000000E+00 -0.00000000000E+00 -0.20709897061E+03  0.20709897061E+03  0.00000000000E+00 0. -1.
         25    2    1    2    0    0  0.51255863745E+01 -0.34391609045E+01 -0.11167474902E+03  0.16773155923E+03  0.12499810771E+03 0.  0.
         25    2    1    2    0    0 -0.51255863745E+01  0.34391609045E+01 -0.92974462412E+01  0.12549418672E+03  0.12499699569E+03 0.  0.
          5    1    3    3  501    0  0.54600680088E+02  0.12087252331E+02 -0.99539123095E+02  0.11426925641E+03  0.47000000000E+01 0. -1.
         -5    1    3    3    0  501 -0.49475093714E+02 -0.15526413236E+02 -0.12135625925E+02  0.53462302817E+02  0.47000000000E+01 0. -1.
          5    1    4    4  502    0 -0.43665875345E+02 -0.23832795089E+02 -0.44105133910E+02  0.66648808156E+02  0.47000000000E+01 0.  1.
         -5    1    4    4    0  502  0.38540288970E+02  0.27271955994E+02  0.34807687669E+02  0.58845378565E+02  0.47000000000E+01 0.  1.
<mgrwt>
<rscale>  0 0.26710872E+03</rscale>
<asrwt>0</asrwt>
<pdfrwt beam="1">  1       21 0.13250273E-01 0.26710872E+03</pdfrwt>
<pdfrwt beam="2">  1       21 0.31861380E-01 0.26710872E+03</pdfrwt>
<totfact> 0.45834541E+05</totfact>
</mgrwt>
</event>
<event>
 8    1  0.4760912E-006  0.3836524E+03  0.7546771E-02  0.1049592E+00
         21   -1    0    0  504  503  0.00000000000E+00  0.00000000000E+00  0.54439063517E+03  0.54439063517E+03  0.00000000000E+00 0. -1.
         21   -1    0    0  503  504 -0.00000000000E+00 -0.00000000000E+00 -0.67593539767E+02  0.67593539767E+02  0.00000000000E+00 0. -1.
         25    2    1    2    0    0  0.26654498455E+02  0.13365869869E+03  0.15709779158E+03  0.24264807650E+03  0.12499305134E+03 0.  0.
         25    2    1    2    0    0 -0.26654498455E+02 -0.13365869869E+03  0.31969930382E+03  0.36933609844E+03  0.12500559477E+03 0.  0.
          5    1    3    3  501    0 -0.22154256824E+02  0.77260193433E+01  0.87350539578E+02  0.90568809394E+02  0.47000000000E+01 0. -1.
         -5    1    3    3    0  501  0.48808755279E+02  0.12593267935E+03  0.69747252003E+02  0.15207926710E+03  0.47000000000E+01 0. -1.
          5    1    4    4  502    0 -0.35979947647E+02 -0.65425263526E+02  0.47727917536E+02  0.88741567782E+02  0.47000000000E+01 0. -1.
         -5    1    4    4    0  502  0.93254491928E+01 -0.68233435168E+02  0.27197138629E+03  0.28059453066E+03  0.47000000000E+01 0. -1.
<mgrwt>
<rscale>  0 0.38365240E+03</rscale>
<asrwt>0</asrwt>
<pdfrwt beam="1">  1       21 0.83752403E-01 0.38365240E+03</pdfrwt>
<pdfrwt beam="2">  1       21 0.10399006E-01 0.38365240E+03</pdfrwt>
<totfact> 0.88341821E+04</totfact>
</mgrwt>
</event>
<event>
 8    1  0.4760912E-006  0.2912777E+03  0.7546771E-02  0.1089684E+00
         21   -1    0    0  504  503  0.00000000000E+00  0.00000000000E+00  0.17095347894E+02  0.17095347894E+02  0.00000000000E+00 0. -1.
         21   -1    0    0  503  504 -0.00000000000E+00 -0.00000000000E+00 -0.12407275958E+04  0.12407275958E+04  0.00000000000E+00 0. -1.
         25    2    1    2    0    0 -0.34543765357E+02 -0.46593535071E+02 -0.81509768583E+03  0.82666337767E+03  0.12499549311E+03 0.  0.
         25    2    1    2    0    0  0.34543765357E+02  0.46593535071E+02 -0.40853456204E+03  0.43115956599E+03  0.12503540990E+03 0.  0.
          5    1    3    3  501    0 -0.31686646225E+02 -0.62788818815E+02 -0.80207445616E+03  0.80516582301E+03  0.47000000000E+01 0.  1.
         -5    1    3    3    0  501 -0.28571191326E+01  0.16195283744E+02 -0.13023229670E+02  0.21497554659E+02  0.47000000000E+01 0.  1.
          5    1    4    4  502    0  0.77693659784E+01 -0.39865423458E+02 -0.73763540846E+02  0.84337210016E+02  0.47000000000E+01 0.  1.
         -5    1    4    4    0  502  0.26774399379E+02  0.86458958529E+02 -0.33477102120E+03  0.34682235598E+03  0.47000000000E+01 0.  1.
<mgrwt>
<rscale>  0 0.29127767E+03</rscale>
<asrwt>0</asrwt>
<pdfrwt beam="1">  1       21 0.26300532E-02 0.29127767E+03</pdfrwt>
<pdfrwt beam="2">  1       21 0.19088119E+00 0.29127767E+03</pdfrwt>
<totfact> 0.11562911E+05</totfact>
</mgrwt>
</event>
<event>
 8    1  0.4760912E-006  0.3495539E+03  0.7546771E-02  0.1062798E+00
         21   -1    0    0  504  503  0.00000000000E+00  0.00000000000E+00  0.29404905894E+02  0.29404905894E+02  0.00000000000E+00 0.  1.
         21   -1    0    0  503  504 -0.00000000000E+00 -0.00000000000E+00 -0.10388396817E+04  0.10388396817E+04  0.00000000000E+00 0.  1.
         25    2    1    2    0    0  0.11722750314E+03  0.75007169391E+01 -0.40230818940E+03  0.43735097770E+03  0.12500180075E+03 0.  0.
         25    2    1    2    0    0 -0.11722750314E+03 -0.75007169391E+01 -0.60712658637E+03  0.63089360986E+03  0.12500202733E+03 0.  0.
          5    1    3    3  501    0  0.51597041267E+02 -0.38993605536E+02 -0.30103154947E+03  0.30793642155E+03  0.47000000000E+01 0. -1.
         -5    1    3    3    0  501  0.65630461873E+02  0.46494322475E+02 -0.10127663993E+03  0.12941455615E+03  0.47000000000E+01 0. -1.
          5    1    4    4  502    0 -0.14092960165E+03 -0.21010117775E+02 -0.53397554044E+03  0.55267942377E+03  0.47000000000E+01 0.  1.
         -5    1    4    4    0  502  0.23702098512E+02  0.13509400836E+02 -0.73151045934E+02  0.78214186092E+02  0.47000000000E+01 0.  1.
<mgrwt>
<rscale>  0 0.34955390E+03</rscale>
<asrwt>0</asrwt>
<pdfrwt beam="1">  1       21 0.45238319E-02 0.34955390E+03</pdfrwt>
<pdfrwt beam="2">  1       21 0.15982148E+00 0.34955390E+03</pdfrwt>
<totfact> 0.75422941E+04</totfact>
</mgrwt>
</event>
<event>
 8    1  0.4760912E-006  0.3168866E+03  0.7546771E-02  0.1077091E+00
         21   -1    0    0  504  503  0.00000000000E+00  0.00000000000E+00  0.13398672794E+03  0.13398672794E+03  0.00000000000E+00 0.  1.
         21   -1    0    0  503  504 -0.00000000000E+00 -0.00000000000E+00 -0.18736398388E+03  0.18736398388E+03  0.00000000000E+00 0.  1.
         25    2    1    2    0    0 -0.84472423246E+02 -0.40508478492E+02  0.18604436733E+00  0.15621410031E+03  0.12500513352E+03 0.  0.
         25    2    1    2    0    0  0.84472423246E+02  0.40508478492E+02 -0.53563300303E+02  0.16513661150E+03  0.12499818479E+03 0.  0.
          5    1    3    3  501    0  0.22098671700E+02  0.17871205762E+02  0.17005917048E+02  0.33451793688E+02  0.47000000000E+01 0. -1.
         -5    1    3    3    0  501 -0.10657109495E+03 -0.58379684254E+02 -0.16819872680E+02  0.12276230663E+03  0.47000000000E+01 0. -1.
          5    1    4    4  502    0  0.48992337239E+02  0.28878485435E+02 -0.93957725555E+02  0.10992888711E+03  0.47000000000E+01 0. -1.
         -5    1    4    4    0  502  0.35480086007E+02  0.11629993057E+02  0.40394425252E+02  0.55207724396E+02  0.47000000000E+01 0. -1.
<mgrwt>
<rscale>  0 0.31688665E+03</rscale>
<asrwt>0</asrwt>
<pdfrwt beam="1">  1       21 0.20613343E-01 0.31688665E+03</pdfrwt>
<pdfrwt beam="2">  1       21 0.28825228E-01 0.31688665E+03</pdfrwt>
<totfact> 0.24378089E+05</totfact>
</mgrwt>
</event>
<event>
 8    1  0.4760912E-006  0.5752698E+03  0.7546771E-02  0.9958085E-01
         21   -1    0    0  504  503  0.00000000000E+00  0.00000000000E+00  0.94538002460E+02  0.94538002460E+02  0.00000000000E+00 0.  1.
         21   -1    0    0  503  504 -0.00000000000E+00 -0.00000000000E+00 -0.87513849828E+03  0.87513849828E+03  0.00000000000E+00 0.  1.
         25    2    1    2    0    0 -0.20301245696E+03  0.13042763707E+03 -0.23146634367E+03  0.35697676164E+03  0.12502125384E+03 0.  0.
         25    2    1    2    0    0  0.20301245696E+03 -0.13042763707E+03 -0.54913415215E+03  0.61269973909E+03  0.12500890783E+03 0.  0.
          5    1    3    3  501    0 -0.35199804877E+01 -0.24253605000E+01 -0.64553124916E+02  0.64865002679E+02  0.47000000000E+01 0.  1.
         -5    1    3    3    0  501 -0.19949247647E+03  0.13285299757E+03 -0.16691321875E+03  0.29211175897E+03  0.47000000000E+01 0.  1.
          5    1    4    4  502    0 -0.64032915672E+01 -0.22056918570E+01  0.27051528505E+01  0.86761207580E+01  0.47000000000E+01 0.  1.
         -5    1    4    4    0  502  0.20941574853E+03 -0.12822194521E+03 -0.55183930500E+03  0.60402361833E+03  0.47000000000E+01 0.  1.
<mgrwt>
<rscale>  0 0.57526983E+03</rscale>
<asrwt>0</asrwt>
<pdfrwt beam="1">  1       21 0.14544308E-01 0.57526983E+03</pdfrwt>
<pdfrwt beam="2">  1       21 0.13463670E+00 0.57526983E+03</pdfrwt>
<totfact> 0.14160360E+04</totfact>
</mgrwt>
</event>
<event>
 8    1  0.4760912E-006  0.2611147E+03  0.7546771E-02  0.1106475E+00
         21   -1    0    0  504  503  0.00000000000E+00  0.00000000000E+00  0.29018791612E+03  0.29018791612E+03  0.00000000000E+00 0. -1.
         21   -1    0    0  503  504 -0.00000000000E+00 -0.00000000000E+00 -0.58738560239E+02  0.58738560239E+02  0.00000000000E+00 0. -1.
         25    2    1    2    0    0 -0.30898444445E+02  0.49742593812E+01  0.87679140538E+02  0.15585879553E+03  0.12499950133E+03 0.  0.
         25    2    1    2    0    0  0.30898444445E+02 -0.49742593812E+01  0.14377021535E+03  0.19306768084E+03  0.12500318971E+03 0.  0.
          5    1    3    3  501    0 -0.12304065948E+02 -0.33709494081E+02  0.10367766509E+03  0.10981287843E+03  0.47000000000E+01 0.  1.
         -5    1    3    3    0  501 -0.18594378497E+02  0.38683753462E+02 -0.15998524553E+02  0.46045917099E+02  0.47000000000E+01 0.  1.
          5    1    4    4  502    0  0.80093384793E+01 -0.42345725093E+02  0.69514816962E+00  0.43357619486E+02  0.47000000000E+01 0.  1.
         -5    1    4    4    0  502  0.22889105966E+02  0.37371465711E+02  0.14307506718E+03  0.14971006135E+03  0.47000000000E+01 0.  1.
<mgrwt>
<rscale>  0 0.26111469E+03</rscale>
<asrwt>0</asrwt>
<pdfrwt beam="1">  1       21 0.44644294E-01 0.26111469E+03</pdfrwt>
<pdfrwt beam="2">  1       21 0.90367017E-02 0.26111469E+03</pdfrwt>
<totfact> 0.46058089E+05</totfact>
</mgrwt>
</event>
<event>
 8    1  0.4760912E-006  0.3905246E+03  0.7546771E-02  0.1047111E+00
         21   -1    0    0  504  503  0.00000000000E+00  0.00000000000E+00  0.46358734792E+02  0.46358734792E+02  0.00000000000E+00 0. -1.
         21   -1    0    0  503  504 -0.00000000000E+00 -0.00000000000E+00 -0.82244199247E+03  0.82244199247E+03  0.00000000000E+00 0. -1.
         25    2    1    2    0    0  0.10790767798E+03  0.56807285818E+02 -0.19369293272E+03  0.26079169803E+03  0.12499689150E+03 0.  0.
         25    2    1    2    0    0 -0.10790767798E+03 -0.56807285818E+02 -0.58239032496E+03  0.60800902924E+03  0.12500141734E+03 0.  0.
          5    1    3    3  501    0  0.47846368252E+02  0.59741437458E+01  0.33547814018E+01  0.48562433080E+02  0.47000000000E+01 0. -1.
         -5    1    3    3    0  501  0.60061309732E+02  0.50833142072E+02 -0.19704771412E+03  0.21222926495E+03  0.47000000000E+01 0. -1.
          5    1    4    4  502    0 -0.96968029383E+02 -0.93336408747E+02 -0.48388699403E+03  0.50227800759E+03  0.47000000000E+01 0. -1.
         -5    1    4    4    0  502 -0.10939648601E+02  0.36529122929E+02 -0.98503330932E+02  0.10573102165E+03  0.47000000000E+01 0. -1.
<mgrwt>
<rscale>  0 0.39052462E+03</rscale>
<asrwt>0</asrwt>
<pdfrwt beam="1">  1       21 0.71321135E-02 0.39052462E+03</pdfrwt>
<pdfrwt beam="2">  1       21 0.12652953E+00 0.39052462E+03</pdfrwt>
<totfact> 0.63026601E+04</totfact>
</mgrwt>
</event>
<event>
 8    1  0.4760912E-006  0.3005712E+03  0.7546771E-02  0.1084955E+00
         21   -1    0    0  504  503  0.00000000000E+00  0.00000000000E+00  0.30489242629E+03  0.30489242629E+03  0.00000000000E+00 0.  1.
         21   -1    0    0  503  504 -0.00000000000E+00 -0.00000000000E+00 -0.74077783550E+02  0.74077783550E+02  0.00000000000E+00 0.  1.
         25    2    1    2    0    0  0.79869615229E+02 -0.15970365119E+02  0.13829576922E+03  0.20341719324E+03  0.12497450429E+03 0.  0.
         25    2    1    2    0    0 -0.79869615229E+02  0.15970365119E+02  0.92518873520E+02  0.17555301660E+03  0.12499964672E+03 0.  0.
          5    1    3    3  501    0  0.67546980957E+02 -0.53869003977E+02  0.13848002766E+03  0.16328892273E+03  0.47000000000E+01 0.  1.
         -5    1    3    3    0  501  0.12322634272E+02  0.37898638857E+02 -0.18425844701E+00  0.40128270506E+02  0.47000000000E+01 0.  1.
          5    1    4    4  502    0 -0.83069099812E+02  0.47411818066E+02  0.22180318828E+02  0.98297570566E+02  0.47000000000E+01 0.  1.
         -5    1    4    4    0  502  0.31994845828E+01 -0.31441452947E+02  0.70338554692E+02  0.77255446030E+02  0.47000000000E+01 0.  1.
<mgrwt>
<rscale>  0 0.30057116E+03</rscale>
<asrwt>0</asrwt>
<pdfrwt beam="1">  1       21 0.46906526E-01 0.30057116E+03</pdfrwt>
<pdfrwt beam="2">  1       21 0.11396582E-01 0.30057116E+03</pdfrwt>
<totfact> 0.27269101E+05</totfact>
</mgrwt>
</event>
<event>
 8    1  0.4760912E-006  0.2769609E+03  0.7546771E-02  0.1097361E+00
         21   -1    0    0  504  503  0.00000000000E+00  0.00000000000E+00  0.25902372615E+03  0.25902372615E+03  0.00000000000E+00 0. -1.
         21   -1    0    0  503  504 -0.00000000000E+00 -0.00000000000E+00 -0.74035042484E+02  0.74035042484E+02  0.00000000000E+00 0. -1.
         25    2    1    2    0    0  0.40083693814E+02  0.39341294032E+02  0.68541889750E+02  0.15323176164E+03  0.12501016838E+03 0.  0.
         25    2    1    2    0    0 -0.40083693814E+02 -0.39341294032E+02  0.11644679391E+03  0.17982700699E+03  0.12499382667E+03 0.  0.
          5    1    3    3  501    0 -0.41148623419E+02 -0.60828976636E+01  0.95359778695E+01  0.42932921252E+02  0.47000000000E+01 0. -1.
         -5    1    3    3    0  501  0.81232317233E+02  0.45424191696E+02  0.59005911880E+02  0.11029884039E+03  0.47000000000E+01 0. -1.
          5    1    4    4  502    0  0.17486152112E+02 -0.56093028404E+02  0.10226565215E+03  0.11803621038E+03  0.47000000000E+01 0.  1.
         -5    1    4    4    0  502 -0.57569845926E+02  0.16751734372E+02  0.14181141767E+02  0.61790796614E+02  0.47000000000E+01 0.  1.
<mgrwt>
<rscale>  0 0.27696088E+03</rscale>
<asrwt>0</asrwt>
<pdfrwt beam="1">  1       21 0.39849804E-01 0.27696088E+03</pdfrwt>
<pdfrwt beam="2">  1       21 0.11390007E-01 0.27696088E+03</pdfrwt>
<totfact> 0.38386158E+05</totfact>
</mgrwt>
</event>
<event>
 8    1  0.4760912E-006  0.3240318E+03  0.7546771E-02  0.1073809E+00
         21   -1    0    0  504  503  0.00000000000E+00  0.00000000000E+00  0.30141451336E+02  0.30141451336E+02  0.00000000000E+00 0.  1.
         21   -1    0    0  503  504 -0.00000000000E+00 -0.00000000000E+00 -0.87086566325E+03  0.87086566325E+03  0.00000000000E+00 0.  1.
         25    2    1    2    0    0  0.44967432675E+02  0.46716540508E+02 -0.64317776953E+03  0.65841247251E+03  0.12499934234E+03 0.  0.
         25    2    1    2    0    0 -0.44967432675E+02 -0.46716540508E+02 -0.19754644239E+03  0.24259464208E+03  0.12499223298E+03 0.  0.
          5    1    3    3  501    0 -0.24694720959E+01 -0.19790813071E+02 -0.16208828446E+02  0.26126436689E+02  0.47000000000E+01 0.  1.
         -5    1    3    3    0  501  0.47436904771E+02  0.66507353579E+02 -0.62696894108E+03  0.63228603582E+03  0.47000000000E+01 0.  1.
          5    1    4    4  502    0 -0.33006926728E+02 -0.80086302636E+02 -0.74148381935E+02  0.11411987393E+03  0.47000000000E+01 0. -1.
         -5    1    4    4    0  502 -0.11960505947E+02  0.33369762128E+02 -0.12339806045E+03  0.12847476815E+03  0.47000000000E+01 0. -1.
<mgrwt>
<rscale>  0 0.32403182E+03</rscale>
<asrwt>0</asrwt>
<pdfrwt beam="1">  1       21 0.46371463E-02 0.32403182E+03</pdfrwt>
<pdfrwt beam="2">  1       21 0.13397934E+00 0.32403182E+03</pdfrwt>
<totfact> 0.11669354E+05</totfact>
</mgrwt>
</event>
<event>
 8    1  0.4760912E-006  0.2764739E+03  0.7546771E-02  0.1097631E+00
         21   -1    0    0  504  503  0.00000000000E+00  0.00000000000E+00  0.22102164874E+03  0.22102164874E+03  0.00000000000E+00 0. -1.
         21   -1    0    0  503  504 -0.00000000000E+00 -0.00000000000E+00 -0.86459623156E+02  0.86459623156E+02  0.00000000000E+00 0. -1.
         25    2    1    2    0    0  0.61721267128E+01 -0.29518594330E+02  0.12371317414E+03  0.17843678199E+03  0.12500117260E+03 0.  0.
         25    2    1    2    0    0 -0.61721267128E+01  0.29518594330E+02  0.10848851435E+02  0.12904448990E+03  0.12500136094E+03 0.  0.
          5    1    3    3  501    0  0.16470664239E+02  0.33303502844E+02 -0.19386993823E+01  0.37500061833E+02  0.47000000000E+01 0. -1.
         -5    1    3    3    0  501 -0.10298537526E+02 -0.62822097174E+02  0.12565187353E+03  0.14093672016E+03  0.47000000000E+01 0. -1.
          5    1    4    4  502    0  0.41399470241E+02 -0.29405206201E+02  0.14692921320E+02  0.53071218423E+02  0.47000000000E+01 0. -1.
         -5    1    4    4    0  502 -0.47571596954E+02  0.58923800531E+02 -0.38440698850E+01  0.75973271477E+02  0.47000000000E+01 0. -1.
<mgrwt>
<rscale>  0 0.27647386E+03</rscale>
<asrwt>0</asrwt>
<pdfrwt beam="1">  1       21 0.34003330E-01 0.27647386E+03</pdfrwt>
<pdfrwt beam="2">  1       21 0.13301481E-01 0.27647386E+03</pdfrwt>
<totfact> 0.39928737E+05</totfact>
</mgrwt>
</event>
<event>
 8    1  0.4760912E-006  0.2631285E+03  0.7546771E-02  0.1105278E+00
         21   -1    0    0  504  503  0.00000000000E+00  0.00000000000E+00  0.15166013760E+04  0.15166013760E+04  0.00000000000E+00 0.  1.
         21   -1    0    0  503  504 -0.00000000000E+00 -0.00000000000E+00 -0.11413114647E+02  0.11413114647E+02  0.00000000000E+00 0.  1.
         25    2    1    2    0    0  0.20426755455E+02 -0.26323788319E+02  0.61296302424E+03  0.62646001462E+03  0.12497314378E+03 0.  0.
         25    2    1    2    0    0 -0.20426755455E+02  0.26323788319E+02  0.89222523707E+03  0.90155447598E+03  0.12499762129E+03 0.  0.
          5    1    3    3  501    0 -0.28275507305E+02 -0.34707165440E+02  0.51177864633E+03  0.51375438147E+03  0.47000000000E+01 0. -1.
         -5    1    3    3    0  501  0.48702262760E+02  0.83833771204E+01  0.10118437791E+03  0.11270563315E+03  0.47000000000E+01 0. -1.
          5    1    4    4  502    0  0.18033803555E+02  0.64230879485E+02  0.64491185082E+03  0.64837042597E+03  0.47000000000E+01 0. -1.
         -5    1    4    4    0  502 -0.38460559010E+02 -0.37907091165E+02  0.24731338625E+03  0.25318405001E+03  0.47000000000E+01 0. -1.
<mgrwt>
<rscale>  0 0.26312845E+03</rscale>
<asrwt>0</asrwt>
<pdfrwt beam="1">  1       21 0.23332313E+00 0.26312845E+03</pdfrwt>
<pdfrwt beam="2">  1       21 0.17558650E-02 0.26312845E+03</pdfrwt>
<totfact> 0.12208746E+05</totfact>
</mgrwt>
</event>
<event>
 8    1  0.4760912E-006  0.2855959E+03  0.7546771E-02  0.1092671E+00
         21   -1    0    0  504  503  0.00000000000E+00  0.00000000000E+00  0.19211821463E+02  0.19211821463E+02  0.00000000000E+00 0.  1.
         21   -1    0    0  503  504 -0.00000000000E+00 -0.00000000000E+00 -0.10613907593E+04  0.10613907593E+04  0.00000000000E+00 0.  1.
         25    2    1    2    0    0  0.59119550093E+02  0.39174793109E+01 -0.65509915229E+03  0.66954737356E+03  0.12501327233E+03 0.  0.
         25    2    1    2    0    0 -0.59119550093E+02 -0.39174793109E+01 -0.38707978551E+03  0.41105520717E+03  0.12500062057E+03 0.  0.
          5    1    3    3  501    0 -0.22808622131E+02 -0.35861427738E+02 -0.13815506869E+03  0.14462084306E+03  0.47000000000E+01 0.  1.
         -5    1    3    3    0  501  0.81928172224E+02  0.39778907049E+02 -0.51694408360E+03  0.52492653050E+03  0.47000000000E+01 0.  1.
          5    1    4    4  502    0 -0.61588143765E+01  0.53938513981E+02 -0.21642137269E+03  0.22317615204E+03  0.47000000000E+01 0.  1.
         -5    1    4    4    0  502 -0.52960735716E+02 -0.57855993292E+02 -0.17065841282E+03  0.18787905512E+03  0.47000000000E+01 0.  1.
<mgrwt>
<rscale>  0 0.28559587E+03</rscale>
<asrwt>0</asrwt>
<pdfrwt beam="1">  1       21 0.29556645E-02 0.28559587E+03</pdfrwt>
<pdfrwt beam="2">  1       21 0.16329091E+00 0.28559587E+03</pdfrwt>
<totfact> 0.14881333E+05</totfact>
</mgrwt>
</event>
<event>
 8    1  0.4760912E-006  0.3098754E+03  0.7546771E-02  0.1080406E+00
         21   -1    0    0  504  503  0.00000000000E+00  0.00000000000E+00  0.13470395188E+04  0.13470395188E+04  0.00000000000E+00 0. -1.
         21   -1    0    0  503  504 -0.00000000000E+00 -0.00000000000E+00 -0.17821068215E+02  0.17821068215E+02  0.00000000000E+00 0. -1.
         25    2    1    2    0    0  0.12837038842E+02  0.88703922505E+02  0.74674710448E+03  0.76242305231E+03  0.12499798880E+03 0.  0.
         25    2    1    2    0    0 -0.12837038842E+02 -0.88703922505E+02  0.58247134614E+03  0.60243753474E+03  0.12499975505E+03 0.  0.
          5    1    3    3  501    0 -0.53482248592E+02  0.47400971051E+02  0.44308458434E+03  0.44883542847E+03  0.47000000000E+01 0.  1.
         -5    1    3    3    0  501  0.66319287434E+02  0.41302951454E+02  0.30366252014E+03  0.31358762384E+03  0.47000000000E+01 0.  1.
          5    1    4    4  502    0  0.49281295787E+02 -0.19643522535E+02  0.30969571471E+03  0.31424200834E+03  0.47000000000E+01 0.  1.
         -5    1    4    4    0  502 -0.62118334630E+02 -0.69060399970E+02  0.27277563142E+03  0.28819552641E+03  0.47000000000E+01 0.  1.
<mgrwt>
<rscale>  0 0.30987535E+03</rscale>
<asrwt>0</asrwt>
<pdfrwt beam="1">  1       21 0.20723677E+00 0.30987535E+03</pdfrwt>
<pdfrwt beam="2">  1       21 0.27417039E-02 0.30987535E+03</pdfrwt>
<totfact> 0.83643851E+04</totfact>
</mgrwt>
</event>
<event>
 8    1  0.4760912E-006  0.2843667E+03  0.7546771E-02  0.1093328E+00
         21   -1    0    0  504  503  0.00000000000E+00  0.00000000000E+00  0.95081569287E+02  0.95081569287E+02  0.00000000000E+00 0. -1.
         21   -1    0    0  503  504 -0.00000000000E+00 -0.00000000000E+00 -0.21261849895E+03  0.21261849895E+03  0.00000000000E+00 0. -1.
         25    2    1    2    0    0 -0.58099861361E+02  0.32194031656E+02 -0.44497651225E+02  0.14840988224E+03  0.12503360596E+03 0.  0.
         25    2    1    2    0    0  0.58099861361E+02 -0.32194031656E+02 -0.73039278440E+02  0.15929018600E+03  0.12500631022E+03 0.  0.
          5    1    3    3  501    0 -0.67467471187E+02 -0.13170135864E+02 -0.67520264027E+02  0.96469623205E+02  0.47000000000E+01 0.  1.
         -5    1    3    3    0  501  0.93676098264E+01  0.45364167520E+02  0.23022612802E+02  0.51940259038E+02  0.47000000000E+01 0.  1.
          5    1    4    4  502    0  0.94943112966E+02 -0.35857972098E+02 -0.39156708394E+02  0.10888216876E+03  0.47000000000E+01 0. -1.
         -5    1    4    4    0  502 -0.36843251605E+02  0.36639404419E+01 -0.33882570046E+02  0.50408017232E+02  0.47000000000E+01 0. -1.
<mgrwt>
<rscale>  0 0.28436667E+03</rscale>
<asrwt>0</asrwt>
<pdfrwt beam="1">  1       21 0.14627934E-01 0.28436667E+03</pdfrwt>
<pdfrwt beam="2">  1       21 0.32710538E-01 0.28436667E+03</pdfrwt>
<totfact> 0.36205840E+05</totfact>
</mgrwt>
</event>
<event>
 8    1  0.4760912E-006  0.4280322E+03  0.7546771E-02  0.1034483E+00
         21   -1    0    0  504  503  0.00000000000E+00  0.00000000000E+00  0.34631511316E+03  0.34631511316E+03  0.00000000000E+00 0. -1.
         21   -1    0    0  503  504 -0.00000000000E+00 -0.00000000000E+00 -0.13225786897E+03  0.13225786897E+03  0.00000000000E+00 0. -1.
         25    2    1    2    0    0  0.16672198617E+03 -0.62063619350E+01  0.52886687665E+02  0.21507340916E+03  0.12499931997E+03 0.  0.
         25    2    1    2    0    0 -0.16672198617E+03  0.62063619350E+01  0.16117055652E+03  0.26349957297E+03  0.12498534739E+03 0.  0.
          5    1    3    3  501    0  0.60715555474E+02  0.55176608327E+02  0.41216241647E+02  0.91933157014E+02  0.47000000000E+01 0. -1.
         -5    1    3    3    0  501  0.10600643070E+03 -0.61382970262E+02  0.11670446018E+02  0.12314025214E+03  0.47000000000E+01 0. -1.
          5    1    4    4  502    0 -0.86549280235E+02  0.18218192186E+02  0.15930864036E+03  0.18227455481E+03  0.47000000000E+01 0.  1.
         -5    1    4    4    0  502 -0.80172705938E+02 -0.12011830251E+02  0.18619161596E+01  0.81225018160E+02  0.47000000000E+01 0.  1.
<mgrwt>
<rscale>  0 0.42803224E+03</rscale>
<asrwt>0</asrwt>
<pdfrwt beam="1">  1       21 0.53279248E-01 0.42803224E+03</pdfrwt>
<pdfrwt beam="2">  1       21 0.20347365E-01 0.42803224E+03</pdfrwt>
<totfact> 0.69379818E+04</totfact>
</mgrwt>
</event>
<event>
 8    1  0.4760912E-006  0.5138116E+03  0.7546771E-02  0.1010235E+00
         21   -1    0    0  504  503  0.00000000000E+00  0.00000000000E+00  0.23162468456E+03  0.23162468456E+03  0.00000000000E+00 0. -1.
         21   -1    0    0  503  504 -0.00000000000E+00 -0.00000000000E+00 -0.28494625843E+03  0.28494625843E+03  0.00000000000E+00 0. -1.
         25    2    1    2    0    0 -0.19907373117E+03  0.53514115244E+02 -0.11592302710E+03  0.26749809179E+03  0.12499187944E+03 0.  0.
         25    2    1    2    0    0  0.19907373117E+03 -0.53514115244E+02  0.62601453230E+02  0.24907285121E+03  0.12499692913E+03 0.  0.
          5    1    3    3  501    0 -0.16878816524E+02  0.56049010455E+02 -0.31186849255E+02  0.66491319634E+02  0.47000000000E+01 0.  1.
         -5    1    3    3    0  501 -0.18219491464E+03 -0.25348952112E+01 -0.84736177846E+02  0.20100677215E+03  0.47000000000E+01 0.  1.
          5    1    4    4  502    0  0.63065826342E+02  0.38734526242E+02  0.36322511526E+02  0.82577701705E+02  0.47000000000E+01 0.  1.
         -5    1    4    4    0  502  0.13600790483E+03 -0.92248641486E+02  0.26278941704E+02  0.16649514950E+03  0.47000000000E+01 0.  1.
<mgrwt>
<rscale>  0 0.51381159E+03</rscale>
<asrwt>0</asrwt>
<pdfrwt beam="1">  1       21 0.35634567E-01 0.51381159E+03</pdfrwt>
<pdfrwt beam="2">  1       21 0.43837886E-01 0.51381159E+03</pdfrwt>
<totfact> 0.34243510E+04</totfact>
</mgrwt>
</event>
<event>
 8    1  0.4760912E-006  0.2725027E+03  0.7546771E-02  0.1099856E+00
         21   -1    0    0  504  503  0.00000000000E+00  0.00000000000E+00  0.47805114573E+03  0.47805114573E+03  0.00000000000E+00 0.  1.
         21   -1    0    0  503  504 -0.00000000000E+00 -0.00000000000E+00 -0.38833579374E+02  0.38833579374E+02  0.00000000000E+00 0.  1.
         25    2    1    2    0    0 -0.47517058553E+02 -0.12459783176E+02  0.17610903729E+03  0.22147886989E+03  0.12500151896E+03 0.  0.
         25    2    1    2    0    0  0.47517058553E+02  0.12459783176E+02  0.26310852906E+03  0.29540585521E+03  0.12500161669E+03 0.  0.
          5    1    3    3  501    0 -0.62029213534E+02  0.35440683601E+02  0.14669912406E+03  0.16323721507E+03  0.47000000000E+01 0.  1.
         -5    1    3    3    0  501  0.14512154981E+02 -0.47900466777E+02  0.29409913231E+02  0.58241654818E+02  0.47000000000E+01 0.  1.
          5    1    4    4  502    0  0.49681373821E+02  0.16261170501E+02  0.26657104319E+02  0.58867272584E+02  0.47000000000E+01 0.  1.
         -5    1    4    4    0  502 -0.21643152682E+01 -0.38013873247E+01  0.23645142474E+03  0.23653858262E+03  0.47000000000E+01 0.  1.
<mgrwt>
<rscale>  0 0.27250275E+03</rscale>
<asrwt>0</asrwt>
<pdfrwt beam="1">  1       21 0.73546326E-01 0.27250275E+03</pdfrwt>
<pdfrwt beam="2">  1       21 0.59743972E-02 0.27250275E+03</pdfrwt>
<totfact> 0.32334959E+05</totfact>
</mgrwt>
</event>
<event>
 8    1  0.4760912E-006  0.2603044E+03  0.7546771E-02  0.1106960E+00
         21   -1    0    0  504  503  0.00000000000E+00  0.00000000000E+00  0.58850249329E+02  0.58850249329E+02  0.00000000000E+00 0. -1.
         21   -1    0    0  503  504 -0.00000000000E+00 -0.00000000000E+00 -0.28784237645E+03  0.28784237645E+03  0.00000000000E+00 0. -1.
         25    2    1    2    0    0 -0.35718680407E+02 -0.15161163078E+01 -0.10653249677E+03  0.16809181880E+03  0.12501025535E+03 0.  0.
         25    2    1    2    0    0  0.35718680407E+02  0.15161163078E+01 -0.12245963035E+03  0.17860080697E+03  0.12499505769E+03 0.  0.
          5    1    3    3  501    0 -0.58875646690E+02  0.46724055203E+02 -0.51807667317E+02  0.91408990261E+02  0.47000000000E+01 0. -1.
         -5    1    3    3    0  501  0.23156966282E+02 -0.48240171510E+02 -0.54724829453E+02  0.76682828543E+02  0.47000000000E+01 0. -1.
          5    1    4    4  502    0  0.25929797816E+02  0.47713448485E+02 -0.85142586330E+01  0.55168017738E+02  0.47000000000E+01 0. -1.
         -5    1    4    4    0  502  0.97888825911E+01 -0.46197332177E+02 -0.11394537172E+03  0.12343278923E+03  0.47000000000E+01 0. -1.
<mgrwt>
<rscale>  0 0.26030440E+03</rscale>
<asrwt>0</asrwt>
<pdfrwt beam="1">  1       21 0.90538841E-02 0.26030440E+03</pdfrwt>
<pdfrwt beam="2">  1       21 0.44283444E-01 0.26030440E+03</pdfrwt>
<totfact> 0.46686638E+05</totfact>
</mgrwt>
</event>
<event>
 8    1  0.4760912E-006  0.4568070E+03  0.7546771E-02  0.1025711E+00
         21   -1    0    0  504  503  0.00000000000E+00  0.00000000000E+00  0.77716794167E+03  0.77716794167E+03  0.00000000000E+00 0. -1.
         21   -1    0    0  503  504 -0.00000000000E+00 -0.00000000000E+00 -0.67125982022E+02  0.67125982022E+02  0.00000000000E+00 0. -1.
         25    2    1    2    0    0  0.18034668980E+03 -0.54183866262E+02  0.41585552823E+03  0.47330986870E+03  0.12500236625E+03 0.  0.
         25    2    1    2    0    0 -0.18034668980E+03  0.54183866262E+02  0.29418643143E+03  0.37098405500E+03  0.12499077063E+03 0.  0.
          5    1    3    3  501    0  0.20227604738E+02 -0.62257372909E+02  0.11980632754E+03  0.13660447502E+03  0.47000000000E+01 0.  1.
         -5    1    3    3    0  501  0.16011908506E+03  0.80735066468E+01  0.29604920068E+03  0.33670539368E+03  0.47000000000E+01 0.  1.
          5    1    4    4  502    0 -0.11586619710E+03  0.37903951501E+02  0.78123911551E+02  0.14486932293E+03  0.47000000000E+01 0.  1.
         -5    1    4    4    0  502 -0.64480492699E+02  0.16279914761E+02  0.21606251987E+03  0.22611473207E+03  0.47000000000E+01 0.  1.
<mgrwt>
<rscale>  0 0.45680701E+03</rscale>
<asrwt>0</asrwt>
<pdfrwt beam="1">  1       21 0.11956429E+00 0.45680701E+03</pdfrwt>
<pdfrwt beam="2">  1       21 0.10327075E-01 0.45680701E+03</pdfrwt>
<totfact> 0.37080951E+04</totfact>
</mgrwt>
</event>
<event>
 8    1  0.4760912E-006  0.2907763E+03  0.7546771E-02  0.1089945E+00
         21   -1    0    0  504  503  0.00000000000E+00  0.00000000000E+00  0.10055920645E+02  0.10055920645E+02  0.00000000000E+00 0. -1.
         21   -1    0    0  503  504 -0.00000000000E+00 -0.00000000000E+00 -0.21020166553E+04  0.21020166553E+04  0.00000000000E+00 0. -1.
         25    2    1    2    0    0  0.25488214782E+02  0.55114148285E+01 -0.54106449175E+03  0.55592846006E+03  0.12500257469E+03 0.  0.
         25    2    1    2    0    0 -0.25488214782E+02 -0.55114148285E+01 -0.15508962429E+04  0.15561441159E+04  0.12500131350E+03 0.  0.
          5    1    3    3  501    0 -0.21511053812E+02  0.56081804064E+01 -0.13866036915E+02  0.26618303915E+02  0.47000000000E+01 0. -1.
         -5    1    3    3    0  501  0.46999268594E+02 -0.96765577804E-01 -0.52719845484E+03  0.52931015614E+03  0.47000000000E+01 0. -1.
          5    1    4    4  502    0  0.38299740095E+02  0.16260684692E+02 -0.24903550567E+03  0.25253129121E+03  0.47000000000E+01 0.  1.
         -5    1    4    4    0  502 -0.63787954877E+02 -0.21772099521E+02 -0.13018607372E+04  0.13036128247E+04  0.47000000000E+01 0.  1.
<mgrwt>
<rscale>  0 0.29077629E+03</rscale>
<asrwt>0</asrwt>
<pdfrwt beam="1">  1       21 0.15470629E-02 0.29077629E+03</pdfrwt>
<pdfrwt beam="2">  1       21 0.32338756E+00 0.29077629E+03</pdfrwt>
<totfact> 0.43190035E+04</totfact>
</mgrwt>
</event>
<event>
 8    1  0.4760912E-006  0.2797138E+03  0.7546771E-02  0.1095845E+00
         21   -1    0    0  504  503  0.00000000000E+00  0.00000000000E+00  0.88023688355E+02  0.88023688355E+02  0.00000000000E+00 0. -1.
         21   -1    0    0  503  504 -0.00000000000E+00 -0.00000000000E+00 -0.22221235120E+03  0.22221235120E+03  0.00000000000E+00 0. -1.
         25    2    1    2    0    0 -0.23767566821E+02  0.56513238803E+02 -0.52383756970E+02  0.14875586867E+03  0.12500242829E+03 0.  0.
         25    2    1    2    0    0  0.23767566821E+02 -0.56513238803E+02 -0.81804905875E+02  0.16148017088E+03  0.12500063828E+03 0.  0.
          5    1    3    3  501    0  0.77878579450E+01 -0.16357617544E+02  0.29280417333E+02  0.34751334108E+02  0.47000000000E+01 0.  1.
         -5    1    3    3    0  501 -0.31555424766E+02  0.72870856347E+02 -0.81664174303E+02  0.11400453457E+03  0.47000000000E+01 0.  1.
          5    1    4    4  502    0  0.84932450249E+00  0.38832826089E+02 -0.11674951184E+02  0.40830187598E+02  0.47000000000E+01 0.  1.
         -5    1    4    4    0  502  0.22918242318E+02 -0.95346064892E+02 -0.70129954690E+02  0.12064998328E+03  0.47000000000E+01 0.  1.
<mgrwt>
<rscale>  0 0.27971379E+03</rscale>
<asrwt>0</asrwt>
<pdfrwt beam="1">  1       21 0.13542106E-01 0.27971379E+03</pdfrwt>
<pdfrwt beam="2">  1       21 0.34186516E-01 0.27971379E+03</pdfrwt>
<totfact> 0.38211767E+05</totfact>
</mgrwt>
</event>
<event>
 8    1  0.4760912E-006  0.2678734E+03  0.7546771E-02  0.1102503E+00
         21   -1    0    0  504  503  0.00000000000E+00  0.00000000000E+00  0.40075149171E+03  0.40075149171E+03  0.00000000000E+00 0. -1.
         21   -1    0    0  503  504 -0.00000000000E+00 -0.00000000000E+00 -0.44763508549E+02  0.44763508549E+02  0.00000000000E+00 0. -1.
         25    2    1    2    0    0 -0.20822243012E+02  0.41063976477E+02  0.20154978485E+03  0.24157435746E+03  0.12496414863E+03 0.  0.
         25    2    1    2    0    0  0.20822243012E+02 -0.41063976477E+02  0.15443819831E+03  0.20394064280E+03  0.12498324975E+03 0.  0.
          5    1    3    3  501    0 -0.58364588893E+02  0.65478549848E+02  0.12533752884E+03  0.15305375482E+03  0.47000000000E+01 0. -1.
         -5    1    3    3    0  501  0.37542345882E+02 -0.24414573371E+02  0.76212256006E+02  0.88520602645E+02  0.47000000000E+01 0. -1.
          5    1    4    4  502    0 -0.26578136879E+02 -0.63545326610E+02  0.44785601169E+02  0.82293656900E+02  0.47000000000E+01 0.  1.
         -5    1    4    4    0  502  0.47400379891E+02  0.22481350133E+02  0.10965259714E+03  0.12164698590E+03  0.47000000000E+01 0.  1.
<mgrwt>
<rscale>  0 0.26787342E+03</rscale>
<asrwt>0</asrwt>
<pdfrwt beam="1">  1       21 0.61654073E-01 0.26787342E+03</pdfrwt>
<pdfrwt beam="2">  1       21 0.68866939E-02 0.26787342E+03</pdfrwt>
<totfact> 0.37365965E+05</totfact>
</mgrwt>
</event>
<event>
 8    1  0.4760912E-006  0.4950683E+03  0.7546771E-02  0.1015074E+00
         21   -1    0    0  504  503  0.00000000000E+00  0.00000000000E+00  0.37245330078E+02  0.37245330078E+02  0.00000000000E+00 0. -1.
         21   -1    0    0  503  504 -0.00000000000E+00 -0.00000000000E+00 -0.16451228913E+04  0.16451228913E+04  0.00000000000E+00 0. -1.
         25    2    1    2    0    0 -0.76130917085E+02 -0.31018272020E+02 -0.13378566047E+03  0.20070367349E+03  0.12500124747E+03 0.  0.
         25    2    1    2    0    0  0.76130917085E+02  0.31018272020E+02 -0.14740919008E+04  0.14816645479E+04  0.12499940351E+03 0.  0.
          5    1    3    3  501    0 -0.61495140583E+02  0.17263702249E+02 -0.13563982412E+03  0.14999979872E+03  0.47000000000E+01 0.  1.
         -5    1    3    3    0  501 -0.14635776502E+02 -0.48281974269E+02  0.18541636467E+01  0.50703874763E+02  0.47000000000E+01 0.  1.
          5    1    4    4  502    0  0.60626486424E+02  0.10297625240E+02 -0.14217358908E+04  0.14230729584E+04  0.47000000000E+01 0.  1.
         -5    1    4    4    0  502  0.15504430661E+02  0.20720646780E+02 -0.52356009987E+02  0.58591589455E+02  0.47000000000E+01 0.  1.
<mgrwt>
<rscale>  0 0.49506826E+03</rscale>
<asrwt>0</asrwt>
<pdfrwt beam="1">  1       21 0.57300492E-02 0.49506826E+03</pdfrwt>
<pdfrwt beam="2">  1       21 0.25309590E+00 0.49506826E+03</pdfrwt>
<totfact> 0.11474740E+04</totfact>
</mgrwt>
</event>
<event>
 8    1  0.4760912E-006  0.2808614E+03  0.7546771E-02  0.1095219E+00
         21   -1    0    0  504  503  0.00000000000E+00  0.00000000000E+00  0.10661521294E+03  0.10661521294E+03  0.00000000000E+00 0. -1.
         21   -1    0    0  503  504 -0.00000000000E+00 -0.00000000000E+00 -0.18497159323E+03  0.18497159323E+03  0.00000000000E+00 0. -1.
         25    2    1    2    0    0 -0.14031767470E+02  0.37215173049E+01 -0.10389133933E+03  0.16318101851E+03  0.12499557682E+03 0.  0.
         25    2    1    2    0    0  0.14031767470E+02 -0.37215173049E+01  0.25534959039E+02  0.12840578766E+03  0.12500108792E+03 0.  0.
          5    1    3    3  501    0  0.20353625355E+02 -0.44730515722E+02 -0.76168246703E+01  0.49951928090E+02  0.47000000000E+01 0.  1.
         -5    1    3    3    0  501 -0.34385392825E+02  0.48452033027E+02 -0.96274514657E+02  0.11322909042E+03  0.47000000000E+01 0.  1.
          5    1    4    4  502    0  0.16522815188E+02 -0.67111149051E+01 -0.49654636506E+02  0.52969004253E+02  0.47000000000E+01 0. -1.
         -5    1    4    4    0  502 -0.24910477180E+01  0.29895976002E+01  0.75189595545E+02  0.75436783407E+02  0.47000000000E+01 0. -1.
<mgrwt>
<rscale>  0 0.28086143E+03</rscale>
<asrwt>0</asrwt>
<pdfrwt beam="1">  1       21 0.16402341E-01 0.28086143E+03</pdfrwt>
<pdfrwt beam="2">  1       21 0.28457168E-01 0.28086143E+03</pdfrwt>
<totfact> 0.38610490E+05</totfact>
</mgrwt>
</event>
<event>
 8    1  0.4760912E-006  0.2579579E+03  0.7546771E-02  0.1108376E+00
         21   -1    0    0  504  503  0.00000000000E+00  0.00000000000E+00  0.33481878150E+02  0.33481878150E+02  0.00000000000E+00 0.  1.
         21   -1    0    0  503  504 -0.00000000000E+00 -0.00000000000E+00 -0.49685303974E+03  0.49685303974E+03  0.00000000000E+00 0.  1.
         25    2    1    2    0    0  0.51634576305E+01  0.24113171465E+02 -0.27293775788E+03  0.30121031942E+03  0.12499812206E+03 0.  0.
         25    2    1    2    0    0 -0.51634576305E+01 -0.24113171465E+02 -0.19043340371E+03  0.22912459847E+03  0.12500037616E+03 0.  0.
          5    1    3    3  501    0  0.26506088901E+02  0.53782830860E+01 -0.27097090955E+03  0.27235789414E+03  0.47000000000E+01 0. -1.
         -5    1    3    3    0  501 -0.21342631271E+02  0.18734888379E+02 -0.19668483244E+01  0.28852425279E+02  0.47000000000E+01 0. -1.
          5    1    4    4  502    0 -0.63572550275E+02 -0.22889978110E+02 -0.87212875428E+02  0.11042461631E+03  0.47000000000E+01 0.  1.
         -5    1    4    4    0  502  0.58409092644E+02 -0.12231933544E+01 -0.10322052828E+03  0.11869998216E+03  0.47000000000E+01 0.  1.
<mgrwt>
<rscale>  0 0.25795793E+03</rscale>
<asrwt>0</asrwt>
<pdfrwt beam="1">  1       21 0.51510584E-02 0.25795793E+03</pdfrwt>
<pdfrwt beam="2">  1       21 0.76438926E-01 0.25795793E+03</pdfrwt>
<totfact> 0.38357932E+05</totfact>
</mgrwt>
</event>
<event>
 8    1  0.4760912E-006  0.2558829E+03  0.7546771E-02  0.1109642E+00
         21   -1    0    0  504  503  0.00000000000E+00  0.00000000000E+00  0.28440636886E+02  0.28440636886E+02  0.00000000000E+00 0. -1.
         21   -1    0    0  503  504 -0.00000000000E+00 -0.00000000000E+00 -0.57555019710E+03  0.57555019710E+03  0.00000000000E+00 0. -1.
         25    2    1    2    0    0 -0.19965278934E+02 -0.18000506794E+02 -0.26166484391E+03  0.29121601394E+03  0.12496257691E+03 0.  0.
         25    2    1    2    0    0  0.19965278934E+02  0.18000506794E+02 -0.28544471630E+03  0.31277482005E+03  0.12500708533E+03 0.  0.
          5    1    3    3  501    0 -0.63546052834E+02 -0.40521418576E+02 -0.18788187102E+03  0.20248894698E+03  0.47000000000E+01 0.  1.
         -5    1    3    3    0  501  0.43580773899E+02  0.22520911782E+02 -0.73782972898E+02  0.88727066957E+02  0.47000000000E+01 0.  1.
          5    1    4    4  502    0  0.28570348075E+02 -0.41751007776E+02 -0.20988303063E+03  0.21594533564E+03  0.47000000000E+01 0.  1.
         -5    1    4    4    0  502 -0.86050691404E+01  0.59751514570E+02 -0.75561685669E+02  0.96829484402E+02  0.47000000000E+01 0.  1.
<mgrwt>
<rscale>  0 0.25588290E+03</rscale>
<asrwt>0</asrwt>
<pdfrwt beam="1">  1       21 0.43754828E-02 0.25588290E+03</pdfrwt>
<pdfrwt beam="2">  1       21 0.88546180E-01 0.25588290E+03</pdfrwt>
<totfact> 0.36171245E+05</totfact>
</mgrwt>
</event>
<event>
 8    1  0.4760912E-006  0.2828207E+03  0.7546771E-02  0.1094158E+00
         21   -1    0    0  504  503  0.00000000000E+00  0.00000000000E+00  0.29882765507E+02  0.29882765507E+02  0.00000000000E+00 0. -1.
         21   -1    0    0  503  504 -0.00000000000E+00 -0.00000000000E+00 -0.66917812891E+03  0.66917812891E+03  0.00000000000E+00 0. -1.
         25    2    1    2    0    0 -0.31450364100E+02 -0.14275816141E+02 -0.45901286348E+03  0.47698183829E+03  0.12500376352E+03 0.  0.
         25    2    1    2    0    0  0.31450364100E+02  0.14275816141E+02 -0.18028249992E+03  0.22207905612E+03  0.12499761222E+03 0.  0.
          5    1    3    3  501    0 -0.73977441897E+02  0.17366986338E+02 -0.28689581400E+03  0.29682582807E+03  0.47000000000E+01 0. -1.
         -5    1    3    3    0  501  0.42527077797E+02 -0.31642802479E+02 -0.17211704949E+03  0.18015601022E+03  0.47000000000E+01 0. -1.
          5    1    4    4  502    0  0.10071085843E+02 -0.42723712397E+02 -0.16233569540E+02  0.47035743335E+02  0.47000000000E+01 0.  1.
         -5    1    4    4    0  502  0.21379278257E+02  0.56999528538E+02 -0.16404893038E+03  0.17504331279E+03  0.47000000000E+01 0.  1.
<mgrwt>
<rscale>  0 0.28282074E+03</rscale>
<asrwt>0</asrwt>
<pdfrwt beam="1">  1       21 0.45973488E-02 0.28282074E+03</pdfrwt>
<pdfrwt beam="2">  1       21 0.10295048E+00 0.28282074E+03</pdfrwt>
<totfact> 0.23119145E+05</totfact>
</mgrwt>
</event>
<event>
 8    1  0.4760912E-006  0.2596744E+03  0.7546771E-02  0.1107339E+00
         21   -1    0    0  504  503  0.00000000000E+00  0.00000000000E+00  0.14005152047E+04  0.14005152047E+04  0.00000000000E+00 0. -1.
         21   -1    0    0  503  504 -0.00000000000E+00 -0.00000000000E+00 -0.12036785844E+02  0.12036785844E+02  0.00000000000E+00 0. -1.
         25    2    1    2    0    0  0.15159388797E+02  0.59450230056E+01  0.86333875417E+03  0.87249302685E+03  0.12500050835E+03 0.  0.
         25    2    1    2    0    0 -0.15159388797E+02 -0.59450230056E+01  0.52513966466E+03  0.54005896366E+03  0.12500746565E+03 0.  0.
          5    1    3    3  501    0 -0.30250138243E+02 -0.12051714037E+02  0.66980652820E+02  0.74624476729E+02  0.47000000000E+01 0.  1.
         -5    1    3    3    0  501  0.45409527039E+02  0.17996737042E+02  0.79635810135E+03  0.79786855012E+03  0.47000000000E+01 0.  1.
          5    1    4    4  502    0 -0.36314717141E+02 -0.55218796507E+02  0.20546141646E+03  0.21588042483E+03  0.47000000000E+01 0.  1.
         -5    1    4    4    0  502  0.21155328344E+02  0.49273773501E+02  0.31967824820E+03  0.32417853884E+03  0.47000000000E+01 0.  1.
<mgrwt>
<rscale>  0 0.25967442E+03</rscale>
<asrwt>0</asrwt>
<pdfrwt beam="1">  1       21 0.21546375E+00 0.25967442E+03</pdfrwt>
<pdfrwt beam="2">  1       21 0.18518143E-02 0.25967442E+03</pdfrwt>
<totfact> 0.14460783E+05</totfact>
</mgrwt>
</event>
<event>
 8    1  0.4760912E-006  0.3533436E+03  0.7546771E-02  0.1061251E+00
         21   -1    0    0  504  503  0.00000000000E+00  0.00000000000E+00  0.24120356736E+04  0.24120356736E+04  0.00000000000E+00 0.  1.
         21   -1    0    0  503  504 -0.00000000000E+00 -0.00000000000E+00 -0.12940487842E+02  0.12940487842E+02  0.00000000000E+00 0.  1.
         25    2    1    2    0    0 -0.78654435443E+02  0.41817192624E+01  0.53473569562E+03  0.55477167696E+03  0.12500136957E+03 0.  0.
         25    2    1    2    0    0  0.78654435443E+02 -0.41817192624E+01  0.18643594902E+04  0.18702044845E+04  0.12499799327E+03 0.  0.
          5    1    3    3  501    0 -0.62195322680E+02  0.14880223575E+02  0.53022515677E+03  0.53408846279E+03  0.47000000000E+01 0.  1.
         -5    1    3    3    0  501 -0.16459112763E+02 -0.10698504312E+02  0.45105388487E+01  0.20683214165E+02  0.47000000000E+01 0.  1.
          5    1    4    4  502    0  0.17634064585E+02 -0.27034998967E+02  0.14780638841E+04  0.14784237508E+04  0.47000000000E+01 0.  1.
         -5    1    4    4    0  502  0.61020370859E+02  0.22853279705E+02  0.38629560604E+03  0.39178073370E+03  0.47000000000E+01 0.  1.
<mgrwt>
<rscale>  0 0.35334356E+03</rscale>
<asrwt>0</asrwt>
<pdfrwt beam="1">  1       21 0.37108205E+00 0.35334356E+03</pdfrwt>
<pdfrwt beam="2">  1       21 0.19908462E-02 0.35334356E+03</pdfrwt>
<totfact> 0.14148580E+04</totfact>
</mgrwt>
</event>
<event>
 8    1  0.4760912E-006  0.3772822E+03  0.7546771E-02  0.1051943E+00
         21   -1    0    0  504  503  0.00000000000E+00  0.00000000000E+00  0.19755411393E+03  0.19755411393E+03  0.00000000000E+00 0. -1.
         21   -1    0    0  503  504 -0.00000000000E+00 -0.00000000000E+00 -0.18013020265E+03  0.18013020265E+03  0.00000000000E+00 0. -1.
         25    2    1    2    0    0  0.47109001564E+02  0.13125051100E+03  0.31420600980E+02  0.18988979677E+03  0.12499970434E+03 0.  0.
         25    2    1    2    0    0 -0.47109001564E+02 -0.13125051100E+03 -0.13996689698E+02  0.18779451981E+03  0.12499967872E+03 0.  0.
          5    1    3    3  501    0  0.36444629500E+02 -0.15596352817E+02  0.83964924867E+01  0.40792748457E+02  0.47000000000E+01 0. -1.
         -5    1    3    3    0  501  0.10664372064E+02  0.14684686382E+03  0.23024108493E+02  0.14909704831E+03  0.47000000000E+01 0. -1.
          5    1    4    4  502    0 -0.63426553374E+02 -0.13172150074E+03  0.22069629885E+02  0.14792782021E+03  0.47000000000E+01 0.  1.
         -5    1    4    4    0  502  0.16317551809E+02  0.47098973780E+00 -0.36066319583E+02  0.39866699596E+02  0.47000000000E+01 0.  1.
<mgrwt>
<rscale>  0 0.37728219E+03</rscale>
<asrwt>0</asrwt>
<pdfrwt beam="1">  1       21 0.30392941E-01 0.37728219E+03</pdfrwt>
<pdfrwt beam="2">  1       21 0.27712339E-01 0.37728219E+03</pdfrwt>
<totfact> 0.12265403E+05</totfact>
</mgrwt>
</event>
<event>
 8    1  0.4760912E-006  0.2962766E+03  0.7546771E-02  0.1087117E+00
         21   -1    0    0  504  503  0.00000000000E+00  0.00000000000E+00  0.18525817508E+03  0.18525817508E+03  0.00000000000E+00 0. -1.
         21   -1    0    0  503  504 -0.00000000000E+00 -0.00000000000E+00 -0.11845610963E+03  0.11845610963E+03  0.00000000000E+00 0. -1.
         25    2    1    2    0    0 -0.76386190334E+02  0.56474078801E+01  0.11573685051E+02  0.14705496502E+03  0.12499787703E+03 0.  0.
         25    2    1    2    0    0  0.76386190334E+02 -0.56474078801E+01  0.55228380402E+02  0.15665931969E+03  0.12500090061E+03 0.  0.
          5    1    3    3  501    0  0.31441947294E+02 -0.11843609199E+02  0.16249256756E+02  0.37616425583E+02  0.47000000000E+01 0.  1.
         -5    1    3    3    0  501 -0.10782813763E+03  0.17491017079E+02 -0.46755717054E+01  0.10943853943E+03  0.47000000000E+01 0.  1.
          5    1    4    4  502    0  0.82563699233E+02  0.11383434124E+02 -0.14267146087E+02  0.84687593312E+02  0.47000000000E+01 0.  1.
         -5    1    4    4    0  502 -0.61775088988E+01 -0.17030842004E+02  0.69495526489E+02  0.71971726376E+02  0.47000000000E+01 0.  1.
<mgrwt>
<rscale>  0 0.29627665E+03</rscale>
<asrwt>0</asrwt>
<pdfrwt beam="1">  1       21 0.28501258E-01 0.29627665E+03</pdfrwt>
<pdfrwt beam="2">  1       21 0.18224017E-01 0.29627665E+03</pdfrwt>
<totfact> 0.31555119E+05</totfact>
</mgrwt>
</event>
<event>
 8    1  0.4760912E-006  0.2674219E+03  0.7546771E-02  0.1102764E+00
         21   -1    0    0  504  503  0.00000000000E+00  0.00000000000E+00  0.24462491254E+03  0.24462491254E+03  0.00000000000E+00 0. -1.
         21   -1    0    0  503  504 -0.00000000000E+00 -0.00000000000E+00 -0.73085841549E+02  0.73085841549E+02  0.00000000000E+00 0. -1.
         25    2    1    2    0    0  0.16099455385E+02  0.27167294501E+02  0.43716267749E+02  0.13615835409E+03  0.12502292178E+03 0.  0.
         25    2    1    2    0    0 -0.16099455385E+02 -0.27167294501E+02  0.12782280324E+03  0.18155240000E+03  0.12500140224E+03 0.  0.
          5    1    3    3  501    0  0.38701364562E+02 -0.11299529449E+02  0.72334786926E+02  0.82945080531E+02  0.47000000000E+01 0. -1.
         -5    1    3    3    0  501 -0.22601909177E+02  0.38466823950E+02 -0.28618519177E+02  0.53213273562E+02  0.47000000000E+01 0. -1.
          5    1    4    4  502    0  0.62917552881E+01  0.41365595325E+02  0.98953761380E+01  0.43251671992E+02  0.47000000000E+01 0.  1.
         -5    1    4    4    0  502 -0.22391210673E+02 -0.68532889826E+02  0.11792742711E+03  0.13830072801E+03  0.47000000000E+01 0.  1.
<mgrwt>
<rscale>  0 0.26742190E+03</rscale>
<asrwt>0</asrwt>
<pdfrwt beam="1">  1       21 0.37634601E-01 0.26742190E+03</pdfrwt>
<pdfrwt beam="2">  1       21 0.11243976E-01 0.26742190E+03</pdfrwt>
<totfact> 0.44193838E+05</totfact>
</mgrwt>
</event>
<event>
 8    1  0.4760912E-006  0.3244565E+03  0.7546771E-02  0.1073616E+00
         21   -1    0    0  504  503  0.00000000000E+00  0.00000000000E+00  0.18527335794E+02  0.18527335794E+02  0.00000000000E+00 0. -1.
         21   -1    0    0  503  504 -0.00000000000E+00 -0.00000000000E+00 -0.14204959082E+04  0.14204959082E+04  0.00000000000E+00 0. -1.
         25    2    1    2    0    0  0.98855146735E+02 -0.50694075986E+01 -0.56829009216E+03  0.59023403216E+03  0.12499817973E+03 0.  0.
         25    2    1    2    0    0 -0.98855146735E+02  0.50694075986E+01 -0.83367848029E+03  0.84878921189E+03  0.12500111513E+03 0.  0.
          5    1    3    3  501    0  0.57380533594E+02  0.55323570893E+02 -0.21382630948E+03  0.22824768073E+03  0.47000000000E+01 0. -1.
         -5    1    3    3    0  501  0.41474613140E+02 -0.60392978492E+02 -0.35446378268E+03  0.36198635143E+03  0.47000000000E+01 0. -1.
          5    1    4    4  502    0 -0.13607692588E+01  0.20312370715E+01 -0.52510838257E+03  0.52513510743E+03  0.47000000000E+01 0.  1.
         -5    1    4    4    0  502 -0.97494377476E+02  0.30381705271E+01 -0.30857009772E+03  0.32365410445E+03  0.47000000000E+01 0.  1.
<mgrwt>
<rscale>  0 0.32445650E+03</rscale>
<asrwt>0</asrwt>
<pdfrwt beam="1">  1       21 0.28503600E-02 0.32445650E+03</pdfrwt>
<pdfrwt beam="2">  1       21 0.21853778E+00 0.32445650E+03</pdfrwt>
<totfact> 0.66008571E+04</totfact>
</mgrwt>
</event>
<event>
 8    1  0.4760912E-006  0.3273371E+03  0.7546771E-02  0.1072321E+00
         21   -1    0    0  504  503  0.00000000000E+00  0.00000000000E+00  0.34865885303E+03  0.34865885303E+03  0.00000000000E+00 0.  1.
         21   -1    0    0  503  504 -0.00000000000E+00 -0.00000000000E+00 -0.76829820920E+02  0.76829820920E+02  0.00000000000E+00 0.  1.
         25    2    1    2    0    0  0.86894893792E+02  0.25622158681E+02  0.65260663102E+02  0.16760540321E+03  0.12500159780E+03 0.  0.
         25    2    1    2    0    0 -0.86894893792E+02 -0.25622158681E+02  0.20656836901E+03  0.25788327074E+03  0.12500429062E+03 0.  0.
          5    1    3    3  501    0 -0.19648579485E+02  0.70805658358E+01 -0.20395361542E+02  0.29567919453E+02  0.47000000000E+01 0. -1.
         -5    1    3    3    0  501  0.10654347328E+03  0.18541592846E+02  0.85656024644E+02  0.13803748375E+03  0.47000000000E+01 0. -1.
          5    1    4    4  502    0 -0.11903855676E+03 -0.14707697245E+02  0.15730292309E+03  0.19787064959E+03  0.47000000000E+01 0.  1.
         -5    1    4    4    0  502  0.32143662965E+02 -0.10914461436E+02  0.49265445912E+02  0.60012621157E+02  0.47000000000E+01 0.  1.
<mgrwt>
<rscale>  0 0.32733712E+03</rscale>
<asrwt>0</asrwt>
<pdfrwt beam="1">  1       21 0.53639823E-01 0.32733712E+03</pdfrwt>
<pdfrwt beam="2">  1       21 0.11819973E-01 0.32733712E+03</pdfrwt>
<totfact> 0.19128993E+05</totfact>
</mgrwt>
</event>
<event>
 8    1  0.4760912E-006  0.3618245E+03  0.7546771E-02  0.1057864E+00
         21   -1    0    0  504  503  0.00000000000E+00  0.00000000000E+00  0.32236702193E+03  0.32236702193E+03  0.00000000000E+00 0. -1.
         21   -1    0    0  503  504 -0.00000000000E+00 -0.00000000000E+00 -0.10152789178E+03  0.10152789178E+03  0.00000000000E+00 0. -1.
         25    2    1    2    0    0  0.11883121600E+03 -0.10193109159E+02  0.17328713710E+03  0.24469915552E+03  0.12499794983E+03 0.  0.
         25    2    1    2    0    0 -0.11883121600E+03  0.10193109159E+02  0.47551993059E+02  0.17919575818E+03  0.12500068135E+03 0.  0.
          5    1    3    3  501    0  0.84683899324E+02 -0.62122328862E+02  0.78288372395E+02  0.13107900595E+03  0.47000000000E+01 0.  1.
         -5    1    3    3    0  501  0.34147316672E+02  0.51929219703E+02  0.94998764702E+02  0.11362014958E+03  0.47000000000E+01 0.  1.
          5    1    4    4  502    0 -0.26264516630E+02  0.14576165893E+02  0.76235043709E+02  0.82074120984E+02  0.47000000000E+01 0.  1.
         -5    1    4    4    0  502 -0.92566699366E+02 -0.43830567341E+01 -0.28683050651E+02  0.97121637200E+02  0.47000000000E+01 0.  1.
<mgrwt>
<rscale>  0 0.36182451E+03</rscale>
<asrwt>0</asrwt>
<pdfrwt beam="1">  1       21 0.49594926E-01 0.36182451E+03</pdfrwt>
<pdfrwt beam="2">  1       21 0.15619676E-01 0.36182451E+03</pdfrwt>
<totfact> 0.13467426E+05</totfact>
</mgrwt>
</event>
<event>
 8    1  0.4760912E-006  0.3842186E+03  0.7546771E-02  0.1049385E+00
         21   -1    0    0  504  503  0.00000000000E+00  0.00000000000E+00  0.10614271593E+03  0.10614271593E+03  0.00000000000E+00 0. -1.
         21   -1    0    0  503  504 -0.00000000000E+00 -0.00000000000E+00 -0.34770154391E+03  0.34770154391E+03  0.00000000000E+00 0. -1.
         25    2    1    2    0    0 -0.11724829317E+03 -0.64850742056E+02 -0.18892888164E+03  0.26319071931E+03  0.12498980525E+03 0.  0.
         25    2    1    2    0    0  0.11724829317E+03  0.64850742056E+02 -0.52629946333E+02  0.19065354053E+03  0.12500432100E+03 0.  0.
          5    1    3    3  501    0 -0.34866335199E+01 -0.75327863998E+01 -0.11587887935E+03  0.11627082249E+03  0.47000000000E+01 0. -1.
         -5    1    3    3    0  501 -0.11376165965E+03 -0.57317955656E+02 -0.73050002295E+02  0.14691989682E+03  0.47000000000E+01 0. -1.
          5    1    4    4  502    0  0.66914418709E+02 -0.30706565675E+02 -0.32835559777E+02  0.80750830290E+02  0.47000000000E+01 0. -1.
         -5    1    4    4    0  502  0.50333874457E+02  0.95557307730E+02 -0.19794386555E+02  0.10990271024E+03  0.47000000000E+01 0. -1.
<mgrwt>
<rscale>  0 0.38421862E+03</rscale>
<asrwt>0</asrwt>
<pdfrwt beam="1">  1       21 0.16329648E-01 0.38421862E+03</pdfrwt>
<pdfrwt beam="2">  1       21 0.53492546E-01 0.38421862E+03</pdfrwt>
<totfact> 0.10505980E+05</totfact>
</mgrwt>
</event>
<event>
 8    1  0.4760912E-006  0.2682584E+03  0.7546771E-02  0.1102281E+00
         21   -1    0    0  504  503  0.00000000000E+00  0.00000000000E+00  0.14963633009E+02  0.14963633009E+02  0.00000000000E+00 0.  1.
         21   -1    0    0  503  504 -0.00000000000E+00 -0.00000000000E+00 -0.12022906584E+04  0.12022906584E+04  0.00000000000E+00 0.  1.
         25    2    1    2    0    0 -0.13005952114E+02 -0.42588095076E+02 -0.50507177178E+03  0.52221442420E+03  0.12501003787E+03 0.  0.
         25    2    1    2    0    0  0.13005952114E+02  0.42588095076E+02 -0.68225525362E+03  0.69503986721E+03  0.12500114115E+03 0.  0.
          5    1    3    3  501    0 -0.45136599554E+02 -0.26753515310E+02 -0.46612128729E+03  0.46908869914E+03  0.47000000000E+01 0. -1.
         -5    1    3    3    0  501  0.32130647441E+02 -0.15834579766E+02 -0.38950484491E+02  0.53125725062E+02  0.47000000000E+01 0. -1.
          5    1    4    4  502    0  0.45154652364E+02 -0.55534614619E+01 -0.53180751689E+03  0.53377065168E+03  0.47000000000E+01 0. -1.
         -5    1    4    4    0  502 -0.32148700250E+02  0.48141556538E+02 -0.15044773673E+03  0.16126921554E+03  0.47000000000E+01 0. -1.
<mgrwt>
<rscale>  0 0.26825835E+03</rscale>
<asrwt>0</asrwt>
<pdfrwt beam="1">  1       21 0.23020979E-02 0.26825835E+03</pdfrwt>
<pdfrwt beam="2">  1       21 0.18496776E+00 0.26825835E+03</pdfrwt>
<totfact> 0.15937309E+05</totfact>
</mgrwt>
</event>
<event>
 8    1  0.4760912E-006  0.2642587E+03  0.7546771E-02  0.1104611E+00
         21   -1    0    0  504  503  0.00000000000E+00  0.00000000000E+00  0.99324817975E+02  0.99324817975E+02  0.00000000000E+00 0.  1.
         21   -1    0    0  503  504 -0.00000000000E+00 -0.00000000000E+00 -0.17576841375E+03  0.17576841375E+03  0.00000000000E+00 0.  1.
         25    2    1    2    0    0 -0.31728865423E+02  0.22635970248E+02 -0.19691809478E+02  0.13241140249E+03  0.12500361634E+03 0.  0.
         25    2    1    2    0    0  0.31728865423E+02 -0.22635970248E+02 -0.56751786300E+02  0.14268182924E+03  0.12497292146E+03 0.  0.
          5    1    3    3  501    0  0.35556780130E+02 -0.16250048769E+02 -0.35443218782E+02  0.52977924231E+02  0.47000000000E+01 0.  1.
         -5    1    3    3    0  501 -0.67285645553E+02  0.38886019017E+02  0.15751409304E+02  0.79433478254E+02  0.47000000000E+01 0.  1.
          5    1    4    4  502    0  0.76014071194E+02  0.77271548598E+01 -0.39151202818E+02  0.85981129464E+02  0.47000000000E+01 0. -1.
         -5    1    4    4    0  502 -0.44285205771E+02 -0.30363125108E+02 -0.17600583481E+02  0.56700699779E+02  0.47000000000E+01 0. -1.
<mgrwt>
<rscale>  0 0.26425870E+03</rscale>
<asrwt>0</asrwt>
<pdfrwt beam="1">  1       21 0.15280741E-01 0.26425870E+03</pdfrwt>
<pdfrwt beam="2">  1       21 0.27041294E-01 0.26425870E+03</pdfrwt>
<totfact> 0.48737252E+05</totfact>
</mgrwt>
</event>
<event>
 8    1  0.4760912E-006  0.2779705E+03  0.7546771E-02  0.1096803E+00
         21   -1    0    0  504  503  0.00000000000E+00  0.00000000000E+00  0.45664796549E+03  0.45664796549E+03  0.00000000000E+00 0.  1.
         21   -1    0    0  503  504 -0.00000000000E+00 -0.00000000000E+00 -0.42301519005E+02  0.42301519005E+02  0.00000000000E+00 0.  1.
         25    2    1    2    0    0  0.36869394841E+02  0.42105098474E+02  0.16470066810E+03  0.21420365963E+03  0.12499882453E+03 0.  0.
         25    2    1    2    0    0 -0.36869394841E+02 -0.42105098474E+02  0.24964577838E+03  0.28474582486E+03  0.12499991406E+03 0.  0.
          5    1    3    3  501    0 -0.14088933166E+02  0.70569095333E+02  0.12203755053E+03  0.14175242147E+03  0.47000000000E+01 0.  1.
         -5    1    3    3    0  501  0.50958328007E+02 -0.28463996859E+02  0.42663117570E+02  0.72451238162E+02  0.47000000000E+01 0.  1.
          5    1    4    4  502    0 -0.33619227090E+02  0.17661735016E+02  0.20844766629E+03  0.21193090595E+03  0.47000000000E+01 0.  1.
         -5    1    4    4    0  502 -0.32501677510E+01 -0.59766833490E+02  0.41198112091E+02  0.72814918908E+02  0.47000000000E+01 0.  1.
<mgrwt>
<rscale>  0 0.27797052E+03</rscale>
<asrwt>0</asrwt>
<pdfrwt beam="1">  1       21 0.70253530E-01 0.27797052E+03</pdfrwt>
<pdfrwt beam="2">  1       21 0.65079263E-02 0.27797052E+03</pdfrwt>
<totfact> 0.30860563E+05</totfact>
</mgrwt>
</event>
<event>
 8    1  0.4760912E-006  0.2777173E+03  0.7546771E-02  0.1096942E+00
         21   -1    0    0  504  503  0.00000000000E+00  0.00000000000E+00  0.29811717147E+03  0.29811717147E+03  0.00000000000E+00 0. -1.
         21   -1    0    0  503  504 -0.00000000000E+00 -0.00000000000E+00 -0.64678321594E+02  0.64678321594E+02  0.00000000000E+00 0. -1.
         25    2    1    2    0    0  0.42389142275E+02 -0.80995845680E+01  0.61396101919E+02  0.14580000327E+03  0.12500286784E+03 0.  0.
         25    2    1    2    0    0 -0.42389142275E+02  0.80995845680E+01  0.17204274796E+03  0.21699548980E+03  0.12500357121E+03 0.  0.
          5    1    3    3  501    0  0.75294764563E+02  0.45227648732E+01  0.84491160123E+00  0.75581484825E+02  0.47000000000E+01 0.  1.
         -5    1    3    3    0  501 -0.32905622288E+02 -0.12622349441E+02  0.60551190317E+02  0.70218518444E+02  0.47000000000E+01 0.  1.
          5    1    4    4  502    0 -0.37524858718E+02 -0.39316571984E+02  0.15789520066E+03  0.16705356101E+03  0.47000000000E+01 0.  1.
         -5    1    4    4    0  502 -0.48642835571E+01  0.47416156552E+02  0.14147547301E+02  0.49941928791E+02  0.47000000000E+01 0.  1.
<mgrwt>
<rscale>  0 0.27771725E+03</rscale>
<asrwt>0</asrwt>
<pdfrwt beam="1">  1       21 0.45864179E-01 0.27771725E+03</pdfrwt>
<pdfrwt beam="2">  1       21 0.99505112E-02 0.27771725E+03</pdfrwt>
<totfact> 0.36599985E+05</totfact>
</mgrwt>
</event>
<event>
 8    1  0.4760912E-006  0.4600107E+03  0.7546771E-02  0.1024778E+00
         21   -1    0    0  504  503  0.00000000000E+00  0.00000000000E+00  0.10454782881E+03  0.10454782881E+03  0.00000000000E+00 0. -1.
         21   -1    0    0  503  504 -0.00000000000E+00 -0.00000000000E+00 -0.50601206611E+03  0.50601206611E+03  0.00000000000E+00 0. -1.
         25    2    1    2    0    0 -0.51245023619E+02 -0.18606640957E+03 -0.20823956277E+03  0.31020895749E+03  0.12497648015E+03 0.  0.
         25    2    1    2    0    0  0.51245023619E+02  0.18606640957E+03 -0.19322467452E+03  0.30035093743E+03  0.12501259757E+03 0.  0.
          5    1    3    3  501    0  0.27641425977E+02 -0.27458170138E+02 -0.34513249375E+01  0.39395446199E+02  0.47000000000E+01 0. -1.
         -5    1    3    3    0  501 -0.78886449596E+02 -0.15860823943E+03 -0.20478823783E+03  0.27081351129E+03  0.47000000000E+01 0. -1.
          5    1    4    4  502    0 -0.26077110711E+02  0.23442753334E+02 -0.80304025763E+02  0.87751951207E+02  0.47000000000E+01 0. -1.
         -5    1    4    4    0  502  0.77322134330E+02  0.16262365624E+03 -0.11292064876E+03  0.21259898622E+03  0.47000000000E+01 0. -1.
<mgrwt>
<rscale>  0 0.46001071E+03</rscale>
<asrwt>0</asrwt>
<pdfrwt beam="1">  1       21 0.16084281E-01 0.46001071E+03</pdfrwt>
<pdfrwt beam="2">  1       21 0.77848010E-01 0.46001071E+03</pdfrwt>
<totfact> 0.46260389E+04</totfact>
</mgrwt>
</event>
<event>
 8    1  0.4760912E-006  0.3268822E+03  0.7546771E-02  0.1072525E+00
         21   -1    0    0  504  503  0.00000000000E+00  0.00000000000E+00  0.24428574568E+03  0.24428574568E+03  0.00000000000E+00 0.  1.
         21   -1    0    0  503  504 -0.00000000000E+00 -0.00000000000E+00 -0.10935140118E+03  0.10935140118E+03  0.00000000000E+00 0.  1.
         25    2    1    2    0    0  0.58275594406E+02  0.79527634105E+02  0.10749152805E+03  0.19208872940E+03  0.12499184722E+03 0.  0.
         25    2    1    2    0    0 -0.58275594406E+02 -0.79527634105E+02  0.27442816446E+02  0.16154841746E+03  0.12499637403E+03 0.  0.
          5    1    3    3  501    0 -0.36298531642E+02  0.23411156710E+02  0.89662389393E+01  0.44363826465E+02  0.47000000000E+01 0. -1.
         -5    1    3    3    0  501  0.94574126048E+02  0.56116477395E+02  0.98525289114E+02  0.14772490294E+03  0.47000000000E+01 0. -1.
          5    1    4    4  502    0 -0.41434290912E+02 -0.57122771798E+02 -0.44934365194E+02  0.83791399897E+02  0.47000000000E+01 0.  1.
         -5    1    4    4    0  502 -0.16841303493E+02 -0.22404862306E+02  0.72377181640E+02  0.77757017564E+02  0.47000000000E+01 0.  1.
<mgrwt>
<rscale>  0 0.32688217E+03</rscale>
<asrwt>0</asrwt>
<pdfrwt beam="1">  1       21 0.37582422E-01 0.32688217E+03</pdfrwt>
<pdfrwt beam="2">  1       21 0.16823293E-01 0.32688217E+03</pdfrwt>
<totfact> 0.20988279E+05</totfact>
</mgrwt>
</event>
<event>
 8    1  0.4760912E-006  0.3469608E+03  0.7546771E-02  0.1063869E+00
         21   -1    0    0  504  503  0.00000000000E+00  0.00000000000E+00  0.16854901126E+04  0.16854901126E+04  0.00000000000E+00 0.  1.
         21   -1    0    0  503  504 -0.00000000000E+00 -0.00000000000E+00 -0.17855603084E+02  0.17855603084E+02  0.00000000000E+00 0.  1.
         25    2    1    2    0    0  0.18105455171E+02 -0.89217249332E+02  0.44791559456E+03  0.47386328380E+03  0.12502202527E+03 0.  0.
         25    2    1    2    0    0 -0.18105455171E+02  0.89217249332E+02  0.12197189149E+04  0.12294824318E+04  0.12500117484E+03 0.  0.
          5    1    3    3  501    0  0.69366493722E+02 -0.71436286098E+02  0.30761349519E+03  0.32336203525E+03  0.47000000000E+01 0.  1.
         -5    1    3    3    0  501 -0.51261038551E+02 -0.17780963233E+02  0.14030209937E+03  0.15050124855E+03  0.47000000000E+01 0.  1.
          5    1    4    4  502    0  0.51099750613E+02  0.46584532508E+02  0.42631392104E+03  0.43191081540E+03  0.47000000000E+01 0. -1.
         -5    1    4    4    0  502 -0.69205205784E+02  0.42632716824E+02  0.79340499387E+03  0.79757161644E+03  0.47000000000E+01 0. -1.
<mgrwt>
<rscale>  0 0.34696076E+03</rscale>
<asrwt>0</asrwt>
<pdfrwt beam="1">  1       21 0.25930605E+00 0.34696076E+03</pdfrwt>
<pdfrwt beam="2">  1       21 0.27470172E-02 0.34696076E+03</pdfrwt>
<totfact> 0.39053934E+04</totfact>
</mgrwt>
</event>
<event>
 8    1  0.4760912E-006  0.2605739E+03  0.7546771E-02  0.1106799E+00
         21   -1    0    0  504  503  0.00000000000E+00  0.00000000000E+00  0.14805912241E+03  0.14805912241E+03  0.00000000000E+00 0.  1.
         21   -1    0    0  503  504 -0.00000000000E+00 -0.00000000000E+00 -0.11464804376E+03  0.11464804376E+03  0.00000000000E+00 0.  1.
         25    2    1    2    0    0 -0.22137944982E+02 -0.14907421370E+02 -0.87311489430E+01  0.12812713846E+03  0.12501204273E+03 0.  0.
         25    2    1    2    0    0  0.22137944982E+02  0.14907421370E+02  0.42142227601E+02  0.13458002771E+03  0.12499398662E+03 0.  0.
          5    1    3    3  501    0  0.16530078798E+02  0.26671770010E+02 -0.48987624127E+02  0.58365264826E+02  0.47000000000E+01 0.  1.
         -5    1    3    3    0  501 -0.38668023780E+02 -0.41579191380E+02  0.40256475184E+02  0.69761873636E+02  0.47000000000E+01 0.  1.
          5    1    4    4  502    0  0.68716110876E+01  0.13264689277E+02  0.86239577358E+02  0.87650018389E+02  0.47000000000E+01 0. -1.
         -5    1    4    4    0  502  0.15266333894E+02  0.16427320928E+01 -0.44097349758E+02  0.46930009322E+02  0.47000000000E+01 0. -1.
<mgrwt>
<rscale>  0 0.26057390E+03</rscale>
<asrwt>0</asrwt>
<pdfrwt beam="1">  1       21 0.22778327E-01 0.26057390E+03</pdfrwt>
<pdfrwt beam="2">  1       21 0.17638161E-01 0.26057390E+03</pdfrwt>
<totfact> 0.52022952E+05</totfact>
</mgrwt>
</event>
<event>
 8    1  0.4760912E-006  0.3525866E+03  0.7546771E-02  0.1061558E+00
         21   -1    0    0  504  503  0.00000000000E+00  0.00000000000E+00  0.30356127444E+03  0.30356127444E+03  0.00000000000E+00 0. -1.
         21   -1    0    0  503  504 -0.00000000000E+00 -0.00000000000E+00 -0.10238236236E+03  0.10238236236E+03  0.00000000000E+00 0. -1.
         25    2    1    2    0    0  0.12104592079E+03  0.14554016670E+02  0.72597806865E+02  0.18909812419E+03  0.12499489857E+03 0.  0.
         25    2    1    2    0    0 -0.12104592079E+03 -0.14554016670E+02  0.12858110522E+03  0.21684551262E+03  0.12499976553E+03 0.  0.
          5    1    3    3  501    0  0.50345190301E+02 -0.50697469132E+01  0.98752451895E+02  0.11106069186E+03  0.47000000000E+01 0.  1.
         -5    1    3    3    0  501  0.70700730486E+02  0.19623763584E+02 -0.26154645030E+02  0.78037432333E+02  0.47000000000E+01 0.  1.
          5    1    4    4  502    0 -0.82534757200E+02 -0.22254719890E+02  0.35259532646E+01  0.85684193699E+02  0.47000000000E+01 0.  1.
         -5    1    4    4    0  502 -0.38511163587E+02  0.77007032195E+01  0.12505515195E+03  0.13116131892E+03  0.47000000000E+01 0.  1.
<mgrwt>
<rscale>  0 0.35258656E+03</rscale>
<asrwt>0</asrwt>
<pdfrwt beam="1">  1       21 0.46701734E-01 0.35258656E+03</pdfrwt>
<pdfrwt beam="2">  1       21 0.15751133E-01 0.35258656E+03</pdfrwt>
<totfact> 0.15077242E+05</totfact>
</mgrwt>
</event>
<event>
 8    1  0.4760912E-006  0.3296488E+03  0.7546771E-02  0.1071292E+00
         21   -1    0    0  504  503  0.00000000000E+00  0.00000000000E+00  0.32182922422E+02  0.32182922422E+02  0.00000000000E+00 0.  1.
         21   -1    0    0  503  504 -0.00000000000E+00 -0.00000000000E+00 -0.84414616025E+03  0.84414616025E+03  0.00000000000E+00 0.  1.
         25    2    1    2    0    0  0.46756343573E+02  0.40569342946E+02 -0.63940882648E+03  0.65444418736E+03  0.12498607816E+03 0.  0.
         25    2    1    2    0    0 -0.46756343573E+02 -0.40569342946E+02 -0.17255441135E+03  0.22188489531E+03  0.12500341852E+03 0.  0.
          5    1    3    3  501    0 -0.67968984266E+01 -0.31041328633E+02 -0.35069769086E+03  0.35216575967E+03  0.47000000000E+01 0.  1.
         -5    1    3    3    0  501  0.53553242000E+02  0.71610671579E+02 -0.28871113562E+03  0.30227842768E+03  0.47000000000E+01 0.  1.
          5    1    4    4  502    0  0.13133944908E+02 -0.37296065103E+02 -0.72371496538E+00  0.39826005880E+02  0.47000000000E+01 0. -1.
         -5    1    4    4    0  502 -0.59890288482E+02 -0.32732778433E+01 -0.17183069638E+03  0.18205888943E+03  0.47000000000E+01 0. -1.
<mgrwt>
<rscale>  0 0.32964885E+03</rscale>
<asrwt>0</asrwt>
<pdfrwt beam="1">  1       21 0.49512183E-02 0.32964885E+03</pdfrwt>
<pdfrwt beam="2">  1       21 0.12986865E+00 0.32964885E+03</pdfrwt>
<totfact> 0.11285758E+05</totfact>
</mgrwt>
</event>
<event>
 8    1  0.4760912E-006  0.2771016E+03  0.7546771E-02  0.1097283E+00
         21   -1    0    0  504  503  0.00000000000E+00  0.00000000000E+00  0.10204631887E+03  0.10204631887E+03  0.00000000000E+00 0.  1.
         21   -1    0    0  503  504 -0.00000000000E+00 -0.00000000000E+00 -0.18811388202E+03  0.18811388202E+03  0.00000000000E+00 0.  1.
         25    2    1    2    0    0 -0.30601970474E+02  0.42180331194E+02 -0.12442329334E+02  0.13598594112E+03  0.12498681406E+03 0.  0.
         25    2    1    2    0    0  0.30601970474E+02 -0.42180331194E+02 -0.73625233817E+02  0.15417425977E+03  0.12503346106E+03 0.  0.
          5    1    3    3  501    0  0.33717858710E+02 -0.23143487296E+02 -0.15890612790E+02  0.44126143895E+02  0.47000000000E+01 0.  1.
         -5    1    3    3    0  501 -0.64319829184E+02  0.65323818489E+02  0.34482834567E+01  0.91859797230E+02  0.47000000000E+01 0.  1.
          5    1    4    4  502    0  0.11564107593E+02 -0.49235140266E+02 -0.10492429540E+03  0.11657197513E+03  0.47000000000E+01 0. -1.
         -5    1    4    4    0  502  0.19037862881E+02  0.70548090725E+01  0.31299061579E+02  0.37602284636E+02  0.47000000000E+01 0. -1.
<mgrwt>
<rscale>  0 0.27710164E+03</rscale>
<asrwt>0</asrwt>
<pdfrwt beam="1">  1       21 0.15699434E-01 0.27710164E+03</pdfrwt>
<pdfrwt beam="2">  1       21 0.28940597E-01 0.27710164E+03</pdfrwt>
<totfact> 0.40533438E+05</totfact>
</mgrwt>
</event>
<event>
 8    1  0.4760912E-006  0.4240419E+03  0.7546771E-02  0.1035759E+00
         21   -1    0    0  504  503  0.00000000000E+00  0.00000000000E+00  0.40686626094E+03  0.40686626094E+03  0.00000000000E+00 0.  1.
         21   -1    0    0  503  504 -0.00000000000E+00 -0.00000000000E+00 -0.11048565087E+03  0.11048565087E+03  0.00000000000E+00 0.  1.
         25    2    1    2    0    0  0.52821009965E+02  0.11249145892E+02  0.34647248422E+03  0.37227100061E+03  0.12500365274E+03 0.  0.
         25    2    1    2    0    0 -0.52821009965E+02 -0.11249145892E+02 -0.50091874150E+02  0.14508091120E+03  0.12499068990E+03 0.  0.
          5    1    3    3  501    0  0.82796658268E+02  0.40211859365E+02  0.26613863944E+03  0.28164542542E+03  0.47000000000E+01 0.  1.
         -5    1    3    3    0  501 -0.29975648304E+02 -0.28962713472E+02  0.80333844775E+02  0.90625575194E+02  0.47000000000E+01 0.  1.
          5    1    4    4  502    0 -0.52469971561E+02 -0.87755820094E+01  0.32368234687E+02  0.62449190322E+02  0.47000000000E+01 0.  1.
         -5    1    4    4    0  502 -0.35103840389E+00 -0.24735638828E+01 -0.82460108837E+02  0.82631720880E+02  0.47000000000E+01 0.  1.
<mgrwt>
<rscale>  0 0.42404190E+03</rscale>
<asrwt>0</asrwt>
<pdfrwt beam="1">  1       21 0.62594808E-01 0.42404190E+03</pdfrwt>
<pdfrwt beam="2">  1       21 0.16997793E-01 0.42404190E+03</pdfrwt>
<totfact> 0.68692527E+04</totfact>
</mgrwt>
</event>
<event>
 8    1  0.4760912E-006  0.2715196E+03  0.7546771E-02  0.1100413E+00
         21   -1    0    0  504  503  0.00000000000E+00  0.00000000000E+00  0.38342013833E+02  0.38342013833E+02  0.00000000000E+00 0.  1.
         21   -1    0    0  503  504 -0.00000000000E+00 -0.00000000000E+00 -0.48069259187E+03  0.48069259187E+03  0.00000000000E+00 0.  1.
         25    2    1    2    0    0 -0.50471775917E+02  0.14496714501E+02 -0.20806862190E+03  0.24834719329E+03  0.12500488829E+03 0.  0.
         25    2    1    2    0    0  0.50471775917E+02 -0.14496714501E+02 -0.23428195613E+03  0.27068741242E+03  0.12500434143E+03 0.  0.
          5    1    3    3  501    0 -0.32532748179E+01  0.61396176271E+02 -0.14027989394E+03  0.15323385038E+03  0.47000000000E+01 0.  1.
         -5    1    3    3    0  501 -0.47218501099E+02 -0.46899461770E+02 -0.67788727967E+02  0.95113342911E+02  0.47000000000E+01 0.  1.
          5    1    4    4  502    0 -0.22439460055E+02 -0.49295593057E+02 -0.10297391281E+03  0.11644441413E+03  0.47000000000E+01 0.  1.
         -5    1    4    4    0  502  0.72911235972E+02  0.34798878556E+02 -0.13130804333E+03  0.15424299829E+03  0.47000000000E+01 0.  1.
<mgrwt>
<rscale>  0 0.27151959E+03</rscale>
<asrwt>0</asrwt>
<pdfrwt beam="1">  1       21 0.58987711E-02 0.27151959E+03</pdfrwt>
<pdfrwt beam="2">  1       21 0.73952710E-01 0.27151959E+03</pdfrwt>
<totfact> 0.32653200E+05</totfact>
</mgrwt>
</event>
<event>
 8    1  0.4760912E-006  0.3124028E+03  0.7546771E-02  0.1079200E+00
         21   -1    0    0  504  503  0.00000000000E+00  0.00000000000E+00  0.57110703638E+02  0.57110703638E+02  0.00000000000E+00 0.  1.
         21   -1    0    0  503  504 -0.00000000000E+00 -0.00000000000E+00 -0.42722075228E+03  0.42722075228E+03  0.00000000000E+00 0.  1.
         25    2    1    2    0    0 -0.89183914528E+02 -0.28492252434E+02 -0.18941650694E+03  0.24549681014E+03  0.12499796649E+03 0.  0.
         25    2    1    2    0    0  0.89183914528E+02  0.28492252434E+02 -0.18069354171E+03  0.23883464579E+03  0.12500501171E+03 0.  0.
          5    1    3    3  501    0  0.28833655049E+02  0.95934909165E+01 -0.25789244512E+02  0.40132154988E+02  0.47000000000E+01 0. -1.
         -5    1    3    3    0  501 -0.11801756958E+03 -0.38085743350E+02 -0.16362726242E+03  0.20536465515E+03  0.47000000000E+01 0. -1.
          5    1    4    4  502    0  0.77865024182E+02  0.67607111876E+02 -0.16563038200E+03  0.19516453829E+03  0.47000000000E+01 0. -1.
         -5    1    4    4    0  502  0.11318890345E+02 -0.39114859442E+02 -0.15063159711E+02  0.43670107491E+02  0.47000000000E+01 0. -1.
<mgrwt>
<rscale>  0 0.31240280E+03</rscale>
<asrwt>0</asrwt>
<pdfrwt beam="1">  1       21 0.87862619E-02 0.31240280E+03</pdfrwt>
<pdfrwt beam="2">  1       21 0.65726271E-01 0.31240280E+03</pdfrwt>
<totfact> 0.20988264E+05</totfact>
</mgrwt>
</event>
<event>
 8    1  0.4760912E-006  0.3587391E+03  0.7546771E-02  0.1059084E+00
         21   -1    0    0  504  503  0.00000000000E+00  0.00000000000E+00  0.27495746455E+02  0.27495746455E+02  0.00000000000E+00 0.  1.
         21   -1    0    0  503  504 -0.00000000000E+00 -0.00000000000E+00 -0.11701243250E+04  0.11701243250E+04  0.00000000000E+00 0.  1.
         25    2    1    2    0    0 -0.72217808941E+02 -0.52155594410E+02 -0.26148420028E+03  0.30320469860E+03  0.12499393706E+03 0.  0.
         25    2    1    2    0    0  0.72217808941E+02  0.52155594410E+02 -0.88114437823E+03  0.89441537282E+03  0.12501130305E+03 0.  0.
          5    1    3    3  501    0 -0.43303640321E+02 -0.93228469374E+02 -0.16932650626E+03  0.19814214214E+03  0.47000000000E+01 0.  1.
         -5    1    3    3    0  501 -0.28914168620E+02  0.41072874964E+02 -0.92157694019E+02  0.10506255647E+03  0.47000000000E+01 0.  1.
          5    1    4    4  502    0  0.90957443287E+02 -0.23678991345E+01 -0.42771814655E+03  0.43731426495E+03  0.47000000000E+01 0. -1.
         -5    1    4    4    0  502 -0.18739634346E+02  0.54523493545E+02 -0.45342623168E+03  0.45710110788E+03  0.47000000000E+01 0. -1.
<mgrwt>
<rscale>  0 0.35873914E+03</rscale>
<asrwt>0</asrwt>
<pdfrwt beam="1">  1       21 0.42301149E-02 0.35873914E+03</pdfrwt>
<pdfrwt beam="2">  1       21 0.18001913E+00 0.35873914E+03</pdfrwt>
<totfact> 0.60261107E+04</totfact>
</mgrwt>
</event>
<event>
 8    1  0.4760912E-006  0.2515637E+03  0.7546771E-02  0.1112321E+00
         21   -1    0    0  504  503  0.00000000000E+00  0.00000000000E+00  0.10435035354E+03  0.10435035354E+03  0.00000000000E+00 0. -1.
         21   -1    0    0  503  504 -0.00000000000E+00 -0.00000000000E+00 -0.15161495883E+03  0.15161495883E+03  0.00000000000E+00 0. -1.
         25    2    1    2    0    0 -0.57555099601E+01  0.26085799124E+01 -0.10525000461E+02  0.12560346071E+03  0.12500209248E+03 0.  0.
         25    2    1    2    0    0  0.57555099601E+01 -0.26085799124E+01 -0.36739604835E+02  0.13036185165E+03  0.12491790592E+03 0.  0.
          5    1    3    3  501    0  0.30663559460E+02  0.44365606022E+02  0.24987963453E+02  0.59624233278E+02  0.47000000000E+01 0.  1.
         -5    1    3    3    0  501 -0.36419069421E+02 -0.41757026109E+02 -0.35512963914E+02  0.65979227435E+02  0.47000000000E+01 0.  1.
          5    1    4    4  502    0 -0.52374685184E+02  0.11281264045E+02  0.95459329255E+01  0.54622242740E+02  0.47000000000E+01 0.  1.
         -5    1    4    4    0  502  0.58130195144E+02 -0.13889843957E+02 -0.46285537761E+02  0.75739608914E+02  0.47000000000E+01 0.  1.
<mgrwt>
<rscale>  0 0.25156371E+03</rscale>
<asrwt>0</asrwt>
<pdfrwt beam="1">  1       21 0.16053901E-01 0.25156371E+03</pdfrwt>
<pdfrwt beam="2">  1       21 0.23325378E-01 0.25156371E+03</pdfrwt>
<totfact> 0.59268886E+05</totfact>
</mgrwt>
</event>
<event>
 8    1  0.4760912E-006  0.3001645E+03  0.7546771E-02  0.1085158E+00
         21   -1    0    0  504  503  0.00000000000E+00  0.00000000000E+00  0.24079952937E+02  0.24079952937E+02  0.00000000000E+00 0.  1.
         21   -1    0    0  503  504 -0.00000000000E+00 -0.00000000000E+00 -0.93541242235E+03  0.93541242235E+03  0.00000000000E+00 0.  1.
         25    2    1    2    0    0  0.49115102982E+02  0.77548475286E+01 -0.24299718146E+03  0.27775072868E+03  0.12500162433E+03 0.  0.
         25    2    1    2    0    0 -0.49115102982E+02 -0.77548475286E+01 -0.66833528795E+03  0.68174164660E+03  0.12500873806E+03 0.  0.
          5    1    3    3  501    0  0.37102589188E+02  0.13013970375E+02 -0.25579039718E+03  0.25883736755E+03  0.47000000000E+01 0.  1.
         -5    1    3    3    0  501  0.12012513794E+02 -0.52591228464E+01  0.12793215722E+02  0.18913361131E+02  0.47000000000E+01 0.  1.
          5    1    4    4  502    0 -0.49234459658E+02 -0.60846412046E+02 -0.46348500795E+03  0.47007101642E+03  0.47000000000E+01 0. -1.
         -5    1    4    4    0  502  0.11935667586E+00  0.53091564518E+02 -0.20485027999E+03  0.21167063018E+03  0.47000000000E+01 0. -1.
<mgrwt>
<rscale>  0 0.30016454E+03</rscale>
<asrwt>0</asrwt>
<pdfrwt beam="1">  1       21 0.37046088E-02 0.30016454E+03</pdfrwt>
<pdfrwt beam="2">  1       21 0.14390958E+00 0.30016454E+03</pdfrwt>
<totfact> 0.14263649E+05</totfact>
</mgrwt>
</event>
<event>
 8    1  0.4760912E-006  0.2893750E+03  0.7546771E-02  0.1090676E+00
         21   -1    0    0  504  503  0.00000000000E+00  0.00000000000E+00  0.20919385817E+03  0.20919385817E+03  0.00000000000E+00 0.  1.
         21   -1    0    0  503  504 -0.00000000000E+00 -0.00000000000E+00 -0.10007212897E+03  0.10007212897E+03  0.00000000000E+00 0.  1.
         25    2    1    2    0    0  0.32511924837E+02 -0.64800337380E+02  0.62402108332E+02  0.15739743410E+03  0.12499528054E+03 0.  0.
         25    2    1    2    0    0 -0.32511924837E+02  0.64800337380E+02  0.46719620865E+02  0.15186855304E+03  0.12500090179E+03 0.  0.
          5    1    3    3  501    0  0.26225003840E+02  0.90178162810E+01 -0.28494905146E+02  0.40038999191E+02  0.47000000000E+01 0. -1.
         -5    1    3    3    0  501  0.62869209966E+01 -0.73818153661E+02  0.90897013478E+02  0.11735843491E+03  0.47000000000E+01 0. -1.
          5    1    4    4  502    0 -0.70298586792E+02  0.37842784294E+02  0.63675715288E+02  0.10222844196E+03  0.47000000000E+01 0. -1.
         -5    1    4    4    0  502  0.37786661955E+02  0.26957553086E+02 -0.16956094423E+02  0.49640111082E+02  0.47000000000E+01 0. -1.
<mgrwt>
<rscale>  0 0.28937501E+03</rscale>
<asrwt>0</asrwt>
<pdfrwt beam="1">  1       21 0.32183670E-01 0.28937501E+03</pdfrwt>
<pdfrwt beam="2">  1       21 0.15395712E-01 0.28937501E+03</pdfrwt>
<totfact> 0.34004860E+05</totfact>
</mgrwt>
</event>
<event>
 8    1  0.4760912E-006  0.4118791E+03  0.7546771E-02  0.1039742E+00
         21   -1    0    0  504  503  0.00000000000E+00  0.00000000000E+00  0.13246561763E+04  0.13246561763E+04  0.00000000000E+00 0.  1.
         21   -1    0    0  503  504 -0.00000000000E+00 -0.00000000000E+00 -0.32016680421E+02  0.32016680421E+02  0.00000000000E+00 0.  1.
         25    2    1    2    0    0 -0.86571158955E+02 -0.30445571339E+02  0.19991301524E+03  0.25299776257E+03  0.12498462235E+03 0.  0.
         25    2    1    2    0    0  0.86571158955E+02  0.30445571339E+02  0.10927264806E+04  0.11036750942E+04  0.12500421431E+03 0.  0.
          5    1    3    3  501    0 -0.95837632532E+02 -0.29132575751E+02  0.21348000887E+03  0.23585877759E+03  0.47000000000E+01 0. -1.
         -5    1    3    3    0  501  0.92664735764E+01 -0.13129955880E+01 -0.13566993627E+02  0.17138984977E+02  0.47000000000E+01 0. -1.
          5    1    4    4  502    0  0.69748712388E+02  0.21098950601E+02  0.24339707210E+03  0.25411468534E+03  0.47000000000E+01 0.  1.
         -5    1    4    4    0  502  0.16822446567E+02  0.93466207383E+01  0.84932940854E+03  0.84956040882E+03  0.47000000000E+01 0.  1.
<mgrwt>
<rscale>  0 0.41187908E+03</rscale>
<asrwt>0</asrwt>
<pdfrwt beam="1">  1       21 0.20379322E+00 0.41187908E+03</pdfrwt>
<pdfrwt beam="2">  1       21 0.49256442E-02 0.41187908E+03</pdfrwt>
<totfact> 0.31480989E+04</totfact>
</mgrwt>
</event>
<event>
 8    1  0.4760912E-006  0.2968743E+03  0.7546771E-02  0.1086814E+00
         21   -1    0    0  504  503  0.00000000000E+00  0.00000000000E+00  0.70703904147E+03  0.70703904147E+03  0.00000000000E+00 0. -1.
         21   -1    0    0  503  504 -0.00000000000E+00 -0.00000000000E+00 -0.31163193925E+02  0.31163193925E+02  0.00000000000E+00 0. -1.
         25    2    1    2    0    0 -0.72300514002E+02  0.69067164824E+01  0.42166423629E+03  0.44575816902E+03  0.12499820007E+03 0.  0.
         25    2    1    2    0    0  0.72300514002E+02 -0.69067164824E+01  0.25421161125E+03  0.29244406638E+03  0.12499968642E+03 0.  0.
          5    1    3    3  501    0 -0.42433008699E+02  0.49073889148E+02  0.35686828131E+03  0.36274766302E+03  0.47000000000E+01 0.  1.
         -5    1    3    3    0  501 -0.29867505303E+02 -0.42167172666E+02  0.64795954981E+02  0.83010505995E+02  0.47000000000E+01 0.  1.
          5    1    4    4  502    0  0.97170556539E+02 -0.75817341873E+01  0.24780768449E+03  0.26632750185E+03  0.47000000000E+01 0. -1.
         -5    1    4    4    0  502 -0.24870042536E+02  0.67501770489E+00  0.64039267676E+01  0.26116564527E+02  0.47000000000E+01 0. -1.
<mgrwt>
<rscale>  0 0.29687435E+03</rscale>
<asrwt>0</asrwt>
<pdfrwt beam="1">  1       21 0.10877522E+00 0.29687435E+03</pdfrwt>
<pdfrwt beam="2">  1       21 0.47943381E-02 0.29687435E+03</pdfrwt>
<totfact> 0.18757265E+05</totfact>
</mgrwt>
</event>
<event>
 8    1  0.4760912E-006  0.2835448E+03  0.7546771E-02  0.1093768E+00
         21   -1    0    0  504  503  0.00000000000E+00  0.00000000000E+00  0.48667477945E+02  0.48667477945E+02  0.00000000000E+00 0. -1.
         21   -1    0    0  503  504 -0.00000000000E+00 -0.00000000000E+00 -0.41299472758E+03  0.41299472758E+03  0.00000000000E+00 0. -1.
         25    2    1    2    0    0  0.60959428539E+02  0.16552195086E+02 -0.21791453279E+03  0.25904789635E+03  0.12501616660E+03 0.  0.
         25    2    1    2    0    0 -0.60959428539E+02 -0.16552195086E+02 -0.14641271684E+03  0.20261430917E+03  0.12500339011E+03 0.  0.
          5    1    3    3  501    0 -0.16660672561E+02 -0.40033625915E+02 -0.60559785091E+02  0.74631406153E+02  0.47000000000E+01 0. -1.
         -5    1    3    3    0  501  0.77620101100E+02  0.56585821001E+02 -0.15735474770E+03  0.18441649020E+03  0.47000000000E+01 0. -1.
          5    1    4    4  502    0  0.22088825776E+02 -0.16687389803E+02 -0.10689805578E+03  0.11052452005E+03  0.47000000000E+01 0.  1.
         -5    1    4    4    0  502 -0.83048254315E+02  0.13519471637E+00 -0.39514661066E+02  0.92089789128E+02  0.47000000000E+01 0.  1.
<mgrwt>
<rscale>  0 0.28354479E+03</rscale>
<asrwt>0</asrwt>
<pdfrwt beam="1">  1       21 0.74873047E-02 0.28354479E+03</pdfrwt>
<pdfrwt beam="2">  1       21 0.63537647E-01 0.28354479E+03</pdfrwt>
<totfact> 0.30145974E+05</totfact>
</mgrwt>
</event>
<event>
 8    1  0.4760912E-006  0.4152870E+03  0.7546771E-02  0.1038611E+00
         21   -1    0    0  504  503  0.00000000000E+00  0.00000000000E+00  0.93705098428E+02  0.93705098428E+02  0.00000000000E+00 0. -1.
         21   -1    0    0  503  504 -0.00000000000E+00 -0.00000000000E+00 -0.46012249923E+03  0.46012249923E+03  0.00000000000E+00 0. -1.
         25    2    1    2    0    0  0.11533749969E+03  0.19578314352E+02 -0.26518046372E+02  0.17324738823E+03  0.12500160607E+03 0.  0.
         25    2    1    2    0    0 -0.11533749969E+03 -0.19578314352E+02 -0.33989935443E+03  0.38058020942E+03  0.12499470163E+03 0.  0.
          5    1    3    3  501    0  0.56147310523E+02  0.64020081842E+02  0.17418798930E+02  0.87043643732E+02  0.47000000000E+01 0.  1.
         -5    1    3    3    0  501  0.59190189165E+02 -0.44441767490E+02 -0.43936845302E+02  0.86203744502E+02  0.47000000000E+01 0.  1.
          5    1    4    4  502    0 -0.96275136485E+02  0.39478022813E+02 -0.25380753616E+03  0.27434972499E+03  0.47000000000E+01 0. -1.
         -5    1    4    4    0  502 -0.19062363203E+02 -0.59056337164E+02 -0.86091818267E+02  0.10623048443E+03  0.47000000000E+01 0. -1.
<mgrwt>
<rscale>  0 0.41528700E+03</rscale>
<asrwt>0</asrwt>
<pdfrwt beam="1">  1       21 0.14416169E-01 0.41528700E+03</pdfrwt>
<pdfrwt beam="2">  1       21 0.70788077E-01 0.41528700E+03</pdfrwt>
<totfact> 0.71072895E+04</totfact>
</mgrwt>
</event>
<event>
 8    1  0.4760912E-006  0.3118928E+03  0.7546771E-02  0.1079442E+00
         21   -1    0    0  504  503  0.00000000000E+00  0.00000000000E+00  0.59054359457E+03  0.59054359457E+03  0.00000000000E+00 0. -1.
         21   -1    0    0  503  504 -0.00000000000E+00 -0.00000000000E+00 -0.41181176375E+02  0.41181176375E+02  0.00000000000E+00 0. -1.
         25    2    1    2    0    0 -0.58142281222E+02 -0.55751948929E+02  0.17955441952E+03  0.23313802097E+03  0.12499897030E+03 0.  0.
         25    2    1    2    0    0  0.58142281222E+02  0.55751948929E+02  0.36980799867E+03  0.39858674997E+03  0.12499854678E+03 0.  0.
          5    1    3    3  501    0 -0.56410281213E+02 -0.89242080359E+02  0.16574034686E+03  0.19656607365E+03  0.47000000000E+01 0.  1.
         -5    1    3    3    0  501 -0.17320000083E+01  0.33490131430E+02  0.13814072663E+02  0.36571947320E+02  0.47000000000E+01 0.  1.
          5    1    4    4  502    0  0.39521261063E+02  0.95518159669E+02  0.23628017738E+03  0.25794584921E+03  0.47000000000E+01 0.  1.
         -5    1    4    4    0  502  0.18621020159E+02 -0.39766210739E+02  0.13352782129E+03  0.14064090076E+03  0.47000000000E+01 0.  1.
<mgrwt>
<rscale>  0 0.31189280E+03</rscale>
<asrwt>0</asrwt>
<pdfrwt beam="1">  1       21 0.90852855E-01 0.31189280E+03</pdfrwt>
<pdfrwt beam="2">  1       21 0.63355660E-02 0.31189280E+03</pdfrwt>
<totfact> 0.17819718E+05</totfact>
</mgrwt>
</event>
<event>
 8    1  0.4760912E-006  0.3620863E+03  0.7546771E-02  0.1057761E+00
         21   -1    0    0  504  503  0.00000000000E+00  0.00000000000E+00  0.17046810772E+03  0.17046810772E+03  0.00000000000E+00 0.  1.
         21   -1    0    0  503  504 -0.00000000000E+00 -0.00000000000E+00 -0.19227422759E+03  0.19227422759E+03  0.00000000000E+00 0.  1.
         25    2    1    2    0    0  0.48535421927E+02 -0.38964790921E+02 -0.12634196926E+03  0.18831388265E+03  0.12500353230E+03 0.  0.
         25    2    1    2    0    0 -0.48535421927E+02  0.38964790921E+02  0.10453584940E+03  0.17442845266E+03  0.12499439658E+03 0.  0.
          5    1    3    3  501    0  0.11466804858E+02 -0.61983657513E+02 -0.12971611737E+03  0.14429768715E+03  0.47000000000E+01 0.  1.
         -5    1    3    3    0  501  0.37068617069E+02  0.23018866593E+02  0.33741481051E+01  0.44016195497E+02  0.47000000000E+01 0.  1.
          5    1    4    4  502    0 -0.51074165152E+01 -0.39793667958E+02  0.63962753573E+02  0.75650152396E+02  0.47000000000E+01 0. -1.
         -5    1    4    4    0  502 -0.43428005412E+02  0.78758458878E+02  0.40573095823E+02  0.98778300267E+02  0.47000000000E+01 0. -1.
<mgrwt>
<rscale>  0 0.36208631E+03</rscale>
<asrwt>0</asrwt>
<pdfrwt beam="1">  1       21 0.26225863E-01 0.36208631E+03</pdfrwt>
<pdfrwt beam="2">  1       21 0.29580650E-01 0.36208631E+03</pdfrwt>
<totfact> 0.14457828E+05</totfact>
</mgrwt>
</event>
<event>
 8    1  0.4760912E-006  0.2826837E+03  0.7546771E-02  0.1094232E+00
         21   -1    0    0  504  503  0.00000000000E+00  0.00000000000E+00  0.10682224698E+03  0.10682224698E+03  0.00000000000E+00 0. -1.
         21   -1    0    0  503  504 -0.00000000000E+00 -0.00000000000E+00 -0.18701648129E+03  0.18701648129E+03  0.00000000000E+00 0. -1.
         25    2    1    2    0    0  0.27319409526E+02  0.35674084439E+02  0.10110122994E+02  0.13321484744E+03  0.12499996222E+03 0.  0.
         25    2    1    2    0    0 -0.27319409526E+02 -0.35674084439E+02 -0.90304357304E+02  0.16062388083E+03  0.12500465474E+03 0.  0.
          5    1    3    3  501    0  0.43040856202E+02  0.74125944428E+02  0.24042649354E+02  0.89147686049E+02  0.47000000000E+01 0.  1.
         -5    1    3    3    0  501 -0.15721446677E+02 -0.38451859989E+02 -0.13932526360E+02  0.44067161391E+02  0.47000000000E+01 0.  1.
          5    1    4    4  502    0 -0.34537053065E+02  0.38894288535E+02 -0.15095707954E+02  0.54364916203E+02  0.47000000000E+01 0.  1.
         -5    1    4    4    0  502  0.72176435391E+01 -0.74568372974E+02 -0.75208649350E+02  0.10625896463E+03  0.47000000000E+01 0.  1.
<mgrwt>
<rscale>  0 0.28268372E+03</rscale>
<asrwt>0</asrwt>
<pdfrwt beam="1">  1       21 0.16434192E-01 0.28268372E+03</pdfrwt>
<pdfrwt beam="2">  1       21 0.28771766E-01 0.28268372E+03</pdfrwt>
<totfact> 0.37640814E+05</totfact>
</mgrwt>
</event>
<event>
 8    1  0.4760912E-006  0.2624378E+03  0.7546771E-02  0.1105687E+00
         21   -1    0    0  504  503  0.00000000000E+00  0.00000000000E+00  0.16590132820E+02  0.16590132820E+02  0.00000000000E+00 0.  1.
         21   -1    0    0  503  504 -0.00000000000E+00 -0.00000000000E+00 -0.10378698341E+04  0.10378698341E+04  0.00000000000E+00 0.  1.
         25    2    1    2    0    0  0.19839664942E+02  0.23567945205E+02 -0.61264800441E+03  0.62602733849E+03  0.12499436342E+03 0.  0.
         25    2    1    2    0    0 -0.19839664942E+02 -0.23567945205E+02 -0.40863169684E+03  0.42843262840E+03  0.12500237225E+03 0.  0.
          5    1    3    3  501    0  0.65171034822E+02  0.42583263045E+01 -0.48000172831E+03  0.48444725854E+03  0.47000000000E+01 0. -1.
         -5    1    3    3    0  501 -0.45331369880E+02  0.19309618901E+02 -0.13264627610E+03  0.14158007996E+03  0.47000000000E+01 0. -1.
          5    1    4    4  502    0 -0.29135422240E+01 -0.69620499207E+02 -0.15431127879E+03  0.16937993801E+03  0.47000000000E+01 0.  1.
         -5    1    4    4    0  502 -0.16926122718E+02  0.46052554002E+02 -0.25432041805E+03  0.25905269039E+03  0.47000000000E+01 0.  1.
<mgrwt>
<rscale>  0 0.26243779E+03</rscale>
<asrwt>0</asrwt>
<pdfrwt beam="1">  1       21 0.25523277E-02 0.26243779E+03</pdfrwt>
<pdfrwt beam="2">  1       21 0.15967231E+00 0.26243779E+03</pdfrwt>
<totfact> 0.20350502E+05</totfact>
</mgrwt>
</event>
<event>
 8    1  0.4760912E-006  0.4349392E+03  0.7546771E-02  0.1032311E+00
         21   -1    0    0  504  503  0.00000000000E+00  0.00000000000E+00  0.79769112028E+03  0.79769112028E+03  0.00000000000E+00 0. -1.
         21   -1    0    0  503  504 -0.00000000000E+00 -0.00000000000E+00 -0.59287382761E+02  0.59287382761E+02  0.00000000000E+00 0. -1.
         25    2    1    2    0    0 -0.11352236210E+03 -0.10269232666E+03  0.19040357943E+03  0.27442968378E+03  0.12500035052E+03 0.  0.
         25    2    1    2    0    0  0.11352236210E+03  0.10269232666E+03  0.54800015809E+03  0.58254881926E+03  0.12500365156E+03 0.  0.
          5    1    3    3  501    0  0.85632468831E-01 -0.78465340846E+02  0.99783038785E+02  0.12702583153E+03  0.47000000000E+01 0.  1.
         -5    1    3    3    0  501 -0.11360799457E+03 -0.24226985810E+02  0.90620540646E+02  0.14740385225E+03  0.47000000000E+01 0.  1.
          5    1    4    4  502    0  0.11864889224E+00 -0.12890867255E+02  0.17938048606E+03  0.17990452277E+03  0.47000000000E+01 0. -1.
         -5    1    4    4    0  502  0.11340371321E+03  0.11558319391E+03  0.36861967203E+03  0.40264429648E+03  0.47000000000E+01 0. -1.
<mgrwt>
<rscale>  0 0.43493916E+03</rscale>
<asrwt>0</asrwt>
<pdfrwt beam="1">  1       21 0.12272170E+00 0.43493916E+03</pdfrwt>
<pdfrwt beam="2">  1       21 0.91211364E-02 0.43493916E+03</pdfrwt>
<totfact> 0.43594114E+04</totfact>
</mgrwt>
</event>
<event>
 8    1  0.4760912E-006  0.3114574E+03  0.7546771E-02  0.1079649E+00
         21   -1    0    0  504  503  0.00000000000E+00  0.00000000000E+00  0.10127724029E+03  0.10127724029E+03  0.00000000000E+00 0. -1.
         21   -1    0    0  503  504 -0.00000000000E+00 -0.00000000000E+00 -0.23945580568E+03  0.23945580568E+03  0.00000000000E+00 0. -1.
         25    2    1    2    0    0  0.35661125281E+02 -0.37687039907E+02  0.15197351256E+02  0.13618618464E+03  0.12499475417E+03 0.  0.
         25    2    1    2    0    0 -0.35661125281E+02  0.37687039907E+02 -0.15337591664E+03  0.20454686133E+03  0.12499287116E+03 0.  0.
          5    1    3    3  501    0  0.45500835998E+02 -0.51045777683E+02  0.58159618223E+02  0.89892317178E+02  0.47000000000E+01 0.  1.
         -5    1    3    3    0  501 -0.98397107167E+01  0.13358737776E+02 -0.42962266966E+02  0.46293867465E+02  0.47000000000E+01 0.  1.
          5    1    4    4  502    0  0.79832562869E+01 -0.28238290289E+01 -0.14371084354E+03  0.14403681107E+03  0.47000000000E+01 0.  1.
         -5    1    4    4    0  502 -0.43644381568E+02  0.40510868936E+02 -0.96650730988E+01  0.60510050259E+02  0.47000000000E+01 0.  1.
<mgrwt>
<rscale>  0 0.31145737E+03</rscale>
<asrwt>0</asrwt>
<pdfrwt beam="1">  1       21 0.15581114E-01 0.31145737E+03</pdfrwt>
<pdfrwt beam="2">  1       21 0.36839354E-01 0.31145737E+03</pdfrwt>
<totfact> 0.25270641E+05</totfact>
</mgrwt>
</event>
<event>
 8    1  0.4760912E-006  0.2560424E+03  0.7546771E-02  0.1109545E+00
         21   -1    0    0  504  503  0.00000000000E+00  0.00000000000E+00  0.17941841498E+03  0.17941841498E+03  0.00000000000E+00 0. -1.
         21   -1    0    0  503  504 -0.00000000000E+00 -0.00000000000E+00 -0.91347553916E+02  0.91347553916E+02  0.00000000000E+00 0. -1.
         25    2    1    2    0    0 -0.15882350674E+02  0.43124093642E+01  0.67510116002E+02  0.14302289057E+03  0.12500834183E+03 0.  0.
         25    2    1    2    0    0  0.15882350674E+02 -0.43124093642E+01  0.20560745064E+02  0.12774307833E+03  0.12499881554E+03 0.  0.
          5    1    3    3  501    0 -0.16366034592E+02  0.63813048577E+02  0.30109527200E+02  0.72585300751E+02  0.47000000000E+01 0.  1.
         -5    1    3    3    0  501  0.48368391796E+00 -0.59500639213E+02  0.37400588802E+02  0.70437589820E+02  0.47000000000E+01 0.  1.
          5    1    4    4  502    0  0.59726426474E+02 -0.11776921181E+02  0.45858574710E+02  0.76361251733E+02  0.47000000000E+01 0. -1.
         -5    1    4    4    0  502 -0.43844075800E+02  0.74645118169E+01 -0.25297829646E+02  0.51381826595E+02  0.47000000000E+01 0. -1.
<mgrwt>
<rscale>  0 0.25604244E+03</rscale>
<asrwt>0</asrwt>
<pdfrwt beam="1">  1       21 0.27602833E-01 0.25604244E+03</pdfrwt>
<pdfrwt beam="2">  1       21 0.14053470E-01 0.25604244E+03</pdfrwt>
<totfact> 0.54661160E+05</totfact>
</mgrwt>
</event>
<event>
 8    1  0.4760912E-006  0.2770048E+03  0.7546771E-02  0.1097336E+00
         21   -1    0    0  504  503  0.00000000000E+00  0.00000000000E+00  0.14349365874E+03  0.14349365874E+03  0.00000000000E+00 0. -1.
         21   -1    0    0  503  504 -0.00000000000E+00 -0.00000000000E+00 -0.13368480304E+03  0.13368480304E+03  0.00000000000E+00 0. -1.
         25    2    1    2    0    0 -0.22795449097E+02 -0.34252262206E+02 -0.38289743649E+02  0.13707128269E+03  0.12501832707E+03 0.  0.
         25    2    1    2    0    0  0.22795449097E+02  0.34252262206E+02  0.48098599350E+02  0.14010717909E+03  0.12499478552E+03 0.  0.
          5    1    3    3  501    0 -0.26953836428E+02 -0.58555880205E+02  0.24756678140E+02  0.69211874107E+02  0.47000000000E+01 0.  1.
         -5    1    3    3    0  501  0.41583873315E+01  0.24303618000E+02 -0.63046421789E+02  0.67859408585E+02  0.47000000000E+01 0.  1.
          5    1    4    4  502    0  0.42897003083E+02  0.37544585872E+02  0.82179110067E+02  0.10012614510E+03  0.47000000000E+01 0. -1.
         -5    1    4    4    0  502 -0.20101553987E+02 -0.32923236662E+01 -0.34080510717E+02  0.39981033985E+02  0.47000000000E+01 0. -1.
<mgrwt>
<rscale>  0 0.27700485E+03</rscale>
<asrwt>0</asrwt>
<pdfrwt beam="1">  1       21 0.22075947E-01 0.27700485E+03</pdfrwt>
<pdfrwt beam="2">  1       21 0.20566893E-01 0.27700485E+03</pdfrwt>
<totfact> 0.41290558E+05</totfact>
</mgrwt>
</event>
<event>
 8    1  0.4760912E-006  0.7551128E+03  0.7546771E-02  0.9627363E-01
         21   -1    0    0  504  503  0.00000000000E+00  0.00000000000E+00  0.88562749534E+02  0.88562749534E+02  0.00000000000E+00 0. -1.
         21   -1    0    0  503  504 -0.00000000000E+00 -0.00000000000E+00 -0.16095801303E+04  0.16095801303E+04  0.00000000000E+00 0. -1.
         25    2    1    2    0    0 -0.34159617341E+03 -0.63654307256E+02 -0.93735322817E+03  0.10074702230E+04  0.12500143700E+03 0.  0.
         25    2    1    2    0    0  0.34159617341E+03  0.63654307256E+02 -0.58366415256E+03  0.69067265684E+03  0.12500023763E+03 0.  0.
          5    1    3    3  501    0 -0.12729518964E+03  0.10974640859E+02 -0.21338391635E+03  0.24875549000E+03  0.47000000000E+01 0.  1.
         -5    1    3    3    0  501 -0.21430098377E+03 -0.74628948115E+02 -0.72396931183E+03  0.75871473296E+03  0.47000000000E+01 0.  1.
          5    1    4    4  502    0  0.24619343470E+03  0.94897189707E+02 -0.36903675620E+03  0.45368149767E+03  0.47000000000E+01 0.  1.
         -5    1    4    4    0  502  0.95402738718E+02 -0.31242882451E+02 -0.21462739636E+03  0.23699115917E+03  0.47000000000E+01 0.  1.
<mgrwt>
<rscale>  0 0.75511282E+03</rscale>
<asrwt>0</asrwt>
<pdfrwt beam="1">  1       21 0.13625039E-01 0.75511282E+03</pdfrwt>
<pdfrwt beam="2">  1       21 0.24762770E+00 0.75511282E+03</pdfrwt>
<totfact> 0.24219080E+03</totfact>
</mgrwt>
</event>
<event>
 8    1  0.4760912E-006  0.2856329E+03  0.7546771E-02  0.1092652E+00
         21   -1    0    0  504  503  0.00000000000E+00  0.00000000000E+00  0.44642035733E+03  0.44642035733E+03  0.00000000000E+00 0.  1.
         21   -1    0    0  503  504 -0.00000000000E+00 -0.00000000000E+00 -0.45689091144E+02  0.45689091144E+02  0.00000000000E+00 0.  1.
         25    2    1    2    0    0 -0.34112793138E+02 -0.50551882490E+02  0.14451939299E+03  0.20057686926E+03  0.12500420014E+03 0.  0.
         25    2    1    2    0    0  0.34112793138E+02  0.50551882490E+02  0.25621187320E+03  0.29153257922E+03  0.12501018077E+03 0.  0.
          5    1    3    3  501    0 -0.58046414742E+02 -0.80560422740E+02  0.92725802370E+02  0.13593944388E+03  0.47000000000E+01 0.  1.
         -5    1    3    3    0  501  0.23933621604E+02  0.30008540249E+02  0.51793590617E+02  0.64637425382E+02  0.47000000000E+01 0.  1.
          5    1    4    4  502    0  0.33154576177E+02  0.32277840414E+02  0.13980769607E+02  0.48565798893E+02  0.47000000000E+01 0.  1.
         -5    1    4    4    0  502  0.95821696024E+00  0.18274042076E+02  0.24223110359E+03  0.24296678032E+03  0.47000000000E+01 0.  1.
<mgrwt>
<rscale>  0 0.28563291E+03</rscale>
<asrwt>0</asrwt>
<pdfrwt beam="1">  1       21 0.68680052E-01 0.28563291E+03</pdfrwt>
<pdfrwt beam="2">  1       21 0.70290912E-02 0.28563291E+03</pdfrwt>
<totfact> 0.28340135E+05</totfact>
</mgrwt>
</event>
<event>
 8    1  0.4760912E-006  0.4318619E+03  0.7546771E-02  0.1033273E+00
         21   -1    0    0  504  503  0.00000000000E+00  0.00000000000E+00  0.19910252986E+03  0.19910252986E+03  0.00000000000E+00 0. -1.
         21   -1    0    0  503  504 -0.00000000000E+00 -0.00000000000E+00 -0.23418176157E+03  0.23418176157E+03  0.00000000000E+00 0. -1.
         25    2    1    2    0    0  0.15481159809E+03  0.76103171926E+02 -0.52876529569E+02  0.21950420007E+03  0.12501137063E+03 0.  0.
         25    2    1    2    0    0 -0.15481159809E+03 -0.76103171926E+02  0.17797297863E+02  0.21378009137E+03  0.12500743967E+03 0.  0.
          5    1    3    3  501    0  0.24682880485E+02  0.60798177429E+02 -0.58837622116E+02  0.88258816806E+02  0.47000000000E+01 0.  1.
         -5    1    3    3    0  501  0.13012871761E+03  0.15304994497E+02  0.59610925475E+01  0.13124538326E+03  0.47000000000E+01 0.  1.
          5    1    4    4  502    0 -0.10675750307E+03 -0.10560955924E+03 -0.10316026128E+02  0.15059566348E+03  0.47000000000E+01 0.  1.
         -5    1    4    4    0  502 -0.48054095026E+02  0.29506387319E+02  0.28113323991E+02  0.63184427886E+02  0.47000000000E+01 0.  1.
<mgrwt>
<rscale>  0 0.43186193E+03</rscale>
<asrwt>0</asrwt>
<pdfrwt beam="1">  1       21 0.30631159E-01 0.43186193E+03</pdfrwt>
<pdfrwt beam="2">  1       21 0.36027963E-01 0.43186193E+03</pdfrwt>
<totfact> 0.70743177E+04</totfact>
</mgrwt>
</event>
<event>
 8    1  0.4760912E-006  0.2735360E+03  0.7546771E-02  0.1099273E+00
         21   -1    0    0  504  503  0.00000000000E+00  0.00000000000E+00  0.59106775232E+02  0.59106775232E+02  0.00000000000E+00 0. -1.
         21   -1    0    0  503  504 -0.00000000000E+00 -0.00000000000E+00 -0.31646946805E+03  0.31646946805E+03  0.00000000000E+00 0. -1.
         25    2    1    2    0    0 -0.24455185281E+02 -0.34878677717E+02 -0.17755680314E+03  0.22128591415E+03  0.12500583673E+03 0.  0.
         25    2    1    2    0    0  0.24455185281E+02  0.34878677717E+02 -0.79805889685E+02  0.15429032913E+03  0.12498778896E+03 0.  0.
          5    1    3    3  501    0 -0.50958288693E+02  0.25992788649E+02 -0.12108278222E+03  0.13399814326E+03  0.47000000000E+01 0. -1.
         -5    1    3    3    0  501  0.26503103412E+02 -0.60871466366E+02 -0.56474020917E+02  0.87287770887E+02  0.47000000000E+01 0. -1.
          5    1    4    4  502    0 -0.44255231772E+02  0.35765174889E+02 -0.13465806006E+02  0.58660814906E+02  0.47000000000E+01 0. -1.
         -5    1    4    4    0  502  0.68710417053E+02 -0.88649717121E+00 -0.66340083679E+02  0.95629514228E+02  0.47000000000E+01 0. -1.
<mgrwt>
<rscale>  0 0.27353603E+03</rscale>
<asrwt>0</asrwt>
<pdfrwt beam="1">  1       21 0.90933500E-02 0.27353603E+03</pdfrwt>
<pdfrwt beam="2">  1       21 0.48687611E-01 0.27353603E+03</pdfrwt>
<totfact> 0.37944152E+05</totfact>
</mgrwt>
</event>
<event>
 8    1  0.4760912E-006  0.3126701E+03  0.7546771E-02  0.1079073E+00
         21   -1    0    0  504  503  0.00000000000E+00  0.00000000000E+00  0.51429635844E+02  0.51429635844E+02  0.00000000000E+00 0. -1.
         21   -1    0    0  503  504 -0.00000000000E+00 -0.00000000000E+00 -0.47522504769E+03  0.47522504769E+03  0.00000000000E+00 0. -1.
         25    2    1    2    0    0  0.43592960626E+02  0.22790390350E+02 -0.77193124434E+02  0.15493200145E+03  0.12500159401E+03 0.  0.
         25    2    1    2    0    0 -0.43592960626E+02 -0.22790390350E+02 -0.34660228741E+03  0.37172268208E+03  0.12499943450E+03 0.  0.
          5    1    3    3  501    0 -0.26904545882E+02 -0.14395743375E+02  0.13850463035E+02  0.33838104892E+02  0.47000000000E+01 0. -1.
         -5    1    3    3    0  501  0.70497506508E+02  0.37186133725E+02 -0.91043587469E+02  0.12109389656E+03  0.47000000000E+01 0. -1.
          5    1    4    4  502    0 -0.39476849489E+02 -0.41023164956E+02 -0.54397062260E+02  0.78882520821E+02  0.47000000000E+01 0. -1.
         -5    1    4    4    0  502 -0.41161111368E+01  0.18232774606E+02 -0.29220522515E+03  0.29284016126E+03  0.47000000000E+01 0. -1.
<mgrwt>
<rscale>  0 0.31267012E+03</rscale>
<asrwt>0</asrwt>
<pdfrwt beam="1">  1       21 0.79122518E-02 0.31267012E+03</pdfrwt>
<pdfrwt beam="2">  1       21 0.73111545E-01 0.31267012E+03</pdfrwt>
<totfact> 0.19913419E+05</totfact>
</mgrwt>
</event>
<event>
 8    1  0.4760912E-006  0.2765006E+03  0.7546771E-02  0.1097616E+00
         21   -1    0    0  504  503  0.00000000000E+00  0.00000000000E+00  0.79414162366E+02  0.79414162366E+02  0.00000000000E+00 0. -1.
         21   -1    0    0  503  504 -0.00000000000E+00 -0.00000000000E+00 -0.24067685914E+03  0.24067685914E+03  0.00000000000E+00 0. -1.
         25    2    1    2    0    0 -0.14861652216E+02 -0.43623788683E+02 -0.12334015742E+03  0.18155229982E+03  0.12499815795E+03 0.  0.
         25    2    1    2    0    0  0.14861652216E+02  0.43623788683E+02 -0.37922539356E+02  0.13853872169E+03  0.12502381681E+03 0.  0.
          5    1    3    3  501    0  0.36689703690E+02 -0.61129198717E+02 -0.39969726959E+02  0.81869300509E+02  0.47000000000E+01 0.  1.
         -5    1    3    3    0  501 -0.51551355906E+02  0.17505410034E+02 -0.83370430464E+02  0.99682999313E+02  0.47000000000E+01 0.  1.
          5    1    4    4  502    0 -0.41835192461E+02  0.17284921363E+02  0.23113188550E+02  0.51041760547E+02  0.47000000000E+01 0. -1.
         -5    1    4    4    0  502  0.56696844677E+02  0.26338867320E+02 -0.61035727906E+02  0.87496961141E+02  0.47000000000E+01 0. -1.
<mgrwt>
<rscale>  0 0.27650064E+03</rscale>
<asrwt>0</asrwt>
<pdfrwt beam="1">  1       21 0.12217563E-01 0.27650064E+03</pdfrwt>
<pdfrwt beam="2">  1       21 0.37027209E-01 0.27650064E+03</pdfrwt>
<totfact> 0.39262528E+05</totfact>
</mgrwt>
</event>
<event>
 8    1  0.4760912E-006  0.2779369E+03  0.7546771E-02  0.1096821E+00
         21   -1    0    0  504  503  0.00000000000E+00  0.00000000000E+00  0.56534355677E+02  0.56534355677E+02  0.00000000000E+00 0. -1.
         21   -1    0    0  503  504 -0.00000000000E+00 -0.00000000000E+00 -0.34160161221E+03  0.34160161221E+03  0.00000000000E+00 0. -1.
         25    2    1    2    0    0  0.18801759832E+02 -0.47687339783E+01 -0.22498778522E+03  0.25810630942E+03  0.12499246563E+03 0.  0.
         25    2    1    2    0    0 -0.18801759832E+02  0.47687339783E+01 -0.60079471310E+02  0.14002965847E+03  0.12499006113E+03 0.  0.
          5    1    3    3  501    0 -0.23453851071E+02  0.50944644564E+02 -0.94531205415E+02  0.11001672026E+03  0.47000000000E+01 0.  1.
         -5    1    3    3    0  501  0.42255610903E+02 -0.55713378543E+02 -0.13045657981E+03  0.14808958916E+03  0.47000000000E+01 0.  1.
          5    1    4    4  502    0 -0.16317621478E+02 -0.46571272946E+01 -0.98527087337E+02  0.10008811390E+03  0.47000000000E+01 0. -1.
         -5    1    4    4    0  502 -0.24841383547E+01  0.94258612729E+01  0.38447616028E+02  0.39941544566E+02  0.47000000000E+01 0. -1.
<mgrwt>
<rscale>  0 0.27793688E+03</rscale>
<asrwt>0</asrwt>
<pdfrwt beam="1">  1       21 0.86975934E-02 0.27793688E+03</pdfrwt>
<pdfrwt beam="2">  1       21 0.52554093E-01 0.27793688E+03</pdfrwt>
<totfact> 0.34911963E+05</totfact>
</mgrwt>
</event>
<event>
 8    1  0.4760912E-006  0.2779942E+03  0.7546771E-02  0.1096790E+00
         21   -1    0    0  504  503  0.00000000000E+00  0.00000000000E+00  0.44389096131E+02  0.44389096131E+02  0.00000000000E+00 0.  1.
         21   -1    0    0  503  504 -0.00000000000E+00 -0.00000000000E+00 -0.43524631407E+03  0.43524631407E+03  0.00000000000E+00 0.  1.
         25    2    1    2    0    0  0.51464586441E+02  0.23615364542E+02 -0.15726271311E+03  0.20871650602E+03  0.12499891941E+03 0.  0.
         25    2    1    2    0    0 -0.51464586441E+02 -0.23615364542E+02 -0.23359450483E+03  0.27091890417E+03  0.12499748338E+03 0.  0.
          5    1    3    3  501    0  0.87597315749E+02  0.56413762392E+01 -0.69690416097E+02  0.11217824632E+03  0.47000000000E+01 0. -1.
         -5    1    3    3    0  501 -0.36132729308E+02  0.17973988303E+02 -0.87572297008E+02  0.96538259701E+02  0.47000000000E+01 0. -1.
          5    1    4    4  502    0  0.49421774975E+00 -0.68328150994E+02 -0.11409746052E+03  0.13307629754E+03  0.47000000000E+01 0. -1.
         -5    1    4    4    0  502 -0.51958804191E+02  0.44712786452E+02 -0.11949704431E+03  0.13784260664E+03  0.47000000000E+01 0. -1.
<mgrwt>
<rscale>  0 0.27799418E+03</rscale>
<asrwt>0</asrwt>
<pdfrwt beam="1">  1       21 0.68290915E-02 0.27799418E+03</pdfrwt>
<pdfrwt beam="2">  1       21 0.66960973E-01 0.27799418E+03</pdfrwt>
<totfact> 0.31572647E+05</totfact>
</mgrwt>
</event>
<event>
 8    1  0.4760912E-006  0.3045151E+03  0.7546771E-02  0.1083005E+00
         21   -1    0    0  504  503  0.00000000000E+00  0.00000000000E+00  0.10971329492E+04  0.10971329492E+04  0.00000000000E+00 0.  1.
         21   -1    0    0  503  504 -0.00000000000E+00 -0.00000000000E+00 -0.21129949774E+02  0.21129949774E+02  0.00000000000E+00 0.  1.
         25    2    1    2    0    0  0.76532247770E+01 -0.85418153508E+02  0.48617342209E+03  0.50926615393E+03  0.12503034191E+03 0.  0.
         25    2    1    2    0    0 -0.76532247770E+01  0.85418153508E+02  0.58982957733E+03  0.60899674504E+03  0.12499308930E+03 0.  0.
          5    1    3    3  501    0  0.58722763241E+02 -0.20920070765E+02  0.13840487774E+03  0.15186840510E+03  0.47000000000E+01 0.  1.
         -5    1    3    3    0  501 -0.51069538464E+02 -0.64498082743E+02  0.34776854435E+03  0.35739774884E+03  0.47000000000E+01 0.  1.
          5    1    4    4  502    0  0.54613620152E+02  0.14257690910E+02  0.23871657646E+03  0.24534388750E+03  0.47000000000E+01 0. -1.
         -5    1    4    4    0  502 -0.62266844929E+02  0.71160462599E+02  0.35111300087E+03  0.36365285754E+03  0.47000000000E+01 0. -1.
<mgrwt>
<rscale>  0 0.30451512E+03</rscale>
<asrwt>0</asrwt>
<pdfrwt beam="1">  1       21 0.16878964E+00 0.30451512E+03</pdfrwt>
<pdfrwt beam="2">  1       21 0.32507624E-02 0.30451512E+03</pdfrwt>
<totfact> 0.11503292E+05</totfact>
</mgrwt>
</event>
<event>
 8    1  0.4760912E-006  0.3099737E+03  0.7546771E-02  0.1080358E+00
         21   -1    0    0  504  503  0.00000000000E+00  0.00000000000E+00  0.46856210430E+02  0.46856210430E+02  0.00000000000E+00 0. -1.
         21   -1    0    0  503  504 -0.00000000000E+00 -0.00000000000E+00 -0.51265174511E+03  0.51265174511E+03  0.00000000000E+00 0. -1.
         25    2    1    2    0    0 -0.94760786160E+01  0.80664146580E+02 -0.15640658449E+03  0.21606782424E+03  0.12500313752E+03 0.  0.
         25    2    1    2    0    0  0.94760786160E+01 -0.80664146580E+02 -0.30938895019E+03  0.34344013130E+03  0.12503239852E+03 0.  0.
          5    1    3    3  501    0  0.43482586018E+02  0.45184304907E+01 -0.14167461552E+02  0.46194788318E+02  0.47000000000E+01 0.  1.
         -5    1    3    3    0  501 -0.52958664634E+02  0.76145716089E+02 -0.14223912294E+03  0.16987303592E+03  0.47000000000E+01 0.  1.
          5    1    4    4  502    0 -0.48225979441E+02 -0.32946466062E+02 -0.21514056279E+03  0.22297705370E+03  0.47000000000E+01 0.  1.
         -5    1    4    4    0  502  0.57702058057E+02 -0.47717680518E+02 -0.94248387399E+02  0.12046307760E+03  0.47000000000E+01 0.  1.
<mgrwt>
<rscale>  0 0.30997366E+03</rscale>
<asrwt>0</asrwt>
<pdfrwt beam="1">  1       21 0.72086478E-02 0.30997366E+03</pdfrwt>
<pdfrwt beam="2">  1       21 0.78869499E-01 0.30997366E+03</pdfrwt>
<totfact> 0.19756411E+05</totfact>
</mgrwt>
</event>
<event>
 8    1  0.4760912E-006  0.4843502E+03  0.7546771E-02  0.1017946E+00
         21   -1    0    0  504  503  0.00000000000E+00  0.00000000000E+00  0.34189018575E+02  0.34189018575E+02  0.00000000000E+00 0. -1.
         21   -1    0    0  503  504 -0.00000000000E+00 -0.00000000000E+00 -0.17154275529E+04  0.17154275529E+04  0.00000000000E+00 0. -1.
         25    2    1    2    0    0 -0.13216814604E+03  0.13734140732E+03 -0.11361317890E+04  0.11587719714E+04  0.12500383446E+03 0.  0.
         25    2    1    2    0    0  0.13216814604E+03 -0.13734140732E+03 -0.54510674528E+03  0.59084460008E+03  0.12499958679E+03 0.  0.
          5    1    3    3  501    0 -0.29284844531E+01 -0.16767695991E+02 -0.22507168279E+03  0.22576333636E+03  0.47000000000E+01 0. -1.
         -5    1    3    3    0  501 -0.12923966159E+03  0.15410910331E+03 -0.91106010622E+03  0.93300863501E+03  0.47000000000E+01 0. -1.
          5    1    4    4  502    0  0.97398928503E+02 -0.15113246219E+03 -0.36590726955E+03  0.40772269045E+03  0.47000000000E+01 0. -1.
         -5    1    4    4    0  502  0.34769217537E+02  0.13791054870E+02 -0.17919947573E+03  0.18312190962E+03  0.47000000000E+01 0. -1.
<mgrwt>
<rscale>  0 0.48435022E+03</rscale>
<asrwt>0</asrwt>
<pdfrwt beam="1">  1       21 0.52598489E-02 0.48435022E+03</pdfrwt>
<pdfrwt beam="2">  1       21 0.26391194E+00 0.48435022E+03</pdfrwt>
<totfact> 0.11477046E+04</totfact>
</mgrwt>
</event>
<event>
 8    1  0.4760912E-006  0.3018696E+03  0.7546771E-02  0.1084310E+00
         21   -1    0    0  504  503  0.00000000000E+00  0.00000000000E+00  0.54336294143E+03  0.54336294143E+03  0.00000000000E+00 0.  1.
         21   -1    0    0  503  504 -0.00000000000E+00 -0.00000000000E+00 -0.41926507871E+02  0.41926507871E+02  0.00000000000E+00 0.  1.
         25    2    1    2    0    0 -0.12559171166E+02  0.62113075550E+02  0.35939443385E+03  0.38575077058E+03  0.12499412381E+03 0.  0.
         25    2    1    2    0    0  0.12559171166E+02 -0.62113075550E+02  0.14204199971E+03  0.19953867872E+03  0.12499595069E+03 0.  0.
          5    1    3    3  501    0 -0.48475961636E+01  0.29794755715E+02  0.64613691428E+01  0.31226045986E+02  0.47000000000E+01 0. -1.
         -5    1    3    3    0  501 -0.77115750019E+01  0.32318319834E+02  0.35293306471E+03  0.35452472460E+03  0.47000000000E+01 0. -1.
          5    1    4    4  502    0 -0.31289356604E+02  0.18581589619E+02  0.89523220051E+01  0.37769476813E+02  0.47000000000E+01 0. -1.
         -5    1    4    4    0  502  0.43848527770E+02 -0.80694665168E+02  0.13308967770E+03  0.16176920191E+03  0.47000000000E+01 0. -1.
<mgrwt>
<rscale>  0 0.30186958E+03</rscale>
<asrwt>0</asrwt>
<pdfrwt beam="1">  1       21 0.83594294E-01 0.30186958E+03</pdfrwt>
<pdfrwt beam="2">  1       21 0.64502324E-02 0.30186958E+03</pdfrwt>
<totfact> 0.21020263E+05</totfact>
</mgrwt>
</event>
<event>
 8    1  0.4760912E-006  0.4628390E+03  0.7546771E-02  0.1023961E+00
         21   -1    0    0  504  503  0.00000000000E+00  0.00000000000E+00  0.25653099408E+03  0.25653099408E+03  0.00000000000E+00 0.  1.
         21   -1    0    0  503  504 -0.00000000000E+00 -0.00000000000E+00 -0.20876617168E+03  0.20876617168E+03  0.00000000000E+00 0.  1.
         25    2    1    2    0    0  0.13865709881E+03  0.97237137913E+02 -0.72794480738E+02  0.22272043324E+03  0.12499801166E+03 0.  0.
         25    2    1    2    0    0 -0.13865709881E+03 -0.97237137913E+02  0.12055930314E+03  0.24257673253E+03  0.12501229360E+03 0.  0.
          5    1    3    3  501    0 -0.22939221616E+02  0.41500756562E+01 -0.11010922941E+02  0.26206133639E+02  0.47000000000E+01 0.  1.
         -5    1    3    3    0  501  0.16159632042E+03  0.93087062257E+02 -0.61783557798E+02  0.19651429960E+03  0.47000000000E+01 0.  1.
          5    1    4    4  502    0 -0.10638207853E+03 -0.11872793134E+03  0.59763608434E+02  0.17031514085E+03  0.47000000000E+01 0.  1.
         -5    1    4    4    0  502 -0.32275020279E+02  0.21490793423E+02  0.60795694707E+02  0.72261591672E+02  0.47000000000E+01 0.  1.
<mgrwt>
<rscale>  0 0.46283904E+03</rscale>
<asrwt>0</asrwt>
<pdfrwt beam="1">  1       21 0.39466307E-01 0.46283904E+03</pdfrwt>
<pdfrwt beam="2">  1       21 0.32117872E-01 0.46283904E+03</pdfrwt>
<totfact> 0.53079152E+04</totfact>
</mgrwt>
</event>
<event>
 8    1  0.4760912E-006  0.2680599E+03  0.7546771E-02  0.1102395E+00
         21   -1    0    0  504  503  0.00000000000E+00  0.00000000000E+00  0.29104759843E+03  0.29104759843E+03  0.00000000000E+00 0. -1.
         21   -1    0    0  503  504 -0.00000000000E+00 -0.00000000000E+00 -0.61721953962E+02  0.61721953962E+02  0.00000000000E+00 0. -1.
         25    2    1    2    0    0 -0.13715244733E+02 -0.44991388463E+02  0.99854294511E+02  0.16675695775E+03  0.12499867940E+03 0.  0.
         25    2    1    2    0    0  0.13715244733E+02  0.44991388463E+02  0.12947134996E+03  0.18601259464E+03  0.12500208771E+03 0.  0.
          5    1    3    3  501    0 -0.29627732285E+02 -0.84593070068E+02  0.58449794343E+02  0.10710862936E+03  0.47000000000E+01 0. -1.
         -5    1    3    3    0  501  0.15912487551E+02  0.39601681606E+02  0.41404500169E+02  0.59648328395E+02  0.47000000000E+01 0. -1.
          5    1    4    4  502    0 -0.46467588800E+02  0.41447584997E+02  0.29234775847E+02  0.68948540448E+02  0.47000000000E+01 0.  1.
         -5    1    4    4    0  502  0.60182833534E+02  0.35438034657E+01  0.10023657411E+03  0.11706405419E+03  0.47000000000E+01 0.  1.
<mgrwt>
<rscale>  0 0.26805989E+03</rscale>
<asrwt>0</asrwt>
<pdfrwt beam="1">  1       21 0.44776553E-01 0.26805989E+03</pdfrwt>
<pdfrwt beam="2">  1       21 0.94956854E-02 0.26805989E+03</pdfrwt>
<totfact> 0.41879135E+05</totfact>
</mgrwt>
</event>
<event>
 8    1  0.4760912E-006  0.2961686E+03  0.7546771E-02  0.1087172E+00
         21   -1    0    0  504  503  0.00000000000E+00  0.00000000000E+00  0.11578482543E+02  0.11578482543E+02  0.00000000000E+00 0. -1.
         21   -1    0    0  503  504 -0.00000000000E+00 -0.00000000000E+00 -0.18939407572E+04  0.18939407572E+04  0.00000000000E+00 0. -1.
         25    2    1    2    0    0 -0.26423349344E+02  0.48137282333E+02 -0.13101217251E+04  0.13172163845E+04  0.12499871080E+03 0.  0.
         25    2    1    2    0    0  0.26423349344E+02 -0.48137282333E+02 -0.57224054961E+03  0.58830285529E+03  0.12500244630E+03 0.  0.
          5    1    3    3  501    0 -0.19780659974E+02  0.85199577298E+02 -0.11152682579E+04  0.11187026502E+04  0.47000000000E+01 0.  1.
         -5    1    3    3    0  501 -0.66426893697E+01 -0.37062294965E+02 -0.19485346714E+03  0.19851373425E+03  0.47000000000E+01 0.  1.
          5    1    4    4  502    0  0.49847678726E+02 -0.81160086298E+02 -0.42111690440E+03  0.43177921192E+03  0.47000000000E+01 0. -1.
         -5    1    4    4    0  502 -0.23424329382E+02  0.33022803965E+02 -0.15112364522E+03  0.15652364337E+03  0.47000000000E+01 0. -1.
<mgrwt>
<rscale>  0 0.29616860E+03</rscale>
<asrwt>0</asrwt>
<pdfrwt beam="1">  1       21 0.17813047E-02 0.29616860E+03</pdfrwt>
<pdfrwt beam="2">  1       21 0.29137555E+00 0.29616860E+03</pdfrwt>
<totfact> 0.52843821E+04</totfact>
</mgrwt>
</event>
<event>
 8    1  0.4760912E-006  0.2637450E+03  0.7546771E-02  0.1104914E+00
         21   -1    0    0  504  503  0.00000000000E+00  0.00000000000E+00  0.44759093312E+03  0.44759093312E+03  0.00000000000E+00 0.  1.
         21   -1    0    0  503  504 -0.00000000000E+00 -0.00000000000E+00 -0.38853223521E+02  0.38853223521E+02  0.00000000000E+00 0.  1.
         25    2    1    2    0    0  0.30952162864E+02  0.13202428026E+02  0.15778063068E+03  0.20406582150E+03  0.12496316096E+03 0.  0.
         25    2    1    2    0    0 -0.30952162864E+02 -0.13202428026E+02  0.25095707892E+03  0.28237833514E+03  0.12500291277E+03 0.  0.
          5    1    3    3  501    0 -0.33938556347E+02  0.42187891506E+02  0.44444390220E+02  0.70207105187E+02  0.47000000000E+01 0. -1.
         -5    1    3    3    0  501  0.64890719211E+02 -0.28985463480E+02  0.11333624046E+03  0.13385871632E+03  0.47000000000E+01 0. -1.
          5    1    4    4  502    0 -0.58821148436E+02  0.36179032463E+02  0.10539559044E+03  0.12609191242E+03  0.47000000000E+01 0.  1.
         -5    1    4    4    0  502  0.27868985572E+02 -0.49381460489E+02  0.14556148849E+03  0.15628642272E+03  0.47000000000E+01 0.  1.
<mgrwt>
<rscale>  0 0.26374496E+03</rscale>
<asrwt>0</asrwt>
<pdfrwt beam="1">  1       21 0.68860140E-01 0.26374496E+03</pdfrwt>
<pdfrwt beam="2">  1       21 0.59774193E-02 0.26374496E+03</pdfrwt>
<totfact> 0.37487547E+05</totfact>
</mgrwt>
</event>
<event>
 8    1  0.4760912E-006  0.2942656E+03  0.7546771E-02  0.1088143E+00
         21   -1    0    0  504  503  0.00000000000E+00  0.00000000000E+00  0.34290152568E+03  0.34290152568E+03  0.00000000000E+00 0. -1.
         21   -1    0    0  503  504 -0.00000000000E+00 -0.00000000000E+00 -0.63132006459E+02  0.63132006459E+02  0.00000000000E+00 0. -1.
         25    2    1    2    0    0 -0.51945971935E+02 -0.41703157400E+02  0.19480243847E+03  0.24086185260E+03  0.12501561770E+03 0.  0.
         25    2    1    2    0    0  0.51945971935E+02  0.41703157400E+02  0.84967080758E+02  0.16517167954E+03  0.12499896628E+03 0.  0.
          5    1    3    3  501    0 -0.26628653910E+02 -0.35087648765E+02  0.20694572530E+03  0.21163376745E+03  0.47000000000E+01 0.  1.
         -5    1    3    3    0  501 -0.25317318026E+02 -0.66155086353E+01 -0.12143286835E+02  0.29228085152E+02  0.47000000000E+01 0.  1.
          5    1    4    4  502    0  0.46532777353E+02 -0.38281597619E+02  0.45750645526E+02  0.75802319559E+02  0.47000000000E+01 0.  1.
         -5    1    4    4    0  502  0.54131945821E+01  0.79984755019E+02  0.39216435232E+02  0.89369359981E+02  0.47000000000E+01 0.  1.
<mgrwt>
<rscale>  0 0.29426560E+03</rscale>
<asrwt>0</asrwt>
<pdfrwt beam="1">  1       21 0.52754080E-01 0.29426560E+03</pdfrwt>
<pdfrwt beam="2">  1       21 0.97126166E-02 0.29426560E+03</pdfrwt>
<totfact> 0.28384382E+05</totfact>
</mgrwt>
</event>
<event>
 8    1  0.4760912E-006  0.2976433E+03  0.7546771E-02  0.1086425E+00
         21   -1    0    0  504  503  0.00000000000E+00  0.00000000000E+00  0.10689311420E+04  0.10689311420E+04  0.00000000000E+00 0. -1.
         21   -1    0    0  503  504 -0.00000000000E+00 -0.00000000000E+00 -0.20719657027E+02  0.20719657027E+02  0.00000000000E+00 0. -1.
         25    2    1    2    0    0  0.41651318754E+02 -0.11728694289E+02  0.77370213953E+03  0.78492904096E+03  0.12500481597E+03 0.  0.
         25    2    1    2    0    0 -0.41651318754E+02  0.11728694289E+02  0.27450934543E+03  0.30472175805E+03  0.12501029748E+03 0.  0.
          5    1    3    3  501    0  0.60600116808E+02 -0.56551438508E+02  0.51476732328E+03  0.52141914663E+03  0.47000000000E+01 0.  1.
         -5    1    3    3    0  501 -0.18948798054E+02  0.44822744219E+02  0.25893481624E+03  0.26350989433E+03  0.47000000000E+01 0.  1.
          5    1    4    4  502    0 -0.71150745429E+02  0.43839756869E+02  0.21560817040E+03  0.23128624257E+03  0.47000000000E+01 0. -1.
         -5    1    4    4    0  502  0.29499426676E+02 -0.32111062580E+02  0.58901175030E+02  0.73435515482E+02  0.47000000000E+01 0. -1.
<mgrwt>
<rscale>  0 0.29764332E+03</rscale>
<asrwt>0</asrwt>
<pdfrwt beam="1">  1       21 0.16445090E+00 0.29764332E+03</pdfrwt>
<pdfrwt beam="2">  1       21 0.31876404E-02 0.29764332E+03</pdfrwt>
<totfact> 0.12810597E+05</totfact>
</mgrwt>
</event>
<event>
 8    1  0.4760912E-006  0.3332313E+03  0.7546771E-02  0.1069716E+00
         21   -1    0    0  504  503  0.00000000000E+00  0.00000000000E+00  0.19616928872E+03  0.19616928872E+03  0.00000000000E+00 0.  1.
         21   -1    0    0  503  504 -0.00000000000E+00 -0.00000000000E+00 -0.14151438660E+03  0.14151438660E+03  0.00000000000E+00 0.  1.
         25    2    1    2    0    0 -0.82491641481E+02  0.49339651239E+02 -0.27246876157E+02  0.16002062375E+03  0.12499974266E+03 0.  0.
         25    2    1    2    0    0  0.82491641481E+02 -0.49339651239E+02  0.81901778278E+02  0.17766305157E+03  0.12496794192E+03 0.  0.
          5    1    3    3  501    0 -0.46017833540E+02  0.48376610153E+02  0.43816620190E+02  0.79999522614E+02  0.47000000000E+01 0.  1.
         -5    1    3    3    0  501 -0.36473807941E+02  0.96304108546E+00 -0.71063496346E+02  0.80021101135E+02  0.47000000000E+01 0.  1.
          5    1    4    4  502    0  0.98710632645E+02 -0.10130299889E+02  0.90190793045E+02  0.13417481553E+03  0.47000000000E+01 0. -1.
         -5    1    4    4    0  502 -0.16218991164E+02 -0.39209351350E+02 -0.82890147666E+01  0.43488236035E+02  0.47000000000E+01 0. -1.
<mgrwt>
<rscale>  0 0.33323131E+03</rscale>
<asrwt>0</asrwt>
<pdfrwt beam="1">  1       21 0.30179891E-01 0.33323131E+03</pdfrwt>
<pdfrwt beam="2">  1       21 0.21771444E-01 0.33323131E+03</pdfrwt>
<totfact> 0.20007361E+05</totfact>
</mgrwt>
</event>
<event>
 8    1  0.4760912E-006  0.2605059E+03  0.7546771E-02  0.1106840E+00
         21   -1    0    0  504  503  0.00000000000E+00  0.00000000000E+00  0.81343391800E+02  0.81343391800E+02  0.00000000000E+00 0. -1.
         21   -1    0    0  503  504 -0.00000000000E+00 -0.00000000000E+00 -0.20857046069E+03  0.20857046069E+03  0.00000000000E+00 0. -1.
         25    2    1    2    0    0  0.82838585569E+01  0.49675493912E+01 -0.10292728563E+03  0.16220948676E+03  0.12499837042E+03 0.  0.
         25    2    1    2    0    0 -0.82838585569E+01 -0.49675493912E+01 -0.24299783260E+02  0.12770436573E+03  0.12499850679E+03 0.  0.
          5    1    3    3  501    0  0.25749138267E+02  0.60914014366E+02 -0.59887182335E+02  0.89342598327E+02  0.47000000000E+01 0.  1.
         -5    1    3    3    0  501 -0.17465279710E+02 -0.55946464975E+02 -0.43040103298E+02  0.72866888437E+02  0.47000000000E+01 0.  1.
          5    1    4    4  502    0 -0.76578852089E+00  0.26973762991E+02  0.43974868444E+02  0.51807811927E+02  0.47000000000E+01 0.  1.
         -5    1    4    4    0  502 -0.75180700360E+01 -0.31941312383E+02 -0.68274651704E+02  0.75896553803E+02  0.47000000000E+01 0.  1.
<mgrwt>
<rscale>  0 0.26050588E+03</rscale>
<asrwt>0</asrwt>
<pdfrwt beam="1">  1       21 0.12514368E-01 0.26050588E+03</pdfrwt>
<pdfrwt beam="2">  1       21 0.32087763E-01 0.26050588E+03</pdfrwt>
<totfact> 0.50184946E+05</totfact>
</mgrwt>
</event>
<event>
 8    1  0.4760912E-006  0.2521382E+03  0.7546771E-02  0.1111961E+00
         21   -1    0    0  504  503  0.00000000000E+00  0.00000000000E+00  0.37441555975E+03  0.37441555975E+03  0.00000000000E+00 0.  1.
         21   -1    0    0  503  504 -0.00000000000E+00 -0.00000000000E+00 -0.42448599983E+02  0.42448599983E+02  0.00000000000E+00 0.  1.
         25    2    1    2    0    0  0.13461859876E+02 -0.92608718127E+01  0.16678448604E+03  0.20906778800E+03  0.12500115911E+03 0.  0.
         25    2    1    2    0    0 -0.13461859876E+02  0.92608718127E+01  0.16518247373E+03  0.20779637173E+03  0.12500838796E+03 0.  0.
          5    1    3    3  501    0 -0.12735448286E+02  0.49638771843E+02  0.34848755623E+02  0.62150825269E+02  0.47000000000E+01 0.  1.
         -5    1    3    3    0  501  0.26197308162E+02 -0.58899643655E+02  0.13193573042E+03  0.14691696273E+03  0.47000000000E+01 0.  1.
          5    1    4    4  502    0 -0.37525338966E+02 -0.91741461798E+01  0.17202091322E+03  0.17636779924E+03  0.47000000000E+01 0. -1.
         -5    1    4    4    0  502  0.24063479090E+02  0.18435017993E+02 -0.68384394947E+01  0.31428572494E+02  0.47000000000E+01 0. -1.
<mgrwt>
<rscale>  0 0.25213819E+03</rscale>
<asrwt>0</asrwt>
<pdfrwt beam="1">  1       21 0.57602392E-01 0.25213819E+03</pdfrwt>
<pdfrwt beam="2">  1       21 0.65305541E-02 0.25213819E+03</pdfrwt>
<totfact> 0.47602670E+05</totfact>
</mgrwt>
</event>
<event>
 8    1  0.4760912E-006  0.2825701E+03  0.7546771E-02  0.1094293E+00
         21   -1    0    0  504  503  0.00000000000E+00  0.00000000000E+00  0.11630067572E+03  0.11630067572E+03  0.00000000000E+00 0. -1.
         21   -1    0    0  503  504 -0.00000000000E+00 -0.00000000000E+00 -0.17163670102E+03  0.17163670102E+03  0.00000000000E+00 0. -1.
         25    2    1    2    0    0  0.88884377329E+01  0.61640545564E+01  0.38529111206E+02  0.13125169861E+03  0.12500206432E+03 0.  0.
         25    2    1    2    0    0 -0.88884377329E+01 -0.61640545564E+01 -0.93865136501E+02  0.15668567813E+03  0.12499095163E+03 0.  0.
          5    1    3    3  501    0 -0.21613951929E+02 -0.50945036131E+02 -0.43404697974E+00  0.55541318144E+02  0.47000000000E+01 0. -1.
         -5    1    3    3    0  501  0.30502389661E+02  0.57109090687E+02  0.38963158186E+02  0.75710380464E+02  0.47000000000E+01 0. -1.
          5    1    4    4  502    0 -0.32680498473E+02 -0.58817246924E+02 -0.48563839825E+02  0.83114499665E+02  0.47000000000E+01 0. -1.
         -5    1    4    4    0  502  0.23792060740E+02  0.52653192367E+02 -0.45301296676E+02  0.73571178469E+02  0.47000000000E+01 0. -1.
<mgrwt>
<rscale>  0 0.28257009E+03</rscale>
<asrwt>0</asrwt>
<pdfrwt beam="1">  1       21 0.17892412E-01 0.28257009E+03</pdfrwt>
<pdfrwt beam="2">  1       21 0.26405646E-01 0.28257009E+03</pdfrwt>
<totfact> 0.37990615E+05</totfact>
</mgrwt>
</event>
<event>
 8    1  0.4760912E-006  0.3331205E+03  0.7546771E-02  0.1069764E+00
         21   -1    0    0  504  503  0.00000000000E+00  0.00000000000E+00  0.49432522390E+02  0.49432522390E+02  0.00000000000E+00 0.  1.
         21   -1    0    0  503  504 -0.00000000000E+00 -0.00000000000E+00 -0.56121575465E+03  0.56121575465E+03  0.00000000000E+00 0.  1.
         25    2    1    2    0    0  0.10928616199E+03 -0.13027927422E+02 -0.25918444972E+03  0.30808303077E+03  0.12500153109E+03 0.  0.
         25    2    1    2    0    0 -0.10928616199E+03  0.13027927422E+02 -0.25259878254E+03  0.30256524627E+03  0.12500556474E+03 0.  0.
          5    1    3    3  501    0  0.45142189067E+01  0.25421874562E+02 -0.14860070152E+03  0.15090032594E+03  0.47000000000E+01 0.  1.
         -5    1    3    3    0  501  0.10477194308E+03 -0.38449801984E+02 -0.11058374820E+03  0.15718270483E+03  0.47000000000E+01 0.  1.
          5    1    4    4  502    0 -0.54553681334E+02  0.49260140743E+02 -0.48668207971E+02  0.88279952878E+02  0.47000000000E+01 0.  1.
         -5    1    4    4    0  502 -0.54732480653E+02 -0.36232213321E+02 -0.20393057457E+03  0.21428529340E+03  0.47000000000E+01 0.  1.
<mgrwt>
<rscale>  0 0.33312046E+03</rscale>
<asrwt>0</asrwt>
<pdfrwt beam="1">  1       21 0.76050031E-02 0.33312046E+03</pdfrwt>
<pdfrwt beam="2">  1       21 0.86340889E-01 0.33312046E+03</pdfrwt>
<totfact> 0.14520896E+05</totfact>
</mgrwt>
</event>
<event>
 8    1  0.4760912E-006  0.2970760E+03  0.7546771E-02  0.1086712E+00
         21   -1    0    0  504  503  0.00000000000E+00  0.00000000000E+00  0.23716028495E+04  0.23716028495E+04  0.00000000000E+00 0. -1.
         21   -1    0    0  503  504 -0.00000000000E+00 -0.00000000000E+00 -0.93032152492E+01  0.93032152492E+01  0.00000000000E+00 0. -1.
         25    2    1    2    0    0  0.63140895944E+02  0.47708451259E+02  0.12877124547E+04  0.12961830047E+04  0.12499658617E+03 0.  0.
         25    2    1    2    0    0 -0.63140895944E+02 -0.47708451259E+02  0.10745871795E+04  0.10847230601E+04  0.12499456605E+03 0.  0.
          5    1    3    3  501    0 -0.25762066538E+02  0.42210933249E+01  0.77345785507E+02  0.81767733470E+02  0.47000000000E+01 0.  1.
         -5    1    3    3    0  501  0.88902962482E+02  0.43487357934E+02  0.12103666692E+04  0.12144152712E+04  0.47000000000E+01 0.  1.
          5    1    4    4  502    0 -0.47736970865E+02  0.33736984056E+02  0.60665244007E+03  0.60948033235E+03  0.47000000000E+01 0.  1.
         -5    1    4    4    0  502 -0.15403925079E+02 -0.81445435315E+02  0.46793473947E+03  0.47524272771E+03  0.47000000000E+01 0.  1.
<mgrwt>
<rscale>  0 0.29707596E+03</rscale>
<asrwt>0</asrwt>
<pdfrwt beam="1">  1       21 0.36486149E+00 0.29707596E+03</pdfrwt>
<pdfrwt beam="2">  1       21 0.14312658E-02 0.29707596E+03</pdfrwt>
<totfact> 0.27508987E+04</totfact>
</mgrwt>
</event>
<event>
 8    1  0.4760912E-006  0.6184623E+03  0.7546771E-02  0.9867826E-01
         21   -1    0    0  504  503  0.00000000000E+00  0.00000000000E+00  0.26263778738E+03  0.26263778738E+03  0.00000000000E+00 0. -1.
         21   -1    0    0  503  504 -0.00000000000E+00 -0.00000000000E+00 -0.36409043021E+03  0.36409043021E+03  0.00000000000E+00 0. -1.
         25    2    1    2    0    0 -0.15263671601E+03  0.18449235621E+02 -0.29130419578E+03  0.35230886709E+03  0.12500024793E+03 0.  0.
         25    2    1    2    0    0  0.15263671601E+03 -0.18449235621E+02  0.18985155296E+03  0.27441935050E+03  0.12499610555E+03 0.  0.
          5    1    3    3  501    0 -0.47431361942E+02 -0.42937718323E+02 -0.47811449907E+02  0.80008790096E+02  0.47000000000E+01 0.  1.
         -5    1    3    3    0  501 -0.10520535406E+03  0.61386953944E+02 -0.24349274587E+03  0.27230007699E+03  0.47000000000E+01 0.  1.
          5    1    4    4  502    0  0.10968890160E+02  0.23213858492E+02 -0.81753450337E+01  0.27351892875E+02  0.47000000000E+01 0. -1.
         -5    1    4    4    0  502  0.14166782585E+03 -0.41663094113E+02  0.19802689799E+03  0.24706745763E+03  0.47000000000E+01 0. -1.
<mgrwt>
<rscale>  0 0.61846230E+03</rscale>
<asrwt>0</asrwt>
<pdfrwt beam="1">  1       21 0.40405813E-01 0.61846230E+03</pdfrwt>
<pdfrwt beam="2">  1       21 0.56013913E-01 0.61846230E+03</pdfrwt>
<totfact> 0.15349280E+04</totfact>
</mgrwt>
</event>
<event>
 8    1  0.4760912E-006  0.3054024E+03  0.7546771E-02  0.1082571E+00
         21   -1    0    0  504  503  0.00000000000E+00  0.00000000000E+00  0.88565218138E+02  0.88565218138E+02  0.00000000000E+00 0. -1.
         21   -1    0    0  503  504 -0.00000000000E+00 -0.00000000000E+00 -0.26328238608E+03  0.26328238608E+03  0.00000000000E+00 0. -1.
         25    2    1    2    0    0  0.48474211389E+02  0.39970050337E+02 -0.16852952953E+02  0.14091431040E+03  0.12500186703E+03 0.  0.
         25    2    1    2    0    0 -0.48474211389E+02 -0.39970050337E+02 -0.15786421499E+03  0.21093329382E+03  0.12499755986E+03 0.  0.
          5    1    3    3  501    0 -0.29618822797E+02 -0.49133919766E+01  0.26975136075E+02  0.40634517973E+02  0.47000000000E+01 0.  1.
         -5    1    3    3    0  501  0.78093034186E+02  0.44883442314E+02 -0.43828089028E+02  0.10027979243E+03  0.47000000000E+01 0.  1.
          5    1    4    4  502    0 -0.80388598203E+02 -0.58836307173E+02 -0.94623996872E+02  0.13747664728E+03  0.47000000000E+01 0.  1.
         -5    1    4    4    0  502  0.31914386814E+02  0.18866256836E+02 -0.63240218119E+02  0.73456646537E+02  0.47000000000E+01 0.  1.
<mgrwt>
<rscale>  0 0.30540244E+03</rscale>
<asrwt>0</asrwt>
<pdfrwt beam="1">  1       21 0.13625419E-01 0.30540244E+03</pdfrwt>
<pdfrwt beam="2">  1       21 0.40504981E-01 0.30540244E+03</pdfrwt>
<totfact> 0.26690042E+05</totfact>
</mgrwt>
</event>
<event>
 8    1  0.4760912E-006  0.2924900E+03  0.7546771E-02  0.1089056E+00
         21   -1    0    0  504  503  0.00000000000E+00  0.00000000000E+00  0.60751271111E+03  0.60751271111E+03  0.00000000000E+00 0.  1.
         21   -1    0    0  503  504 -0.00000000000E+00 -0.00000000000E+00 -0.35205187811E+02  0.35205187811E+02  0.00000000000E+00 0.  1.
         25    2    1    2    0    0  0.96445801036E+01 -0.75292517370E+02  0.28760887695E+03  0.32265441354E+03  0.12500009351E+03 0.  0.
         25    2    1    2    0    0 -0.96445801036E+01  0.75292517370E+02  0.28469864635E+03  0.32006348538E+03  0.12500133737E+03 0.  0.
          5    1    3    3  501    0 -0.44899594195E+02 -0.74155188735E+02  0.13486751608E+03  0.16039420959E+03  0.47000000000E+01 0.  1.
         -5    1    3    3    0  501  0.54544174298E+02 -0.11373286355E+01  0.15274136087E+03  0.16226020395E+03  0.47000000000E+01 0.  1.
          5    1    4    4  502    0  0.35987895615E+02  0.21352612309E+02  0.21060522166E+02  0.47081825338E+02  0.47000000000E+01 0. -1.
         -5    1    4    4    0  502 -0.45632475719E+02  0.53939905061E+02  0.26363812418E+03  0.27298166004E+03  0.47000000000E+01 0. -1.
<mgrwt>
<rscale>  0 0.29248999E+03</rscale>
<asrwt>0</asrwt>
<pdfrwt beam="1">  1       21 0.93463486E-01 0.29248999E+03</pdfrwt>
<pdfrwt beam="2">  1       21 0.54161832E-02 0.29248999E+03</pdfrwt>
<totfact> 0.21953170E+05</totfact>
</mgrwt>
</event>
<event>
 8    1  0.4760912E-006  0.2674636E+03  0.7546771E-02  0.1102740E+00
         21   -1    0    0  504  503  0.00000000000E+00  0.00000000000E+00  0.16934907554E+03  0.16934907554E+03  0.00000000000E+00 0. -1.
         21   -1    0    0  503  504 -0.00000000000E+00 -0.00000000000E+00 -0.10560546677E+03  0.10560546677E+03  0.00000000000E+00 0. -1.
         25    2    1    2    0    0 -0.31820444176E+02 -0.34849730771E+02  0.37721239627E+02  0.13883100431E+03  0.12499644570E+03 0.  0.
         25    2    1    2    0    0  0.31820444176E+02  0.34849730771E+02  0.26022369141E+02  0.13612353800E+03  0.12500163799E+03 0.  0.
          5    1    3    3  501    0 -0.73153942679E+02 -0.33367101784E+02  0.50769423217E+02  0.95207600247E+02  0.47000000000E+01 0. -1.
         -5    1    3    3    0  501  0.41333498503E+02 -0.14826289864E+01 -0.13048183590E+02  0.43623404065E+02  0.47000000000E+01 0. -1.
          5    1    4    4  502    0 -0.28590408979E+02 -0.64294000796E+01 -0.31242692707E+02  0.43092279106E+02  0.47000000000E+01 0. -1.
         -5    1    4    4    0  502  0.60410853154E+02  0.41279130850E+02  0.57265061849E+02  0.93031258892E+02  0.47000000000E+01 0. -1.
<mgrwt>
<rscale>  0 0.26746355E+03</rscale>
<asrwt>0</asrwt>
<pdfrwt beam="1">  1       21 0.26053704E-01 0.26746355E+03</pdfrwt>
<pdfrwt beam="2">  1       21 0.16246995E-01 0.26746355E+03</pdfrwt>
<totfact> 0.46757835E+05</totfact>
</mgrwt>
</event>
<event>
 8    1  0.4760912E-006  0.2651747E+03  0.7546771E-02  0.1104073E+00
         21   -1    0    0  504  503  0.00000000000E+00  0.00000000000E+00  0.56728459817E+02  0.56728459817E+02  0.00000000000E+00 0.  1.
         21   -1    0    0  503  504 -0.00000000000E+00 -0.00000000000E+00 -0.30988691264E+03  0.30988691264E+03  0.00000000000E+00 0.  1.
         25    2    1    2    0    0  0.35183626509E+02  0.82679227871E+01 -0.91226948219E+02  0.15888474262E+03  0.12496303148E+03 0.  0.
         25    2    1    2    0    0 -0.35183626509E+02 -0.82679227871E+01 -0.16193150461E+03  0.20773062983E+03  0.12499582499E+03 0.  0.
          5    1    3    3  501    0  0.26440174495E+02  0.55608923473E+02 -0.75237658567E+01  0.62210386993E+02  0.47000000000E+01 0.  1.
         -5    1    3    3    0  501  0.87434520141E+01 -0.47341000686E+02 -0.83703182362E+02  0.96674355631E+02  0.47000000000E+01 0.  1.
          5    1    4    4  502    0  0.39187817501E+02 -0.30301207644E+02 -0.84290355914E+02  0.97881572960E+02  0.47000000000E+01 0. -1.
         -5    1    4    4    0  502 -0.74371444010E+02  0.22033284857E+02 -0.77641148692E+02  0.10984905687E+03  0.47000000000E+01 0. -1.
<mgrwt>
<rscale>  0 0.26517471E+03</rscale>
<asrwt>0</asrwt>
<pdfrwt beam="1">  1       21 0.87274555E-02 0.26517471E+03</pdfrwt>
<pdfrwt beam="2">  1       21 0.47674909E-01 0.26517471E+03</pdfrwt>
<totfact> 0.42699878E+05</totfact>
</mgrwt>
</event>
<event>
 8    1  0.4760912E-006  0.5484180E+03  0.7546771E-02  0.1001861E+00
         21   -1    0    0  504  503  0.00000000000E+00  0.00000000000E+00  0.22262433067E+03  0.22262433067E+03  0.00000000000E+00 0.  1.
         21   -1    0    0  503  504 -0.00000000000E+00 -0.00000000000E+00 -0.33774649041E+03  0.33774649041E+03  0.00000000000E+00 0.  1.
         25    2    1    2    0    0  0.21666287000E+02 -0.15052237054E+03  0.13749093059E+03  0.24011340170E+03  0.12499711059E+03 0.  0.
         25    2    1    2    0    0 -0.21666287000E+02  0.15052237054E+03 -0.25261309033E+03  0.32025741937E+03  0.12500011692E+03 0.  0.
          5    1    3    3  501    0  0.23130825153E+02  0.26442571016E+01  0.67659294129E+02  0.71707023714E+02  0.47000000000E+01 0.  1.
         -5    1    3    3    0  501 -0.14645381525E+01 -0.15316662764E+03  0.69831636464E+02  0.16840637799E+03  0.47000000000E+01 0.  1.
          5    1    4    4  502    0  0.42059464273E+01  0.68028369275E+02 -0.21547212809E+03  0.22604397138E+03  0.47000000000E+01 0. -1.
         -5    1    4    4    0  502 -0.25872233427E+02  0.82494001264E+02 -0.37140962242E+02  0.94213447997E+02  0.47000000000E+01 0. -1.
<mgrwt>
<rscale>  0 0.54841804E+03</rscale>
<asrwt>0</asrwt>
<pdfrwt beam="1">  1       21 0.34249897E-01 0.54841804E+03</pdfrwt>
<pdfrwt beam="2">  1       21 0.51960998E-01 0.54841804E+03</pdfrwt>
<totfact> 0.25700149E+04</totfact>
</mgrwt>
</event>
<event>
 8    1  0.4760912E-006  0.3866091E+03  0.7546771E-02  0.1048518E+00
         21   -1    0    0  504  503  0.00000000000E+00  0.00000000000E+00  0.47091828572E+03  0.47091828572E+03  0.00000000000E+00 0. -1.
         21   -1    0    0  503  504 -0.00000000000E+00 -0.00000000000E+00 -0.79348482815E+02  0.79348482815E+02  0.00000000000E+00 0. -1.
         25    2    1    2    0    0  0.50038119480E+02 -0.13860035537E+03  0.18835143580E+03  0.26984465874E+03  0.12500401822E+03 0.  0.
         25    2    1    2    0    0 -0.50038119480E+02  0.13860035537E+03  0.20321836711E+03  0.28042210980E+03  0.12499993210E+03 0.  0.
          5    1    3    3  501    0  0.82399794774E+02 -0.71448198323E+02  0.15102191282E+03  0.18634451796E+03  0.47000000000E+01 0. -1.
         -5    1    3    3    0  501 -0.32361675294E+02 -0.67152157046E+02  0.37329522980E+02  0.83500140777E+02  0.47000000000E+01 0. -1.
          5    1    4    4  502    0 -0.61227467001E+02  0.28339146904E+02  0.28338683986E+02  0.73328582236E+02  0.47000000000E+01 0. -1.
         -5    1    4    4    0  502  0.11189347522E+02  0.11026120847E+03  0.17487968312E+03  0.20709352756E+03  0.47000000000E+01 0. -1.
<mgrwt>
<rscale>  0 0.38660911E+03</rscale>
<asrwt>0</asrwt>
<pdfrwt beam="1">  1       21 0.72448965E-01 0.38660911E+03</pdfrwt>
<pdfrwt beam="2">  1       21 0.12207459E-01 0.38660911E+03</pdfrwt>
<totfact> 0.92071566E+04</totfact>
</mgrwt>
</event>
<event>
 8    1  0.4760912E-006  0.2934778E+03  0.7546771E-02  0.1088547E+00
         21   -1    0    0  504  503  0.00000000000E+00  0.00000000000E+00  0.62739864663E+03  0.62739864663E+03  0.00000000000E+00 0.  1.
         21   -1    0    0  503  504 -0.00000000000E+00 -0.00000000000E+00 -0.34319979141E+02  0.34319979141E+02  0.00000000000E+00 0.  1.
         25    2    1    2    0    0  0.22370885179E+02 -0.55107481555E+02  0.18677355226E+03  0.23247630224E+03  0.12499432088E+03 0.  0.
         25    2    1    2    0    0 -0.22370885179E+02  0.55107481555E+02  0.40630511523E+03  0.42924232353E+03  0.12501133798E+03 0.  0.
          5    1    3    3  501    0  0.34246242889E+02  0.32794002823E+02  0.84561634575E+02  0.97061896824E+02  0.47000000000E+01 0. -1.
         -5    1    3    3    0  501 -0.11875357710E+02 -0.87901484378E+02  0.10221191768E+03  0.13541440541E+03  0.47000000000E+01 0. -1.
          5    1    4    4  502    0 -0.98886694372E+01 -0.33667018605E+02  0.21532266867E+03  0.21821364661E+03  0.47000000000E+01 0.  1.
         -5    1    4    4    0  502 -0.12482215741E+02  0.88774500161E+02  0.19098244656E+03  0.21102867692E+03  0.47000000000E+01 0.  1.
<mgrwt>
<rscale>  0 0.29347783E+03</rscale>
<asrwt>0</asrwt>
<pdfrwt beam="1">  1       21 0.96522860E-01 0.29347783E+03</pdfrwt>
<pdfrwt beam="2">  1       21 0.52799973E-02 0.29347783E+03</pdfrwt>
<totfact> 0.21243945E+05</totfact>
</mgrwt>
</event>
<event>
 8    1  0.4760912E-006  0.2894344E+03  0.7546771E-02  0.1090645E+00
         21   -1    0    0  504  503  0.00000000000E+00  0.00000000000E+00  0.30739983762E+03  0.30739983762E+03  0.00000000000E+00 0. -1.
         21   -1    0    0  503  504 -0.00000000000E+00 -0.00000000000E+00 -0.68129715311E+02  0.68129715311E+02  0.00000000000E+00 0. -1.
         25    2    1    2    0    0 -0.73213170896E+01  0.68042169283E+02  0.15238050469E+03  0.20863265166E+03  0.12499770656E+03 0.  0.
         25    2    1    2    0    0  0.73213170896E+01 -0.68042169283E+02  0.86889617620E+02  0.16689690127E+03  0.12498572525E+03 0.  0.
          5    1    3    3  501    0  0.20602497250E+02  0.18115639225E+02 -0.15046307141E+02  0.31640490452E+02  0.47000000000E+01 0. -1.
         -5    1    3    3    0  501 -0.27923814340E+02  0.49926530058E+02  0.16742681183E+03  0.17699216121E+03  0.47000000000E+01 0. -1.
          5    1    4    4  502    0  0.97301655323E+01  0.11780837277E+02 -0.24804687444E+02  0.29509774100E+02  0.47000000000E+01 0.  1.
         -5    1    4    4    0  502 -0.24088484427E+01 -0.79823006559E+02  0.11169430506E+03  0.13738712717E+03  0.47000000000E+01 0.  1.
<mgrwt>
<rscale>  0 0.28943437E+03</rscale>
<asrwt>0</asrwt>
<pdfrwt beam="1">  1       21 0.47292282E-01 0.28943437E+03</pdfrwt>
<pdfrwt beam="2">  1       21 0.10481495E-01 0.28943437E+03</pdfrwt>
<totfact> 0.31220845E+05</totfact>
</mgrwt>
</event>
<event>
 8    1  0.4760912E-006  0.3104002E+03  0.7546771E-02  0.1080154E+00
         21   -1    0    0  504  503  0.00000000000E+00  0.00000000000E+00  0.18475446377E+02  0.18475446377E+02  0.00000000000E+00 0.  1.
         21   -1    0    0  503  504 -0.00000000000E+00 -0.00000000000E+00 -0.13037343308E+04  0.13037343308E+04  0.00000000000E+00 0.  1.
         25    2    1    2    0    0  0.69639098736E+02 -0.60120775871E+02 -0.63811713429E+03  0.65671706055E+03  0.12497883331E+03 0.  0.
         25    2    1    2    0    0 -0.69639098736E+02  0.60120775871E+02 -0.64714175011E+03  0.66549271661E+03  0.12499599736E+03 0.  0.
          5    1    3    3  501    0  0.99333391761E+02 -0.48881222896E+02 -0.57842351747E+03  0.58894172227E+03  0.47000000000E+01 0.  1.
         -5    1    3    3    0  501 -0.29694293025E+02 -0.11239552974E+02 -0.59693616820E+02  0.67775338276E+02  0.47000000000E+01 0.  1.
          5    1    4    4  502    0 -0.48523779068E+02  0.32933757875E+02 -0.61609880788E+03  0.61890146276E+03  0.47000000000E+01 0. -1.
         -5    1    4    4    0  502 -0.21115319668E+02  0.27187017996E+02 -0.31042942235E+02  0.46591253845E+02  0.47000000000E+01 0. -1.
<mgrwt>
<rscale>  0 0.31040022E+03</rscale>
<asrwt>0</asrwt>
<pdfrwt beam="1">  1       21 0.28423756E-02 0.31040022E+03</pdfrwt>
<pdfrwt beam="2">  1       21 0.20057457E+00 0.31040022E+03</pdfrwt>
<totfact> 0.87007030E+04</totfact>
</mgrwt>
</event>
<event>
 8    1  0.4760912E-006  0.4406877E+03  0.7546771E-02  0.1030536E+00
         21   -1    0    0  504  503  0.00000000000E+00  0.00000000000E+00  0.42532749221E+03  0.42532749221E+03  0.00000000000E+00 0.  1.
         21   -1    0    0  503  504 -0.00000000000E+00 -0.00000000000E+00 -0.11415063134E+03  0.11415063134E+03  0.00000000000E+00 0.  1.
         25    2    1    2    0    0 -0.63062828211E+02 -0.12410676094E+03  0.13105540797E+02  0.18755277286E+03  0.12499951597E+03 0.  0.
         25    2    1    2    0    0  0.63062828211E+02  0.12410676094E+03  0.29807132007E+03  0.35192535069E+03  0.12500212878E+03 0.  0.
          5    1    3    3  501    0 -0.82255144312E+02 -0.13153071786E+03  0.32857938088E+02  0.15864416977E+03  0.47000000000E+01 0.  1.
         -5    1    3    3    0  501  0.19192316100E+02  0.74239569175E+01 -0.19752397291E+02  0.28908603086E+02  0.47000000000E+01 0.  1.
          5    1    4    4  502    0  0.90194256200E+02  0.68672991749E+02  0.12855684180E+03  0.17146409310E+03  0.47000000000E+01 0. -1.
         -5    1    4    4    0  502 -0.27131427988E+02  0.55433769193E+02  0.16951447827E+03  0.18046125760E+03  0.47000000000E+01 0. -1.
<mgrwt>
<rscale>  0 0.44068765E+03</rscale>
<asrwt>0</asrwt>
<pdfrwt beam="1">  1       21 0.65434998E-01 0.44068765E+03</pdfrwt>
<pdfrwt beam="2">  1       21 0.17561636E-01 0.44068765E+03</pdfrwt>
<totfact> 0.58357188E+04</totfact>
</mgrwt>
</event>
<event>
 8    1  0.4760912E-006  0.2543107E+03  0.7546771E-02  0.1110610E+00
         21   -1    0    0  504  503  0.00000000000E+00  0.00000000000E+00  0.78487766367E+02  0.78487766367E+02  0.00000000000E+00 0. -1.
         21   -1    0    0  503  504 -0.00000000000E+00 -0.00000000000E+00 -0.20600002557E+03  0.20600002557E+03  0.00000000000E+00 0. -1.
         25    2    1    2    0    0 -0.17881000588E+02 -0.14559730165E+02 -0.67458817177E+02  0.14390684239E+03  0.12500708519E+03 0.  0.
         25    2    1    2    0    0  0.17881000588E+02  0.14559730165E+02 -0.60053442025E+02  0.14058094955E+03  0.12499948620E+03 0.  0.
          5    1    3    3  501    0  0.55326986533E+01 -0.65763278406E+02 -0.55030650495E+02  0.86057434513E+02  0.47000000000E+01 0. -1.
         -5    1    3    3    0  501 -0.23413699242E+02  0.51203548241E+02 -0.12428166683E+02  0.57849407877E+02  0.47000000000E+01 0. -1.
          5    1    4    4  502    0 -0.47445216919E+02 -0.17905449315E+02 -0.97723881414E+01  0.51857914474E+02  0.47000000000E+01 0.  1.
         -5    1    4    4    0  502  0.65326217507E+02  0.32465179480E+02 -0.50281053884E+02  0.88723035071E+02  0.47000000000E+01 0.  1.
<mgrwt>
<rscale>  0 0.25431069E+03</rscale>
<asrwt>0</asrwt>
<pdfrwt beam="1">  1       21 0.12075041E-01 0.25431069E+03</pdfrwt>
<pdfrwt beam="2">  1       21 0.31692311E-01 0.25431069E+03</pdfrwt>
<totfact> 0.54913493E+05</totfact>
</mgrwt>
</event>
<event>
 8    1  0.4760912E-006  0.3196861E+03  0.7546771E-02  0.1075794E+00
         21   -1    0    0  504  503  0.00000000000E+00  0.00000000000E+00  0.36620303694E+03  0.36620303694E+03  0.00000000000E+00 0.  1.
         21   -1    0    0  503  504 -0.00000000000E+00 -0.00000000000E+00 -0.69769500270E+02  0.69769500270E+02  0.00000000000E+00 0.  1.
         25    2    1    2    0    0  0.23612918663E+02  0.79006815889E+02  0.22444894936E+03  0.26982114862E+03  0.12500589783E+03 0.  0.
         25    2    1    2    0    0 -0.23612918663E+02 -0.79006815889E+02  0.71984587312E+02  0.16615138859E+03  0.12499942493E+03 0.  0.
          5    1    3    3  501    0  0.42602254037E+02  0.37805742685E+02  0.21600357272E+03  0.22343647791E+03  0.47000000000E+01 0. -1.
         -5    1    3    3    0  501 -0.18989335374E+02  0.41201073204E+02  0.84453766337E+01  0.46384670718E+02  0.47000000000E+01 0. -1.
          5    1    4    4  502    0 -0.20873248914E+02 -0.60872551150E+02 -0.23604551511E+02  0.68705348087E+02  0.47000000000E+01 0.  1.
         -5    1    4    4    0  502 -0.27396697488E+01 -0.18134264739E+02  0.95589138823E+02  0.97446040499E+02  0.47000000000E+01 0.  1.
<mgrwt>
<rscale>  0 0.31968611E+03</rscale>
<asrwt>0</asrwt>
<pdfrwt beam="1">  1       21 0.56338928E-01 0.31968611E+03</pdfrwt>
<pdfrwt beam="2">  1       21 0.10733770E-01 0.31968611E+03</pdfrwt>
<totfact> 0.20518483E+05</totfact>
</mgrwt>
</event>
<event>
 8    1  0.4760912E-006  0.3292613E+03  0.7546771E-02  0.1071464E+00
         21   -1    0    0  504  503  0.00000000000E+00  0.00000000000E+00  0.40589052346E+03  0.40589052346E+03  0.00000000000E+00 0. -1.
         21   -1    0    0  503  504 -0.00000000000E+00 -0.00000000000E+00 -0.66774761836E+02  0.66774761836E+02  0.00000000000E+00 0. -1.
         25    2    1    2    0    0  0.58327778611E+02  0.89606894853E+02  0.17942669556E+03  0.24341646158E+03  0.12500443722E+03 0.  0.
         25    2    1    2    0    0 -0.58327778611E+02 -0.89606894853E+02  0.15968906607E+03  0.22924882372E+03  0.12499159969E+03 0.  0.
          5    1    3    3  501    0  0.27959456953E+02 -0.21969907153E+02  0.82764716848E+01  0.36810297975E+02  0.47000000000E+01 0.  1.
         -5    1    3    3    0  501  0.30368321658E+02  0.11157680201E+03  0.17115022388E+03  0.20660616360E+03  0.47000000000E+01 0.  1.
          5    1    4    4  502    0 -0.13601260381E+02  0.27181786614E+02  0.66331411716E+02  0.73114909477E+02  0.47000000000E+01 0.  1.
         -5    1    4    4    0  502 -0.44726518230E+02 -0.11678868147E+03  0.93357654350E+02  0.15613391424E+03  0.47000000000E+01 0.  1.
<mgrwt>
<rscale>  0 0.32926125E+03</rscale>
<asrwt>0</asrwt>
<pdfrwt beam="1">  1       21 0.62444695E-01 0.32926125E+03</pdfrwt>
<pdfrwt beam="2">  1       21 0.10273040E-01 0.32926125E+03</pdfrwt>
<totfact> 0.17717414E+05</totfact>
</mgrwt>
</event>
<event>
 8    1  0.4760912E-006  0.2559396E+03  0.7546771E-02  0.1109608E+00
         21   -1    0    0  504  503  0.00000000000E+00  0.00000000000E+00  0.51425898698E+03  0.51425898698E+03  0.00000000000E+00 0.  1.
         21   -1    0    0  503  504 -0.00000000000E+00 -0.00000000000E+00 -0.31844400710E+02  0.31844400710E+02  0.00000000000E+00 0.  1.
         25    2    1    2    0    0  0.24908612095E+02 -0.10816090817E+02  0.24670243207E+03  0.27789586869E+03  0.12500638811E+03 0.  0.
         25    2    1    2    0    0 -0.24908612095E+02  0.10816090817E+02  0.23571215419E+03  0.26820751899E+03  0.12505049714E+03 0.  0.
          5    1    3    3  501    0 -0.34821842277E+02 -0.44303971345E+02  0.14040128202E+03  0.15136053835E+03  0.47000000000E+01 0. -1.
         -5    1    3    3    0  501  0.59730454373E+02  0.33487880528E+02  0.10630115005E+03  0.12653533034E+03  0.47000000000E+01 0. -1.
          5    1    4    4  502    0 -0.19950630040E+01 -0.19073716728E+02  0.22877381792E+03  0.22962433824E+03  0.47000000000E+01 0. -1.
         -5    1    4    4    0  502 -0.22913549091E+02  0.29889807545E+02  0.69383362720E+01  0.38583180756E+02  0.47000000000E+01 0. -1.
<mgrwt>
<rscale>  0 0.25593960E+03</rscale>
<asrwt>0</asrwt>
<pdfrwt beam="1">  1       21 0.79116761E-01 0.25593960E+03</pdfrwt>
<pdfrwt beam="2">  1       21 0.48991390E-02 0.25593960E+03</pdfrwt>
<totfact> 0.38666232E+05</totfact>
</mgrwt>
</event>
<event>
 8    1  0.4760912E-006  0.3341544E+03  0.7546771E-02  0.1069313E+00
         21   -1    0    0  504  503  0.00000000000E+00  0.00000000000E+00  0.10239281039E+03  0.10239281039E+03  0.00000000000E+00 0. -1.
         21   -1    0    0  503  504 -0.00000000000E+00 -0.00000000000E+00 -0.27262452972E+03  0.27262452972E+03  0.00000000000E+00 0. -1.
         25    2    1    2    0    0  0.16960686851E+02 -0.10792900306E+03 -0.10617860855E+03  0.19706790657E+03  0.12500211312E+03 0.  0.
         25    2    1    2    0    0 -0.16960686851E+02  0.10792900306E+03 -0.64053110779E+02  0.17794943354E+03  0.12500746096E+03 0.  0.
          5    1    3    3  501    0  0.14440007022E+02 -0.60648800054E+02 -0.12970658283E+03  0.14398846613E+03  0.47000000000E+01 0. -1.
         -5    1    3    3    0  501  0.25206798288E+01 -0.47280203008E+02  0.23527974275E+02  0.53079440434E+02  0.47000000000E+01 0. -1.
          5    1    4    4  502    0 -0.34858679589E+02  0.20996721166E+02  0.28288754125E+02  0.49782863039E+02  0.47000000000E+01 0.  1.
         -5    1    4    4    0  502  0.17897992737E+02  0.86932281897E+02 -0.92341864904E+02  0.12816657050E+03  0.47000000000E+01 0.  1.
<mgrwt>
<rscale>  0 0.33415441E+03</rscale>
<asrwt>0</asrwt>
<pdfrwt beam="1">  1       21 0.15752740E-01 0.33415441E+03</pdfrwt>
<pdfrwt beam="2">  1       21 0.41942235E-01 0.33415441E+03</pdfrwt>
<totfact> 0.18918452E+05</totfact>
</mgrwt>
</event>
<event>
 8    1  0.4760912E-006  0.4344441E+03  0.7546771E-02  0.1032465E+00
         21   -1    0    0  504  503  0.00000000000E+00  0.00000000000E+00  0.21263976641E+04  0.21263976641E+04  0.00000000000E+00 0.  1.
         21   -1    0    0  503  504 -0.00000000000E+00 -0.00000000000E+00 -0.22190307675E+02  0.22190307675E+02  0.00000000000E+00 0.  1.
         25    2    1    2    0    0  0.17054966581E+02 -0.78778648137E+02  0.26915941864E+03  0.30752455680E+03  0.12501045198E+03 0.  0.
         25    2    1    2    0    0 -0.17054966581E+02  0.78778648137E+02  0.18350479378E+04  0.18410634150E+04  0.12496646236E+03 0.  0.
          5    1    3    3  501    0 -0.18891139879E+02  0.20241405366E+02  0.12959748890E+03  0.13260538747E+03  0.47000000000E+01 0.  1.
         -5    1    3    3    0  501  0.35946106460E+02 -0.99020053503E+02  0.13956192974E+03  0.17491916933E+03  0.47000000000E+01 0.  1.
          5    1    4    4  502    0  0.49692285729E+02  0.60790323930E+02  0.88218780242E+03  0.88568741410E+03  0.47000000000E+01 0.  1.
         -5    1    4    4    0  502 -0.66747252310E+02  0.17988324207E+02  0.95286013534E+03  0.95537600086E+03  0.47000000000E+01 0.  1.
<mgrwt>
<rscale>  0 0.43444410E+03</rscale>
<asrwt>0</asrwt>
<pdfrwt beam="1">  1       21 0.32713794E+00 0.43444410E+03</pdfrwt>
<pdfrwt beam="2">  1       21 0.34138952E-02 0.43444410E+03</pdfrwt>
<totfact> 0.10204017E+04</totfact>
</mgrwt>
</event>
<event>
 8    1  0.4760912E-006  0.3787674E+03  0.7546771E-02  0.1051390E+00
         21   -1    0    0  504  503  0.00000000000E+00  0.00000000000E+00  0.99535232818E+03  0.99535232818E+03  0.00000000000E+00 0. -1.
         21   -1    0    0  503  504 -0.00000000000E+00 -0.00000000000E+00 -0.36033649806E+02  0.36033649806E+02  0.00000000000E+00 0. -1.
         25    2    1    2    0    0 -0.76131987002E+02 -0.69136460345E+02  0.74733029105E+03  0.76466226840E+03  0.12501956324E+03 0.  0.
         25    2    1    2    0    0  0.76131987002E+02  0.69136460345E+02  0.21198838732E+03  0.26672370959E+03  0.12500612507E+03 0.  0.
          5    1    3    3  501    0 -0.93380815258E+02 -0.65408641200E+02  0.37719369219E+03  0.39407542226E+03  0.47000000000E+01 0. -1.
         -5    1    3    3    0  501  0.17248828256E+02 -0.37278191450E+01  0.37013659887E+03  0.37058684614E+03  0.47000000000E+01 0. -1.
          5    1    4    4  502    0  0.35594181739E+02  0.18054463730E+02 -0.46303791455E+01  0.40452933704E+02  0.47000000000E+01 0.  1.
         -5    1    4    4    0  502  0.40537805263E+02  0.51081996615E+02  0.21661876647E+03  0.22627077589E+03  0.47000000000E+01 0.  1.
<mgrwt>
<rscale>  0 0.37876735E+03</rscale>
<asrwt>0</asrwt>
<pdfrwt beam="1">  1       21 0.15313111E+00 0.37876735E+03</pdfrwt>
<pdfrwt beam="2">  1       21 0.55436392E-02 0.37876735E+03</pdfrwt>
<totfact> 0.59273564E+04</totfact>
</mgrwt>
</event>
<event>
 8    1  0.4760912E-006  0.2762626E+03  0.7546771E-02  0.1097748E+00
         21   -1    0    0  504  503  0.00000000000E+00  0.00000000000E+00  0.40138127571E+03  0.40138127571E+03  0.00000000000E+00 0. -1.
         21   -1    0    0  503  504 -0.00000000000E+00 -0.00000000000E+00 -0.47536473367E+02  0.47536473367E+02  0.00000000000E+00 0. -1.
         25    2    1    2    0    0 -0.19429319492E+02 -0.21912886698E+02  0.25975123727E+03  0.28974740713E+03  0.12500072645E+03 0.  0.
         25    2    1    2    0    0  0.19429319492E+02  0.21912886698E+02  0.94093565070E+02  0.15917034195E+03  0.12499570277E+03 0.  0.
          5    1    3    3  501    0 -0.58652170725E+02 -0.50661345594E+02  0.18266700062E+03  0.19848418623E+03  0.47000000000E+01 0. -1.
         -5    1    3    3    0  501  0.39222851233E+02  0.28748458896E+02  0.77084236652E+02  0.91263220894E+02  0.47000000000E+01 0. -1.
          5    1    4    4  502    0 -0.42045892048E+02  0.31582087870E+02  0.88635489732E+01  0.53534454446E+02  0.47000000000E+01 0.  1.
         -5    1    4    4    0  502  0.61475211541E+02 -0.96692011724E+01  0.85230016096E+02  0.10563588751E+03  0.47000000000E+01 0.  1.
<mgrwt>
<rscale>  0 0.27626256E+03</rscale>
<asrwt>0</asrwt>
<pdfrwt beam="1">  1       21 0.61750963E-01 0.27626256E+03</pdfrwt>
<pdfrwt beam="2">  1       21 0.73133039E-02 0.27626256E+03</pdfrwt>
<totfact> 0.33479474E+05</totfact>
</mgrwt>
</event>
<event>
 8    1  0.4760912E-006  0.2612544E+03  0.7546771E-02  0.1106392E+00
         21   -1    0    0  504  503  0.00000000000E+00  0.00000000000E+00  0.94312521075E+02  0.94312521075E+02  0.00000000000E+00 0.  1.
         21   -1    0    0  503  504 -0.00000000000E+00 -0.00000000000E+00 -0.18092469022E+03  0.18092469022E+03  0.00000000000E+00 0.  1.
         25    2    1    2    0    0 -0.34874430236E+01 -0.35303598427E+02 -0.57467638062E+02  0.14207608241E+03  0.12499830978E+03 0.  0.
         25    2    1    2    0    0  0.34874430236E+01  0.35303598427E+02 -0.29144531078E+02  0.13316112888E+03  0.12499590486E+03 0.  0.
          5    1    3    3  501    0  0.26582060402E+02  0.40254687520E+02 -0.22272770839E+02  0.53340529838E+02  0.47000000000E+01 0.  1.
         -5    1    3    3    0  501 -0.30069503425E+02 -0.75558285947E+02 -0.35194867223E+02  0.88735552573E+02  0.47000000000E+01 0.  1.
          5    1    4    4  502    0  0.25484392067E+02  0.20370549235E+02  0.44123873598E+02  0.55076489871E+02  0.47000000000E+01 0.  1.
         -5    1    4    4    0  502 -0.21996949043E+02  0.14933049192E+02 -0.73268404676E+02  0.78084639009E+02  0.47000000000E+01 0.  1.
<mgrwt>
<rscale>  0 0.26125439E+03</rscale>
<asrwt>0</asrwt>
<pdfrwt beam="1">  1       21 0.14509619E-01 0.26125439E+03</pdfrwt>
<pdfrwt beam="2">  1       21 0.27834567E-01 0.26125439E+03</pdfrwt>
<totfact> 0.50687276E+05</totfact>
</mgrwt>
</event>
<event>
 8    1  0.4760912E-006  0.2619129E+03  0.7546771E-02  0.1105999E+00
         21   -1    0    0  504  503  0.00000000000E+00  0.00000000000E+00  0.46059466896E+02  0.46059466896E+02  0.00000000000E+00 0.  1.
         21   -1    0    0  503  504 -0.00000000000E+00 -0.00000000000E+00 -0.37233575762E+03  0.37233575762E+03  0.00000000000E+00 0.  1.
         25    2    1    2    0    0 -0.37881235456E+02  0.62058312031E+01 -0.15167443638E+03  0.20025761557E+03  0.12499791039E+03 0.  0.
         25    2    1    2    0    0  0.37881235456E+02 -0.62058312031E+01 -0.17460185434E+03  0.21813760894E+03  0.12499883422E+03 0.  0.
          5    1    3    3  501    0 -0.69243856995E+02  0.43418885295E+02 -0.95250968659E+02  0.12559756511E+03  0.47000000000E+01 0.  1.
         -5    1    3    3    0  501  0.31362621539E+02 -0.37213054092E+02 -0.56423467725E+02  0.74660050461E+02  0.47000000000E+01 0.  1.
          5    1    4    4  502    0 -0.79386151036E+01  0.14719404083E+02 -0.16589637242E+03  0.16680341378E+03  0.47000000000E+01 0. -1.
         -5    1    4    4    0  502  0.45819850560E+02 -0.20925235286E+02 -0.87054819137E+01  0.51334195157E+02  0.47000000000E+01 0. -1.
<mgrwt>
<rscale>  0 0.26191286E+03</rscale>
<asrwt>0</asrwt>
<pdfrwt beam="1">  1       21 0.70860717E-02 0.26191286E+03</pdfrwt>
<pdfrwt beam="2">  1       21 0.57282425E-01 0.26191286E+03</pdfrwt>
<totfact> 0.41732002E+05</totfact>
</mgrwt>
</event>
<event>
 8    1  0.4760912E-006  0.2779920E+03  0.7546771E-02  0.1096791E+00
         21   -1    0    0  504  503  0.00000000000E+00  0.00000000000E+00  0.16222642051E+04  0.16222642051E+04  0.00000000000E+00 0.  1.
         21   -1    0    0  503  504 -0.00000000000E+00 -0.00000000000E+00 -0.11909208696E+02  0.11909208696E+02  0.00000000000E+00 0.  1.
         25    2    1    2    0    0 -0.35821631460E+02 -0.22840598081E+02  0.54962795388E+03  0.56526135961E+03  0.12499853911E+03 0.  0.
         25    2    1    2    0    0  0.35821631460E+02  0.22840598081E+02  0.10607270425E+04  0.10689120542E+04  0.12500495448E+03 0.  0.
          5    1    3    3  501    0  0.30671333936E+02 -0.46746022103E+02  0.16808120537E+03  0.17719848450E+03  0.47000000000E+01 0.  1.
         -5    1    3    3    0  501 -0.66492965397E+02  0.23905424023E+02  0.38154674850E+03  0.38806287511E+03  0.47000000000E+01 0.  1.
          5    1    4    4  502    0  0.69227067638E+02 -0.24145605410E+02  0.53754977497E+03  0.54254700048E+03  0.47000000000E+01 0.  1.
         -5    1    4    4    0  502 -0.33405436177E+02  0.46986203491E+02  0.52317726757E+03  0.52636505373E+03  0.47000000000E+01 0.  1.
<mgrwt>
<rscale>  0 0.27799196E+03</rscale>
<asrwt>0</asrwt>
<pdfrwt beam="1">  1       21 0.24957893E+00 0.27799196E+03</pdfrwt>
<pdfrwt beam="2">  1       21 0.18321872E-02 0.27799196E+03</pdfrwt>
<totfact> 0.90147979E+04</totfact>
</mgrwt>
</event>
<event>
 8    1  0.4760912E-006  0.4167998E+03  0.7546771E-02  0.1038113E+00
         21   -1    0    0  504  503  0.00000000000E+00  0.00000000000E+00  0.68659278864E+03  0.68659278864E+03  0.00000000000E+00 0. -1.
         21   -1    0    0  503  504 -0.00000000000E+00 -0.00000000000E+00 -0.63255137910E+02  0.63255137910E+02  0.00000000000E+00 0. -1.
         25    2    1    2    0    0 -0.14071752516E+03  0.29871348733E+02  0.15993239658E+03  0.24879180636E+03  0.12500108829E+03 0.  0.
         25    2    1    2    0    0  0.14071752516E+03 -0.29871348733E+02  0.46340525414E+03  0.50105612019E+03  0.12497634437E+03 0.  0.
          5    1    3    3  501    0 -0.10625032565E+03 -0.29148309510E+02  0.13843660974E+03  0.17699022732E+03  0.47000000000E+01 0. -1.
         -5    1    3    3    0  501 -0.34467199506E+02  0.59019658243E+02  0.21495786838E+02  0.71801579040E+02  0.47000000000E+01 0. -1.
          5    1    4    4  502    0 -0.44844299585E+01 -0.41441998899E+02  0.71058860996E+02  0.82516671714E+02  0.47000000000E+01 0.  1.
         -5    1    4    4    0  502  0.14520195511E+03  0.11570650166E+02  0.39234639315E+03  0.41853944847E+03  0.47000000000E+01 0.  1.
<mgrwt>
<rscale>  0 0.41679982E+03</rscale>
<asrwt>0</asrwt>
<pdfrwt beam="1">  1       21 0.10562965E+00 0.41679982E+03</pdfrwt>
<pdfrwt beam="2">  1       21 0.97315602E-02 0.41679982E+03</pdfrwt>
<totfact> 0.56731295E+04</totfact>
</mgrwt>
</event>
<event>
 8    1  0.4760912E-006  0.4393852E+03  0.7546771E-02  0.1030936E+00
         21   -1    0    0  504  503  0.00000000000E+00  0.00000000000E+00  0.85763336503E+02  0.85763336503E+02  0.00000000000E+00 0. -1.
         21   -1    0    0  503  504 -0.00000000000E+00 -0.00000000000E+00 -0.56276784175E+03  0.56276784175E+03  0.00000000000E+00 0. -1.
         25    2    1    2    0    0  0.26030755390E+02 -0.13334816374E+03 -0.41426012067E+03  0.45353542575E+03  0.12499440720E+03 0.  0.
         25    2    1    2    0    0 -0.26030755390E+02  0.13334816374E+03 -0.62744384577E+02  0.19499575251E+03  0.12500861051E+03 0.  0.
          5    1    3    3  501    0  0.20098468912E+02 -0.45849531379E+02 -0.32296022454E+03  0.32685092109E+03  0.47000000000E+01 0. -1.
         -5    1    3    3    0  501  0.59322864777E+01 -0.87498632360E+02 -0.91299896130E+02  0.12668450466E+03  0.47000000000E+01 0. -1.
          5    1    4    4  502    0 -0.12327004617E+02  0.15414969991E+03 -0.68180270034E+02  0.16907017551E+03  0.47000000000E+01 0. -1.
         -5    1    4    4    0  502 -0.13703750773E+02 -0.20801536167E+02  0.54358854564E+01  0.25925577001E+02  0.47000000000E+01 0. -1.
<mgrwt>
<rscale>  0 0.43938524E+03</rscale>
<asrwt>0</asrwt>
<pdfrwt beam="1">  1       21 0.13194360E-01 0.43938524E+03</pdfrwt>
<pdfrwt beam="2">  1       21 0.86579666E-01 0.43938524E+03</pdfrwt>
<totfact> 0.52380340E+04</totfact>
</mgrwt>
</event>
<event>
 8    1  0.4760912E-006  0.3191923E+03  0.7546771E-02  0.1076022E+00
         21   -1    0    0  504  503  0.00000000000E+00  0.00000000000E+00  0.50488536066E+03  0.50488536066E+03  0.00000000000E+00 0.  1.
         21   -1    0    0  503  504 -0.00000000000E+00 -0.00000000000E+00 -0.50448938868E+02  0.50448938868E+02  0.00000000000E+00 0.  1.
         25    2    1    2    0    0 -0.52258066321E+02 -0.32636064747E+02  0.91896343778E+02  0.16693156003E+03  0.12500075807E+03 0.  0.
         25    2    1    2    0    0  0.52258066321E+02  0.32636064747E+02  0.36254007802E+03  0.38840273950E+03  0.12500144664E+03 0.  0.
          5    1    3    3  501    0 -0.57089291801E+02  0.32352334228E+02  0.74355679922E+02  0.99281004754E+02  0.47000000000E+01 0. -1.
         -5    1    3    3    0  501  0.48312254803E+01 -0.64988398976E+02  0.17540663856E+02  0.67650555279E+02  0.47000000000E+01 0. -1.
          5    1    4    4  502    0 -0.32690360775E+01  0.41451916360E+02  0.30485756000E+03  0.30771605394E+03  0.47000000000E+01 0. -1.
         -5    1    4    4    0  502  0.55527102398E+02 -0.88158516130E+01  0.57682518017E+02  0.80686685551E+02  0.47000000000E+01 0. -1.
<mgrwt>
<rscale>  0 0.31919230E+03</rscale>
<asrwt>0</asrwt>
<pdfrwt beam="1">  1       21 0.77674667E-01 0.31919230E+03</pdfrwt>
<pdfrwt beam="2">  1       21 0.77613756E-02 0.31919230E+03</pdfrwt>
<totfact> 0.17933937E+05</totfact>
</mgrwt>
</event>
<event>
 8    1  0.4760912E-006  0.2922760E+03  0.7546771E-02  0.1089167E+00
         21   -1    0    0  504  503  0.00000000000E+00  0.00000000000E+00  0.81966233464E+02  0.81966233464E+02  0.00000000000E+00 0.  1.
         21   -1    0    0  503  504 -0.00000000000E+00 -0.00000000000E+00 -0.26055009113E+03  0.26055009113E+03  0.00000000000E+00 0.  1.
         25    2    1    2    0    0  0.60370233337E+02  0.61560170567E+01 -0.36236860137E+02  0.14359439745E+03  0.12499511721E+03 0.  0.
         25    2    1    2    0    0 -0.60370233337E+02 -0.61560170567E+01 -0.14234699753E+03  0.19892192714E+03  0.12499921509E+03 0.  0.
          5    1    3    3  501    0  0.52561417583E+02  0.50096169851E+02  0.16233207889E+02  0.74551565312E+02  0.47000000000E+01 0.  1.
         -5    1    3    3    0  501  0.78088157536E+01 -0.43940152794E+02 -0.52470068026E+02  0.69042832138E+02  0.47000000000E+01 0.  1.
          5    1    4    4  502    0  0.29982262494E+02 -0.29401301833E+02 -0.65570453157E+02  0.78006069898E+02  0.47000000000E+01 0. -1.
         -5    1    4    4    0  502 -0.90352495831E+02  0.23245284777E+02 -0.76776544370E+02  0.12091585724E+03  0.47000000000E+01 0. -1.
<mgrwt>
<rscale>  0 0.29227596E+03</rscale>
<asrwt>0</asrwt>
<pdfrwt beam="1">  1       21 0.12610190E-01 0.29227596E+03</pdfrwt>
<pdfrwt beam="2">  1       21 0.40084629E-01 0.29227596E+03</pdfrwt>
<totfact> 0.31471978E+05</totfact>
</mgrwt>
</event>
<event>
 8    1  0.4760912E-006  0.2652916E+03  0.7546771E-02  0.1104005E+00
         21   -1    0    0  504  503  0.00000000000E+00  0.00000000000E+00  0.41408917555E+03  0.41408917555E+03  0.00000000000E+00 0. -1.
         21   -1    0    0  503  504 -0.00000000000E+00 -0.00000000000E+00 -0.42490627441E+02  0.42490627441E+02  0.00000000000E+00 0. -1.
         25    2    1    2    0    0 -0.25820062185E+02  0.34427649374E+02  0.16702903743E+03  0.21300657801E+03  0.12498465616E+03 0.  0.
         25    2    1    2    0    0  0.25820062185E+02 -0.34427649374E+02  0.20456951068E+03  0.24357322498E+03  0.12500916998E+03 0.  0.
          5    1    3    3  501    0  0.23316675831E+02  0.21887738995E+02  0.15801355559E+03  0.16128581537E+03  0.47000000000E+01 0.  1.
         -5    1    3    3    0  501 -0.49136738016E+02  0.12539910378E+02  0.90154818478E+01  0.51720762640E+02  0.47000000000E+01 0.  1.
          5    1    4    4  502    0 -0.53731455796E+01 -0.23021701102E+02 -0.10219917410E+02  0.26180262162E+02  0.47000000000E+01 0.  1.
         -5    1    4    4    0  502  0.31193207765E+02 -0.11405948272E+02  0.21478942809E+03  0.21739296282E+03  0.47000000000E+01 0.  1.
<mgrwt>
<rscale>  0 0.26529160E+03</rscale>
<asrwt>0</asrwt>
<pdfrwt beam="1">  1       21 0.63706024E-01 0.26529160E+03</pdfrwt>
<pdfrwt beam="2">  1       21 0.65370199E-02 0.26529160E+03</pdfrwt>
<totfact> 0.38103890E+05</totfact>
</mgrwt>
</event>
<event>
 8    1  0.4760912E-006  0.2828951E+03  0.7546771E-02  0.1094118E+00
         21   -1    0    0  504  503  0.00000000000E+00  0.00000000000E+00  0.24100571920E+02  0.24100571920E+02  0.00000000000E+00 0. -1.
         21   -1    0    0  503  504 -0.00000000000E+00 -0.00000000000E+00 -0.83016332334E+03  0.83016332334E+03  0.00000000000E+00 0. -1.
         25    2    1    2    0    0 -0.12735084170E+02  0.58344118237E+02 -0.31658899141E+03  0.34557175869E+03  0.12500012968E+03 0.  0.
         25    2    1    2    0    0  0.12735084170E+02 -0.58344118237E+02 -0.48947376000E+03  0.50869213656E+03  0.12496763408E+03 0.  0.
          5    1    3    3  501    0  0.52355204737E+02  0.35609355900E+02 -0.20214285204E+03  0.21187948537E+03  0.47000000000E+01 0.  1.
         -5    1    3    3    0  501 -0.65090288907E+02  0.22734762336E+02 -0.11444613938E+03  0.13369227332E+03  0.47000000000E+01 0.  1.
          5    1    4    4  502    0  0.46847505533E+02 -0.67592118741E+02 -0.18979819810E+03  0.20690294655E+03  0.47000000000E+01 0.  1.
         -5    1    4    4    0  502 -0.34112421363E+02  0.92480005038E+01 -0.29967556191E+03  0.30178919001E+03  0.47000000000E+01 0.  1.
<mgrwt>
<rscale>  0 0.28289511E+03</rscale>
<asrwt>0</asrwt>
<pdfrwt beam="1">  1       21 0.37077801E-02 0.28289511E+03</pdfrwt>
<pdfrwt beam="2">  1       21 0.12771744E+00 0.28289511E+03</pdfrwt>
<totfact> 0.19507357E+05</totfact>
</mgrwt>
</event>
<event>
 8    1  0.4760912E-006  0.2790204E+03  0.7546771E-02  0.1096225E+00
         21   -1    0    0  504  503  0.00000000000E+00  0.00000000000E+00  0.24914618697E+02  0.24914618697E+02  0.00000000000E+00 0.  1.
         21   -1    0    0  503  504 -0.00000000000E+00 -0.00000000000E+00 -0.78119205629E+03  0.78119205629E+03  0.00000000000E+00 0.  1.
         25    2    1    2    0    0  0.37899053037E+02 -0.36208488042E+02 -0.28273646398E+03  0.31354857202E+03  0.12500162450E+03 0.  0.
         25    2    1    2    0    0 -0.37899053037E+02  0.36208488042E+02 -0.47354097361E+03  0.49255810296E+03  0.12500015311E+03 0.  0.
          5    1    3    3  501    0  0.26229802534E+02  0.43617633383E+02 -0.76099883570E+02  0.91672148236E+02  0.47000000000E+01 0. -1.
         -5    1    3    3    0  501  0.11669250504E+02 -0.79826121426E+02 -0.20663658041E+03  0.22187642379E+03  0.47000000000E+01 0. -1.
          5    1    4    4  502    0  0.14828333256E+02  0.42359952147E+02 -0.39544462596E+03  0.39801103906E+03  0.47000000000E+01 0. -1.
         -5    1    4    4    0  502 -0.52727386293E+02 -0.61514641047E+01 -0.78096347652E+02  0.94547063902E+02  0.47000000000E+01 0. -1.
<mgrwt>
<rscale>  0 0.27902045E+03</rscale>
<asrwt>0</asrwt>
<pdfrwt beam="1">  1       21 0.38330187E-02 0.27902045E+03</pdfrwt>
<pdfrwt beam="2">  1       21 0.12018338E+00 0.27902045E+03</pdfrwt>
<totfact> 0.21535012E+05</totfact>
</mgrwt>
</event>
<event>
 8    1  0.4760912E-006  0.3128937E+03  0.7546771E-02  0.1078967E+00
         21   -1    0    0  504  503  0.00000000000E+00  0.00000000000E+00  0.47294183545E+02  0.47294183545E+02  0.00000000000E+00 0. -1.
         21   -1    0    0  503  504 -0.00000000000E+00 -0.00000000000E+00 -0.51751856196E+03  0.51751856196E+03  0.00000000000E+00 0. -1.
         25    2    1    2    0    0  0.80952947364E+01 -0.93724638252E+02 -0.23398262807E+03  0.28146335956E+03  0.12499564362E+03 0.  0.
         25    2    1    2    0    0 -0.80952947364E+01  0.93724638252E+02 -0.23624175034E+03  0.28334938594E+03  0.12500747297E+03 0.  0.
          5    1    3    3  501    0  0.91406970156E+01  0.15778431689E+02  0.41795622315E+01  0.19289115816E+02  0.47000000000E+01 0.  1.
         -5    1    3    3    0  501 -0.10454022792E+01 -0.10950306994E+03 -0.23816219030E+03  0.26217424374E+03  0.47000000000E+01 0.  1.
          5    1    4    4  502    0  0.48789954770E+02  0.51424745444E+01 -0.96179943707E+02  0.10807208845E+03  0.47000000000E+01 0.  1.
         -5    1    4    4    0  502 -0.56885249506E+02  0.88582163708E+02 -0.14006180663E+03  0.17527729749E+03  0.47000000000E+01 0.  1.
<mgrwt>
<rscale>  0 0.31289371E+03</rscale>
<asrwt>0</asrwt>
<pdfrwt beam="1">  1       21 0.72760287E-02 0.31289371E+03</pdfrwt>
<pdfrwt beam="2">  1       21 0.79618236E-01 0.31289371E+03</pdfrwt>
<totfact> 0.19009644E+05</totfact>
</mgrwt>
</event>
<event>
 8    1  0.4760912E-006  0.2830519E+03  0.7546771E-02  0.1094034E+00
         21   -1    0    0  504  503  0.00000000000E+00  0.00000000000E+00  0.37895446551E+02  0.37895446551E+02  0.00000000000E+00 0.  1.
         21   -1    0    0  503  504 -0.00000000000E+00 -0.00000000000E+00 -0.52854871110E+03  0.52854871110E+03  0.00000000000E+00 0.  1.
         25    2    1    2    0    0  0.37340642335E+01  0.56920064828E+02 -0.31322876698E+03  0.34203698355E+03  0.12499280235E+03 0.  0.
         25    2    1    2    0    0 -0.37340642335E+01 -0.56920064828E+02 -0.17742449757E+03  0.22440717410E+03  0.12500116173E+03 0.  0.
          5    1    3    3  501    0 -0.44450686150E+02 -0.73215504567E+01 -0.53303118474E+02  0.69948416989E+02  0.47000000000E+01 0.  1.
         -5    1    3    3    0  501  0.48184750383E+02  0.64241615285E+02 -0.25992564850E+03  0.27208856656E+03  0.47000000000E+01 0.  1.
          5    1    4    4  502    0 -0.36326829904E+02 -0.37698466247E+02 -0.11040719499E+02  0.53710338067E+02  0.47000000000E+01 0. -1.
         -5    1    4    4    0  502  0.32592765670E+02 -0.19221598582E+02 -0.16638377807E+03  0.17069683604E+03  0.47000000000E+01 0. -1.
<mgrwt>
<rscale>  0 0.28305186E+03</rscale>
<asrwt>0</asrwt>
<pdfrwt beam="1">  1       21 0.58300684E-02 0.28305186E+03</pdfrwt>
<pdfrwt beam="2">  1       21 0.81315190E-01 0.28305186E+03</pdfrwt>
<totfact> 0.26795426E+05</totfact>
</mgrwt>
</event>
<event>
 8    1  0.4760912E-006  0.3101018E+03  0.7546771E-02  0.1080297E+00
         21   -1    0    0  504  503  0.00000000000E+00  0.00000000000E+00  0.23103936719E+02  0.23103936719E+02  0.00000000000E+00 0.  1.
         21   -1    0    0  503  504 -0.00000000000E+00 -0.00000000000E+00 -0.10405489515E+04  0.10405489515E+04  0.00000000000E+00 0.  1.
         25    2    1    2    0    0 -0.37334500499E+02  0.80786984418E+02 -0.58431327261E+03  0.60412586830E+03  0.12500264966E+03 0.  0.
         25    2    1    2    0    0  0.37334500499E+02 -0.80786984418E+02 -0.43313174214E+03  0.45952701989E+03  0.12506627915E+03 0.  0.
          5    1    3    3  501    0  0.18387906053E+02 -0.21497086828E+02 -0.53898421213E+02  0.61052187842E+02  0.47000000000E+01 0. -1.
         -5    1    3    3    0  501 -0.55722406551E+02  0.10228407125E+03 -0.53041485140E+03  0.54307368046E+03  0.47000000000E+01 0. -1.
          5    1    4    4  502    0 -0.28897030174E+02  0.70935001209E+01 -0.19303731343E+03  0.19537361765E+03  0.47000000000E+01 0.  1.
         -5    1    4    4    0  502  0.66231530672E+02 -0.87880484539E+02 -0.24009442871E+03  0.26415340224E+03  0.47000000000E+01 0.  1.
<mgrwt>
<rscale>  0 0.31010177E+03</rscale>
<asrwt>0</asrwt>
<pdfrwt beam="1">  1       21 0.35544528E-02 0.31010177E+03</pdfrwt>
<pdfrwt beam="2">  1       21 0.16008441E+00 0.31010177E+03</pdfrwt>
<totfact> 0.11444703E+05</totfact>
</mgrwt>
</event>
<event>
 8    1  0.4760912E-006  0.2995405E+03  0.7546771E-02  0.1085471E+00
         21   -1    0    0  504  503  0.00000000000E+00  0.00000000000E+00  0.91525029572E+02  0.91525029572E+02  0.00000000000E+00 0.  1.
         21   -1    0    0  503  504 -0.00000000000E+00 -0.00000000000E+00 -0.24508181476E+03  0.24508181476E+03  0.00000000000E+00 0.  1.
         25    2    1    2    0    0 -0.24567741359E+01 -0.79261769875E+02 -0.10235203859E+03  0.17996966412E+03  0.12499870518E+03 0.  0.
         25    2    1    2    0    0  0.24567741359E+01  0.79261769875E+02 -0.51204746594E+02  0.15663718021E+03  0.12499926499E+03 0.  0.
          5    1    3    3  501    0 -0.34904249349E+02 -0.94747608501E+02 -0.41783328148E+02  0.10937711118E+03  0.47000000000E+01 0.  1.
         -5    1    3    3    0  501  0.32447475213E+02  0.15485838625E+02 -0.60568710446E+02  0.70592552941E+02  0.47000000000E+01 0.  1.
          5    1    4    4  502    0 -0.25069531618E+02  0.64344687425E+02 -0.85472394377E+02  0.10998336427E+03  0.47000000000E+01 0. -1.
         -5    1    4    4    0  502  0.27526305754E+02  0.14917082450E+02  0.34267647783E+02  0.46653815941E+02  0.47000000000E+01 0. -1.
<mgrwt>
<rscale>  0 0.29954045E+03</rscale>
<asrwt>0</asrwt>
<pdfrwt beam="1">  1       21 0.14080774E-01 0.29954045E+03</pdfrwt>
<pdfrwt beam="2">  1       21 0.37704894E-01 0.29954045E+03</pdfrwt>
<totfact> 0.29112025E+05</totfact>
</mgrwt>
</event>
<event>
 8    1  0.4760912E-006  0.2985085E+03  0.7546771E-02  0.1085989E+00
         21   -1    0    0  504  503  0.00000000000E+00  0.00000000000E+00  0.63186869939E+02  0.63186869939E+02  0.00000000000E+00 0.  1.
         21   -1    0    0  503  504 -0.00000000000E+00 -0.00000000000E+00 -0.35255463726E+03  0.35255463726E+03  0.00000000000E+00 0.  1.
         25    2    1    2    0    0 -0.49379448975E+02  0.28262206409E+02 -0.22608458150E+03  0.26453266258E+03  0.12500483705E+03 0.  0.
         25    2    1    2    0    0  0.49379448975E+02 -0.28262206409E+02 -0.63283185818E+02  0.15120884462E+03  0.12498908269E+03 0.  0.
          5    1    3    3  501    0 -0.58603055425E+02  0.70571977635E+02 -0.17293655236E+03  0.19581589127E+03  0.47000000000E+01 0.  1.
         -5    1    3    3    0  501  0.92236064505E+01 -0.42309771226E+02 -0.53148029146E+02  0.68716771310E+02  0.47000000000E+01 0.  1.
          5    1    4    4  502    0  0.14710476260E+02  0.47249121782E+02 -0.57606593679E+01  0.50041510942E+02  0.47000000000E+01 0.  1.
         -5    1    4    4    0  502  0.34668972715E+02 -0.75511328191E+02 -0.57522526451E+02  0.10116733368E+03  0.47000000000E+01 0.  1.
<mgrwt>
<rscale>  0 0.29850845E+03</rscale>
<asrwt>0</asrwt>
<pdfrwt beam="1">  1       21 0.97210570E-02 0.29850845E+03</pdfrwt>
<pdfrwt beam="2">  1       21 0.54239175E-01 0.29850845E+03</pdfrwt>
<totfact> 0.26690640E+05</totfact>
</mgrwt>
</event>
<event>
 8    1  0.4760912E-006  0.3046135E+03  0.7546771E-02  0.1082957E+00
         21   -1    0    0  504  503  0.00000000000E+00  0.00000000000E+00  0.46377841202E+03  0.46377841202E+03  0.00000000000E+00 0. -1.
         21   -1    0    0  503  504 -0.00000000000E+00 -0.00000000000E+00 -0.50018159753E+02  0.50018159753E+02  0.00000000000E+00 0. -1.
         25    2    1    2    0    0 -0.18220575563E+02  0.85085460754E+02  0.20822526492E+03  0.25798101010E+03  0.12499966245E+03 0.  0.
         25    2    1    2    0    0  0.18220575563E+02 -0.85085460754E+02  0.20553498734E+03  0.25581556168E+03  0.12500178226E+03 0.  0.
          5    1    3    3  501    0 -0.32950084589E+02 -0.21024060474E+02  0.90773866079E+02  0.98942932826E+02  0.47000000000E+01 0.  1.
         -5    1    3    3    0  501  0.14729509026E+02  0.10610952123E+03  0.11745139884E+03  0.15903807727E+03  0.47000000000E+01 0.  1.
          5    1    4    4  502    0 -0.12028768054E+02 -0.10682697864E+03  0.18221579069E+03  0.21161611234E+03  0.47000000000E+01 0.  1.
         -5    1    4    4    0  502  0.30249343617E+02  0.21741517883E+02  0.23319196654E+02  0.44199449337E+02  0.47000000000E+01 0.  1.
<mgrwt>
<rscale>  0 0.30461348E+03</rscale>
<asrwt>0</asrwt>
<pdfrwt beam="1">  1       21 0.71350522E-01 0.30461348E+03</pdfrwt>
<pdfrwt beam="2">  1       21 0.76951018E-02 0.30461348E+03</pdfrwt>
<totfact> 0.22126890E+05</totfact>
</mgrwt>
</event>
<event>
 8    1  0.4760912E-006  0.3549615E+03  0.7546771E-02  0.1060597E+00
         21   -1    0    0  504  503  0.00000000000E+00  0.00000000000E+00  0.17639314544E+02  0.17639314544E+02  0.00000000000E+00 0.  1.
         21   -1    0    0  503  504 -0.00000000000E+00 -0.00000000000E+00 -0.17857509756E+04  0.17857509756E+04  0.00000000000E+00 0.  1.
         25    2    1    2    0    0  0.67244982783E+02 -0.10324135817E+03 -0.10180316134E+04  0.10330484572E+04  0.12498033085E+03 0.  0.
         25    2    1    2    0    0 -0.67244982783E+02  0.10324135817E+03 -0.75008004764E+03  0.77034183303E+03  0.12500318434E+03 0.  0.
          5    1    3    3  501    0  0.85851914393E+02 -0.99792834000E+02 -0.99101153648E+03  0.99972752106E+03  0.47000000000E+01 0.  1.
         -5    1    3    3    0  501 -0.18606931611E+02 -0.34485241667E+01 -0.27020076970E+02  0.33320936097E+02  0.47000000000E+01 0.  1.
          5    1    4    4  502    0 -0.62739791126E+02  0.94747691797E+01 -0.14986308118E+03  0.16280996819E+03  0.47000000000E+01 0. -1.
         -5    1    4    4    0  502 -0.45051916570E+01  0.93766588987E+02 -0.60021696646E+03  0.60753186484E+03  0.47000000000E+01 0. -1.
<mgrwt>
<rscale>  0 0.35496154E+03</rscale>
<asrwt>0</asrwt>
<pdfrwt beam="1">  1       21 0.27137395E-02 0.35496154E+03</pdfrwt>
<pdfrwt beam="2">  1       21 0.27473104E+00 0.35496154E+03</pdfrwt>
<totfact> 0.32098222E+04</totfact>
</mgrwt>
</event>
<event>
 8    1  0.4760912E-006  0.3455211E+03  0.7546771E-02  0.1064469E+00
         21   -1    0    0  504  503  0.00000000000E+00  0.00000000000E+00  0.17400052395E+03  0.17400052395E+03  0.00000000000E+00 0.  1.
         21   -1    0    0  503  504 -0.00000000000E+00 -0.00000000000E+00 -0.17152942257E+03  0.17152942257E+03  0.00000000000E+00 0.  1.
         25    2    1    2    0    0  0.75559432606E+02  0.92233568164E+02  0.33315065665E+01  0.17278045567E+03  0.12500291187E+03 0.  0.
         25    2    1    2    0    0 -0.75559432606E+02 -0.92233568164E+02 -0.86040518929E+00  0.17274949085E+03  0.12500154935E+03 0.  0.
          5    1    3    3  501    0  0.83390461375E+02  0.10444180609E+03  0.34476170504E+02  0.13810414998E+03  0.47000000000E+01 0. -1.
         -5    1    3    3    0  501 -0.78310287691E+01 -0.12208237931E+02 -0.31144663937E+02  0.34676305696E+02  0.47000000000E+01 0. -1.
          5    1    4    4  502    0 -0.45629460959E+02 -0.10782214449E+03 -0.37197919686E+02  0.12293672266E+03  0.47000000000E+01 0.  1.
         -5    1    4    4    0  502 -0.29929971647E+02  0.15588576329E+02  0.36337514497E+02  0.49812768188E+02  0.47000000000E+01 0.  1.
<mgrwt>
<rscale>  0 0.34552111E+03</rscale>
<asrwt>0</asrwt>
<pdfrwt beam="1">  1       21 0.26769311E-01 0.34552111E+03</pdfrwt>
<pdfrwt beam="2">  1       21 0.26389142E-01 0.34552111E+03</pdfrwt>
<totfact> 0.17435361E+05</totfact>
</mgrwt>
</event>
<event>
 8    1  0.4760912E-006  0.3114606E+03  0.7546771E-02  0.1079648E+00
         21   -1    0    0  504  503  0.00000000000E+00  0.00000000000E+00  0.11544707121E+02  0.11544707121E+02  0.00000000000E+00 0.  1.
         21   -1    0    0  503  504 -0.00000000000E+00 -0.00000000000E+00 -0.21006963231E+04  0.21006963231E+04  0.00000000000E+00 0.  1.
         25    2    1    2    0    0 -0.77253798778E+02 -0.51227327159E+02 -0.10049839183E+04  0.10169617141E+04  0.12500425311E+03 0.  0.
         25    2    1    2    0    0  0.77253798778E+02  0.51227327159E+02 -0.10841676976E+04  0.10952793161E+04  0.12499918121E+03 0.  0.
          5    1    3    3  501    0  0.14470930321E+02 -0.16804646646E+02 -0.32968937479E+02  0.40010558753E+02  0.47000000000E+01 0. -1.
         -5    1    3    3    0  501 -0.91724729098E+02 -0.34422680512E+02 -0.97201498086E+03  0.97695115532E+03  0.47000000000E+01 0. -1.
          5    1    4    4  502    0  0.65907997516E+02  0.70334508880E+02 -0.42909377254E+03  0.43981173575E+03  0.47000000000E+01 0.  1.
         -5    1    4    4    0  502  0.11345801261E+02 -0.19107181722E+02 -0.65507392508E+03  0.65546758037E+03  0.47000000000E+01 0.  1.
<mgrwt>
<rscale>  0 0.31146058E+03</rscale>
<asrwt>0</asrwt>
<pdfrwt beam="1">  1       21 0.17761079E-02 0.31146058E+03</pdfrwt>
<pdfrwt beam="2">  1       21 0.32318420E+00 0.31146058E+03</pdfrwt>
<totfact> 0.34137803E+04</totfact>
</mgrwt>
</event>
<event>
 8    1  0.4760912E-006  0.3710803E+03  0.7546771E-02  0.1054281E+00
         21   -1    0    0  504  503  0.00000000000E+00  0.00000000000E+00  0.15738829224E+03  0.15738829224E+03  0.00000000000E+00 0.  1.
         21   -1    0    0  503  504 -0.00000000000E+00 -0.00000000000E+00 -0.21872747044E+03  0.21872747044E+03  0.00000000000E+00 0.  1.
         25    2    1    2    0    0  0.94996898693E+02 -0.88601132025E+02 -0.75173567684E+02  0.19532001806E+03  0.12499709124E+03 0.  0.
         25    2    1    2    0    0 -0.94996898693E+02  0.88601132025E+02  0.13834389490E+02  0.18079574462E+03  0.12498455738E+03 0.  0.
          5    1    3    3  501    0  0.10872981916E+03 -0.27890483503E+02 -0.70690261769E+02  0.13273754463E+03  0.47000000000E+01 0. -1.
         -5    1    3    3    0  501 -0.13732920467E+02 -0.60710648522E+02 -0.44833059152E+01  0.62582473429E+02  0.47000000000E+01 0. -1.
          5    1    4    4  502    0 -0.72956714641E+02 -0.87156693149E+01 -0.18293446436E+02  0.75864255650E+02  0.47000000000E+01 0. -1.
         -5    1    4    4    0  502 -0.22040184052E+02  0.97316801340E+02  0.32127835925E+02  0.10493148897E+03  0.47000000000E+01 0. -1.
<mgrwt>
<rscale>  0 0.37108028E+03</rscale>
<asrwt>0</asrwt>
<pdfrwt beam="1">  1       21 0.24213583E-01 0.37108028E+03</pdfrwt>
<pdfrwt beam="2">  1       21 0.33650380E-01 0.37108028E+03</pdfrwt>
<totfact> 0.13035399E+05</totfact>
</mgrwt>
</event>
<event>
 8    1  0.4760912E-006  0.5756211E+03  0.7546771E-02  0.9957317E-01
         21   -1    0    0  504  503  0.00000000000E+00  0.00000000000E+00  0.21612074349E+03  0.21612074349E+03  0.00000000000E+00 0.  1.
         21   -1    0    0  503  504 -0.00000000000E+00 -0.00000000000E+00 -0.38328064897E+03  0.38328064897E+03  0.00000000000E+00 0.  1.
         25    2    1    2    0    0  0.39711024283E+02 -0.21387004143E+03 -0.23045533556E+03  0.34066607226E+03  0.12500540398E+03 0.  0.
         25    2    1    2    0    0 -0.39711024283E+02  0.21387004143E+03  0.63295430085E+02  0.25873532021E+03  0.12498117612E+03 0.  0.
          5    1    3    3  501    0 -0.39816975148E+02 -0.12602937929E+03 -0.12476610432E+03  0.18181712445E+03  0.47000000000E+01 0. -1.
         -5    1    3    3    0  501  0.79527999432E+02 -0.87840662141E+02 -0.10568923124E+03  0.15884894781E+03  0.47000000000E+01 0. -1.
          5    1    4    4  502    0 -0.33917178994E+01  0.14756155478E+03 -0.16639689218E+02  0.14860984307E+03  0.47000000000E+01 0.  1.
         -5    1    4    4    0  502 -0.36319306384E+02  0.66308486652E+02  0.79935119303E+02  0.11012547714E+03  0.47000000000E+01 0.  1.
<mgrwt>
<rscale>  0 0.57562105E+03</rscale>
<asrwt>0</asrwt>
<pdfrwt beam="1">  1       21 0.33249345E-01 0.57562105E+03</pdfrwt>
<pdfrwt beam="2">  1       21 0.58966254E-01 0.57562105E+03</pdfrwt>
<totfact> 0.20621261E+04</totfact>
</mgrwt>
</event>
<event>
 8    1  0.4760912E-006  0.3754072E+03  0.7546771E-02  0.1052644E+00
         21   -1    0    0  504  503  0.00000000000E+00  0.00000000000E+00  0.36779119554E+02  0.36779119554E+02  0.00000000000E+00 0. -1.
         21   -1    0    0  503  504 -0.00000000000E+00 -0.00000000000E+00 -0.95795215031E+03  0.95795215031E+03  0.00000000000E+00 0. -1.
         25    2    1    2    0    0  0.45933537117E+02 -0.91647436307E+02 -0.71333736737E+03  0.73142658755E+03  0.12500204350E+03 0.  0.
         25    2    1    2    0    0 -0.45933537117E+02  0.91647436307E+02 -0.20783566339E+03  0.26330468231E+03  0.12499820134E+03 0.  0.
          5    1    3    3  501    0  0.46260971135E+02 -0.92208257320E+02 -0.71763359157E+03  0.72502586293E+03  0.47000000000E+01 0.  1.
         -5    1    3    3    0  501 -0.32743401757E+00  0.56082101284E+00  0.42962242036E+01  0.64007246193E+01  0.47000000000E+01 0.  1.
          5    1    4    4  502    0 -0.36653315659E+02  0.86109065583E+02 -0.22428339317E+03  0.24307070407E+03  0.47000000000E+01 0. -1.
         -5    1    4    4    0  502 -0.92802214581E+01  0.55383707244E+01  0.16447729783E+02  0.20233978245E+02  0.47000000000E+01 0. -1.
<mgrwt>
<rscale>  0 0.37540717E+03</rscale>
<asrwt>0</asrwt>
<pdfrwt beam="1">  1       21 0.56583265E-02 0.37540717E+03</pdfrwt>
<pdfrwt beam="2">  1       21 0.14737724E+00 0.37540717E+03</pdfrwt>
<totfact> 0.63505281E+04</totfact>
</mgrwt>
</event>
<event>
 8    1  0.4760912E-006  0.2862004E+03  0.7546771E-02  0.1092350E+00
         21   -1    0    0  504  503  0.00000000000E+00  0.00000000000E+00  0.19896130420E+03  0.19896130420E+03  0.00000000000E+00 0.  1.
         21   -1    0    0  503  504 -0.00000000000E+00 -0.00000000000E+00 -0.10292287808E+03  0.10292287808E+03  0.00000000000E+00 0.  1.
         25    2    1    2    0    0  0.26773606761E+02 -0.59041918938E+01 -0.19547844380E+02  0.12944892509E+03  0.12499288175E+03 0.  0.
         25    2    1    2    0    0 -0.26773606761E+02  0.59041918938E+01  0.11558627049E+03  0.17243525719E+03  0.12498818542E+03 0.  0.
          5    1    3    3  501    0  0.52292059480E+02 -0.44609829508E+02 -0.38754572275E+02  0.79047474632E+02  0.47000000000E+01 0. -1.
         -5    1    3    3    0  501 -0.25518452719E+02  0.38705637614E+02  0.19206727894E+02  0.50401450463E+02  0.47000000000E+01 0. -1.
          5    1    4    4  502    0 -0.60292538532E+02  0.41831086467E+02  0.91868990503E+02  0.11767340997E+03  0.47000000000E+01 0.  1.
         -5    1    4    4    0  502  0.33518931771E+02 -0.35926894573E+02  0.23717279991E+02  0.54761847219E+02  0.47000000000E+01 0.  1.
<mgrwt>
<rscale>  0 0.28620042E+03</rscale>
<asrwt>0</asrwt>
<pdfrwt beam="1">  1       21 0.30609431E-01 0.28620042E+03</pdfrwt>
<pdfrwt beam="2">  1       21 0.15834289E-01 0.28620042E+03</pdfrwt>
<totfact> 0.35677314E+05</totfact>
</mgrwt>
</event>
<event>
 8    1  0.4760912E-006  0.3320577E+03  0.7546771E-02  0.1070230E+00
         21   -1    0    0  504  503  0.00000000000E+00  0.00000000000E+00  0.10975314116E+03  0.10975314116E+03  0.00000000000E+00 0.  1.
         21   -1    0    0  503  504 -0.00000000000E+00 -0.00000000000E+00 -0.25115987902E+03  0.25115987902E+03  0.00000000000E+00 0.  1.
         25    2    1    2    0    0  0.10197675123E+02 -0.77029225289E+02 -0.15420293566E+03  0.21316767088E+03  0.12499766563E+03 0.  0.
         25    2    1    2    0    0 -0.10197675123E+02  0.77029225289E+02  0.12796197810E+02  0.14774534930E+03  0.12500980536E+03 0.  0.
          5    1    3    3  501    0 -0.13130265952E+02  0.18723901537E+01 -0.12491657014E+03  0.12570659976E+03  0.47000000000E+01 0.  1.
         -5    1    3    3    0  501  0.23327941075E+02 -0.78901615443E+02 -0.29286365524E+02  0.87461071111E+02  0.47000000000E+01 0.  1.
          5    1    4    4  502    0  0.41433242142E+02 -0.49819727672E+01  0.26649087383E+02  0.49737284460E+02  0.47000000000E+01 0.  1.
         -5    1    4    4    0  502 -0.51630917265E+02  0.82011198057E+02 -0.13852889574E+02  0.98008064841E+02  0.47000000000E+01 0.  1.
<mgrwt>
<rscale>  0 0.33205774E+03</rscale>
<asrwt>0</asrwt>
<pdfrwt beam="1">  1       21 0.16885099E-01 0.33205774E+03</pdfrwt>
<pdfrwt beam="2">  1       21 0.38639981E-01 0.33205774E+03</pdfrwt>
<totfact> 0.19682024E+05</totfact>
</mgrwt>
</event>
<event>
 8    1  0.4760912E-006  0.2781220E+03  0.7546771E-02  0.1096719E+00
         21   -1    0    0  504  503  0.00000000000E+00  0.00000000000E+00  0.20408361688E+03  0.20408361688E+03  0.00000000000E+00 0.  1.
         21   -1    0    0  503  504 -0.00000000000E+00 -0.00000000000E+00 -0.94755106524E+02  0.94755106524E+02  0.00000000000E+00 0.  1.
         25    2    1    2    0    0 -0.39144850086E+02 -0.46672854477E+02  0.53043529076E+02  0.14882399473E+03  0.12499716316E+03 0.  0.
         25    2    1    2    0    0  0.39144850086E+02  0.46672854477E+02  0.56284981280E+02  0.15001472867E+03  0.12500298023E+03 0.  0.
          5    1    3    3  501    0 -0.23779024620E+01  0.83168175578E+01 -0.36270134995E+02  0.37582397036E+02  0.47000000000E+01 0.  1.
         -5    1    3    3    0  501 -0.36766947624E+02 -0.54989672035E+02  0.89313664072E+02  0.11124159770E+03  0.47000000000E+01 0.  1.
          5    1    4    4  502    0 -0.25279835833E+02  0.45525239368E+02 -0.14421280654E+02  0.54237264450E+02  0.47000000000E+01 0. -1.
         -5    1    4    4    0  502  0.64424685920E+02  0.11476151093E+01  0.70706261934E+02  0.95777464223E+02  0.47000000000E+01 0. -1.
<mgrwt>
<rscale>  0 0.27812202E+03</rscale>
<asrwt>0</asrwt>
<pdfrwt beam="1">  1       21 0.31397480E-01 0.27812202E+03</pdfrwt>
<pdfrwt beam="2">  1       21 0.14577709E-01 0.27812202E+03</pdfrwt>
<totfact> 0.39562231E+05</totfact>
</mgrwt>
</event>
<event>
 8    1  0.4760912E-006  0.4027112E+03  0.7546771E-02  0.1042845E+00
         21   -1    0    0  504  503  0.00000000000E+00  0.00000000000E+00  0.58554541460E+03  0.58554541460E+03  0.00000000000E+00 0.  1.
         21   -1    0    0  503  504 -0.00000000000E+00 -0.00000000000E+00 -0.69241550593E+02  0.69241550593E+02  0.00000000000E+00 0.  1.
         25    2    1    2    0    0 -0.15566873194E+03 -0.26191039213E+02  0.25874916646E+03  0.32786492325E+03  0.12500220844E+03 0.  0.
         25    2    1    2    0    0  0.15566873194E+03  0.26191039213E+02  0.25755469754E+03  0.32692204194E+03  0.12499949857E+03 0.  0.
          5    1    3    3  501    0 -0.15314783862E+03 -0.23782013184E+02  0.13980200799E+03  0.20877388740E+03  0.47000000000E+01 0. -1.
         -5    1    3    3    0  501 -0.25208933194E+01 -0.24090260297E+01  0.11894715848E+03  0.11909103585E+03  0.47000000000E+01 0. -1.
          5    1    4    4  502    0 -0.15812178590E+02  0.78286350598E+01  0.17058512564E+01  0.18338823494E+02  0.47000000000E+01 0.  1.
         -5    1    4    4    0  502  0.17148091053E+03  0.18362404154E+02  0.25584884628E+03  0.30858321845E+03  0.47000000000E+01 0.  1.
<mgrwt>
<rscale>  0 0.40271117E+03</rscale>
<asrwt>0</asrwt>
<pdfrwt beam="1">  1       21 0.90083907E-01 0.40271117E+03</pdfrwt>
<pdfrwt beam="2">  1       21 0.10652547E-01 0.40271117E+03</pdfrwt>
<totfact> 0.70998289E+04</totfact>
</mgrwt>
</event>
<event>
 8    1  0.4760912E-006  0.4224541E+03  0.7546771E-02  0.1036271E+00
         21   -1    0    0  504  503  0.00000000000E+00  0.00000000000E+00  0.21302876295E+03  0.21302876295E+03  0.00000000000E+00 0. -1.
         21   -1    0    0  503  504 -0.00000000000E+00 -0.00000000000E+00 -0.20944056347E+03  0.20944056347E+03  0.00000000000E+00 0. -1.
         25    2    1    2    0    0  0.10149132911E+03 -0.12697586577E+03 -0.48856905576E+02  0.21079873714E+03  0.12500299990E+03 0.  0.
         25    2    1    2    0    0 -0.10149132911E+03  0.12697586577E+03  0.52445105054E+02  0.21167058928E+03  0.12502235380E+03 0.  0.
          5    1    3    3  501    0  0.12043317729E+03 -0.13118974163E+03 -0.25328103273E+02  0.17994027152E+03  0.47000000000E+01 0. -1.
         -5    1    3    3    0  501 -0.18941848179E+02  0.42138758572E+01 -0.23528802303E+02  0.30858465613E+02  0.47000000000E+01 0. -1.
          5    1    4    4  502    0  0.13632175033E+02  0.29620088087E+02  0.51127294059E+02  0.60821673868E+02  0.47000000000E+01 0. -1.
         -5    1    4    4    0  502 -0.11512350415E+03  0.97355777685E+02  0.13178109954E+01  0.15084891541E+03  0.47000000000E+01 0. -1.
<mgrwt>
<rscale>  0 0.42245409E+03</rscale>
<asrwt>0</asrwt>
<pdfrwt beam="1">  1       21 0.32773656E-01 0.42245409E+03</pdfrwt>
<pdfrwt beam="2">  1       21 0.32221625E-01 0.42245409E+03</pdfrwt>
<totfact> 0.77552255E+04</totfact>
</mgrwt>
</event>
<event>
 8    1  0.4760912E-006  0.3075640E+03  0.7546771E-02  0.1081519E+00
         21   -1    0    0  504  503  0.00000000000E+00  0.00000000000E+00  0.11604206644E+03  0.11604206644E+03  0.00000000000E+00 0. -1.
         21   -1    0    0  503  504 -0.00000000000E+00 -0.00000000000E+00 -0.20379594419E+03  0.20379594419E+03  0.00000000000E+00 0. -1.
         25    2    1    2    0    0 -0.26600065802E+02  0.22007941092E+02 -0.12987203100E+03  0.18349506168E+03  0.12494710982E+03 0.  0.
         25    2    1    2    0    0  0.26600065802E+02 -0.22007941092E+02  0.42118153250E+02  0.13634294896E+03  0.12499419157E+03 0.  0.
          5    1    3    3  501    0 -0.53547685606E+02  0.16692788733E+02 -0.14226698983E+03  0.15299670005E+03  0.47000000000E+01 0. -1.
         -5    1    3    3    0  501  0.26947619804E+02  0.53151523590E+01  0.12394958831E+02  0.30498361630E+02  0.47000000000E+01 0. -1.
          5    1    4    4  502    0  0.49145804873E+02  0.37178237347E+02  0.38323107834E+02  0.72720575238E+02  0.47000000000E+01 0.  1.
         -5    1    4    4    0  502 -0.22545739071E+02 -0.59186178439E+02  0.37950454155E+01  0.63622373723E+02  0.47000000000E+01 0.  1.
<mgrwt>
<rscale>  0 0.30756399E+03</rscale>
<asrwt>0</asrwt>
<pdfrwt beam="1">  1       21 0.17852626E-01 0.30756399E+03</pdfrwt>
<pdfrwt beam="2">  1       21 0.31353222E-01 0.30756399E+03</pdfrwt>
<totfact> 0.27119221E+05</totfact>
</mgrwt>
</event>
<event>
 8    1  0.4760912E-006  0.3453349E+03  0.7546771E-02  0.1064546E+00
         21   -1    0    0  504  503  0.00000000000E+00  0.00000000000E+00  0.67270845638E+02  0.67270845638E+02  0.00000000000E+00 0.  1.
         21   -1    0    0  503  504 -0.00000000000E+00 -0.00000000000E+00 -0.44319412314E+03  0.44319412314E+03  0.00000000000E+00 0.  1.
         25    2    1    2    0    0 -0.36854378212E+02 -0.30118853394E+02 -0.26549967780E+02  0.13636362432E+03  0.12499898689E+03 0.  0.
         25    2    1    2    0    0  0.36854378212E+02  0.30118853394E+02 -0.34937330972E+03  0.37410134446E+03  0.12499886343E+03 0.  0.
          5    1    3    3  501    0  0.12038403388E+02  0.80335070974E+00 -0.65302871398E+02  0.66574195762E+02  0.47000000000E+01 0. -1.
         -5    1    3    3    0  501 -0.48892781600E+02 -0.30922204104E+02  0.38752903618E+02  0.69789428555E+02  0.47000000000E+01 0. -1.
          5    1    4    4  502    0  0.50972020186E+02  0.72164585127E+02 -0.24945712545E+03  0.26468249211E+03  0.47000000000E+01 0. -1.
         -5    1    4    4    0  502 -0.14117641974E+02 -0.42045731733E+02 -0.99916184271E+02  0.10941885236E+03  0.47000000000E+01 0. -1.
<mgrwt>
<rscale>  0 0.34533487E+03</rscale>
<asrwt>0</asrwt>
<pdfrwt beam="1">  1       21 0.10349361E-01 0.34533487E+03</pdfrwt>
<pdfrwt beam="2">  1       21 0.68183709E-01 0.34533487E+03</pdfrwt>
<totfact> 0.14346727E+05</totfact>
</mgrwt>
</event>
<event>
 8    1  0.4760912E-006  0.2658596E+03  0.7546771E-02  0.1103673E+00
         21   -1    0    0  504  503  0.00000000000E+00  0.00000000000E+00  0.12173417683E+02  0.12173417683E+02  0.00000000000E+00 0. -1.
         21   -1    0    0  503  504 -0.00000000000E+00 -0.00000000000E+00 -0.14515504324E+04  0.14515504324E+04  0.00000000000E+00 0. -1.
         25    2    1    2    0    0 -0.38085906325E+02 -0.23937603894E+02 -0.69443478048E+03  0.70702824791E+03  0.12500293541E+03 0.  0.
         25    2    1    2    0    0  0.38085906325E+02  0.23937603894E+02 -0.74494223420E+03  0.75669560213E+03  0.12500302739E+03 0.  0.
          5    1    3    3  501    0 -0.83040884156E+02 -0.21743923079E+02 -0.39980355490E+03  0.40894199972E+03  0.47000000000E+01 0.  1.
         -5    1    3    3    0  501  0.44954977831E+02 -0.21936808149E+01 -0.29463122558E+03  0.29808624818E+03  0.47000000000E+01 0.  1.
          5    1    4    4  502    0 -0.13162227644E+02 -0.44334146276E+02 -0.30514058233E+03  0.30866102078E+03  0.47000000000E+01 0.  1.
         -5    1    4    4    0  502  0.51248133969E+02  0.68271750170E+02 -0.43980165186E+03  0.44803458135E+03  0.47000000000E+01 0.  1.
<mgrwt>
<rscale>  0 0.26585958E+03</rscale>
<asrwt>0</asrwt>
<pdfrwt beam="1">  1       21 0.18728340E-02 0.26585958E+03</pdfrwt>
<pdfrwt beam="2">  1       21 0.22331539E+00 0.26585958E+03</pdfrwt>
<totfact> 0.12645422E+05</totfact>
</mgrwt>
</event>
<event>
 8    1  0.4760912E-006  0.2760870E+03  0.7546771E-02  0.1097846E+00
         21   -1    0    0  504  503  0.00000000000E+00  0.00000000000E+00  0.29117808686E+03  0.29117808686E+03  0.00000000000E+00 0. -1.
         21   -1    0    0  503  504 -0.00000000000E+00 -0.00000000000E+00 -0.65444497065E+02  0.65444497065E+02  0.00000000000E+00 0. -1.
         25    2    1    2    0    0 -0.42446696184E+00 -0.23128750258E+02  0.18237769240E+03  0.22230962910E+03  0.12499931697E+03 0.  0.
         25    2    1    2    0    0  0.42446696184E+00  0.23128750258E+02  0.43355897401E+02  0.13431295483E+03  0.12500046694E+03 0.  0.
          5    1    3    3  501    0  0.42915034785E+02  0.64928907462E+01  0.15858202039E+03  0.16448162521E+03  0.47000000000E+01 0. -1.
         -5    1    3    3    0  501 -0.43339501746E+02 -0.29621641005E+02  0.23795672011E+02  0.57828003890E+02  0.47000000000E+01 0. -1.
          5    1    4    4  502    0  0.48581894610E+02 -0.27936351294E+02  0.13156463031E+02  0.57756581677E+02  0.47000000000E+01 0. -1.
         -5    1    4    4    0  502 -0.48157427648E+02  0.51065101553E+02  0.30199434369E+02  0.76556373154E+02  0.47000000000E+01 0. -1.
<mgrwt>
<rscale>  0 0.27608697E+03</rscale>
<asrwt>0</asrwt>
<pdfrwt beam="1">  1       21 0.44796628E-01 0.27608697E+03</pdfrwt>
<pdfrwt beam="2">  1       21 0.10068384E-01 0.27608697E+03</pdfrwt>
<totfact> 0.37646173E+05</totfact>
</mgrwt>
</event>
<event>
 8    1  0.4760912E-006  0.3778280E+03  0.7546771E-02  0.1051739E+00
         21   -1    0    0  504  503  0.00000000000E+00  0.00000000000E+00  0.33521154333E+04  0.33521154333E+04  0.00000000000E+00 0.  1.
         21   -1    0    0  503  504 -0.00000000000E+00 -0.00000000000E+00 -0.10646561545E+02  0.10646561545E+02  0.00000000000E+00 0.  1.
         25    2    1    2    0    0  0.54926985981E+02  0.14364569530E+02  0.28260706654E+04  0.28294031812E+04  0.12499456375E+03 0.  0.
         25    2    1    2    0    0 -0.54926985981E+02 -0.14364569530E+02  0.51539820634E+03  0.53335881369E+03  0.12495198436E+03 0.  0.
          5    1    3    3  501    0  0.51144481431E+02 -0.15472184385E+02  0.45703524466E+03  0.46017219748E+03  0.47000000000E+01 0.  1.
         -5    1    3    3    0  501  0.37825045506E+01  0.29836753915E+02  0.23690354208E+04  0.23692309837E+04  0.47000000000E+01 0.  1.
          5    1    4    4  502    0 -0.13702049993E+02  0.25964008618E+02  0.42493377999E+03  0.42597263210E+03  0.47000000000E+01 0.  1.
         -5    1    4    4    0  502 -0.41224935988E+02 -0.40328578148E+02  0.90464426349E+02  0.10738618159E+03  0.47000000000E+01 0.  1.
<mgrwt>
<rscale>  0 0.37782802E+03</rscale>
<asrwt>0</asrwt>
<pdfrwt beam="1">  1       21 0.51570922E+00 0.37782802E+03</pdfrwt>
<pdfrwt beam="2">  1       21 0.16379352E-02 0.37782802E+03</pdfrwt>
<totfact> 0.20632067E+03</totfact>
</mgrwt>
</event>
<event>
 8    1  0.4760912E-006  0.2667350E+03  0.7546771E-02  0.1103163E+00
         21   -1    0    0  504  503  0.00000000000E+00  0.00000000000E+00  0.97505060027E+03  0.97505060027E+03  0.00000000000E+00 0. -1.
         21   -1    0    0  503  504 -0.00000000000E+00 -0.00000000000E+00 -0.18242014446E+02  0.18242014446E+02  0.00000000000E+00 0. -1.
         25    2    1    2    0    0 -0.42648174095E+02  0.16452721468E+02  0.51004261177E+03  0.52712361342E+03  0.12500511675E+03 0.  0.
         25    2    1    2    0    0  0.42648174095E+02 -0.16452721468E+02  0.44676597406E+03  0.46616900129E+03  0.12499657353E+03 0.  0.
          5    1    3    3  501    0  0.14496978026E+02 -0.19065919986E+00  0.17552922676E+01  0.15341765666E+02  0.47000000000E+01 0. -1.
         -5    1    3    3    0  501 -0.57145152121E+02  0.16643380668E+02  0.50828731950E+03  0.51178184776E+03  0.47000000000E+01 0. -1.
          5    1    4    4  502    0 -0.28797545707E+02  0.29177123969E+02  0.83844029407E+02  0.93447923834E+02  0.47000000000E+01 0. -1.
         -5    1    4    4    0  502  0.71445719802E+02 -0.45629845437E+02  0.36292194465E+03  0.37272107746E+03  0.47000000000E+01 0. -1.
<mgrwt>
<rscale>  0 0.26673498E+03</rscale>
<asrwt>0</asrwt>
<pdfrwt beam="1">  1       21 0.15000774E+00 0.26673498E+03</pdfrwt>
<pdfrwt beam="2">  1       21 0.28064645E-02 0.26673498E+03</pdfrwt>
<totfact> 0.20545590E+05</totfact>
</mgrwt>
</event>
<event>
 8    1  0.4760912E-006  0.3929233E+03  0.7546771E-02  0.1046258E+00
         21   -1    0    0  504  503  0.00000000000E+00  0.00000000000E+00  0.84501706335E+02  0.84501706335E+02  0.00000000000E+00 0.  1.
         21   -1    0    0  503  504 -0.00000000000E+00 -0.00000000000E+00 -0.45676214120E+03  0.45676214120E+03  0.00000000000E+00 0.  1.
         25    2    1    2    0    0 -0.15919390909E+02 -0.52383807584E+02  0.85469935477E+01  0.13671951920E+03  0.12498674141E+03 0.  0.
         25    2    1    2    0    0  0.15919390909E+02  0.52383807584E+02 -0.38080742841E+03  0.40454432834E+03  0.12507727911E+03 0.  0.
          5    1    3    3  501    0 -0.57363050465E+02 -0.15483282655E+02 -0.32173189913E+02  0.67730759258E+02  0.47000000000E+01 0. -1.
         -5    1    3    3    0  501  0.41443659556E+02 -0.36900524929E+02  0.40720183461E+02  0.68988759943E+02  0.47000000000E+01 0. -1.
          5    1    4    4  502    0  0.12974176225E+01 -0.10951649415E+02  0.52049173161E+01  0.13069165301E+02  0.47000000000E+01 0. -1.
         -5    1    4    4    0  502  0.14621973287E+02  0.63335457000E+02 -0.38601234573E+03  0.39147516303E+03  0.47000000000E+01 0. -1.
<mgrwt>
<rscale>  0 0.39292330E+03</rscale>
<asrwt>0</asrwt>
<pdfrwt beam="1">  1       21 0.13000263E-01 0.39292330E+03</pdfrwt>
<pdfrwt beam="2">  1       21 0.70271098E-01 0.39292330E+03</pdfrwt>
<totfact> 0.87807857E+04</totfact>
</mgrwt>
</event>
<event>
 8    1  0.4760912E-006  0.2737484E+03  0.7546771E-02  0.1099153E+00
         21   -1    0    0  504  503  0.00000000000E+00  0.00000000000E+00  0.40775586920E+03  0.40775586920E+03  0.00000000000E+00 0. -1.
         21   -1    0    0  503  504 -0.00000000000E+00 -0.00000000000E+00 -0.45945504834E+02  0.45945504834E+02  0.00000000000E+00 0. -1.
         25    2    1    2    0    0 -0.49183908590E+02 -0.18536097944E+02  0.15000196411E+03  0.20220878214E+03  0.12500063418E+03 0.  0.
         25    2    1    2    0    0  0.49183908590E+02  0.18536097944E+02  0.21180840026E+03  0.25149259190E+03  0.12499232604E+03 0.  0.
          5    1    3    3  501    0 -0.85028638742E+02  0.13983390940E+02  0.10542794544E+03  0.13624443588E+03  0.47000000000E+01 0.  1.
         -5    1    3    3    0  501  0.35844730152E+02 -0.32519488885E+02  0.44574018675E+02  0.65964346262E+02  0.47000000000E+01 0.  1.
          5    1    4    4  502    0  0.14527362278E+02 -0.50192518661E+02  0.12392411988E+03  0.13457195351E+03  0.47000000000E+01 0.  1.
         -5    1    4    4    0  502  0.34656546313E+02  0.68728616605E+02  0.87884280378E+02  0.11692063838E+03  0.47000000000E+01 0.  1.
<mgrwt>
<rscale>  0 0.27374842E+03</rscale>
<asrwt>0</asrwt>
<pdfrwt beam="1">  1       21 0.62731670E-01 0.27374842E+03</pdfrwt>
<pdfrwt beam="2">  1       21 0.70685395E-02 0.27374842E+03</pdfrwt>
<totfact> 0.34344865E+05</totfact>
</mgrwt>
</event>
<event>
 8    1  0.4760912E-006  0.2764928E+03  0.7546771E-02  0.1097620E+00
         21   -1    0    0  504  503  0.00000000000E+00  0.00000000000E+00  0.28972033267E+03  0.28972033267E+03  0.00000000000E+00 0.  1.
         21   -1    0    0  503  504 -0.00000000000E+00 -0.00000000000E+00 -0.65967301516E+02  0.65967301516E+02  0.00000000000E+00 0.  1.
         25    2    1    2    0    0  0.33154760800E+02 -0.47627868198E+02  0.97819819162E+02  0.16900030270E+03  0.12499893320E+03 0.  0.
         25    2    1    2    0    0 -0.33154760800E+02  0.47627868198E+02  0.12593321199E+03  0.18668733148E+03  0.12500133543E+03 0.  0.
          5    1    3    3  501    0  0.51407677056E+02  0.27306906529E+02  0.57026244832E+02  0.81624132486E+02  0.47000000000E+01 0.  1.
         -5    1    3    3    0  501 -0.18252916256E+02 -0.74934774727E+02  0.40793574330E+02  0.87376170218E+02  0.47000000000E+01 0.  1.
          5    1    4    4  502    0 -0.31664473855E+02  0.59600629553E+02  0.14707876079E+03  0.16189232787E+03  0.47000000000E+01 0. -1.
         -5    1    4    4    0  502 -0.14902869455E+01 -0.11972761354E+02 -0.21145548804E+02  0.24795003606E+02  0.47000000000E+01 0. -1.
<mgrwt>
<rscale>  0 0.27649281E+03</rscale>
<asrwt>0</asrwt>
<pdfrwt beam="1">  1       21 0.44572358E-01 0.27649281E+03</pdfrwt>
<pdfrwt beam="2">  1       21 0.10148816E-01 0.27649281E+03</pdfrwt>
<totfact> 0.37500732E+05</totfact>
</mgrwt>
</event>
<event>
 8    1  0.4760912E-006  0.3625702E+03  0.7546771E-02  0.1057571E+00
         21   -1    0    0  504  503  0.00000000000E+00  0.00000000000E+00  0.74207207507E+03  0.74207207507E+03  0.00000000000E+00 0.  1.
         21   -1    0    0  503  504 -0.00000000000E+00 -0.00000000000E+00 -0.44287186193E+02  0.44287186193E+02  0.00000000000E+00 0.  1.
         25    2    1    2    0    0  0.40602116170E+02 -0.25624769810E+02  0.83836289943E+02  0.15797833830E+03  0.12499388463E+03 0.  0.
         25    2    1    2    0    0 -0.40602116170E+02  0.25624769810E+02  0.61394859893E+03  0.62838092296E+03  0.12499816619E+03 0.  0.
          5    1    3    3  501    0  0.21805558687E+02  0.16823509139E+02 -0.26296833161E+02  0.38368297900E+02  0.47000000000E+01 0.  1.
         -5    1    3    3    0  501  0.18796557483E+02 -0.42448278950E+02  0.11013312310E+03  0.11961004040E+03  0.47000000000E+01 0.  1.
          5    1    4    4  502    0 -0.43007988479E+02 -0.43994091389E+02  0.34756621486E+03  0.35300075193E+03  0.47000000000E+01 0.  1.
         -5    1    4    4    0  502  0.24058723089E+01  0.69618861199E+02  0.26638238407E+03  0.27538017103E+03  0.47000000000E+01 0.  1.
<mgrwt>
<rscale>  0 0.36257018E+03</rscale>
<asrwt>0</asrwt>
<pdfrwt beam="1">  1       21 0.11416493E+00 0.36257018E+03</pdfrwt>
<pdfrwt beam="2">  1       21 0.68134138E-02 0.36257018E+03</pdfrwt>
<totfact> 0.89195848E+04</totfact>
</mgrwt>
</event>
<event>
 8    1  0.4760912E-006  0.2759270E+03  0.7546771E-02  0.1097935E+00
         21   -1    0    0  504  503  0.00000000000E+00  0.00000000000E+00  0.59906221020E+02  0.59906221020E+02  0.00000000000E+00 0. -1.
         21   -1    0    0  503  504 -0.00000000000E+00 -0.00000000000E+00 -0.31772873071E+03  0.31772873071E+03  0.00000000000E+00 0. -1.
         25    2    1    2    0    0 -0.48255779222E+02 -0.18333747777E+02 -0.91550204092E+02  0.16330789691E+03  0.12499313096E+03 0.  0.
         25    2    1    2    0    0  0.48255779222E+02  0.18333747777E+02 -0.16627230560E+03  0.21432705483E+03  0.12499944114E+03 0.  0.
          5    1    3    3  501    0 -0.71741645018E+02 -0.21023059722E+02 -0.68194781702E+01  0.75215875668E+02  0.47000000000E+01 0. -1.
         -5    1    3    3    0  501  0.23485865796E+02  0.26893119450E+01 -0.84730725922E+02  0.88092021240E+02  0.47000000000E+01 0. -1.
          5    1    4    4  502    0  0.64989537052E+02 -0.15752139937E+02 -0.16261546895E+03  0.17589101904E+03  0.47000000000E+01 0. -1.
         -5    1    4    4    0  502 -0.16733757830E+02  0.34085887714E+02 -0.36568366541E+01  0.38436035783E+02  0.47000000000E+01 0. -1.
<mgrwt>
<rscale>  0 0.27592700E+03</rscale>
<asrwt>0</asrwt>
<pdfrwt beam="1">  1       21 0.92163416E-02 0.27592700E+03</pdfrwt>
<pdfrwt beam="2">  1       21 0.48881344E-01 0.27592700E+03</pdfrwt>
<totfact> 0.36728162E+05</totfact>
</mgrwt>
</event>
<event>
 8    1  0.4760912E-006  0.3181338E+03  0.7546771E-02  0.1076511E+00
         21   -1    0    0  504  503  0.00000000000E+00  0.00000000000E+00  0.80469439584E+03  0.80469439584E+03  0.00000000000E+00 0. -1.
         21   -1    0    0  503  504 -0.00000000000E+00 -0.00000000000E+00 -0.31443335140E+02  0.31443335140E+02  0.00000000000E+00 0. -1.
         25    2    1    2    0    0 -0.29815146801E+02  0.22572058283E+01  0.14024224337E+03  0.19021293224E+03  0.12497613696E+03 0.  0.
         25    2    1    2    0    0  0.29815146801E+02 -0.22572058283E+01  0.63300881734E+03  0.64592479874E+03  0.12499857938E+03 0.  0.
          5    1    3    3  501    0 -0.35644755848E+02 -0.14087139381E+02 -0.91981727388E+01  0.39694993351E+02  0.47000000000E+01 0. -1.
         -5    1    3    3    0  501  0.58296090469E+01  0.16344345209E+02  0.14944041611E+03  0.15051793889E+03  0.47000000000E+01 0. -1.
          5    1    4    4  502    0  0.35486352947E+02  0.33119931533E+02  0.57834036978E+03  0.58039287076E+03  0.47000000000E+01 0.  1.
         -5    1    4    4    0  502 -0.56712061455E+01 -0.35377137362E+02  0.54668447558E+02  0.65531927985E+02  0.47000000000E+01 0.  1.
<mgrwt>
<rscale>  0 0.31813378E+03</rscale>
<asrwt>0</asrwt>
<pdfrwt beam="1">  1       21 0.12379912E+00 0.31813378E+03</pdfrwt>
<pdfrwt beam="2">  1       21 0.48374368E-02 0.31813378E+03</pdfrwt>
<totfact> 0.13313882E+05</totfact>
</mgrwt>
</event>
<event>
 8    1  0.4760912E-006  0.3699747E+03  0.7546771E-02  0.1054703E+00
         21   -1    0    0  504  503  0.00000000000E+00  0.00000000000E+00  0.25219166582E+03  0.25219166582E+03  0.00000000000E+00 0. -1.
         21   -1    0    0  503  504 -0.00000000000E+00 -0.00000000000E+00 -0.13569174267E+03  0.13569174267E+03  0.00000000000E+00 0. -1.
         25    2    1    2    0    0  0.43209691350E+02  0.11801157633E+03  0.11371429101E+03  0.21059714717E+03  0.12500563525E+03 0.  0.
         25    2    1    2    0    0 -0.43209691350E+02 -0.11801157633E+03  0.27856321430E+01  0.17728626132E+03  0.12501539558E+03 0.  0.
          5    1    3    3  501    0 -0.21679188123E+02  0.67001271753E+02  0.71135881767E+00  0.70581538985E+02  0.47000000000E+01 0. -1.
         -5    1    3    3    0  501  0.64888879473E+02  0.51010304579E+02  0.11300293219E+03  0.14001560819E+03  0.47000000000E+01 0. -1.
          5    1    4    4  502    0  0.23638626022E+02 -0.41446291083E+02 -0.44201900846E+02  0.65211024552E+02  0.47000000000E+01 0.  1.
         -5    1    4    4    0  502 -0.66848317372E+02 -0.76565285248E+02  0.46987532989E+02  0.11207523677E+03  0.47000000000E+01 0.  1.
<mgrwt>
<rscale>  0 0.36997474E+03</rscale>
<asrwt>0</asrwt>
<pdfrwt beam="1">  1       21 0.38798718E-01 0.36997474E+03</pdfrwt>
<pdfrwt beam="2">  1       21 0.20875653E-01 0.36997474E+03</pdfrwt>
<totfact> 0.12990673E+05</totfact>
</mgrwt>
</event>
<event>
 8    1  0.4760912E-006  0.2765324E+03  0.7546771E-02  0.1097598E+00
         21   -1    0    0  504  503  0.00000000000E+00  0.00000000000E+00  0.30587609133E+02  0.30587609133E+02  0.00000000000E+00 0. -1.
         21   -1    0    0  503  504 -0.00000000000E+00 -0.00000000000E+00 -0.62500931375E+03  0.62500931375E+03  0.00000000000E+00 0. -1.
         25    2    1    2    0    0  0.12518399317E+02  0.27147308319E+02 -0.17638793821E+03  0.21824881399E+03  0.12500461348E+03 0.  0.
         25    2    1    2    0    0 -0.12518399317E+02 -0.27147308319E+02 -0.41803376641E+03  0.43734810889E+03  0.12500980691E+03 0.  0.
          5    1    3    3  501    0  0.71385816187E+01  0.26078167635E+02  0.11835778001E+02  0.29886549075E+02  0.47000000000E+01 0. -1.
         -5    1    3    3    0  501  0.53798176979E+01  0.10691406841E+01 -0.18822371621E+03  0.18836226491E+03  0.47000000000E+01 0. -1.
          5    1    4    4  502    0  0.37362252145E+02  0.32985877866E+02 -0.17522697811E+03  0.18223772902E+03  0.47000000000E+01 0. -1.
         -5    1    4    4    0  502 -0.49880651461E+02 -0.60133186185E+02 -0.24280678830E+03  0.25511037987E+03  0.47000000000E+01 0. -1.
<mgrwt>
<rscale>  0 0.27653239E+03</rscale>
<asrwt>0</asrwt>
<pdfrwt beam="1">  1       21 0.47057863E-02 0.27653239E+03</pdfrwt>
<pdfrwt beam="2">  1       21 0.96155274E-01 0.27653239E+03</pdfrwt>
<totfact> 0.26209014E+05</totfact>
</mgrwt>
</event>
<event>
 8    1  0.4760912E-006  0.3498254E+03  0.7546771E-02  0.1062687E+00
         21   -1    0    0  504  503  0.00000000000E+00  0.00000000000E+00  0.14819848453E+02  0.14819848453E+02  0.00000000000E+00 0. -1.
         21   -1    0    0  503  504 -0.00000000000E+00 -0.00000000000E+00 -0.20644239528E+04  0.20644239528E+04  0.00000000000E+00 0. -1.
         25    2    1    2    0    0 -0.13483439760E+02 -0.42160213666E+02 -0.34688733212E+03  0.37137052089E+03  0.12500382328E+03 0.  0.
         25    2    1    2    0    0  0.13483439760E+02  0.42160213666E+02 -0.17027167722E+04  0.17078732803E+04  0.12500979400E+03 0.  0.
          5    1    3    3  501    0  0.30078929916E+01 -0.84573704536E+02 -0.19217530104E+03  0.21003617605E+03  0.47000000000E+01 0.  1.
         -5    1    3    3    0  501 -0.16491332752E+02  0.42413490870E+02 -0.15471203108E+03  0.16133434484E+03  0.47000000000E+01 0.  1.
          5    1    4    4  502    0  0.64946917097E+02  0.17834370686E+02 -0.12050050515E+04  0.12068949544E+04  0.47000000000E+01 0. -1.
         -5    1    4    4    0  502 -0.51463477336E+02  0.24325842980E+02 -0.49771172067E+03  0.50097832591E+03  0.47000000000E+01 0. -1.
<mgrwt>
<rscale>  0 0.34982539E+03</rscale>
<asrwt>0</asrwt>
<pdfrwt beam="1">  1       21 0.22799789E-02 0.34982539E+03</pdfrwt>
<pdfrwt beam="2">  1       21 0.31760338E+00 0.34982539E+03</pdfrwt>
<totfact> 0.23889386E+04</totfact>
</mgrwt>
</event>
<event>
 8    1  0.4760912E-006  0.4409122E+03  0.7546771E-02  0.1030467E+00
         21   -1    0    0  504  503  0.00000000000E+00  0.00000000000E+00  0.15932797258E+03  0.15932797258E+03  0.00000000000E+00 0.  1.
         21   -1    0    0  503  504 -0.00000000000E+00 -0.00000000000E+00 -0.30503683655E+03  0.30503683655E+03  0.00000000000E+00 0.  1.
         25    2    1    2    0    0 -0.12509537264E+03 -0.33543900732E+02  0.61256226598E+02  0.19007769811E+03  0.12491261141E+03 0.  0.
         25    2    1    2    0    0  0.12509537264E+03  0.33543900732E+02 -0.20696509057E+03  0.27428711103E+03  0.12499930011E+03 0.  0.
          5    1    3    3  501    0 -0.14680344575E+03 -0.33686041489E+02  0.33221763969E+02  0.15431064991E+03  0.47000000000E+01 0. -1.
         -5    1    3    3    0  501  0.21708073105E+02  0.14214075725E+00  0.28034462629E+02  0.35767048198E+02  0.47000000000E+01 0. -1.
          5    1    4    4  502    0  0.11790786898E+03  0.69871683286E+02 -0.18717560796E+03  0.23203688480E+03  0.47000000000E+01 0. -1.
         -5    1    4    4    0  502  0.71875036670E+01 -0.36327782554E+02 -0.19789482605E+02  0.42250226224E+02  0.47000000000E+01 0. -1.
<mgrwt>
<rscale>  0 0.44091224E+03</rscale>
<asrwt>0</asrwt>
<pdfrwt beam="1">  1       21 0.24511996E-01 0.44091224E+03</pdfrwt>
<pdfrwt beam="2">  1       21 0.46928744E-01 0.44091224E+03</pdfrwt>
<totfact> 0.63349799E+04</totfact>
</mgrwt>
</event>
<event>
 8    1  0.4760912E-006  0.2782300E+03  0.7546771E-02  0.1096660E+00
         21   -1    0    0  504  503  0.00000000000E+00  0.00000000000E+00  0.42256071897E+02  0.42256071897E+02  0.00000000000E+00 0.  1.
         21   -1    0    0  503  504 -0.00000000000E+00 -0.00000000000E+00 -0.45799297786E+03  0.45799297786E+03  0.00000000000E+00 0.  1.
         25    2    1    2    0    0  0.85588058063E+00 -0.26428754670E+02 -0.10891554349E+03  0.16788760393E+03  0.12499776132E+03 0.  0.
         25    2    1    2    0    0 -0.85588058063E+00  0.26428754670E+02 -0.30682136248E+03  0.33236144583E+03  0.12500228237E+03 0.  0.
          5    1    3    3  501    0  0.19937945607E+02 -0.18685267355E+01  0.23822192616E+02  0.31473797486E+02  0.47000000000E+01 0.  1.
         -5    1    3    3    0  501 -0.19082065026E+02 -0.24560227935E+02 -0.13273773610E+03  0.13641380644E+03  0.47000000000E+01 0.  1.
          5    1    4    4  502    0  0.35982667739E+02 -0.11713015155E+02 -0.25579307405E+03  0.25861967024E+03  0.47000000000E+01 0.  1.
         -5    1    4    4    0  502 -0.36838548319E+02  0.38141769825E+02 -0.51028288422E+02  0.73741775589E+02  0.47000000000E+01 0.  1.
<mgrwt>
<rscale>  0 0.27823001E+03</rscale>
<asrwt>0</asrwt>
<pdfrwt beam="1">  1       21 0.65009336E-02 0.27823001E+03</pdfrwt>
<pdfrwt beam="2">  1       21 0.70460464E-01 0.27823001E+03</pdfrwt>
<totfact> 0.30714475E+05</totfact>
</mgrwt>
</event>
<event>
 8    1  0.4760912E-006  0.5912797E+03  0.7546771E-02  0.9923665E-01
         21   -1    0    0  504  503  0.00000000000E+00  0.00000000000E+00  0.12969442152E+04  0.12969442152E+04  0.00000000000E+00 0.  1.
         21   -1    0    0  503  504 -0.00000000000E+00 -0.00000000000E+00 -0.67391432639E+02  0.67391432639E+02  0.00000000000E+00 0.  1.
         25    2    1    2    0    0 -0.14836364514E+03 -0.12829882078E+03  0.19367620776E+03  0.30266792083E+03  0.12500015295E+03 0.  0.
         25    2    1    2    0    0  0.14836364514E+03  0.12829882078E+03  0.10358765748E+04  0.10616677270E+04  0.12500290286E+03 0.  0.
          5    1    3    3  501    0  0.17029710270E+01 -0.25881209739E+02 -0.11336618666E+02  0.28694007225E+02  0.47000000000E+01 0. -1.
         -5    1    3    3    0  501 -0.15006661617E+03 -0.10241761104E+03  0.20501282643E+03  0.27397391361E+03  0.47000000000E+01 0. -1.
          5    1    4    4  502    0  0.11855828802E+03  0.27598561132E+02  0.67017808665E+03  0.68115967735E+03  0.47000000000E+01 0.  1.
         -5    1    4    4    0  502  0.29805357123E+02  0.10070025965E+03  0.36569848812E+03  0.38050804961E+03  0.47000000000E+01 0.  1.
<mgrwt>
<rscale>  0 0.59127973E+03</rscale>
<asrwt>0</asrwt>
<pdfrwt beam="1">  1       21 0.19952986E+00 0.59127973E+03</pdfrwt>
<pdfrwt beam="2">  1       21 0.10367914E-01 0.59127973E+03</pdfrwt>
<totfact> 0.85627258E+03</totfact>
</mgrwt>
</event>
<event>
 8    1  0.4760912E-006  0.3021720E+03  0.7546771E-02  0.1084160E+00
         21   -1    0    0  504  503  0.00000000000E+00  0.00000000000E+00  0.22278070637E+03  0.22278070637E+03  0.00000000000E+00 0. -1.
         21   -1    0    0  503  504 -0.00000000000E+00 -0.00000000000E+00 -0.10246389261E+03  0.10246389261E+03  0.00000000000E+00 0. -1.
         25    2    1    2    0    0 -0.72665090787E+02  0.10304900779E+02  0.14177543099E+02  0.14558997819E+03  0.12493611417E+03 0.  0.
         25    2    1    2    0    0  0.72665090787E+02 -0.10304900779E+02  0.10613927066E+03  0.17965462078E+03  0.12499532628E+03 0.  0.
          5    1    3    3  501    0  0.65856141470E+00 -0.13338151155E+02  0.56028440329E+02  0.57789411703E+02  0.47000000000E+01 0. -1.
         -5    1    3    3    0  501 -0.73323652202E+02  0.23643051934E+02 -0.41850897229E+02  0.87800566489E+02  0.47000000000E+01 0. -1.
          5    1    4    4  502    0 -0.32900948549E+02 -0.10384438482E+02  0.47214781134E+02  0.58665445839E+02  0.47000000000E+01 0.  1.
         -5    1    4    4    0  502  0.10556603934E+03  0.79537702247E-01  0.58924489530E+02  0.12098917494E+03  0.47000000000E+01 0.  1.
<mgrwt>
<rscale>  0 0.30217199E+03</rscale>
<asrwt>0</asrwt>
<pdfrwt beam="1">  1       21 0.34273955E-01 0.30217199E+03</pdfrwt>
<pdfrwt beam="2">  1       21 0.15763676E-01 0.30217199E+03</pdfrwt>
<totfact> 0.28648176E+05</totfact>
</mgrwt>
</event>
<event>
 8    1  0.4760912E-006  0.3305190E+03  0.7546771E-02  0.1070907E+00
         21   -1    0    0  504  503  0.00000000000E+00  0.00000000000E+00  0.64174889994E+03  0.64174889994E+03  0.00000000000E+00 0. -1.
         21   -1    0    0  503  504 -0.00000000000E+00 -0.00000000000E+00 -0.42556680402E+02  0.42556680402E+02  0.00000000000E+00 0. -1.
         25    2    1    2    0    0 -0.59229848131E+02 -0.59996629836E+02  0.15948672465E+03  0.21947022946E+03  0.12499358295E+03 0.  0.
         25    2    1    2    0    0  0.59229848131E+02  0.59996629836E+02  0.43970549489E+03  0.46483535088E+03  0.12499284256E+03 0.  0.
          5    1    3    3  501    0 -0.59549181286E+02 -0.20159062560E+02  0.16713719424E+03  0.17863209257E+03  0.47000000000E+01 0. -1.
         -5    1    3    3    0  501  0.31933315446E+00 -0.39837567275E+02 -0.76504695932E+01  0.40838136895E+02  0.47000000000E+01 0. -1.
          5    1    4    4  502    0  0.35414021314E+01 -0.32361469623E+02  0.18953277782E+03  0.19236571969E+03  0.47000000000E+01 0.  1.
         -5    1    4    4    0  502  0.55688446000E+02  0.92358099459E+02  0.25017271707E+03  0.27246963119E+03  0.47000000000E+01 0.  1.
<mgrwt>
<rscale>  0 0.33051900E+03</rscale>
<asrwt>0</asrwt>
<pdfrwt beam="1">  1       21 0.98730593E-01 0.33051900E+03</pdfrwt>
<pdfrwt beam="2">  1       21 0.65471821E-02 0.33051900E+03</pdfrwt>
<totfact> 0.13752518E+05</totfact>
</mgrwt>
</event>
<event>
 8    1  0.4760912E-006  0.2724336E+03  0.7546771E-02  0.1099895E+00
         21   -1    0    0  504  503  0.00000000000E+00  0.00000000000E+00  0.61076492367E+02  0.61076492367E+02  0.00000000000E+00 0. -1.
         21   -1    0    0  503  504 -0.00000000000E+00 -0.00000000000E+00 -0.30379960141E+03  0.30379960141E+03  0.00000000000E+00 0. -1.
         25    2    1    2    0    0 -0.18557925110E+02  0.32634097625E+02 -0.69074471602E+02  0.14766758627E+03  0.12500020998E+03 0.  0.
         25    2    1    2    0    0  0.18557925110E+02 -0.32634097625E+02 -0.17364863744E+03  0.21720850751E+03  0.12496521731E+03 0.  0.
          5    1    3    3  501    0 -0.55872892712E+02  0.52717077061E+02 -0.71383259193E+02  0.10496918618E+03  0.47000000000E+01 0.  1.
         -5    1    3    3    0  501  0.37314967602E+02 -0.20082979436E+02  0.23087875915E+01  0.42698400091E+02  0.47000000000E+01 0.  1.
          5    1    4    4  502    0  0.57863127418E+02 -0.46651496532E+02 -0.58694794571E+02  0.94824430149E+02  0.47000000000E+01 0. -1.
         -5    1    4    4    0  502 -0.39305202309E+02  0.14017398907E+02 -0.11495384287E+03  0.12238407736E+03  0.47000000000E+01 0. -1.
<mgrwt>
<rscale>  0 0.27243358E+03</rscale>
<asrwt>0</asrwt>
<pdfrwt beam="1">  1       21 0.93963834E-02 0.27243358E+03</pdfrwt>
<pdfrwt beam="2">  1       21 0.46738400E-01 0.27243358E+03</pdfrwt>
<totfact> 0.39001479E+05</totfact>
</mgrwt>
</event>
<event>
 8    1  0.4760912E-006  0.4417006E+03  0.7546771E-02  0.1030226E+00
         21   -1    0    0  504  503  0.00000000000E+00  0.00000000000E+00  0.82928596354E+03  0.82928596354E+03  0.00000000000E+00 0.  1.
         21   -1    0    0  503  504 -0.00000000000E+00 -0.00000000000E+00 -0.58815478998E+02  0.58815478998E+02  0.00000000000E+00 0.  1.
         25    2    1    2    0    0  0.76479038253E+02 -0.36419223461E+02  0.70927908782E+03  0.72517376429E+03  0.12499904343E+03 0.  0.
         25    2    1    2    0    0 -0.76479038253E+02  0.36419223461E+02  0.61191396717E+02  0.16292767825E+03  0.12500255268E+03 0.  0.
          5    1    3    3  501    0 -0.11015065995E+02 -0.79139635814E+01  0.44610833458E+03  0.44633921930E+03  0.47000000000E+01 0. -1.
         -5    1    3    3    0  501  0.87494104249E+02 -0.28505259879E+02  0.26317075324E+03  0.27883454499E+03  0.47000000000E+01 0. -1.
          5    1    4    4  502    0 -0.46178831246E+02 -0.99278976134E+00  0.93751613678E+02  0.10461799632E+03  0.47000000000E+01 0. -1.
         -5    1    4    4    0  502 -0.30300207007E+02  0.37412013222E+02 -0.32560216961E+02  0.58309681928E+02  0.47000000000E+01 0. -1.
<mgrwt>
<rscale>  0 0.44170058E+03</rscale>
<asrwt>0</asrwt>
<pdfrwt beam="1">  1       21 0.12758245E+00 0.44170058E+03</pdfrwt>
<pdfrwt beam="2">  1       21 0.90485358E-02 0.44170058E+03</pdfrwt>
<totfact> 0.39951023E+04</totfact>
</mgrwt>
</event>
<event>
 8    1  0.4760912E-006  0.4335479E+03  0.7546771E-02  0.1032745E+00
         21   -1    0    0  504  503  0.00000000000E+00  0.00000000000E+00  0.58176037296E+02  0.58176037296E+02  0.00000000000E+00 0. -1.
         21   -1    0    0  503  504 -0.00000000000E+00 -0.00000000000E+00 -0.80773708899E+03  0.80773708899E+03  0.00000000000E+00 0. -1.
         25    2    1    2    0    0  0.92635199071E+02  0.14297140573E+03 -0.47145741492E+03  0.51664418226E+03  0.12500805580E+03 0.  0.
         25    2    1    2    0    0 -0.92635199071E+02 -0.14297140573E+03 -0.27810363677E+03  0.34926894403E+03  0.12500023805E+03 0.  0.
          5    1    3    3  501    0  0.11691324593E+03  0.10478781344E+03 -0.29261517241E+03  0.33210679313E+03  0.47000000000E+01 0.  1.
         -5    1    3    3    0  501 -0.24278046862E+02  0.38183592296E+02 -0.17884224252E+03  0.18453738914E+03  0.47000000000E+01 0.  1.
          5    1    4    4  502    0  0.92700321437E+01 -0.20650631517E+02  0.57127881954E+01  0.23814030045E+02  0.47000000000E+01 0. -1.
         -5    1    4    4    0  502 -0.10190523121E+03 -0.12232077421E+03 -0.28381642497E+03  0.32545491398E+03  0.47000000000E+01 0. -1.
<mgrwt>
<rscale>  0 0.43354789E+03</rscale>
<asrwt>0</asrwt>
<pdfrwt beam="1">  1       21 0.89501598E-02 0.43354789E+03</pdfrwt>
<pdfrwt beam="2">  1       21 0.12426724E+00 0.43354789E+03</pdfrwt>
<totfact> 0.43684806E+04</totfact>
</mgrwt>
</event>
<event>
 8    1  0.4760912E-006  0.3426471E+03  0.7546771E-02  0.1065674E+00
         21   -1    0    0  504  503  0.00000000000E+00  0.00000000000E+00  0.17949551527E+03  0.17949551527E+03  0.00000000000E+00 0. -1.
         21   -1    0    0  503  504 -0.00000000000E+00 -0.00000000000E+00 -0.16352359766E+03  0.16352359766E+03  0.00000000000E+00 0. -1.
         25    2    1    2    0    0 -0.65342589702E+02 -0.49864962104E+02  0.91566440619E+02  0.17540403597E+03  0.12500397719E+03 0.  0.
         25    2    1    2    0    0  0.65342589702E+02  0.49864962104E+02 -0.75594523009E+02  0.16761507696E+03  0.12499645452E+03 0.  0.
          5    1    3    3  501    0 -0.15328068704E+02 -0.57325653418E+02 -0.11388060687E+02  0.60604935081E+02  0.47000000000E+01 0. -1.
         -5    1    3    3    0  501 -0.50014520997E+02  0.74606913139E+01  0.10295450131E+03  0.11479910089E+03  0.47000000000E+01 0. -1.
          5    1    4    4  502    0  0.15150134121E+02  0.75085290771E+02 -0.44847364275E+01  0.76873469513E+02  0.47000000000E+01 0.  1.
         -5    1    4    4    0  502  0.50192455580E+02 -0.25220328667E+02 -0.71109786582E+02  0.90741607452E+02  0.47000000000E+01 0.  1.
<mgrwt>
<rscale>  0 0.34264706E+03</rscale>
<asrwt>0</asrwt>
<pdfrwt beam="1">  1       21 0.27614695E-01 0.34264706E+03</pdfrwt>
<pdfrwt beam="2">  1       21 0.25157477E-01 0.34264706E+03</pdfrwt>
<totfact> 0.18013724E+05</totfact>
</mgrwt>
</event>
<event>
 8    1  0.4760912E-006  0.2538056E+03  0.7546771E-02  0.1110923E+00
         21   -1    0    0  504  503  0.00000000000E+00  0.00000000000E+00  0.18221090387E+03  0.18221090387E+03  0.00000000000E+00 0. -1.
         21   -1    0    0  503  504 -0.00000000000E+00 -0.00000000000E+00 -0.88382869257E+02  0.88382869257E+02  0.00000000000E+00 0. -1.
         25    2    1    2    0    0 -0.63974478217E+00  0.20089189543E+02  0.56149067873E+02  0.13849994025E+03  0.12500212325E+03 0.  0.
         25    2    1    2    0    0  0.63974478217E+00 -0.20089189543E+02  0.37678966741E+02  0.13209383288E+03  0.12500036536E+03 0.  0.
          5    1    3    3  501    0  0.42457842428E+02 -0.74156945365E+01  0.72622293166E+02  0.84579834321E+02  0.47000000000E+01 0. -1.
         -5    1    3    3    0  501 -0.43097587211E+02  0.27504884079E+02 -0.16473225294E+02  0.53920105927E+02  0.47000000000E+01 0. -1.
          5    1    4    4  502    0  0.67751581667E+01 -0.59594781275E+02 -0.18535151624E+02  0.62953018745E+02  0.47000000000E+01 0.  1.
         -5    1    4    4    0  502 -0.61354133845E+01  0.39505591732E+02  0.56214118365E+02  0.69140814133E+02  0.47000000000E+01 0.  1.
<mgrwt>
<rscale>  0 0.25380561E+03</rscale>
<asrwt>0</asrwt>
<pdfrwt beam="1">  1       21 0.28032447E-01 0.25380561E+03</pdfrwt>
<pdfrwt beam="2">  1       21 0.13597365E-01 0.25380561E+03</pdfrwt>
<totfact> 0.56348731E+05</totfact>
</mgrwt>
</event>
<event>
 8    1  0.4760912E-006  0.3550800E+03  0.7546771E-02  0.1060549E+00
         21   -1    0    0  504  503  0.00000000000E+00  0.00000000000E+00  0.26855159587E+03  0.26855159587E+03  0.00000000000E+00 0. -1.
         21   -1    0    0  503  504 -0.00000000000E+00 -0.00000000000E+00 -0.11737203519E+03  0.11737203519E+03  0.00000000000E+00 0. -1.
         25    2    1    2    0    0  0.14256761290E+02 -0.10385241255E+03 -0.54823179156E+00  0.16313525626E+03  0.12499692974E+03 0.  0.
         25    2    1    2    0    0 -0.14256761290E+02  0.10385241255E+03  0.15172779247E+03  0.22278837479E+03  0.12499903240E+03 0.  0.
          5    1    3    3  501    0  0.33896733964E+02 -0.11278017205E+03  0.33525254188E+02  0.12253321366E+03  0.47000000000E+01 0.  1.
         -5    1    3    3    0  501 -0.19639972674E+02  0.89277595083E+01 -0.34073485980E+02  0.40602042600E+02  0.47000000000E+01 0.  1.
          5    1    4    4  502    0 -0.44573288163E+02  0.53094268642E+02  0.11360493040E+02  0.70405469833E+02  0.47000000000E+01 0.  1.
         -5    1    4    4    0  502  0.30316526873E+02  0.50758143905E+02  0.14036729943E+03  0.15238290496E+03  0.47000000000E+01 0.  1.
<mgrwt>
<rscale>  0 0.35507998E+03</rscale>
<asrwt>0</asrwt>
<pdfrwt beam="1">  1       21 0.41315630E-01 0.35507998E+03</pdfrwt>
<pdfrwt beam="2">  1       21 0.18057236E-01 0.35507998E+03</pdfrwt>
<totfact> 0.15066338E+05</totfact>
</mgrwt>
</event>
<event>
 8    1  0.4760912E-006  0.2767298E+03  0.7546771E-02  0.1097489E+00
         21   -1    0    0  504  503  0.00000000000E+00  0.00000000000E+00  0.16157193059E+03  0.16157193059E+03  0.00000000000E+00 0. -1.
         21   -1    0    0  503  504 -0.00000000000E+00 -0.00000000000E+00 -0.11849116301E+03  0.11849116301E+03  0.00000000000E+00 0. -1.
         25    2    1    2    0    0  0.40996985294E+01 -0.30261089129E+02  0.73012430417E+02  0.14794688472E+03  0.12499969863E+03 0.  0.
         25    2    1    2    0    0 -0.40996985294E+01  0.30261089129E+02 -0.29931662835E+02  0.13211620889E+03  0.12500498857E+03 0.  0.
          5    1    3    3  501    0 -0.41592364113E+02  0.27591211467E+02  0.10600527793E+02  0.51241203072E+02  0.47000000000E+01 0. -1.
         -5    1    3    3    0  501  0.45692062643E+02 -0.57852300597E+02  0.62411902624E+02  0.96705681643E+02  0.47000000000E+01 0. -1.
          5    1    4    4  502    0 -0.48231164721E+02  0.69099280277E+01 -0.56995385381E+02  0.75130262281E+02  0.47000000000E+01 0. -1.
         -5    1    4    4    0  502  0.44131466191E+02  0.23351161102E+02  0.27063722546E+02  0.56985946610E+02  0.47000000000E+01 0. -1.
<mgrwt>
<rscale>  0 0.27672980E+03</rscale>
<asrwt>0</asrwt>
<pdfrwt beam="1">  1       21 0.24857220E-01 0.27672980E+03</pdfrwt>
<pdfrwt beam="2">  1       21 0.18229410E-01 0.27672980E+03</pdfrwt>
<totfact> 0.41275393E+05</totfact>
</mgrwt>
</event>
<event>
 8    1  0.4760912E-006  0.3702561E+03  0.7546771E-02  0.1054595E+00
         21   -1    0    0  504  503  0.00000000000E+00  0.00000000000E+00  0.71510010368E+02  0.71510010368E+02  0.00000000000E+00 0.  1.
         21   -1    0    0  503  504 -0.00000000000E+00 -0.00000000000E+00 -0.47926697671E+03  0.47926697671E+03  0.00000000000E+00 0.  1.
         25    2    1    2    0    0  0.98564739856E+02 -0.10767483396E+02 -0.34356599245E+03  0.37880048444E+03  0.12498507592E+03 0.  0.
         25    2    1    2    0    0 -0.98564739856E+02  0.10767483396E+02 -0.64190973892E+02  0.17197650264E+03  0.12499795874E+03 0.  0.
          5    1    3    3  501    0  0.30620240155E+02  0.30192327302E+02 -0.25962797823E+03  0.26320705313E+03  0.47000000000E+01 0.  1.
         -5    1    3    3    0  501  0.67944499701E+02 -0.40959810698E+02 -0.83938014222E+02  0.11559343132E+03  0.47000000000E+01 0.  1.
          5    1    4    4  502    0 -0.57989623682E+02  0.19506617443E+02 -0.99754593452E+02  0.11711692232E+03  0.47000000000E+01 0. -1.
         -5    1    4    4    0  502 -0.40575116174E+02 -0.87391340478E+01  0.35563619560E+02  0.54859580318E+02  0.47000000000E+01 0. -1.
<mgrwt>
<rscale>  0 0.37025605E+03</rscale>
<asrwt>0</asrwt>
<pdfrwt beam="1">  1       21 0.11001541E-01 0.37025605E+03</pdfrwt>
<pdfrwt beam="2">  1       21 0.73733378E-01 0.37025605E+03</pdfrwt>
<totfact> 0.10722398E+05</totfact>
</mgrwt>
</event>
<event>
 8    1  0.4760912E-006  0.3607331E+03  0.7546771E-02  0.1058294E+00
         21   -1    0    0  504  503  0.00000000000E+00  0.00000000000E+00  0.13919619496E+04  0.13919619496E+04  0.00000000000E+00 0.  1.
         21   -1    0    0  503  504 -0.00000000000E+00 -0.00000000000E+00 -0.23371400259E+02  0.23371400259E+02  0.00000000000E+00 0.  1.
         25    2    1    2    0    0 -0.32856086560E+02 -0.10791789232E+03  0.93802376213E+03  0.95301490946E+03  0.12499218149E+03 0.  0.
         25    2    1    2    0    0  0.32856086560E+02  0.10791789232E+03  0.43056678724E+03  0.46231844042E+03  0.12499915270E+03 0.  0.
          5    1    3    3  501    0 -0.43259304978E+02 -0.66458496395E+02  0.86215431555E+03  0.86580612901E+03  0.47000000000E+01 0. -1.
         -5    1    3    3    0  501  0.10403218418E+02 -0.41459395925E+02  0.75869446582E+02  0.87208780456E+02  0.47000000000E+01 0. -1.
          5    1    4    4  502    0 -0.37123180397E+02  0.26028620458E+02  0.23133478514E+03  0.23578272291E+03  0.47000000000E+01 0.  1.
         -5    1    4    4    0  502  0.69979266957E+02  0.81889271861E+02  0.19923200210E+03  0.22653571751E+03  0.47000000000E+01 0.  1.
<mgrwt>
<rscale>  0 0.36073314E+03</rscale>
<asrwt>0</asrwt>
<pdfrwt beam="1">  1       21 0.21414793E+00 0.36073314E+03</pdfrwt>
<pdfrwt beam="2">  1       21 0.35956011E-02 0.36073314E+03</pdfrwt>
<totfact> 0.46982083E+04</totfact>
</mgrwt>
</event>
<event>
 8    1  0.4760912E-006  0.4026123E+03  0.7546771E-02  0.1042879E+00
         21   -1    0    0  504  503  0.00000000000E+00  0.00000000000E+00  0.96616440789E+02  0.96616440789E+02  0.00000000000E+00 0. -1.
         21   -1    0    0  503  504 -0.00000000000E+00 -0.00000000000E+00 -0.41943349666E+03  0.41943349666E+03  0.00000000000E+00 0. -1.
         25    2    1    2    0    0  0.66047361213E+01  0.11062722842E+03 -0.30537498460E+03  0.34808188867E+03  0.12500045519E+03 0.  0.
         25    2    1    2    0    0 -0.66047361213E+01 -0.11062722842E+03 -0.17442071277E+02  0.16796804878E+03  0.12500813315E+03 0.  0.
          5    1    3    3  501    0 -0.46244194716E+02  0.31140366475E+01 -0.72949704626E+02  0.86556179295E+02  0.47000000000E+01 0.  1.
         -5    1    3    3    0  501  0.52848930837E+02  0.10751319177E+03 -0.23242527997E+03  0.26152570938E+03  0.47000000000E+01 0.  1.
          5    1    4    4  502    0  0.58401951697E+02 -0.63417703233E+02 -0.45148635369E+01  0.86458470020E+02  0.47000000000E+01 0.  1.
         -5    1    4    4    0  502 -0.65006687819E+02 -0.47209525186E+02 -0.12927207740E+02  0.81509578758E+02  0.47000000000E+01 0.  1.
<mgrwt>
<rscale>  0 0.40261233E+03</rscale>
<asrwt>0</asrwt>
<pdfrwt beam="1">  1       21 0.14864068E-01 0.40261233E+03</pdfrwt>
<pdfrwt beam="2">  1       21 0.64528230E-01 0.40261233E+03</pdfrwt>
<totfact> 0.82821940E+04</totfact>
</mgrwt>
</event>
<event>
 8    1  0.4760912E-006  0.2867970E+03  0.7546771E-02  0.1092033E+00
         21   -1    0    0  504  503  0.00000000000E+00  0.00000000000E+00  0.31374803893E+03  0.31374803893E+03  0.00000000000E+00 0.  1.
         21   -1    0    0  503  504 -0.00000000000E+00 -0.00000000000E+00 -0.65540272318E+02  0.65540272318E+02  0.00000000000E+00 0.  1.
         25    2    1    2    0    0 -0.32898699703E+02 -0.27706548375E+02  0.50622131314E+02  0.14155926832E+03  0.12500579588E+03 0.  0.
         25    2    1    2    0    0  0.32898699703E+02  0.27706548375E+02  0.19758563530E+03  0.23772904293E+03  0.12500014924E+03 0.  0.
          5    1    3    3  501    0 -0.11931528386E+02 -0.70197863575E+02 -0.95188433082E+00  0.71365940783E+02  0.47000000000E+01 0.  1.
         -5    1    3    3    0  501 -0.20967171317E+02  0.42491315200E+02  0.51574015645E+02  0.70193327534E+02  0.47000000000E+01 0.  1.
          5    1    4    4  502    0 -0.41694799280E+02  0.37373537538E+02  0.72982979378E+02  0.92107778575E+02  0.47000000000E+01 0. -1.
         -5    1    4    4    0  502  0.74593498983E+02 -0.96669891633E+01  0.12460265592E+03  0.14562126435E+03  0.47000000000E+01 0. -1.
<mgrwt>
<rscale>  0 0.28679701E+03</rscale>
<asrwt>0</asrwt>
<pdfrwt beam="1">  1       21 0.48268928E-01 0.28679701E+03</pdfrwt>
<pdfrwt beam="2">  1       21 0.10083119E-01 0.28679701E+03</pdfrwt>
<totfact> 0.32074459E+05</totfact>
</mgrwt>
</event>
<event>
 8    1  0.4760912E-006  0.2659866E+03  0.7546771E-02  0.1103599E+00
         21   -1    0    0  504  503  0.00000000000E+00  0.00000000000E+00  0.35436963743E+02  0.35436963743E+02  0.00000000000E+00 0.  1.
         21   -1    0    0  503  504 -0.00000000000E+00 -0.00000000000E+00 -0.49911769804E+03  0.49911769804E+03  0.00000000000E+00 0.  1.
         25    2    1    2    0    0  0.14040314641E+02 -0.39062686669E+02 -0.26889026622E+03  0.29941235024E+03  0.12499102483E+03 0.  0.
         25    2    1    2    0    0 -0.14040314641E+02  0.39062686669E+02 -0.19479046808E+03  0.23514231154E+03  0.12500222517E+03 0.  0.
          5    1    3    3  501    0  0.32570876231E+02  0.35475731420E+02 -0.15157553904E+03  0.15911198426E+03  0.47000000000E+01 0.  1.
         -5    1    3    3    0  501 -0.18530561590E+02 -0.74538418089E+02 -0.11731472718E+03  0.14030036599E+03  0.47000000000E+01 0.  1.
          5    1    4    4  502    0  0.18951491392E+02  0.43602267838E+02 -0.11966373500E+02  0.49250389657E+02  0.47000000000E+01 0. -1.
         -5    1    4    4    0  502 -0.32991806032E+02 -0.45395811694E+01 -0.18282409458E+03  0.18589192188E+03  0.47000000000E+01 0. -1.
<mgrwt>
<rscale>  0 0.26598658E+03</rscale>
<asrwt>0</asrwt>
<pdfrwt beam="1">  1       21 0.54518408E-02 0.26598658E+03</pdfrwt>
<pdfrwt beam="2">  1       21 0.76787335E-01 0.26598658E+03</pdfrwt>
<totfact> 0.34390657E+05</totfact>
</mgrwt>
</event>
<event>
 8    1  0.4760912E-006  0.2894358E+03  0.7546771E-02  0.1090644E+00
         21   -1    0    0  504  503  0.00000000000E+00  0.00000000000E+00  0.36656118740E+02  0.36656118740E+02  0.00000000000E+00 0.  1.
         21   -1    0    0  503  504 -0.00000000000E+00 -0.00000000000E+00 -0.57134441770E+03  0.57134441770E+03  0.00000000000E+00 0.  1.
         25    2    1    2    0    0 -0.35540611410E+02  0.35186273846E+02 -0.37909157541E+03  0.40228981558E+03  0.12500185698E+03 0.  0.
         25    2    1    2    0    0  0.35540611410E+02 -0.35186273846E+02 -0.15559672355E+03  0.20571072086E+03  0.12492138075E+03 0.  0.
          5    1    3    3  501    0 -0.61099632058E+02  0.57424980313E+02 -0.34058250213E+03  0.35078387101E+03  0.47000000000E+01 0.  1.
         -5    1    3    3    0  501  0.25559020648E+02 -0.22238706467E+02 -0.38509073275E+02  0.51505944572E+02  0.47000000000E+01 0.  1.
          5    1    4    4  502    0  0.11012575423E+01  0.19562448106E+02 -0.13668055112E+03  0.13815775475E+03  0.47000000000E+01 0.  1.
         -5    1    4    4    0  502  0.34439353868E+02 -0.54748721952E+02 -0.18916172435E+02  0.67552966107E+02  0.47000000000E+01 0.  1.
<mgrwt>
<rscale>  0 0.28943579E+03</rscale>
<asrwt>0</asrwt>
<pdfrwt beam="1">  1       21 0.56394028E-02 0.28943579E+03</pdfrwt>
<pdfrwt beam="2">  1       21 0.87899143E-01 0.28943579E+03</pdfrwt>
<totfact> 0.23668494E+05</totfact>
</mgrwt>
</event>
<event>
 8    1  0.4760912E-006  0.2554363E+03  0.7546771E-02  0.1109917E+00
         21   -1    0    0  504  503  0.00000000000E+00  0.00000000000E+00  0.57200967730E+02  0.57200967730E+02  0.00000000000E+00 0.  1.
         21   -1    0    0  503  504 -0.00000000000E+00 -0.00000000000E+00 -0.28516876255E+03  0.28516876255E+03  0.00000000000E+00 0.  1.
         25    2    1    2    0    0 -0.14633489229E+02  0.92494592825E+01 -0.14040490134E+03  0.18878242768E+03  0.12500230869E+03 0.  0.
         25    2    1    2    0    0  0.14633489229E+02 -0.92494592825E+01 -0.87562893483E+02  0.15358730260E+03  0.12498843027E+03 0.  0.
          5    1    3    3  501    0  0.37047580318E+02 -0.14325628419E+02 -0.12276556008E+03  0.12911707702E+03  0.47000000000E+01 0. -1.
         -5    1    3    3    0  501 -0.51681069546E+02  0.23575087702E+02 -0.17639341259E+02  0.59665350662E+02  0.47000000000E+01 0. -1.
          5    1    4    4  502    0  0.24139318165E+02  0.47321198335E+02 -0.79120213837E+02  0.95415411391E+02  0.47000000000E+01 0. -1.
         -5    1    4    4    0  502 -0.95058289366E+01 -0.56570657617E+02 -0.84426796456E+01  0.58171891207E+02  0.47000000000E+01 0. -1.
<mgrwt>
<rscale>  0 0.25543633E+03</rscale>
<asrwt>0</asrwt>
<pdfrwt beam="1">  1       21 0.88001488E-02 0.25543633E+03</pdfrwt>
<pdfrwt beam="2">  1       21 0.43872118E-01 0.25543633E+03</pdfrwt>
<totfact> 0.50086503E+05</totfact>
</mgrwt>
</event>
<event>
 8    1  0.4760912E-006  0.3903380E+03  0.7546771E-02  0.1047178E+00
         21   -1    0    0  504  503  0.00000000000E+00  0.00000000000E+00  0.11972610921E+03  0.11972610921E+03  0.00000000000E+00 0.  1.
         21   -1    0    0  503  504 -0.00000000000E+00 -0.00000000000E+00 -0.31815068823E+03  0.31815068823E+03  0.00000000000E+00 0.  1.
         25    2    1    2    0    0  0.14416086318E+03  0.25234964953E+02 -0.62921389571E+02  0.20249270124E+03  0.12500013944E+03 0.  0.
         25    2    1    2    0    0 -0.14416086318E+03 -0.25234964953E+02 -0.13550318945E+03  0.23538409619E+03  0.12500160183E+03 0.  0.
          5    1    3    3  501    0  0.50214587639E+02 -0.37033292776E+01  0.36679958273E+02  0.62471824036E+02  0.47000000000E+01 0. -1.
         -5    1    3    3    0  501  0.93946275541E+02  0.28938294231E+02 -0.99601347843E+02  0.14002087720E+03  0.47000000000E+01 0. -1.
          5    1    4    4  502    0 -0.60298199293E+02 -0.70237394234E+02 -0.92128583582E+02  0.13068638146E+03  0.47000000000E+01 0. -1.
         -5    1    4    4    0  502 -0.83862663887E+02  0.45002429281E+02 -0.43374605869E+02  0.10469771473E+03  0.47000000000E+01 0. -1.
<mgrwt>
<rscale>  0 0.39033803E+03</rscale>
<asrwt>0</asrwt>
<pdfrwt beam="1">  1       21 0.18419402E-01 0.39033803E+03</pdfrwt>
<pdfrwt beam="2">  1       21 0.48946258E-01 0.39033803E+03</pdfrwt>
<totfact> 0.10116687E+05</totfact>
</mgrwt>
</event>
<event>
 8    1  0.4760912E-006  0.4792250E+03  0.7546771E-02  0.1019348E+00
         21   -1    0    0  504  503  0.00000000000E+00  0.00000000000E+00  0.58972998715E+03  0.58972998715E+03  0.00000000000E+00 0.  1.
         21   -1    0    0  503  504 -0.00000000000E+00 -0.00000000000E+00 -0.97356671641E+02  0.97356671641E+02  0.00000000000E+00 0.  1.
         25    2    1    2    0    0 -0.11739066211E+03  0.50750816496E+02  0.17541893989E+02  0.17969346104E+03  0.12500323583E+03 0.  0.
         25    2    1    2    0    0  0.11739066211E+03 -0.50750816496E+02  0.47483142152E+03  0.50739319775E+03  0.12500706115E+03 0.  0.
          5    1    3    3  501    0 -0.28385247811E+02  0.70406657093E+01  0.63674732267E+02  0.70227165657E+02  0.47000000000E+01 0.  1.
         -5    1    3    3    0  501 -0.89005414299E+02  0.43710150786E+02 -0.46132838279E+02  0.10946629538E+03  0.47000000000E+01 0.  1.
          5    1    4    4  502    0  0.10241854147E+03 -0.76053102305E+02  0.25106480117E+03  0.28165449827E+03  0.47000000000E+01 0. -1.
         -5    1    4    4    0  502  0.14972120639E+02  0.25302285810E+02  0.22376662034E+03  0.22573869948E+03  0.47000000000E+01 0. -1.
<mgrwt>
<rscale>  0 0.47922499E+03</rscale>
<asrwt>0</asrwt>
<pdfrwt beam="1">  1       21 0.90727689E-01 0.47922499E+03</pdfrwt>
<pdfrwt beam="2">  1       21 0.14977950E-01 0.47922499E+03</pdfrwt>
<totfact> 0.36778055E+04</totfact>
</mgrwt>
</event>
<event>
 8    1  0.4760912E-006  0.2730990E+03  0.7546771E-02  0.1099519E+00
         21   -1    0    0  504  503  0.00000000000E+00  0.00000000000E+00  0.67159683498E+03  0.67159683498E+03  0.00000000000E+00 0. -1.
         21   -1    0    0  503  504 -0.00000000000E+00 -0.00000000000E+00 -0.27763342098E+02  0.27763342098E+02  0.00000000000E+00 0. -1.
         25    2    1    2    0    0 -0.10853809091E+02 -0.25720288578E+02  0.20073496799E+03  0.23811426929E+03  0.12499815778E+03 0.  0.
         25    2    1    2    0    0  0.10853809091E+02  0.25720288578E+02  0.44309852490E+03  0.46124590779E+03  0.12502858183E+03 0.  0.
          5    1    3    3  501    0  0.87111894379E+01 -0.10196272005E+01 -0.16113306643E+02  0.18938139086E+02  0.47000000000E+01 0. -1.
         -5    1    3    3    0  501 -0.19564998529E+02 -0.24700661378E+02  0.21684827463E+03  0.21917613020E+03  0.47000000000E+01 0. -1.
          5    1    4    4  502    0 -0.26011495641E+02 -0.38895550409E+02  0.24743952930E+03  0.25186876028E+03  0.47000000000E+01 0. -1.
         -5    1    4    4    0  502  0.36865304732E+02  0.64615838987E+02  0.19565899560E+03  0.20937714751E+03  0.47000000000E+01 0. -1.
<mgrwt>
<rscale>  0 0.27309905E+03</rscale>
<asrwt>0</asrwt>
<pdfrwt beam="1">  1       21 0.10332258E+00 0.27309905E+03</pdfrwt>
<pdfrwt beam="2">  1       21 0.42712839E-02 0.27309905E+03</pdfrwt>
<totfact> 0.26032864E+05</totfact>
</mgrwt>
</event>
<event>
 8    1  0.4760912E-006  0.2708222E+03  0.7546771E-02  0.1100810E+00
         21   -1    0    0  504  503  0.00000000000E+00  0.00000000000E+00  0.20681894562E+02  0.20681894562E+02  0.00000000000E+00 0. -1.
         21   -1    0    0  503  504 -0.00000000000E+00 -0.00000000000E+00 -0.88658042774E+03  0.88658042774E+03  0.00000000000E+00 0. -1.
         25    2    1    2    0    0  0.29266694589E+02  0.41757418141E+02 -0.46825327781E+03  0.48732470398E+03  0.12499605412E+03 0.  0.
         25    2    1    2    0    0 -0.29266694589E+02 -0.41757418141E+02 -0.39764525536E+03  0.41993761832E+03  0.12500253111E+03 0.  0.
          5    1    3    3  501    0  0.37829303007E+02 -0.38481323207E+02 -0.18810215227E+03  0.19574569750E+03  0.47000000000E+01 0. -1.
         -5    1    3    3    0  501 -0.85626084183E+01  0.80238741347E+02 -0.28015112554E+03  0.29157900648E+03  0.47000000000E+01 0. -1.
          5    1    4    4  502    0 -0.16917469474E+02 -0.11530793996E+02 -0.38344938177E+03  0.38402432001E+03  0.47000000000E+01 0.  1.
         -5    1    4    4    0  502 -0.12349225114E+02 -0.30226624144E+02 -0.14195873595E+02  0.35913298306E+02  0.47000000000E+01 0.  1.
<mgrwt>
<rscale>  0 0.27082218E+03</rscale>
<asrwt>0</asrwt>
<pdfrwt beam="1">  1       21 0.31818304E-02 0.27082218E+03</pdfrwt>
<pdfrwt beam="2">  1       21 0.13639697E+00 0.27082218E+03</pdfrwt>
<totfact> 0.21379694E+05</totfact>
</mgrwt>
</event>
<event>
 8    1  0.4760912E-006  0.2506640E+03  0.7546771E-02  0.1112886E+00
         21   -1    0    0  504  503  0.00000000000E+00  0.00000000000E+00  0.42809108258E+03  0.42809108258E+03  0.00000000000E+00 0. -1.
         21   -1    0    0  503  504 -0.00000000000E+00 -0.00000000000E+00 -0.36693391837E+02  0.36693391837E+02  0.00000000000E+00 0. -1.
         25    2    1    2    0    0  0.10256239966E+01  0.63327881341E+01  0.18391374096E+03  0.22247332583E+03  0.12501584093E+03 0.  0.
         25    2    1    2    0    0 -0.10256239966E+01 -0.63327881341E+01  0.20748394978E+03  0.24231114858E+03  0.12499578873E+03 0.  0.
          5    1    3    3  501    0 -0.27705237263E+02  0.31156857182E+01 -0.71615239564E+01  0.29166163524E+02  0.47000000000E+01 0.  1.
         -5    1    3    3    0  501  0.28730861260E+02  0.32171024160E+01  0.19107526492E+03  0.19330716231E+03  0.47000000000E+01 0.  1.
          5    1    4    4  502    0  0.51711870097E+02 -0.79847133185E+01  0.38262043181E+02  0.64991900296E+02  0.47000000000E+01 0.  1.
         -5    1    4    4    0  502 -0.52737494093E+02  0.16519251844E+01  0.16922190660E+03  0.17731924829E+03  0.47000000000E+01 0.  1.
<mgrwt>
<rscale>  0 0.25066403E+03</rscale>
<asrwt>0</asrwt>
<pdfrwt beam="1">  1       21 0.65860163E-01 0.25066403E+03</pdfrwt>
<pdfrwt beam="2">  1       21 0.56451375E-02 0.25066403E+03</pdfrwt>
<totfact> 0.45755716E+05</totfact>
</mgrwt>
</event>
<event>
 8    1  0.4760912E-006  0.3509453E+03  0.7546771E-02  0.1062228E+00
         21   -1    0    0  504  503  0.00000000000E+00  0.00000000000E+00  0.29913854463E+03  0.29913854463E+03  0.00000000000E+00 0. -1.
         21   -1    0    0  503  504 -0.00000000000E+00 -0.00000000000E+00 -0.10293107045E+03  0.10293107045E+03  0.00000000000E+00 0. -1.
         25    2    1    2    0    0  0.28985892489E+02  0.48504379207E+02  0.22346756286E+03  0.26221511962E+03  0.12500464207E+03 0.  0.
         25    2    1    2    0    0 -0.28985892489E+02 -0.48504379207E+02 -0.27260088680E+02  0.13985449546E+03  0.12499324262E+03 0.  0.
          5    1    3    3  501    0  0.77153718751E+02  0.42551192412E+02  0.13730093134E+03  0.16320825972E+03  0.47000000000E+01 0.  1.
         -5    1    3    3    0  501 -0.48167826262E+02  0.59531867947E+01  0.86166631522E+02  0.99006859902E+02  0.47000000000E+01 0.  1.
          5    1    4    4  502    0 -0.57040648724E+02 -0.77631937130E+02 -0.19921658069E+02  0.98485104100E+02  0.47000000000E+01 0. -1.
         -5    1    4    4    0  502  0.28054756235E+02  0.29127557923E+02 -0.73384306116E+01  0.41369391364E+02  0.47000000000E+01 0. -1.
<mgrwt>
<rscale>  0 0.35094530E+03</rscale>
<asrwt>0</asrwt>
<pdfrwt beam="1">  1       21 0.46021314E-01 0.35094530E+03</pdfrwt>
<pdfrwt beam="2">  1       21 0.15835549E-01 0.35094530E+03</pdfrwt>
<totfact> 0.15399455E+05</totfact>
</mgrwt>
</event>
<event>
 8    1  0.4760912E-006  0.2606931E+03  0.7546771E-02  0.1106727E+00
         21   -1    0    0  504  503  0.00000000000E+00  0.00000000000E+00  0.68550563692E+03  0.68550563692E+03  0.00000000000E+00 0.  1.
         21   -1    0    0  503  504 -0.00000000000E+00 -0.00000000000E+00 -0.24784957687E+02  0.24784957687E+02  0.00000000000E+00 0.  1.
         25    2    1    2    0    0 -0.28404840027E+01  0.41649127539E+01  0.23061602026E+03  0.26236136271E+03  0.12499728394E+03 0.  0.
         25    2    1    2    0    0  0.28404840027E+01 -0.41649127539E+01  0.43010465898E+03  0.44792923190E+03  0.12500065709E+03 0.  0.
          5    1    3    3  501    0 -0.88308987939E+01 -0.43881004268E+02  0.19973214728E+03  0.20474019627E+03  0.47000000000E+01 0. -1.
         -5    1    3    3    0  501  0.59904147911E+01  0.48045917022E+02  0.30883872978E+02  0.57621166440E+02  0.47000000000E+01 0. -1.
          5    1    4    4  502    0 -0.49402532748E+02 -0.22355942359E+02  0.32024993870E+03  0.32484228733E+03  0.47000000000E+01 0. -1.
         -5    1    4    4    0  502  0.52243016750E+02  0.18191029605E+02  0.10985472027E+03  0.12308694457E+03  0.47000000000E+01 0. -1.
<mgrwt>
<rscale>  0 0.26069314E+03</rscale>
<asrwt>0</asrwt>
<pdfrwt beam="1">  1       21 0.10546239E+00 0.26069314E+03</pdfrwt>
<pdfrwt beam="2">  1       21 0.38130709E-02 0.26069314E+03</pdfrwt>
<totfact> 0.30099769E+05</totfact>
</mgrwt>
</event>
<event>
 8    1  0.4760912E-006  0.2591816E+03  0.7546771E-02  0.1107636E+00
         21   -1    0    0  504  503  0.00000000000E+00  0.00000000000E+00  0.67147805631E+02  0.67147805631E+02  0.00000000000E+00 0. -1.
         21   -1    0    0  503  504 -0.00000000000E+00 -0.00000000000E+00 -0.25010159880E+03  0.25010159880E+03  0.00000000000E+00 0. -1.
         25    2    1    2    0    0 -0.44661881666E+01  0.33802235398E+02 -0.91171439415E+02  0.15842408913E+03  0.12499369062E+03 0.  0.
         25    2    1    2    0    0  0.44661881666E+01 -0.33802235398E+02 -0.91782353750E+02  0.15882531530E+03  0.12505575703E+03 0.  0.
          5    1    3    3  501    0  0.19779592634E+02  0.16375299769E+02 -0.11625209204E+03  0.11914705884E+03  0.47000000000E+01 0.  1.
         -5    1    3    3    0  501 -0.24245780801E+02  0.17426935630E+02  0.25080652623E+02  0.39277030285E+02  0.47000000000E+01 0.  1.
          5    1    4    4  502    0 -0.53060665834E+01 -0.76089840381E+02 -0.27697682368E+02  0.81283883768E+02  0.47000000000E+01 0. -1.
         -5    1    4    4    0  502  0.97722547500E+01  0.42287604983E+02 -0.64084671382E+02  0.77541431533E+02  0.47000000000E+01 0. -1.
<mgrwt>
<rscale>  0 0.25918159E+03</rscale>
<asrwt>0</asrwt>
<pdfrwt beam="1">  1       21 0.10330432E-01 0.25918159E+03</pdfrwt>
<pdfrwt beam="2">  1       21 0.38477169E-01 0.25918159E+03</pdfrwt>
<totfact> 0.49246962E+05</totfact>
</mgrwt>
</event>
<event>
 8    1  0.4760912E-006  0.4523972E+03  0.7546771E-02  0.1027010E+00
         21   -1    0    0  504  503  0.00000000000E+00  0.00000000000E+00  0.79054547058E+02  0.79054547058E+02  0.00000000000E+00 0. -1.
         21   -1    0    0  503  504 -0.00000000000E+00 -0.00000000000E+00 -0.64722160305E+03  0.64722160305E+03  0.00000000000E+00 0. -1.
         25    2    1    2    0    0 -0.70857927148E+02  0.75196440798E+02 -0.30932754805E+02  0.16509761733E+03  0.12500014952E+03 0.  0.
         25    2    1    2    0    0  0.70857927148E+02 -0.75196440798E+02 -0.53723430119E+03  0.56117853277E+03  0.12500120290E+03 0.  0.
          5    1    3    3  501    0  0.12395397671E+02  0.74103394351E+02 -0.31748010606E+02  0.81700582098E+02  0.47000000000E+01 0.  1.
         -5    1    3    3    0  501 -0.83253324819E+02  0.10930464476E+01  0.81525580161E+00  0.83397035235E+02  0.47000000000E+01 0.  1.
          5    1    4    4  502    0  0.37376036855E+00 -0.29217538053E+02 -0.39307290336E+03  0.39418549134E+03  0.47000000000E+01 0. -1.
         -5    1    4    4    0  502  0.70484166779E+02 -0.45978902746E+02 -0.14416139783E+03  0.16699304143E+03  0.47000000000E+01 0. -1.
<mgrwt>
<rscale>  0 0.45239722E+03</rscale>
<asrwt>0</asrwt>
<pdfrwt beam="1">  1       21 0.12162238E-01 0.45239722E+03</pdfrwt>
<pdfrwt beam="2">  1       21 0.99572553E-01 0.45239722E+03</pdfrwt>
<totfact> 0.43430108E+04</totfact>
</mgrwt>
</event>
<event>
 8    1  0.4760912E-006  0.4350484E+03  0.7546771E-02  0.1032277E+00
         21   -1    0    0  504  503  0.00000000000E+00  0.00000000000E+00  0.15907297675E+03  0.15907297675E+03  0.00000000000E+00 0.  1.
         21   -1    0    0  503  504 -0.00000000000E+00 -0.00000000000E+00 -0.29745332887E+03  0.29745332887E+03  0.00000000000E+00 0.  1.
         25    2    1    2    0    0 -0.50722170866E+01  0.16259927379E+02 -0.25515019919E+03  0.28463609558E+03  0.12500388049E+03 0.  0.
         25    2    1    2    0    0  0.50722170866E+01 -0.16259927379E+02  0.11676984708E+03  0.17189021004E+03  0.12498373692E+03 0.  0.
          5    1    3    3  501    0 -0.32010950949E+02  0.48163391043E+02 -0.54399343635E+02  0.79534846484E+02  0.47000000000E+01 0.  1.
         -5    1    3    3    0  501  0.26938733863E+02 -0.31903463663E+02 -0.20075085556E+03  0.20510124910E+03  0.47000000000E+01 0.  1.
          5    1    4    4  502    0  0.33767217088E+02 -0.42895670604E+00  0.13135822523E+03  0.13571102493E+03  0.47000000000E+01 0.  1.
         -5    1    4    4    0  502 -0.28695000002E+02 -0.15830970673E+02 -0.14588378152E+02  0.36179185102E+02  0.47000000000E+01 0.  1.
<mgrwt>
<rscale>  0 0.43504844E+03</rscale>
<asrwt>0</asrwt>
<pdfrwt beam="1">  1       21 0.24472766E-01 0.43504844E+03</pdfrwt>
<pdfrwt beam="2">  1       21 0.45762050E-01 0.43504844E+03</pdfrwt>
<totfact> 0.67083428E+04</totfact>
</mgrwt>
</event>
<event>
 8    1  0.4760912E-006  0.2910955E+03  0.7546771E-02  0.1089779E+00
         21   -1    0    0  504  503  0.00000000000E+00  0.00000000000E+00  0.31934235337E+03  0.31934235337E+03  0.00000000000E+00 0.  1.
         21   -1    0    0  503  504 -0.00000000000E+00 -0.00000000000E+00 -0.66336773246E+02  0.66336773246E+02  0.00000000000E+00 0.  1.
         25    2    1    2    0    0 -0.55487124102E+02 -0.41314294261E+02  0.16334238020E+03  0.21700633068E+03  0.12500129014E+03 0.  0.
         25    2    1    2    0    0  0.55487124102E+02  0.41314294261E+02  0.89663199922E+02  0.16867279593E+03  0.12500132325E+03 0.  0.
          5    1    3    3  501    0  0.88280739866E+01  0.37749969415E+02  0.61476415246E+02  0.72831550256E+02  0.47000000000E+01 0.  1.
         -5    1    3    3    0  501 -0.64315198088E+02 -0.79064263676E+02  0.10186596495E+03  0.14417478043E+03  0.47000000000E+01 0.  1.
          5    1    4    4  502    0 -0.10709849549E+01  0.16139844318E+02 -0.29690959229E+02  0.34136265808E+02  0.47000000000E+01 0. -1.
         -5    1    4    4    0  502  0.56558109057E+02  0.25174449943E+02  0.11935415915E+03  0.13453653012E+03  0.47000000000E+01 0. -1.
<mgrwt>
<rscale>  0 0.29109546E+03</rscale>
<asrwt>0</asrwt>
<pdfrwt beam="1">  1       21 0.49129592E-01 0.29109546E+03</pdfrwt>
<pdfrwt beam="2">  1       21 0.10205658E-01 0.29109546E+03</pdfrwt>
<totfact> 0.30221863E+05</totfact>
</mgrwt>
</event>
<event>
 8    1  0.4760912E-006  0.3024353E+03  0.7546771E-02  0.1084030E+00
         21   -1    0    0  504  503  0.00000000000E+00  0.00000000000E+00  0.50817480022E+02  0.50817480022E+02  0.00000000000E+00 0. -1.
         21   -1    0    0  503  504 -0.00000000000E+00 -0.00000000000E+00 -0.44997872264E+03  0.44997872264E+03  0.00000000000E+00 0. -1.
         25    2    1    2    0    0 -0.25014563497E+02  0.51909557840E+02 -0.95879471834E+02  0.16774515941E+03  0.12500093921E+03 0.  0.
         25    2    1    2    0    0  0.25014563497E+02 -0.51909557840E+02 -0.30328177079E+03  0.33305104326E+03  0.12499133707E+03 0.  0.
          5    1    3    3  501    0  0.15853217950E+02  0.59990146417E+02  0.94486090290E+00  0.62234435392E+02  0.47000000000E+01 0.  1.
         -5    1    3    3    0  501 -0.40867781447E+02 -0.80805885765E+01 -0.96824332737E+02  0.10551072401E+03  0.47000000000E+01 0.  1.
          5    1    4    4  502    0 -0.26630438721E+01 -0.35223209821E+02 -0.87227476912E+01  0.36687090918E+02  0.47000000000E+01 0.  1.
         -5    1    4    4    0  502  0.27677607369E+02 -0.16686348019E+02 -0.29455902310E+03  0.29636395234E+03  0.47000000000E+01 0.  1.
<mgrwt>
<rscale>  0 0.30243535E+03</rscale>
<asrwt>0</asrwt>
<pdfrwt beam="1">  1       21 0.78180742E-02 0.30243535E+03</pdfrwt>
<pdfrwt beam="2">  1       21 0.69227493E-01 0.30243535E+03</pdfrwt>
<totfact> 0.23032022E+05</totfact>
</mgrwt>
</event>
<event>
 8    1  0.4760912E-006  0.2630627E+03  0.7546771E-02  0.1105317E+00
         21   -1    0    0  504  503  0.00000000000E+00  0.00000000000E+00  0.28922066559E+02  0.28922066559E+02  0.00000000000E+00 0. -1.
         21   -1    0    0  503  504 -0.00000000000E+00 -0.00000000000E+00 -0.59817656407E+03  0.59817656407E+03  0.00000000000E+00 0. -1.
         25    2    1    2    0    0  0.11687746058E+02  0.33376274995E+02 -0.33377046906E+03  0.35815991950E+03  0.12500089112E+03 0.  0.
         25    2    1    2    0    0 -0.11687746058E+02 -0.33376274995E+02 -0.23548402844E+03  0.26893871112E+03  0.12499889418E+03 0.  0.
          5    1    3    3  501    0  0.63154802952E+02  0.36817004906E+02 -0.14557440944E+03  0.16296631453E+03  0.47000000000E+01 0. -1.
         -5    1    3    3    0  501 -0.51467056894E+02 -0.34407299115E+01 -0.18819605962E+03  0.19519360498E+03  0.47000000000E+01 0. -1.
          5    1    4    4  502    0 -0.40611731120E+02 -0.33452236832E+02 -0.23368381494E+03  0.23958000797E+03  0.47000000000E+01 0.  1.
         -5    1    4    4    0  502  0.28923985062E+02  0.75961837441E-01 -0.18002135033E+01  0.29358703151E+02  0.47000000000E+01 0.  1.
<mgrwt>
<rscale>  0 0.26306275E+03</rscale>
<asrwt>0</asrwt>
<pdfrwt beam="1">  1       21 0.44495491E-02 0.26306275E+03</pdfrwt>
<pdfrwt beam="2">  1       21 0.92027155E-01 0.26306275E+03</pdfrwt>
<totfact> 0.32074523E+05</totfact>
</mgrwt>
</event>
<event>
 8    1  0.4760912E-006  0.3520785E+03  0.7546771E-02  0.1061765E+00
         21   -1    0    0  504  503  0.00000000000E+00  0.00000000000E+00  0.97964065621E+03  0.97964065621E+03  0.00000000000E+00 0.  1.
         21   -1    0    0  503  504 -0.00000000000E+00 -0.00000000000E+00 -0.31633865135E+02  0.31633865135E+02  0.00000000000E+00 0.  1.
         25    2    1    2    0    0  0.12174526469E+02 -0.82798798981E+02  0.21139063260E+03  0.25945170920E+03  0.12500131859E+03 0.  0.
         25    2    1    2    0    0 -0.12174526469E+02  0.82798798981E+02  0.73661615847E+03  0.75182281214E+03  0.12502126111E+03 0.  0.
          5    1    3    3  501    0  0.39383707335E+02 -0.10623829239E+03  0.17117161483E+03  0.20532769637E+03  0.47000000000E+01 0. -1.
         -5    1    3    3    0  501 -0.27209180866E+02  0.23439493407E+02  0.40219017779E+02  0.54124012838E+02  0.47000000000E+01 0. -1.
          5    1    4    4  502    0 -0.49219069186E+02  0.97515090525E+02  0.57457632794E+03  0.58488610539E+03  0.47000000000E+01 0. -1.
         -5    1    4    4    0  502  0.37044542717E+02 -0.14716291544E+02  0.16203983053E+03  0.16693670675E+03  0.47000000000E+01 0. -1.
<mgrwt>
<rscale>  0 0.35207852E+03</rscale>
<asrwt>0</asrwt>
<pdfrwt beam="1">  1       21 0.15071392E+00 0.35207852E+03</pdfrwt>
<pdfrwt beam="2">  1       21 0.48667492E-02 0.35207852E+03</pdfrwt>
<totfact> 0.78046954E+04</totfact>
</mgrwt>
</event>
<event>
 8    1  0.4760912E-006  0.2851645E+03  0.7546771E-02  0.1092901E+00
         21   -1    0    0  504  503  0.00000000000E+00  0.00000000000E+00  0.24496254326E+03  0.24496254326E+03  0.00000000000E+00 0. -1.
         21   -1    0    0  503  504 -0.00000000000E+00 -0.00000000000E+00 -0.82991026798E+02  0.82991026798E+02  0.00000000000E+00 0. -1.
         25    2    1    2    0    0  0.28702964739E+02  0.29281694896E+02  0.17773232956E+02  0.13275156906E+03  0.12500325370E+03 0.  0.
         25    2    1    2    0    0 -0.28702964739E+02 -0.29281694896E+02  0.14419828351E+03  0.19520200101E+03  0.12501759232E+03 0.  0.
          5    1    3    3  501    0  0.34014345567E+02  0.76327839766E+02  0.15503714022E+02  0.85119739051E+02  0.47000000000E+01 0. -1.
         -5    1    3    3    0  501 -0.53113808280E+01 -0.47046144870E+02  0.22695189342E+01  0.47631830005E+02  0.47000000000E+01 0. -1.
          5    1    4    4  502    0  0.35960126139E+02 -0.49369016591E+02  0.87219005391E+02  0.10658177786E+03  0.47000000000E+01 0.  1.
         -5    1    4    4    0  502 -0.64663090878E+02  0.20087321695E+02  0.56979278119E+02  0.88620223143E+02  0.47000000000E+01 0.  1.
<mgrwt>
<rscale>  0 0.28516446E+03</rscale>
<asrwt>0</asrwt>
<pdfrwt beam="1">  1       21 0.37686545E-01 0.28516446E+03</pdfrwt>
<pdfrwt beam="2">  1       21 0.12767850E-01 0.28516446E+03</pdfrwt>
<totfact> 0.34927392E+05</totfact>
</mgrwt>
</event>
<event>
 8    1  0.4760912E-006  0.2794125E+03  0.7546771E-02  0.1096010E+00
         21   -1    0    0  504  503  0.00000000000E+00  0.00000000000E+00  0.55016786103E+02  0.55016786103E+02  0.00000000000E+00 0.  1.
         21   -1    0    0  503  504 -0.00000000000E+00 -0.00000000000E+00 -0.35476139010E+03  0.35476139010E+03  0.00000000000E+00 0.  1.
         25    2    1    2    0    0 -0.38939728479E+02 -0.46241043256E+02 -0.12715675626E+03  0.18827252642E+03  0.12499266781E+03 0.  0.
         25    2    1    2    0    0  0.38939728479E+02  0.46241043256E+02 -0.17258784773E+03  0.22150564978E+03  0.12499460454E+03 0.  0.
          5    1    3    3  501    0 -0.52296221178E+02 -0.27900971352E+02 -0.14648919017E+03  0.15809659006E+03  0.47000000000E+01 0.  1.
         -5    1    3    3    0  501  0.13356492699E+02 -0.18340071904E+02  0.19332433905E+02  0.30175936363E+02  0.47000000000E+01 0.  1.
          5    1    4    4  502    0  0.29387767314E+02  0.28336391060E+02  0.61560122713E+01  0.41552116830E+02  0.47000000000E+01 0.  1.
         -5    1    4    4    0  502  0.95519611652E+01  0.17904652196E+02 -0.17874386000E+03  0.17995353295E+03  0.47000000000E+01 0.  1.
<mgrwt>
<rscale>  0 0.27941247E+03</rscale>
<asrwt>0</asrwt>
<pdfrwt beam="1">  1       21 0.84641206E-02 0.27941247E+03</pdfrwt>
<pdfrwt beam="2">  1       21 0.54578678E-01 0.27941247E+03</pdfrwt>
<totfact> 0.33788654E+05</totfact>
</mgrwt>
</event>
<event>
 8    1  0.4760912E-006  0.2724278E+03  0.7546771E-02  0.1099898E+00
         21   -1    0    0  504  503  0.00000000000E+00  0.00000000000E+00  0.17829016726E+03  0.17829016726E+03  0.00000000000E+00 0. -1.
         21   -1    0    0  503  504 -0.00000000000E+00 -0.00000000000E+00 -0.10406756035E+03  0.10406756035E+03  0.00000000000E+00 0. -1.
         25    2    1    2    0    0  0.27676249178E+02 -0.45530146064E+02  0.27281442139E+02  0.13859835248E+03  0.12500502892E+03 0.  0.
         25    2    1    2    0    0 -0.27676249178E+02  0.45530146064E+02  0.46941164772E+02  0.14375937514E+03  0.12499726405E+03 0.  0.
          5    1    3    3  501    0 -0.22081352068E+02 -0.54894775811E+02  0.54796651789E+02  0.80782334503E+02  0.47000000000E+01 0. -1.
         -5    1    3    3    0  501  0.49757601246E+02  0.93646297471E+01 -0.27515209650E+02  0.57816017972E+02  0.47000000000E+01 0. -1.
          5    1    4    4  502    0  0.12424542670E+02  0.47011303012E+01  0.77460445870E+02  0.78731699848E+02  0.47000000000E+01 0. -1.
         -5    1    4    4    0  502 -0.40100791848E+02  0.40829015763E+02 -0.30519281098E+02  0.65027675291E+02  0.47000000000E+01 0. -1.
<mgrwt>
<rscale>  0 0.27242777E+03</rscale>
<asrwt>0</asrwt>
<pdfrwt beam="1">  1       21 0.27429256E-01 0.27242777E+03</pdfrwt>
<pdfrwt beam="2">  1       21 0.16010394E-01 0.27242777E+03</pdfrwt>
<totfact> 0.43443764E+05</totfact>
</mgrwt>
</event>
<event>
 8    1  0.4760912E-006  0.2882840E+03  0.7546771E-02  0.1091249E+00
         21   -1    0    0  504  503  0.00000000000E+00  0.00000000000E+00  0.10293741334E+02  0.10293741334E+02  0.00000000000E+00 0. -1.
         21   -1    0    0  503  504 -0.00000000000E+00 -0.00000000000E+00 -0.20184025706E+04  0.20184025706E+04  0.00000000000E+00 0. -1.
         25    2    1    2    0    0  0.52593874099E+02  0.47186895288E+02 -0.91511706212E+03  0.92631385048E+03  0.12500157405E+03 0.  0.
         25    2    1    2    0    0 -0.52593874099E+02 -0.47186895288E+02 -0.10929917672E+04  0.11023824615E+04  0.12499347827E+03 0.  0.
          5    1    3    3  501    0  0.16904708225E+02  0.86898577455E+02 -0.50702010291E+03  0.51471215906E+03  0.47000000000E+01 0. -1.
         -5    1    3    3    0  501  0.35689165875E+02 -0.39711682168E+02 -0.40809695921E+03  0.41160169142E+03  0.47000000000E+01 0. -1.
          5    1    4    4  502    0 -0.53395221464E+02 -0.86877386016E+02 -0.70813878480E+03  0.71545884467E+03  0.47000000000E+01 0.  1.
         -5    1    4    4    0  502  0.80134736495E+00  0.39690490728E+02 -0.38485298236E+03  0.38692361681E+03  0.47000000000E+01 0.  1.
<mgrwt>
<rscale>  0 0.28828398E+03</rscale>
<asrwt>0</asrwt>
<pdfrwt beam="1">  1       21 0.15836530E-02 0.28828398E+03</pdfrwt>
<pdfrwt beam="2">  1       21 0.31052338E+00 0.28828398E+03</pdfrwt>
<totfact> 0.49603420E+04</totfact>
</mgrwt>
</event>
<event>
 8    1  0.4760912E-006  0.3629554E+03  0.7546771E-02  0.1057420E+00
         21   -1    0    0  504  503  0.00000000000E+00  0.00000000000E+00  0.60737218970E+03  0.60737218970E+03  0.00000000000E+00 0.  1.
         21   -1    0    0  503  504 -0.00000000000E+00 -0.00000000000E+00 -0.54223998261E+02  0.54223998261E+02  0.00000000000E+00 0.  1.
         25    2    1    2    0    0 -0.10467699740E+03  0.77188522440E+02  0.24042383177E+03  0.30057365252E+03  0.12500223967E+03 0.  0.
         25    2    1    2    0    0  0.10467699740E+03 -0.77188522440E+02  0.31272435967E+03  0.36102253545E+03  0.12500161675E+03 0.  0.
          5    1    3    3  501    0 -0.26176676057E+02  0.11589182237E+02  0.17861925309E+03  0.18095981623E+03  0.47000000000E+01 0.  1.
         -5    1    3    3    0  501 -0.78500321339E+02  0.65599340203E+02  0.61804578680E+02  0.11961383629E+03  0.47000000000E+01 0.  1.
          5    1    4    4  502    0 -0.22884135597E+02  0.10376514471E+02  0.46761973393E+02  0.53292850085E+02  0.47000000000E+01 0. -1.
         -5    1    4    4    0  502  0.12756113299E+03 -0.87565036912E+02  0.26596238628E+03  0.30772968536E+03  0.47000000000E+01 0. -1.
<mgrwt>
<rscale>  0 0.36295536E+03</rscale>
<asrwt>0</asrwt>
<pdfrwt beam="1">  1       21 0.93441871E-01 0.36295536E+03</pdfrwt>
<pdfrwt beam="2">  1       21 0.83421540E-02 0.36295536E+03</pdfrwt>
<totfact> 0.10170631E+05</totfact>
</mgrwt>
</event>
<event>
 8    1  0.4760912E-006  0.2998492E+03  0.7546771E-02  0.1085316E+00
         21   -1    0    0  504  503  0.00000000000E+00  0.00000000000E+00  0.28933472989E+03  0.28933472989E+03  0.00000000000E+00 0. -1.
         21   -1    0    0  503  504 -0.00000000000E+00 -0.00000000000E+00 -0.77686445265E+02  0.77686445265E+02  0.00000000000E+00 0. -1.
         25    2    1    2    0    0 -0.69812300221E+02 -0.37766149463E+02  0.77021570049E+02  0.16690105127E+03  0.12499439730E+03 0.  0.
         25    2    1    2    0    0  0.69812300221E+02  0.37766149463E+02  0.13462671458E+03  0.20012012389E+03  0.12499468948E+03 0.  0.
          5    1    3    3  501    0  0.18733346649E+02 -0.40978497063E+02  0.62191381563E+02  0.76941753548E+02  0.47000000000E+01 0. -1.
         -5    1    3    3    0  501 -0.88545646870E+02  0.32123476005E+01  0.14830188486E+02  0.89959297725E+02  0.47000000000E+01 0. -1.
          5    1    4    4  502    0  0.44351059777E+02 -0.66952013887E+01 -0.10361049415E+02  0.46274005338E+02  0.47000000000E+01 0. -1.
         -5    1    4    4    0  502  0.25461240443E+02  0.44461350851E+02  0.14498776399E+03  0.15384611855E+03  0.47000000000E+01 0. -1.
<mgrwt>
<rscale>  0 0.29984921E+03</rscale>
<asrwt>0</asrwt>
<pdfrwt beam="1">  1       21 0.44513035E-01 0.29984921E+03</pdfrwt>
<pdfrwt beam="2">  1       21 0.11951761E-01 0.29984921E+03</pdfrwt>
<totfact> 0.27912678E+05</totfact>
</mgrwt>
</event>
<event>
 8    1  0.4760912E-006  0.3520588E+03  0.7546771E-02  0.1061773E+00
         21   -1    0    0  504  503  0.00000000000E+00  0.00000000000E+00  0.87676473128E+03  0.87676473128E+03  0.00000000000E+00 0.  1.
         21   -1    0    0  503  504 -0.00000000000E+00 -0.00000000000E+00 -0.35341700970E+02  0.35341700970E+02  0.00000000000E+00 0.  1.
         25    2    1    2    0    0 -0.83329997676E+02 -0.87403882019E+02  0.34838526619E+03  0.38933213660E+03  0.12499556707E+03 0.  0.
         25    2    1    2    0    0  0.83329997676E+02  0.87403882019E+02  0.49303776412E+03  0.52277429565E+03  0.12499360079E+03 0.  0.
          5    1    3    3  501    0  0.41889003656E+01 -0.85872887463E+02  0.16843267918E+03  0.18916489395E+03  0.47000000000E+01 0.  1.
         -5    1    3    3    0  501 -0.87518898041E+02 -0.15309945556E+01  0.17995258701E+03  0.20016724265E+03  0.47000000000E+01 0.  1.
          5    1    4    4  502    0  0.10876748211E+03  0.40417412501E+02  0.38535135330E+03  0.40246948690E+03  0.47000000000E+01 0.  1.
         -5    1    4    4    0  502 -0.25437484434E+02  0.46986469518E+02  0.10768641082E+03  0.12030480875E+03  0.47000000000E+01 0.  1.
<mgrwt>
<rscale>  0 0.35205884E+03</rscale>
<asrwt>0</asrwt>
<pdfrwt beam="1">  1       21 0.13488687E+00 0.35205884E+03</pdfrwt>
<pdfrwt beam="2">  1       21 0.54371854E-02 0.35205884E+03</pdfrwt>
<totfact> 0.86570413E+04</totfact>
</mgrwt>
</event>
<event>
 8    1  0.4760912E-006  0.2763701E+03  0.7546771E-02  0.1097688E+00
         21   -1    0    0  504  503  0.00000000000E+00  0.00000000000E+00  0.34310097853E+02  0.34310097853E+02  0.00000000000E+00 0.  1.
         21   -1    0    0  503  504 -0.00000000000E+00 -0.00000000000E+00 -0.55654468305E+03  0.55654468305E+03  0.00000000000E+00 0.  1.
         25    2    1    2    0    0 -0.34622555453E+02 -0.40777570234E+02 -0.20831199434E+03  0.24875460499E+03  0.12499373958E+03 0.  0.
         25    2    1    2    0    0  0.34622555453E+02  0.40777570234E+02 -0.31392259086E+03  0.34210017592E+03  0.12499442281E+03 0.  0.
          5    1    3    3  501    0  0.84545575797E+01  0.40153648455E+02 -0.89823384759E+02  0.98864176919E+02  0.47000000000E+01 0.  1.
         -5    1    3    3    0  501 -0.43077113033E+02 -0.80931218689E+02 -0.11848860959E+03  0.14989042807E+03  0.47000000000E+01 0.  1.
          5    1    4    4  502    0  0.14487941660E+02  0.61844318326E+02 -0.63481615305E+02  0.89925667328E+02  0.47000000000E+01 0. -1.
         -5    1    4    4    0  502  0.20134613793E+02 -0.21066748092E+02 -0.25044097555E+03  0.25217450859E+03  0.47000000000E+01 0. -1.
<mgrwt>
<rscale>  0 0.27637006E+03</rscale>
<asrwt>0</asrwt>
<pdfrwt beam="1">  1       21 0.52784766E-02 0.27637006E+03</pdfrwt>
<pdfrwt beam="2">  1       21 0.85622259E-01 0.27637006E+03</pdfrwt>
<totfact> 0.28267606E+05</totfact>
</mgrwt>
</event>
<event>
 8    1  0.4760912E-006  0.2650403E+03  0.7546771E-02  0.1104152E+00
         21   -1    0    0  504  503  0.00000000000E+00  0.00000000000E+00  0.83955971379E+02  0.83955971379E+02  0.00000000000E+00 0.  1.
         21   -1    0    0  503  504 -0.00000000000E+00 -0.00000000000E+00 -0.20917611648E+03  0.20917611648E+03  0.00000000000E+00 0.  1.
         25    2    1    2    0    0  0.32482343696E+02  0.12334766562E+02 -0.92460710323E+02  0.15931955741E+03  0.12500595707E+03 0.  0.
         25    2    1    2    0    0 -0.32482343696E+02 -0.12334766562E+02 -0.32759434775E+02  0.13381253044E+03  0.12500145447E+03 0.  0.
          5    1    3    3  501    0  0.56811652978E+02 -0.82204231427E+01  0.38955554919E+01  0.57726983494E+02  0.47000000000E+01 0.  1.
         -5    1    3    3    0  501 -0.24329309282E+02  0.20555189705E+02 -0.96356265815E+02  0.10159257392E+03  0.47000000000E+01 0.  1.
          5    1    4    4  502    0 -0.18024287655E+02 -0.31617216418E+01  0.47758608311E+02  0.51359965898E+02  0.47000000000E+01 0. -1.
         -5    1    4    4    0  502 -0.14458056041E+02 -0.91730449205E+01 -0.80518043086E+02  0.82452564545E+02  0.47000000000E+01 0. -1.
<mgrwt>
<rscale>  0 0.26504025E+03</rscale>
<asrwt>0</asrwt>
<pdfrwt beam="1">  1       21 0.12916303E-01 0.26504025E+03</pdfrwt>
<pdfrwt beam="2">  1       21 0.32180941E-01 0.26504025E+03</pdfrwt>
<totfact> 0.47086371E+05</totfact>
</mgrwt>
</event>
<event>
 8    1  0.4760912E-006  0.3033523E+03  0.7546771E-02  0.1083577E+00
         21   -1    0    0  504  503  0.00000000000E+00  0.00000000000E+00  0.90126408384E+02  0.90126408384E+02  0.00000000000E+00 0. -1.
         21   -1    0    0  503  504 -0.00000000000E+00 -0.00000000000E+00 -0.25525984579E+03  0.25525984579E+03  0.00000000000E+00 0. -1.
         25    2    1    2    0    0  0.16247021468E+02  0.10380918152E+02  0.12739512552E+02  0.12712406583E+03  0.12500601491E+03 0.  0.
         25    2    1    2    0    0 -0.16247021468E+02 -0.10380918152E+02 -0.17787294996E+03  0.21826218835E+03  0.12501146894E+03 0.  0.
          5    1    3    3  501    0  0.14288590876E+02 -0.32384158713E+02 -0.43506641541E+02  0.56283349429E+02  0.47000000000E+01 0. -1.
         -5    1    3    3    0  501  0.19584305915E+01  0.42765076865E+02  0.56246154093E+02  0.70840716399E+02  0.47000000000E+01 0. -1.
          5    1    4    4  502    0 -0.19962715625E+02  0.55028818708E+02 -0.64446813891E+02  0.87190382063E+02  0.47000000000E+01 0. -1.
         -5    1    4    4    0  502  0.37156941572E+01 -0.65409736860E+02 -0.11342613607E+03  0.13107180629E+03  0.47000000000E+01 0. -1.
<mgrwt>
<rscale>  0 0.30335229E+03</rscale>
<asrwt>0</asrwt>
<pdfrwt beam="1">  1       21 0.13865601E-01 0.30335229E+03</pdfrwt>
<pdfrwt beam="2">  1       21 0.39270746E-01 0.30335229E+03</pdfrwt>
<totfact> 0.27548733E+05</totfact>
</mgrwt>
</event>
<event>
 8    1  0.4760912E-006  0.3793549E+03  0.7546771E-02  0.1051172E+00
         21   -1    0    0  504  503  0.00000000000E+00  0.00000000000E+00  0.50496932522E+03  0.50496932522E+03  0.00000000000E+00 0. -1.
         21   -1    0    0  503  504 -0.00000000000E+00 -0.00000000000E+00 -0.71246967023E+02  0.71246967023E+02  0.00000000000E+00 0. -1.
         25    2    1    2    0    0 -0.29677189570E+02  0.12252102379E+03  0.11542931934E+03  0.21176375569E+03  0.12501129393E+03 0.  0.
         25    2    1    2    0    0  0.29677189570E+02 -0.12252102379E+03  0.31829303886E+03  0.36445253655E+03  0.12499222360E+03 0.  0.
          5    1    3    3  501    0 -0.42875315548E+02  0.12149082144E+01  0.68472343568E+02  0.80934050430E+02  0.47000000000E+01 0.  1.
         -5    1    3    3    0  501  0.13198125978E+02  0.12130611558E+03  0.46956975771E+02  0.13082970526E+03  0.47000000000E+01 0.  1.
          5    1    4    4  502    0  0.22973289281E+02 -0.47271934890E+02  0.26899337712E+03  0.27412029254E+03  0.47000000000E+01 0. -1.
         -5    1    4    4    0  502  0.67039002897E+01 -0.75249088903E+02  0.49299661733E+02  0.90332244004E+02  0.47000000000E+01 0. -1.
<mgrwt>
<rscale>  0 0.37935489E+03</rscale>
<asrwt>0</asrwt>
<pdfrwt beam="1">  1       21 0.77687586E-01 0.37935489E+03</pdfrwt>
<pdfrwt beam="2">  1       21 0.10961072E-01 0.37935489E+03</pdfrwt>
<totfact> 0.95645191E+04</totfact>
</mgrwt>
</event>
<event>
 8    1  0.4760912E-006  0.4326703E+03  0.7546771E-02  0.1033020E+00
         21   -1    0    0  504  503  0.00000000000E+00  0.00000000000E+00  0.22220738926E+04  0.22220738926E+04  0.00000000000E+00 0. -1.
         21   -1    0    0  503  504 -0.00000000000E+00 -0.00000000000E+00 -0.21061806605E+02  0.21061806605E+02  0.00000000000E+00 0. -1.
         25    2    1    2    0    0  0.15059349680E+03 -0.80840218120E+02  0.87092479069E+03  0.89629721429E+03  0.12500065267E+03 0.  0.
         25    2    1    2    0    0 -0.15059349680E+03  0.80840218120E+02  0.13300872953E+04  0.13468384849E+04  0.12501259602E+03 0.  0.
          5    1    3    3  501    0  0.13009882440E+03 -0.30549474929E+02  0.38988367452E+03  0.41217756391E+03  0.47000000000E+01 0.  1.
         -5    1    3    3    0  501  0.20494672403E+02 -0.50290743192E+02  0.48104111617E+03  0.48411965039E+03  0.47000000000E+01 0.  1.
          5    1    4    4  502    0 -0.11811572460E+03  0.31580922531E+02  0.11660013499E+04  0.11724034787E+04  0.47000000000E+01 0. -1.
         -5    1    4    4    0  502 -0.32477772196E+02  0.49259295589E+02  0.16408594547E+03  0.17443500620E+03  0.47000000000E+01 0. -1.
<mgrwt>
<rscale>  0 0.43267027E+03</rscale>
<asrwt>0</asrwt>
<pdfrwt beam="1">  1       21 0.34185734E+00 0.43267027E+03</pdfrwt>
<pdfrwt beam="2">  1       21 0.32402797E-02 0.43267027E+03</pdfrwt>
<totfact> 0.90813600E+03</totfact>
</mgrwt>
</event>
<event>
 8    1  0.4760912E-006  0.3116850E+03  0.7546771E-02  0.1079541E+00
         21   -1    0    0  504  503  0.00000000000E+00  0.00000000000E+00  0.14079554507E+04  0.14079554507E+04  0.00000000000E+00 0. -1.
         21   -1    0    0  503  504 -0.00000000000E+00 -0.00000000000E+00 -0.17249752277E+02  0.17249752277E+02  0.00000000000E+00 0. -1.
         25    2    1    2    0    0 -0.31616796488E+02 -0.84186569032E+02  0.80501494260E+03  0.81961002672E+03  0.12499815139E+03 0.  0.
         25    2    1    2    0    0  0.31616796488E+02  0.84186569032E+02  0.58569075586E+03  0.60559517630E+03  0.12499942334E+03 0.  0.
          5    1    3    3  501    0  0.42428320888E+02 -0.49969635587E+02  0.48021344376E+03  0.48468976517E+03  0.47000000000E+01 0.  1.
         -5    1    3    3    0  501 -0.74045117376E+02 -0.34216933446E+02  0.32480149885E+03  0.33492026155E+03  0.47000000000E+01 0.  1.
          5    1    4    4  502    0  0.44923825082E+01 -0.16553909048E+02  0.31432124781E+03  0.31482399882E+03  0.47000000000E+01 0.  1.
         -5    1    4    4    0  502  0.27124413980E+02  0.10074047808E+03  0.27136950805E+03  0.29077117748E+03  0.47000000000E+01 0.  1.
<mgrwt>
<rscale>  0 0.31168499E+03</rscale>
<asrwt>0</asrwt>
<pdfrwt beam="1">  1       21 0.21660844E+00 0.31168499E+03</pdfrwt>
<pdfrwt beam="2">  1       21 0.26538091E-02 0.31168499E+03</pdfrwt>
<totfact> 0.76874046E+04</totfact>
</mgrwt>
</event>
<event>
 8    1  0.4760912E-006  0.3249605E+03  0.7546771E-02  0.1073389E+00
         21   -1    0    0  504  503  0.00000000000E+00  0.00000000000E+00  0.13309120360E+02  0.13309120360E+02  0.00000000000E+00 0.  1.
         21   -1    0    0  503  504 -0.00000000000E+00 -0.00000000000E+00 -0.19835891925E+04  0.19835891925E+04  0.00000000000E+00 0.  1.
         25    2    1    2    0    0  0.28739159960E+02 -0.84773735565E+02 -0.13080977148E+04  0.13171023041E+04  0.12500528978E+03 0.  0.
         25    2    1    2    0    0 -0.28739159960E+02  0.84773735565E+02 -0.66218235735E+03  0.67979600876E+03  0.12499845432E+03 0.  0.
          5    1    3    3  501    0 -0.36623112647E+02 -0.77327060345E+02 -0.84459627952E+03  0.84893208917E+03  0.47000000000E+01 0. -1.
         -5    1    3    3    0  501  0.65362272607E+02 -0.74466752202E+01 -0.46350143527E+03  0.46817021493E+03  0.47000000000E+01 0. -1.
          5    1    4    4  502    0  0.35476221269E+02  0.61850391180E+02 -0.47858064409E+03  0.48388589157E+03  0.47000000000E+01 0. -1.
         -5    1    4    4    0  502 -0.64215381228E+02  0.22923344385E+02 -0.18360171326E+03  0.19591011719E+03  0.47000000000E+01 0. -1.
<mgrwt>
<rscale>  0 0.32496047E+03</rscale>
<asrwt>0</asrwt>
<pdfrwt beam="1">  1       21 0.20475584E-02 0.32496047E+03</pdfrwt>
<pdfrwt beam="2">  1       21 0.30516735E+00 0.32496047E+03</pdfrwt>
<totfact> 0.34294430E+04</totfact>
</mgrwt>
</event>
<event>
 8    1  0.4760912E-006  0.3504506E+03  0.7546771E-02  0.1062430E+00
         21   -1    0    0  504  503  0.00000000000E+00  0.00000000000E+00  0.43843894819E+03  0.43843894819E+03  0.00000000000E+00 0. -1.
         21   -1    0    0  503  504 -0.00000000000E+00 -0.00000000000E+00 -0.70030072332E+02  0.70030072332E+02  0.00000000000E+00 0. -1.
         25    2    1    2    0    0 -0.40965054896E+02 -0.22431350836E+02  0.34903673769E+03  0.37367753102E+03  0.12500780659E+03 0.  0.
         25    2    1    2    0    0  0.40965054896E+02  0.22431350836E+02  0.19372138167E+02  0.13479148950E+03  0.12494864818E+03 0.  0.
          5    1    3    3  501    0 -0.72346098886E+02  0.23349951657E+02  0.22927962588E+03  0.24159970014E+03  0.47000000000E+01 0. -1.
         -5    1    3    3    0  501  0.31381043990E+02 -0.45781302492E+02  0.11975711181E+03  0.13207783088E+03  0.47000000000E+01 0. -1.
          5    1    4    4  502    0  0.85794693721E+02  0.10014514784E+02  0.96987543955E+01  0.87046974755E+02  0.47000000000E+01 0. -1.
         -5    1    4    4    0  502 -0.44829638826E+02  0.12416836052E+02  0.96733837713E+01  0.47744514746E+02  0.47000000000E+01 0. -1.
<mgrwt>
<rscale>  0 0.35045063E+03</rscale>
<asrwt>0</asrwt>
<pdfrwt beam="1">  1       21 0.67452144E-01 0.35045063E+03</pdfrwt>
<pdfrwt beam="2">  1       21 0.10773858E-01 0.35045063E+03</pdfrwt>
<totfact> 0.13656038E+05</totfact>
</mgrwt>
</event>
<event>
 8    1  0.4760912E-006  0.2791650E+03  0.7546771E-02  0.1096146E+00
         21   -1    0    0  504  503  0.00000000000E+00  0.00000000000E+00  0.11961388972E+02  0.11961388972E+02  0.00000000000E+00 0.  1.
         21   -1    0    0  503  504 -0.00000000000E+00 -0.00000000000E+00 -0.16288472906E+04  0.16288472906E+04  0.00000000000E+00 0.  1.
         25    2    1    2    0    0  0.25695712294E+02 -0.55850695229E+02 -0.86047993871E+03  0.87168227696E+03  0.12499878905E+03 0.  0.
         25    2    1    2    0    0 -0.25695712294E+02  0.55850695229E+02 -0.75640596287E+03  0.76912640256E+03  0.12500349059E+03 0.  0.
          5    1    3    3  501    0  0.23254987442E+02 -0.67633499412E+02 -0.22648046075E+03  0.23755120245E+03  0.47000000000E+01 0.  1.
         -5    1    3    3    0  501  0.24407248527E+01  0.11782804182E+02 -0.63399947795E+03  0.63413107451E+03  0.47000000000E+01 0.  1.
          5    1    4    4  502    0 -0.87954279930E+01  0.95223431465E+02 -0.54942527030E+03  0.55770519013E+03  0.47000000000E+01 0. -1.
         -5    1    4    4    0  502 -0.16900284301E+02 -0.39372736236E+02 -0.20698069257E+03  0.21142121243E+03  0.47000000000E+01 0. -1.
<mgrwt>
<rscale>  0 0.27916501E+03</rscale>
<asrwt>0</asrwt>
<pdfrwt beam="1">  1       21 0.18402141E-02 0.27916501E+03</pdfrwt>
<pdfrwt beam="2">  1       21 0.25059184E+00 0.27916501E+03</pdfrwt>
<totfact> 0.88208012E+04</totfact>
</mgrwt>
</event>
<event>
 8    1  0.4760912E-006  0.2727458E+03  0.7546771E-02  0.1099718E+00
         21   -1    0    0  504  503  0.00000000000E+00  0.00000000000E+00  0.16326870006E+03  0.16326870006E+03  0.00000000000E+00 0.  1.
         21   -1    0    0  503  504 -0.00000000000E+00 -0.00000000000E+00 -0.11390769431E+03  0.11390769431E+03  0.00000000000E+00 0.  1.
         25    2    1    2    0    0 -0.24777958732E+02  0.49933294007E+01 -0.24416875143E+02  0.12984307178E+03  0.12499663563E+03 0.  0.
         25    2    1    2    0    0  0.24777958732E+02 -0.49933294007E+01  0.73777880891E+02  0.14733332258E+03  0.12500020663E+03 0.  0.
          5    1    3    3  501    0 -0.70540747895E+02  0.19555175473E+02 -0.33670564895E+02  0.80710587544E+02  0.47000000000E+01 0.  1.
         -5    1    3    3    0  501  0.45762789162E+02 -0.14561846073E+02  0.92536897527E+01  0.49132484234E+02  0.47000000000E+01 0.  1.
          5    1    4    4  502    0  0.37717943181E+02 -0.97770352124E+01  0.10542396072E+03  0.11249237818E+03  0.47000000000E+01 0. -1.
         -5    1    4    4    0  502 -0.12939984449E+02  0.47837058117E+01 -0.31646079824E+02  0.34840944406E+02  0.47000000000E+01 0. -1.
<mgrwt>
<rscale>  0 0.27274575E+03</rscale>
<asrwt>0</asrwt>
<pdfrwt beam="1">  1       21 0.25118262E-01 0.27274575E+03</pdfrwt>
<pdfrwt beam="2">  1       21 0.17524261E-01 0.27274575E+03</pdfrwt>
<totfact> 0.43569417E+05</totfact>
</mgrwt>
</event>
<event>
 8    1  0.4760912E-006  0.3074965E+03  0.7546771E-02  0.1081552E+00
         21   -1    0    0  504  503  0.00000000000E+00  0.00000000000E+00  0.16736504777E+03  0.16736504777E+03  0.00000000000E+00 0.  1.
         21   -1    0    0  503  504 -0.00000000000E+00 -0.00000000000E+00 -0.14123931376E+03  0.14123931376E+03  0.00000000000E+00 0.  1.
         25    2    1    2    0    0 -0.81848320594E+02 -0.35931458603E+02  0.79247486807E+01  0.15387422649E+03  0.12499703450E+03 0.  0.
         25    2    1    2    0    0  0.81848320594E+02  0.35931458603E+02  0.18200985330E+02  0.15473013504E+03  0.12497968444E+03 0.  0.
          5    1    3    3  501    0 -0.41497446336E+02 -0.79503340199E+02  0.22426639120E+02  0.92562753294E+02  0.47000000000E+01 0.  1.
         -5    1    3    3    0  501 -0.40350874258E+02  0.43571881595E+02 -0.14501890439E+02  0.61311473196E+02  0.47000000000E+01 0.  1.
          5    1    4    4  502    0  0.72494497260E+02  0.62675285839E+02  0.52998956321E+02  0.10961123555E+03  0.47000000000E+01 0.  1.
         -5    1    4    4    0  502  0.93538233340E+01 -0.26743827235E+02 -0.34797970991E+02  0.45118899490E+02  0.47000000000E+01 0.  1.
<mgrwt>
<rscale>  0 0.30749650E+03</rscale>
<asrwt>0</asrwt>
<pdfrwt beam="1">  1       21 0.25748469E-01 0.30749650E+03</pdfrwt>
<pdfrwt beam="2">  1       21 0.21729125E-01 0.30749650E+03</pdfrwt>
<totfact> 0.27534597E+05</totfact>
</mgrwt>
</event>
<event>
 8    1  0.4760912E-006  0.3165978E+03  0.7546771E-02  0.1077226E+00
         21   -1    0    0  504  503  0.00000000000E+00  0.00000000000E+00  0.15795206849E+03  0.15795206849E+03  0.00000000000E+00 0.  1.
         21   -1    0    0  503  504 -0.00000000000E+00 -0.00000000000E+00 -0.15864652081E+03  0.15864652081E+03  0.00000000000E+00 0.  1.
         25    2    1    2    0    0  0.88143360486E+02 -0.35613509663E+02 -0.20238627708E+02  0.15834326279E+03  0.12500165099E+03 0.  0.
         25    2    1    2    0    0 -0.88143360486E+02  0.35613509663E+02  0.19544175390E+02  0.15825532652E+03  0.12500079804E+03 0.  0.
          5    1    3    3  501    0  0.44132657087E+02  0.41541077998E+02  0.15090734944E+02  0.62635236600E+02  0.47000000000E+01 0. -1.
         -5    1    3    3    0  501  0.44010703399E+02 -0.77154587661E+02 -0.35329362652E+02  0.95708026185E+02  0.47000000000E+01 0. -1.
          5    1    4    4  502    0 -0.61225526685E+02 -0.26178169877E+02 -0.31271566972E+02  0.73714737989E+02  0.47000000000E+01 0.  1.
         -5    1    4    4    0  502 -0.26917833801E+02  0.61791679540E+02  0.50815742362E+02  0.84540588529E+02  0.47000000000E+01 0.  1.
<mgrwt>
<rscale>  0 0.31659783E+03</rscale>
<asrwt>0</asrwt>
<pdfrwt beam="1">  1       21 0.24300318E-01 0.31659783E+03</pdfrwt>
<pdfrwt beam="2">  1       21 0.24407157E-01 0.31659783E+03</pdfrwt>
<totfact> 0.24603811E+05</totfact>
</mgrwt>
</event>
<event>
 8    1  0.4760912E-006  0.2605611E+03  0.7546771E-02  0.1106807E+00
         21   -1    0    0  504  503  0.00000000000E+00  0.00000000000E+00  0.90763045579E+01  0.90763045579E+01  0.00000000000E+00 0.  1.
         21   -1    0    0  503  504 -0.00000000000E+00 -0.00000000000E+00 -0.18700363616E+04  0.18700363616E+04  0.00000000000E+00 0.  1.
         25    2    1    2    0    0  0.21135623324E+02  0.37411649451E+01 -0.71564874886E+03  0.72680034947E+03  0.12499962140E+03 0.  0.
         25    2    1    2    0    0 -0.21135623324E+02 -0.37411649451E+01 -0.11453113082E+04  0.11523123167E+04  0.12499988666E+03 0.  0.
          5    1    3    3  501    0  0.14521796375E+02  0.47845106010E+02 -0.60952991356E+03  0.61159532557E+03  0.47000000000E+01 0.  1.
         -5    1    3    3    0  501  0.66138269488E+01 -0.44103941065E+02 -0.10611883530E+03  0.11520502390E+03  0.47000000000E+01 0.  1.
          5    1    4    4  502    0 -0.48106199693E+02  0.30613216803E+01 -0.10810204275E+04  0.10821048160E+04  0.47000000000E+01 0.  1.
         -5    1    4    4    0  502  0.26970576369E+02 -0.68024866254E+01 -0.64290880627E+02  0.70207500638E+02  0.47000000000E+01 0.  1.
<mgrwt>
<rscale>  0 0.26056108E+03</rscale>
<asrwt>0</asrwt>
<pdfrwt beam="1">  1       21 0.13963538E-02 0.26056108E+03</pdfrwt>
<pdfrwt beam="2">  1       21 0.28769805E+00 0.26056108E+03</pdfrwt>
<totfact> 0.84268744E+04</totfact>
</mgrwt>
</event>
<event>
 8    1  0.4760912E-006  0.2804387E+03  0.7546771E-02  0.1095450E+00
         21   -1    0    0  504  503  0.00000000000E+00  0.00000000000E+00  0.24847618420E+02  0.24847618420E+02  0.00000000000E+00 0. -1.
         21   -1    0    0  503  504 -0.00000000000E+00 -0.00000000000E+00 -0.79128181256E+03  0.79128181256E+03  0.00000000000E+00 0. -1.
         25    2    1    2    0    0 -0.22412161446E+02  0.22934077896E+02 -0.22360124959E+03  0.25816822092E+03  0.12500013827E+03 0.  0.
         25    2    1    2    0    0  0.22412161446E+02 -0.22934077896E+02 -0.54283294456E+03  0.55796121006E+03  0.12499931731E+03 0.  0.
          5    1    3    3  501    0  0.28443894386E+02  0.42419051109E+02 -0.18306706466E+03  0.19011594143E+03  0.47000000000E+01 0. -1.
         -5    1    3    3    0  501 -0.50856055832E+02 -0.19484973214E+02 -0.40534184930E+02  0.68052279491E+02  0.47000000000E+01 0. -1.
          5    1    4    4  502    0  0.21854316462E+02  0.37298718189E+02 -0.78717382122E+02  0.89929537832E+02  0.47000000000E+01 0. -1.
         -5    1    4    4    0  502  0.55784498370E+00 -0.60232796084E+02 -0.46411556243E+03  0.46803167223E+03  0.47000000000E+01 0. -1.
<mgrwt>
<rscale>  0 0.28043872E+03</rscale>
<asrwt>0</asrwt>
<pdfrwt beam="1">  1       21 0.38227105E-02 0.28043872E+03</pdfrwt>
<pdfrwt beam="2">  1       21 0.12173567E+00 0.28043872E+03</pdfrwt>
<totfact> 0.20937551E+05</totfact>
</mgrwt>
</event>
<event>
 8    1  0.4760912E-006  0.3927841E+03  0.7546771E-02  0.1046307E+00
         21   -1    0    0  504  503  0.00000000000E+00  0.00000000000E+00  0.39711997756E+03  0.39711997756E+03  0.00000000000E+00 0. -1.
         21   -1    0    0  503  504 -0.00000000000E+00 -0.00000000000E+00 -0.97123912497E+02  0.97123912497E+02  0.00000000000E+00 0. -1.
         25    2    1    2    0    0 -0.76416795627E+02 -0.15708548310E+02  0.31337418622E+03  0.34628725529E+03  0.12500078976E+03 0.  0.
         25    2    1    2    0    0  0.76416795627E+02  0.15708548310E+02 -0.13378121163E+02  0.14795663477E+03  0.12500362595E+03 0.  0.
          5    1    3    3  501    0 -0.39372988853E+02 -0.61667455991E+02  0.24549429955E+03  0.25620821316E+03  0.47000000000E+01 0.  1.
         -5    1    3    3    0  501 -0.37043806775E+02  0.45958907681E+02  0.67879886670E+02  0.90079042123E+02  0.47000000000E+01 0.  1.
          5    1    4    4  502    0 -0.30198110233E+02  0.52909306307E+01  0.18472428788E+02  0.36100421519E+02  0.47000000000E+01 0. -1.
         -5    1    4    4    0  502  0.10661490586E+03  0.10417617679E+02 -0.31850549951E+02  0.11185621325E+03  0.47000000000E+01 0. -1.
<mgrwt>
<rscale>  0 0.39278414E+03</rscale>
<asrwt>0</asrwt>
<pdfrwt beam="1">  1       21 0.61095380E-01 0.39278414E+03</pdfrwt>
<pdfrwt beam="2">  1       21 0.14942141E-01 0.39278414E+03</pdfrwt>
<totfact> 0.92718753E+04</totfact>
</mgrwt>
</event>
<event>
 8    1  0.4760912E-006  0.2551191E+03  0.7546771E-02  0.1110112E+00
         21   -1    0    0  504  503  0.00000000000E+00  0.00000000000E+00  0.37912406678E+02  0.37912406678E+02  0.00000000000E+00 0. -1.
         21   -1    0    0  503  504 -0.00000000000E+00 -0.00000000000E+00 -0.42918505284E+03  0.42918505284E+03  0.00000000000E+00 0. -1.
         25    2    1    2    0    0  0.63902399490E+01 -0.22570974220E+02 -0.17775369660E+03  0.21856880743E+03  0.12500265150E+03 0.  0.
         25    2    1    2    0    0 -0.63902399490E+01  0.22570974220E+02 -0.21351894955E+03  0.24852865208E+03  0.12500346012E+03 0.  0.
          5    1    3    3  501    0  0.31005965121E+02 -0.33276774547E+02 -0.77288529819E+01  0.46373901774E+02  0.47000000000E+01 0.  1.
         -5    1    3    3    0  501 -0.24615725172E+02  0.10705800327E+02 -0.17002484362E+03  0.17219490566E+03  0.47000000000E+01 0.  1.
          5    1    4    4  502    0 -0.98555321412E+01  0.27593437043E+02 -0.22917091482E+03  0.23108424325E+03  0.47000000000E+01 0. -1.
         -5    1    4    4    0  502  0.34652921922E+01 -0.50224628230E+01  0.15651965262E+02  0.17444408828E+02  0.47000000000E+01 0. -1.
<mgrwt>
<rscale>  0 0.25511910E+03</rscale>
<asrwt>0</asrwt>
<pdfrwt beam="1">  1       21 0.58326785E-02 0.25511910E+03</pdfrwt>
<pdfrwt beam="2">  1       21 0.66028463E-01 0.25511910E+03</pdfrwt>
<totfact> 0.42977229E+05</totfact>
</mgrwt>
</event>
<event>
 8    1  0.4760912E-006  0.3608363E+03  0.7546771E-02  0.1058253E+00
         21   -1    0    0  504  503  0.00000000000E+00  0.00000000000E+00  0.43216881573E+03  0.43216881573E+03  0.00000000000E+00 0. -1.
         21   -1    0    0  503  504 -0.00000000000E+00 -0.00000000000E+00 -0.75319440271E+02  0.75319440271E+02  0.00000000000E+00 0. -1.
         25    2    1    2    0    0 -0.36618058321E+02 -0.58682963837E+02  0.23453880748E+02  0.14477542982E+03  0.12500107247E+03 0.  0.
         25    2    1    2    0    0  0.36618058321E+02  0.58682963837E+02  0.33339549471E+03  0.36271282618E+03  0.12499386361E+03 0.  0.
          5    1    3    3  501    0 -0.58345049053E+02  0.19020348143E+02  0.16120151456E+02  0.63622854977E+02  0.47000000000E+01 0.  1.
         -5    1    3    3    0  501  0.21726990732E+02 -0.77703311980E+02  0.73337292927E+01  0.81152574847E+02  0.47000000000E+01 0.  1.
          5    1    4    4  502    0  0.37548515332E+02  0.89294810376E+02  0.30718021519E+03  0.32212610693E+03  0.47000000000E+01 0.  1.
         -5    1    4    4    0  502 -0.93045701144E+00 -0.30611846539E+02  0.26215279523E+02  0.40586719247E+02  0.47000000000E+01 0.  1.
<mgrwt>
<rscale>  0 0.36083632E+03</rscale>
<asrwt>0</asrwt>
<pdfrwt beam="1">  1       21 0.66487508E-01 0.36083632E+03</pdfrwt>
<pdfrwt beam="2">  1       21 0.11587607E-01 0.36083632E+03</pdfrwt>
<totfact> 0.12335796E+05</totfact>
</mgrwt>
</event>
<event>
 8    1  0.4760912E-006  0.2575162E+03  0.7546771E-02  0.1108645E+00
         21   -1    0    0  504  503  0.00000000000E+00  0.00000000000E+00  0.13068446844E+03  0.13068446844E+03  0.00000000000E+00 0.  1.
         21   -1    0    0  503  504 -0.00000000000E+00 -0.00000000000E+00 -0.12686010536E+03  0.12686010536E+03  0.00000000000E+00 0.  1.
         25    2    1    2    0    0 -0.30063949404E+02 -0.26559589332E+01  0.83474365674E+01  0.12886463822E+03  0.12500208044E+03 0.  0.
         25    2    1    2    0    0  0.30063949404E+02  0.26559589332E+01 -0.45230734941E+01  0.12867993558E+03  0.12500868952E+03 0.  0.
          5    1    3    3  501    0 -0.12003686976E+02 -0.18734090761E+02  0.64045343698E+02  0.67962862705E+02  0.47000000000E+01 0. -1.
         -5    1    3    3    0  501 -0.18060262428E+02  0.16078131828E+02 -0.55697907131E+02  0.60901775514E+02  0.47000000000E+01 0. -1.
          5    1    4    4  502    0  0.63990868126E+02  0.23308401588E+02 -0.36556395733E+02  0.77437541652E+02  0.47000000000E+01 0.  1.
         -5    1    4    4    0  502 -0.33926918722E+02 -0.20652442655E+02  0.32033322239E+02  0.51242393926E+02  0.47000000000E+01 0.  1.
<mgrwt>
<rscale>  0 0.25751618E+03</rscale>
<asrwt>0</asrwt>
<pdfrwt beam="1">  1       21 0.20105303E-01 0.25751618E+03</pdfrwt>
<pdfrwt beam="2">  1       21 0.19516939E-01 0.25751618E+03</pdfrwt>
<totfact> 0.54570908E+05</totfact>
</mgrwt>
</event>
<event>
 8    1  0.4760912E-006  0.2991662E+03  0.7546771E-02  0.1085658E+00
         21   -1    0    0  504  503  0.00000000000E+00  0.00000000000E+00  0.91059340347E+02  0.91059340347E+02  0.00000000000E+00 0. -1.
         21   -1    0    0  503  504 -0.00000000000E+00 -0.00000000000E+00 -0.24571999948E+03  0.24571999948E+03  0.00000000000E+00 0. -1.
         25    2    1    2    0    0 -0.21797152914E+02 -0.49501132481E+02 -0.77066188528E+01  0.13641298946E+03  0.12499453478E+03 0.  0.
         25    2    1    2    0    0  0.21797152914E+02  0.49501132481E+02 -0.14695404028E+03  0.20036635037E+03  0.12500282562E+03 0.  0.
          5    1    3    3  501    0 -0.29545957020E+02 -0.86541800194E+02  0.13849797785E+02  0.92608604653E+02  0.47000000000E+01 0. -1.
         -5    1    3    3    0  501  0.77488041063E+01  0.37040667713E+02 -0.21556416638E+02  0.43804384803E+02  0.47000000000E+01 0. -1.
          5    1    4    4  502    0  0.51581717796E+02  0.69200572445E+02 -0.13867682884E+03  0.16340974786E+03  0.47000000000E+01 0. -1.
         -5    1    4    4    0  502 -0.29784564882E+02 -0.19699439963E+02 -0.82772114389E+01  0.36956602513E+02  0.47000000000E+01 0. -1.
<mgrwt>
<rscale>  0 0.29916618E+03</rscale>
<asrwt>0</asrwt>
<pdfrwt beam="1">  1       21 0.14009129E-01 0.29916618E+03</pdfrwt>
<pdfrwt beam="2">  1       21 0.37803077E-01 0.29916618E+03</pdfrwt>
<totfact> 0.29232825E+05</totfact>
</mgrwt>
</event>
<event>
 8    1  0.4760912E-006  0.2648121E+03  0.7546771E-02  0.1104286E+00
         21   -1    0    0  504  503  0.00000000000E+00  0.00000000000E+00  0.22080798014E+02  0.22080798014E+02  0.00000000000E+00 0.  1.
         21   -1    0    0  503  504 -0.00000000000E+00 -0.00000000000E+00 -0.79396436210E+03  0.79396436210E+03  0.00000000000E+00 0.  1.
         25    2    1    2    0    0  0.41011862997E+02 -0.80846657245E+01 -0.42489321108E+03  0.44486583558E+03  0.12499614443E+03 0.  0.
         25    2    1    2    0    0 -0.41011862997E+02  0.80846657245E+01 -0.34699035300E+03  0.37117932453E+03  0.12499780460E+03 0.  0.
          5    1    3    3  501    0  0.77412658984E+02  0.25886790226E+02 -0.25921393713E+03  0.27180287136E+03  0.47000000000E+01 0. -1.
         -5    1    3    3    0  501 -0.36400795987E+02 -0.33971455950E+02 -0.16567927395E+03  0.17306296422E+03  0.47000000000E+01 0. -1.
          5    1    4    4  502    0  0.41924479941E+02 -0.52200437370E+01 -0.72043687031E+02  0.83649827949E+02  0.47000000000E+01 0.  1.
         -5    1    4    4    0  502 -0.82936342938E+02  0.13304709462E+02 -0.27494666597E+03  0.28752949658E+03  0.47000000000E+01 0.  1.
<mgrwt>
<rscale>  0 0.26481213E+03</rscale>
<asrwt>0</asrwt>
<pdfrwt beam="1">  1       21 0.33970457E-02 0.26481213E+03</pdfrwt>
<pdfrwt beam="2">  1       21 0.12214837E+00 0.26481213E+03</pdfrwt>
<totfact> 0.25426857E+05</totfact>
</mgrwt>
</event>
<event>
 8    1  0.4760912E-006  0.5437698E+03  0.7546771E-02  0.1002946E+00
         21   -1    0    0  504  503  0.00000000000E+00  0.00000000000E+00  0.91335154939E+02  0.91335154939E+02  0.00000000000E+00 0. -1.
         21   -1    0    0  503  504 -0.00000000000E+00 -0.00000000000E+00 -0.80934233239E+03  0.80934233239E+03  0.00000000000E+00 0. -1.
         25    2    1    2    0    0  0.12249098313E+03 -0.16434287938E+03 -0.14763951753E+03  0.28184253174E+03  0.12500065044E+03 0.  0.
         25    2    1    2    0    0 -0.12249098313E+03  0.16434287938E+03 -0.57036765992E+03  0.61883495559E+03  0.12499924730E+03 0.  0.
          5    1    3    3  501    0  0.59909437217E+02 -0.16627909898E+03 -0.11669529730E+03  0.21184372032E+03  0.47000000000E+01 0.  1.
         -5    1    3    3    0  501  0.62581545915E+02  0.19362196017E+01 -0.30944220229E+02  0.69998811426E+02  0.47000000000E+01 0.  1.
          5    1    4    4  502    0 -0.56323369747E+02  0.11898711459E+03 -0.19745311719E+03  0.23736065156E+03  0.47000000000E+01 0.  1.
         -5    1    4    4    0  502 -0.66167613385E+02  0.45355764787E+02 -0.37291454272E+03  0.38147430403E+03  0.47000000000E+01 0.  1.
<mgrwt>
<rscale>  0 0.54376983E+03</rscale>
<asrwt>0</asrwt>
<pdfrwt beam="1">  1       21 0.14051562E-01 0.54376983E+03</pdfrwt>
<pdfrwt beam="2">  1       21 0.12451421E+00 0.54376983E+03</pdfrwt>
<totfact> 0.18646544E+04</totfact>
</mgrwt>
</event>
<event>
 8    1  0.4760912E-006  0.2999527E+03  0.7546771E-02  0.1085264E+00
         21   -1    0    0  504  503  0.00000000000E+00  0.00000000000E+00  0.34992273429E+02  0.34992273429E+02  0.00000000000E+00 0.  1.
         21   -1    0    0  503  504 -0.00000000000E+00 -0.00000000000E+00 -0.64279617783E+03  0.64279617783E+03  0.00000000000E+00 0.  1.
         25    2    1    2    0    0  0.59923591615E+02  0.38171561905E+01 -0.43297374474E+03  0.45463865622E+03  0.12499854632E+03 0.  0.
         25    2    1    2    0    0 -0.59923591615E+02 -0.38171561905E+01 -0.17483015966E+03  0.22314979504E+03  0.12499935514E+03 0.  0.
          5    1    3    3  501    0  0.89412412547E+02  0.59718758481E+01 -0.40066680304E+03  0.41059252292E+03  0.47000000000E+01 0.  1.
         -5    1    3    3    0  501 -0.29488820932E+02 -0.21547196576E+01 -0.32306941701E+02  0.44046133302E+02  0.47000000000E+01 0.  1.
          5    1    4    4  502    0  0.17146046186E+02  0.29422595093E+02 -0.11484236980E+03  0.11987717007E+03  0.47000000000E+01 0. -1.
         -5    1    4    4    0  502 -0.77069637801E+02 -0.33239751283E+02 -0.59987789858E+02  0.10327262497E+03  0.47000000000E+01 0. -1.
<mgrwt>
<rscale>  0 0.29995266E+03</rscale>
<asrwt>0</asrwt>
<pdfrwt beam="1">  1       21 0.53834269E-02 0.29995266E+03</pdfrwt>
<pdfrwt beam="2">  1       21 0.98891716E-01 0.29995266E+03</pdfrwt>
<totfact> 0.19362509E+05</totfact>
</mgrwt>
</event>
<event>
 8    1  0.4760912E-006  0.2607240E+03  0.7546771E-02  0.1106709E+00
         21   -1    0    0  504  503  0.00000000000E+00  0.00000000000E+00  0.57835533783E+02  0.57835533783E+02  0.00000000000E+00 0.  1.
         21   -1    0    0  503  504 -0.00000000000E+00 -0.00000000000E+00 -0.29383751265E+03  0.29383751265E+03  0.00000000000E+00 0.  1.
         25    2    1    2    0    0  0.32756817685E+02 -0.17216625824E+02 -0.11874448941E+03  0.17633626836E+03  0.12499921785E+03 0.  0.
         25    2    1    2    0    0 -0.32756817685E+02  0.17216625824E+02 -0.11725748946E+03  0.17533677808E+03  0.12499698237E+03 0.  0.
          5    1    3    3  501    0  0.33276770665E+02 -0.12304790351E+02 -0.14492702511E+03  0.14928055446E+03  0.47000000000E+01 0. -1.
         -5    1    3    3    0  501 -0.51995297952E+00 -0.49118354732E+01  0.26182535703E+02  0.27055713900E+02  0.47000000000E+01 0. -1.
          5    1    4    4  502    0  0.27085302492E+01  0.67612706788E+02 -0.52091247763E+02  0.85524279294E+02  0.47000000000E+01 0.  1.
         -5    1    4    4    0  502 -0.35465347934E+02 -0.50396080964E+02 -0.65166241697E+02  0.89812498783E+02  0.47000000000E+01 0.  1.
<mgrwt>
<rscale>  0 0.26072399E+03</rscale>
<asrwt>0</asrwt>
<pdfrwt beam="1">  1       21 0.88977743E-02 0.26072399E+03</pdfrwt>
<pdfrwt beam="2">  1       21 0.45205772E-01 0.26072399E+03</pdfrwt>
<totfact> 0.46130949E+05</totfact>
</mgrwt>
</event>
<event>
 8    1  0.4760912E-006  0.3330337E+03  0.7546771E-02  0.1069802E+00
         21   -1    0    0  504  503  0.00000000000E+00  0.00000000000E+00  0.43293721662E+03  0.43293721662E+03  0.00000000000E+00 0. -1.
         21   -1    0    0  503  504 -0.00000000000E+00 -0.00000000000E+00 -0.64045906615E+02  0.64045906615E+02  0.00000000000E+00 0. -1.
         25    2    1    2    0    0  0.52864779476E+02  0.14741798118E+01  0.40490547675E+02  0.14163815030E+03  0.12500009221E+03 0.  0.
         25    2    1    2    0    0 -0.52864779476E+02 -0.14741798118E+01  0.32840076233E+03  0.35534497293E+03  0.12500452383E+03 0.  0.
          5    1    3    3  501    0 -0.42911083413E+00 -0.33507384663E+02 -0.30891629861E+02  0.45818247004E+02  0.47000000000E+01 0.  1.
         -5    1    3    3    0  501  0.53293890310E+02  0.34981564474E+02  0.71382177536E+02  0.95819903294E+02  0.47000000000E+01 0.  1.
          5    1    4    4  502    0 -0.50454586543E+02 -0.44304594533E+02  0.86389594118E+02  0.10951627446E+03  0.47000000000E+01 0. -1.
         -5    1    4    4    0  502 -0.24101929337E+01  0.42830414721E+02  0.24201116821E+03  0.24582869847E+03  0.47000000000E+01 0. -1.
<mgrwt>
<rscale>  0 0.33303367E+03</rscale>
<asrwt>0</asrwt>
<pdfrwt beam="1">  1       21 0.66605724E-01 0.33303367E+03</pdfrwt>
<pdfrwt beam="2">  1       21 0.98532167E-02 0.33303367E+03</pdfrwt>
<totfact> 0.16547119E+05</totfact>
</mgrwt>
</event>
<event>
 8    1  0.4760912E-006  0.4561399E+03  0.7546771E-02  0.1025907E+00
         21   -1    0    0  504  503  0.00000000000E+00  0.00000000000E+00  0.45585479786E+03  0.45585479786E+03  0.00000000000E+00 0. -1.
         21   -1    0    0  503  504 -0.00000000000E+00 -0.00000000000E+00 -0.11410631192E+03  0.11410631192E+03  0.00000000000E+00 0. -1.
         25    2    1    2    0    0 -0.15294303238E+03  0.10752785901E+03  0.12350168681E+03  0.25657606228E+03  0.12499918990E+03 0.  0.
         25    2    1    2    0    0  0.15294303238E+03 -0.10752785901E+03  0.21824679913E+03  0.31338504750E+03  0.12499884418E+03 0.  0.
          5    1    3    3  501    0 -0.90772014112E+02  0.10723428423E+03  0.13298567349E+03  0.19350976620E+03  0.47000000000E+01 0. -1.
         -5    1    3    3    0  501 -0.62171018268E+02  0.29357477997E+00 -0.94839866811E+01  0.63066296086E+02  0.47000000000E+01 0. -1.
          5    1    4    4  502    0  0.97460227707E+01  0.16763931192E+02 -0.48737530872E+01  0.20539177637E+02  0.47000000000E+01 0.  1.
         -5    1    4    4    0  502  0.14319700961E+03 -0.12429179020E+03  0.22312055222E+03  0.29284586986E+03  0.47000000000E+01 0.  1.
<mgrwt>
<rscale>  0 0.45613993E+03</rscale>
<asrwt>0</asrwt>
<pdfrwt beam="1">  1       21 0.70131506E-01 0.45613993E+03</pdfrwt>
<pdfrwt beam="2">  1       21 0.17554818E-01 0.45613993E+03</pdfrwt>
<totfact> 0.49839401E+04</totfact>
</mgrwt>
</event>
<event>
 8    1  0.4760912E-006  0.2848213E+03  0.7546771E-02  0.1093084E+00
         21   -1    0    0  504  503  0.00000000000E+00  0.00000000000E+00  0.98694694591E+03  0.98694694591E+03  0.00000000000E+00 0.  1.
         21   -1    0    0  503  504 -0.00000000000E+00 -0.00000000000E+00 -0.20549021765E+02  0.20549021765E+02  0.00000000000E+00 0.  1.
         25    2    1    2    0    0  0.29631170204E+02 -0.21012085738E+02  0.68751306240E+03  0.69972755986E+03  0.12499973225E+03 0.  0.
         25    2    1    2    0    0 -0.29631170204E+02  0.21012085738E+02  0.27888486175E+03  0.30776840782E+03  0.12500045098E+03 0.  0.
          5    1    3    3  501    0 -0.69301727524E+01  0.34622951272E+02  0.69265260487E+02  0.77888011654E+02  0.47000000000E+01 0.  1.
         -5    1    3    3    0  501  0.36561342957E+02 -0.55635037010E+02  0.61824780191E+03  0.62183954821E+03  0.47000000000E+01 0.  1.
          5    1    4    4  502    0  0.22941358416E+02  0.14988009736E+02  0.43512547252E+01  0.28141957635E+02  0.47000000000E+01 0.  1.
         -5    1    4    4    0  502 -0.52572528620E+02  0.60240760014E+01  0.27453360702E+03  0.27962645018E+03  0.47000000000E+01 0.  1.
<mgrwt>
<rscale>  0 0.28482131E+03</rscale>
<asrwt>0</asrwt>
<pdfrwt beam="1">  1       21 0.15183795E+00 0.28482131E+03</pdfrwt>
<pdfrwt beam="2">  1       21 0.31613887E-02 0.28482131E+03</pdfrwt>
<totfact> 0.16214462E+05</totfact>
</mgrwt>
</event>
<event>
 8    1  0.4760912E-006  0.2564307E+03  0.7546771E-02  0.1109307E+00
         21   -1    0    0  504  503  0.00000000000E+00  0.00000000000E+00  0.29324963451E+03  0.29324963451E+03  0.00000000000E+00 0.  1.
         21   -1    0    0  503  504 -0.00000000000E+00 -0.00000000000E+00 -0.56058630106E+02  0.56058630106E+02  0.00000000000E+00 0.  1.
         25    2    1    2    0    0  0.28165715009E+02 -0.44074677582E+01  0.11729732218E+03  0.17377293975E+03  0.12500255808E+03 0.  0.
         25    2    1    2    0    0 -0.28165715009E+02  0.44074677582E+01  0.11989368223E+03  0.17553532486E+03  0.12500168784E+03 0.  0.
          5    1    3    3  501    0 -0.27571778017E+02 -0.91742987145E+00  0.11427040164E+03  0.11764718148E+03  0.47000000000E+01 0.  1.
         -5    1    3    3    0  501  0.55737493026E+02 -0.34900378868E+01  0.30269205416E+01  0.56125758269E+02  0.47000000000E+01 0.  1.
          5    1    4    4  502    0 -0.39561868097E+02 -0.38199830677E+02  0.11899364815E+03  0.13117144038E+03  0.47000000000E+01 0. -1.
         -5    1    4    4    0  502  0.11396153088E+02  0.42607298435E+02  0.90003407342E+00  0.44363884483E+02  0.47000000000E+01 0. -1.
<mgrwt>
<rscale>  0 0.25643068E+03</rscale>
<asrwt>0</asrwt>
<pdfrwt beam="1">  1       21 0.45115327E-01 0.25643068E+03</pdfrwt>
<pdfrwt beam="2">  1       21 0.86244048E-02 0.25643068E+03</pdfrwt>
<totfact> 0.48979599E+05</totfact>
</mgrwt>
</event>
<event>
 8    1  0.4760912E-006  0.2629051E+03  0.7546771E-02  0.1105410E+00
         21   -1    0    0  504  503  0.00000000000E+00  0.00000000000E+00  0.62928833975E+02  0.62928833975E+02  0.00000000000E+00 0.  1.
         21   -1    0    0  503  504 -0.00000000000E+00 -0.00000000000E+00 -0.27459237169E+03  0.27459237169E+03  0.00000000000E+00 0.  1.
         25    2    1    2    0    0  0.60199434339E+01 -0.74956630473E+00 -0.15747424846E+03  0.20113838306E+03  0.12498683388E+03 0.  0.
         25    2    1    2    0    0 -0.60199434339E+01  0.74956630473E+00 -0.54189289253E+02  0.13638282260E+03  0.12500797440E+03 0.  0.
          5    1    3    3  501    0  0.22280417028E+02  0.52874153060E+02 -0.37682338097E+02  0.68805099006E+02  0.47000000000E+01 0. -1.
         -5    1    3    3    0  501 -0.16260473594E+02 -0.53623719365E+02 -0.11979191037E+03  0.13233328406E+03  0.47000000000E+01 0. -1.
          5    1    4    4  502    0 -0.29474662398E+02 -0.46136430949E+02  0.73110398350E+01  0.55433449177E+02  0.47000000000E+01 0.  1.
         -5    1    4    4    0  502  0.23454718964E+02  0.46885997254E+02 -0.61500329088E+02  0.80949373427E+02  0.47000000000E+01 0.  1.
<mgrwt>
<rscale>  0 0.26290514E+03</rscale>
<asrwt>0</asrwt>
<pdfrwt beam="1">  1       21 0.96813592E-02 0.26290514E+03</pdfrwt>
<pdfrwt beam="2">  1       21 0.42244980E-01 0.26290514E+03</pdfrwt>
<totfact> 0.45662102E+05</totfact>
</mgrwt>
</event>
<event>
 8    1  0.4760912E-006  0.3275814E+03  0.7546771E-02  0.1072212E+00
         21   -1    0    0  504  503  0.00000000000E+00  0.00000000000E+00  0.53759061613E+03  0.53759061613E+03  0.00000000000E+00 0. -1.
         21   -1    0    0  503  504 -0.00000000000E+00 -0.00000000000E+00 -0.49903016470E+02  0.49903016470E+02  0.00000000000E+00 0. -1.
         25    2    1    2    0    0 -0.24737387462E+02 -0.60647284396E+02  0.39292855308E+03  0.41750229973E+03  0.12500116405E+03 0.  0.
         25    2    1    2    0    0  0.24737387462E+02  0.60647284396E+02  0.94759046578E+02  0.16999133286E+03  0.12501097911E+03 0.  0.
          5    1    3    3  501    0  0.35493462455E+00 -0.95922870282E+02  0.24020886559E+03  0.25869617726E+03  0.47000000000E+01 0. -1.
         -5    1    3    3    0  501 -0.25092322087E+02  0.35275585886E+02  0.15271968749E+03  0.15880612247E+03  0.47000000000E+01 0. -1.
          5    1    4    4  502    0 -0.39051892855E+02  0.47277407626E+02  0.89710849669E+01  0.62151218595E+02  0.47000000000E+01 0. -1.
         -5    1    4    4    0  502  0.63789280317E+02  0.13369876771E+02  0.85787961611E+02  0.10784011427E+03  0.47000000000E+01 0. -1.
<mgrwt>
<rscale>  0 0.32758140E+03</rscale>
<asrwt>0</asrwt>
<pdfrwt beam="1">  1       21 0.82706245E-01 0.32758140E+03</pdfrwt>
<pdfrwt beam="2">  1       21 0.76773875E-02 0.32758140E+03</pdfrwt>
<totfact> 0.15799602E+05</totfact>
</mgrwt>
</event>
<event>
 8    1  0.4760912E-006  0.5996759E+03  0.7546771E-02  0.9906079E-01
         21   -1    0    0  504  503  0.00000000000E+00  0.00000000000E+00  0.75559191361E+03  0.75559191361E+03  0.00000000000E+00 0. -1.
         21   -1    0    0  503  504 -0.00000000000E+00 -0.00000000000E+00 -0.11898326275E+03  0.11898326275E+03  0.00000000000E+00 0. -1.
         25    2    1    2    0    0  0.21259227794E+03  0.25903091406E+00  0.69587676487E+02  0.25624410284E+03  0.12499220688E+03 0.  0.
         25    2    1    2    0    0 -0.21259227794E+03 -0.25903091406E+00  0.56702097437E+03  0.61833107352E+03  0.12499994948E+03 0.  0.
          5    1    3    3  501    0  0.91600023062E+02  0.36531543758E+02 -0.20744536708E+02  0.10088381296E+03  0.47000000000E+01 0. -1.
         -5    1    3    3    0  501  0.12099225488E+03 -0.36272512844E+02  0.90332213195E+02  0.15536028987E+03  0.47000000000E+01 0. -1.
          5    1    4    4  502    0 -0.74175047807E+02  0.58926053879E+02  0.19057659069E+03  0.21287495029E+03  0.47000000000E+01 0.  1.
         -5    1    4    4    0  502 -0.13841723014E+03 -0.59185084793E+02  0.37644438368E+03  0.40545612323E+03  0.47000000000E+01 0.  1.
<mgrwt>
<rscale>  0 0.59967588E+03</rscale>
<asrwt>0</asrwt>
<pdfrwt beam="1">  1       21 0.11624491E+00 0.59967588E+03</pdfrwt>
<pdfrwt beam="2">  1       21 0.18305118E-01 0.59967588E+03</pdfrwt>
<totfact> 0.13374505E+04</totfact>
</mgrwt>
</event>
<event>
 8    1  0.4760912E-006  0.5282944E+03  0.7546771E-02  0.1006647E+00
         21   -1    0    0  504  503  0.00000000000E+00  0.00000000000E+00  0.59179766068E+03  0.59179766068E+03  0.00000000000E+00 0. -1.
         21   -1    0    0  503  504 -0.00000000000E+00 -0.00000000000E+00 -0.11790133542E+03  0.11790133542E+03  0.00000000000E+00 0. -1.
         25    2    1    2    0    0 -0.11937398779E+03 -0.11856724934E+03  0.20996874502E+02  0.21064928785E+03  0.12499564855E+03 0.  0.
         25    2    1    2    0    0  0.11937398779E+03  0.11856724934E+03  0.45289945076E+03  0.49904970825E+03  0.12499742888E+03 0.  0.
          5    1    3    3  501    0  0.12996153961E+02 -0.18554703362E+02 -0.29198735485E+02  0.37253633226E+02  0.47000000000E+01 0.  1.
         -5    1    3    3    0  501 -0.13237014175E+03 -0.10001254597E+03  0.50195609988E+02  0.17339565462E+03  0.47000000000E+01 0.  1.
          5    1    4    4  502    0  0.10919234015E+03  0.83609382327E+02  0.43855066375E+03  0.45963275627E+03  0.47000000000E+01 0.  1.
         -5    1    4    4    0  502  0.10181647635E+02  0.34957867009E+02  0.14348787010E+02  0.39416951976E+02  0.47000000000E+01 0.  1.
<mgrwt>
<rscale>  0 0.52829437E+03</rscale>
<asrwt>0</asrwt>
<pdfrwt beam="1">  1       21 0.91045792E-01 0.52829437E+03</pdfrwt>
<pdfrwt beam="2">  1       21 0.18138667E-01 0.52829437E+03</pdfrwt>
<totfact> 0.25203561E+04</totfact>
</mgrwt>
</event>
<event>
 8    1  0.4760912E-006  0.3720632E+03  0.7546771E-02  0.1053907E+00
         21   -1    0    0  504  503  0.00000000000E+00  0.00000000000E+00  0.29633910109E+03  0.29633910109E+03  0.00000000000E+00 0.  1.
         21   -1    0    0  503  504 -0.00000000000E+00 -0.00000000000E+00 -0.11678433668E+03  0.11678433668E+03  0.00000000000E+00 0.  1.
         25    2    1    2    0    0  0.76629500480E+02  0.11368685356E+03  0.10490888659E+03  0.21313766462E+03  0.12500003432E+03 0.  0.
         25    2    1    2    0    0 -0.76629500480E+02 -0.11368685356E+03  0.74645877825E+02  0.19998577314E+03  0.12500208545E+03 0.  0.
          5    1    3    3  501    0 -0.32227288810E+01 -0.91018940728E+01  0.58414644349E+02  0.59393527691E+02  0.47000000000E+01 0.  1.
         -5    1    3    3    0  501  0.79852229361E+02  0.12278874763E+03  0.46494242244E+02  0.15374413693E+03  0.47000000000E+01 0.  1.
          5    1    4    4  502    0 -0.75715517043E+02 -0.20227792771E+02  0.71751133838E+02  0.10635938289E+03  0.47000000000E+01 0.  1.
         -5    1    4    4    0  502 -0.91398343684E+00 -0.93459060791E+02  0.28947439877E+01  0.93626390256E+02  0.47000000000E+01 0.  1.
<mgrwt>
<rscale>  0 0.37206325E+03</rscale>
<asrwt>0</asrwt>
<pdfrwt beam="1">  1       21 0.45590631E-01 0.37206325E+03</pdfrwt>
<pdfrwt beam="2">  1       21 0.17966821E-01 0.37206325E+03</pdfrwt>
<totfact> 0.12355146E+05</totfact>
</mgrwt>
</event>
<event>
 8    1  0.4760912E-006  0.2616513E+03  0.7546771E-02  0.1106155E+00
         21   -1    0    0  504  503  0.00000000000E+00  0.00000000000E+00  0.28529356586E+03  0.28529356586E+03  0.00000000000E+00 0.  1.
         21   -1    0    0  503  504 -0.00000000000E+00 -0.00000000000E+00 -0.59992068144E+02  0.59992068144E+02  0.00000000000E+00 0.  1.
         25    2    1    2    0    0  0.24654449986E+02 -0.27591516371E+02  0.98116162702E+02  0.16316003887E+03  0.12500113288E+03 0.  0.
         25    2    1    2    0    0 -0.24654449986E+02  0.27591516371E+02  0.12718533501E+03  0.18212559513E+03  0.12499795710E+03 0.  0.
          5    1    3    3  501    0 -0.26781252294E+02  0.31146692476E+02  0.67517181875E+02  0.79170776016E+02  0.47000000000E+01 0. -1.
         -5    1    3    3    0  501  0.51435702281E+02 -0.58738208846E+02  0.30598980826E+02  0.83989262857E+02  0.47000000000E+01 0. -1.
          5    1    4    4  502    0  0.20252202983E+02 -0.17397096705E+02 -0.11536111583E+02  0.29461543915E+02  0.47000000000E+01 0.  1.
         -5    1    4    4    0  502 -0.44906652969E+02  0.44988613075E+02  0.13872144659E+03  0.15266405121E+03  0.47000000000E+01 0.  1.
<mgrwt>
<rscale>  0 0.26165130E+03</rscale>
<asrwt>0</asrwt>
<pdfrwt beam="1">  1       21 0.43891317E-01 0.26165130E+03</pdfrwt>
<pdfrwt beam="2">  1       21 0.92295491E-02 0.26165130E+03</pdfrwt>
<totfact> 0.45951220E+05</totfact>
</mgrwt>
</event>
<event>
 8    1  0.4760912E-006  0.2769371E+03  0.7546771E-02  0.1097374E+00
         21   -1    0    0  504  503  0.00000000000E+00  0.00000000000E+00  0.12994364284E+03  0.12994364284E+03  0.00000000000E+00 0. -1.
         21   -1    0    0  503  504 -0.00000000000E+00 -0.00000000000E+00 -0.14755269358E+03  0.14755269358E+03  0.00000000000E+00 0. -1.
         25    2    1    2    0    0 -0.45173467875E+02 -0.26305072102E+02  0.19803399915E+02  0.13693495299E+03  0.12500563061E+03 0.  0.
         25    2    1    2    0    0  0.45173467875E+02  0.26305072102E+02 -0.37412450655E+02  0.14056138343E+03  0.12500084812E+03 0.  0.
          5    1    3    3  501    0 -0.25147257423E+02 -0.76725597605E+02  0.85479102557E+01  0.81328707437E+02  0.47000000000E+01 0. -1.
         -5    1    3    3    0  501 -0.20026210453E+02  0.50420525503E+02  0.11255489659E+02  0.55606245554E+02  0.47000000000E+01 0. -1.
          5    1    4    4  502    0  0.49440874230E+01  0.73088184052E+02 -0.24145872646E+02  0.77275091810E+02  0.47000000000E+01 0. -1.
         -5    1    4    4    0  502  0.40229380452E+02 -0.46783111950E+02 -0.13266578009E+02  0.63286291623E+02  0.47000000000E+01 0. -1.
<mgrwt>
<rscale>  0 0.27693707E+03</rscale>
<asrwt>0</asrwt>
<pdfrwt beam="1">  1       21 0.19991330E-01 0.27693707E+03</pdfrwt>
<pdfrwt beam="2">  1       21 0.22700414E-01 0.27693707E+03</pdfrwt>
<totfact> 0.41308475E+05</totfact>
</mgrwt>
</event>
<event>
 8    1  0.4760912E-006  0.3175975E+03  0.7546771E-02  0.1076760E+00
         21   -1    0    0  504  503  0.00000000000E+00  0.00000000000E+00  0.15296903971E+02  0.15296903971E+02  0.00000000000E+00 0.  1.
         21   -1    0    0  503  504 -0.00000000000E+00 -0.00000000000E+00 -0.16485062319E+04  0.16485062319E+04  0.00000000000E+00 0.  1.
         25    2    1    2    0    0 -0.73765582738E+02  0.23830190232E+02 -0.50305967391E+03  0.52412211676E+03  0.12500287436E+03 0.  0.
         25    2    1    2    0    0  0.73765582738E+02 -0.23830190232E+02 -0.11301496541E+04  0.11396810192E+04  0.12500138272E+03 0.  0.
          5    1    3    3  501    0 -0.22514780794E+02  0.71855243502E+02 -0.29415699277E+03  0.30367831297E+03  0.47000000000E+01 0.  1.
         -5    1    3    3    0  501 -0.51250801944E+02 -0.48025053270E+02 -0.20890268114E+03  0.22044380379E+03  0.47000000000E+01 0.  1.
          5    1    4    4  502    0  0.69209204480E+02  0.12408728583E+02 -0.27991498909E+03  0.28864923636E+03  0.47000000000E+01 0.  1.
         -5    1    4    4    0  502  0.45563782578E+01 -0.36238918815E+02 -0.85023466497E+03  0.85103178280E+03  0.47000000000E+01 0.  1.
<mgrwt>
<rscale>  0 0.31759749E+03</rscale>
<asrwt>0</asrwt>
<pdfrwt beam="1">  1       21 0.23533708E-02 0.31759749E+03</pdfrwt>
<pdfrwt beam="2">  1       21 0.25361624E+00 0.31759749E+03</pdfrwt>
<totfact> 0.55400999E+04</totfact>
</mgrwt>
</event>
<event>
 8    1  0.4760912E-006  0.2856889E+03  0.7546771E-02  0.1092622E+00
         21   -1    0    0  504  503  0.00000000000E+00  0.00000000000E+00  0.31995102236E+03  0.31995102236E+03  0.00000000000E+00 0. -1.
         21   -1    0    0  503  504 -0.00000000000E+00 -0.00000000000E+00 -0.63773939261E+02  0.63773939261E+02  0.00000000000E+00 0. -1.
         25    2    1    2    0    0 -0.48773308525E+01  0.68219626835E+02  0.11453271135E+03  0.18281152124E+03  0.12499841793E+03 0.  0.
         25    2    1    2    0    0  0.48773308525E+01 -0.68219626835E+02  0.14164437175E+03  0.20091344038E+03  0.12500150654E+03 0.  0.
          5    1    3    3  501    0 -0.20026378982E+02  0.44112329606E+02 -0.14344883517E+02  0.50742675940E+02  0.47000000000E+01 0.  1.
         -5    1    3    3    0  501  0.15149048130E+02  0.24107297229E+02  0.12887759487E+03  0.13206884530E+03  0.47000000000E+01 0.  1.
          5    1    4    4  502    0 -0.12109492263E+02 -0.63466352863E+02  0.71380914221E+01  0.65174075350E+02  0.47000000000E+01 0. -1.
         -5    1    4    4    0  502  0.16986823115E+02 -0.47532739723E+01  0.13450628033E+03  0.13573936503E+03  0.47000000000E+01 0. -1.
<mgrwt>
<rscale>  0 0.28568890E+03</rscale>
<asrwt>0</asrwt>
<pdfrwt beam="1">  1       21 0.49223233E-01 0.28568890E+03</pdfrwt>
<pdfrwt beam="2">  1       21 0.98113754E-02 0.28568890E+03</pdfrwt>
<totfact> 0.32326710E+05</totfact>
</mgrwt>
</event>
<event>
 8    1  0.4760912E-006  0.2531987E+03  0.7546771E-02  0.1111300E+00
         21   -1    0    0  504  503  0.00000000000E+00  0.00000000000E+00  0.61552249838E+03  0.61552249838E+03  0.00000000000E+00 0. -1.
         21   -1    0    0  503  504 -0.00000000000E+00 -0.00000000000E+00 -0.26038685578E+02  0.26038685578E+02  0.00000000000E+00 0. -1.
         25    2    1    2    0    0 -0.13203741805E+02 -0.58393148106E-01  0.25649551337E+03  0.28563752144E+03  0.12499801226E+03 0.  0.
         25    2    1    2    0    0  0.13203741805E+02  0.58393148106E-01  0.33298829943E+03  0.35592366252E+03  0.12500441502E+03 0.  0.
          5    1    3    3  501    0  0.80633635322E+01  0.66208161613E+01 -0.11764580081E+02  0.16411836661E+02  0.47000000000E+01 0. -1.
         -5    1    3    3    0  501 -0.21267105337E+02 -0.66792093094E+01  0.26826009346E+03  0.26922568478E+03  0.47000000000E+01 0. -1.
          5    1    4    4  502    0 -0.15831500465E+02  0.56263454728E+02  0.11791229025E+03  0.13168755043E+03  0.47000000000E+01 0.  1.
         -5    1    4    4    0  502  0.29035242270E+02 -0.56205061580E+02  0.21507600918E+03  0.22423611209E+03  0.47000000000E+01 0.  1.
<mgrwt>
<rscale>  0 0.25319871E+03</rscale>
<asrwt>0</asrwt>
<pdfrwt beam="1">  1       21 0.94695759E-01 0.25319871E+03</pdfrwt>
<pdfrwt beam="2">  1       21 0.40059521E-02 0.25319871E+03</pdfrwt>
<totfact> 0.35903228E+05</totfact>
</mgrwt>
</event>
<event>
 8    1  0.4760912E-006  0.3359581E+03  0.7546771E-02  0.1068531E+00
         21   -1    0    0  504  503  0.00000000000E+00  0.00000000000E+00  0.80397956606E+03  0.80397956606E+03  0.00000000000E+00 0. -1.
         21   -1    0    0  503  504 -0.00000000000E+00 -0.00000000000E+00 -0.35096611446E+02  0.35096611446E+02  0.00000000000E+00 0. -1.
         25    2    1    2    0    0 -0.10683755061E+02  0.23237386444E+02  0.11157494913E+03  0.16949672582E+03  0.12500420809E+03 0.  0.
         25    2    1    2    0    0  0.10683755061E+02 -0.23237386444E+02  0.65730800548E+03  0.66957945168E+03  0.12501483630E+03 0.  0.
          5    1    3    3  501    0 -0.58035090581E+02 -0.19424568840E+02  0.70736898650E+02  0.93654601831E+02  0.47000000000E+01 0.  1.
         -5    1    3    3    0  501  0.47351335520E+02  0.42661955285E+02  0.40838050479E+02  0.75842123989E+02  0.47000000000E+01 0.  1.
          5    1    4    4  502    0 -0.57077906980E+02 -0.10587775151E+02  0.27906429604E+03  0.28507711198E+03  0.47000000000E+01 0.  1.
         -5    1    4    4    0  502  0.67761662041E+02 -0.12649611294E+02  0.37824370944E+03  0.38450233970E+03  0.47000000000E+01 0.  1.
<mgrwt>
<rscale>  0 0.33595808E+03</rscale>
<asrwt>0</asrwt>
<pdfrwt beam="1">  1       21 0.12368915E+00 0.33595808E+03</pdfrwt>
<pdfrwt beam="2">  1       21 0.53994793E-02 0.33595808E+03</pdfrwt>
<totfact> 0.10995343E+05</totfact>
</mgrwt>
</event>
<event>
 8    1  0.4760912E-006  0.2541045E+03  0.7546771E-02  0.1110738E+00
         21   -1    0    0  504  503  0.00000000000E+00  0.00000000000E+00  0.13096319524E+02  0.13096319524E+02  0.00000000000E+00 0.  1.
         21   -1    0    0  503  504 -0.00000000000E+00 -0.00000000000E+00 -0.12325806763E+04  0.12325806763E+04  0.00000000000E+00 0.  1.
         25    2    1    2    0    0  0.14174496223E+02 -0.73783402464E+01 -0.53059234229E+03  0.54535224394E+03  0.12500192010E+03 0.  0.
         25    2    1    2    0    0 -0.14174496223E+02  0.73783402464E+01 -0.68889201448E+03  0.70032475187E+03  0.12500877660E+03 0.  0.
          5    1    3    3  501    0 -0.24793520847E+02  0.35546571434E+02 -0.80754500398E+02  0.91769585109E+02  0.47000000000E+01 0.  1.
         -5    1    3    3    0  501  0.38968017069E+02 -0.42924911680E+02 -0.44983784189E+03  0.45358265883E+03  0.47000000000E+01 0.  1.
          5    1    4    4  502    0  0.14052500987E+02  0.60891219166E+01 -0.65800379147E+03  0.65819877680E+03  0.47000000000E+01 0.  1.
         -5    1    4    4    0  502 -0.28226997209E+02  0.12892183297E+01 -0.30888223005E+02  0.42125975072E+02  0.47000000000E+01 0.  1.
<mgrwt>
<rscale>  0 0.25410447E+03</rscale>
<asrwt>0</asrwt>
<pdfrwt beam="1">  1       21 0.20148185E-02 0.25410447E+03</pdfrwt>
<pdfrwt beam="2">  1       21 0.18962779E+00 0.25410447E+03</pdfrwt>
<totfact> 0.18558404E+05</totfact>
</mgrwt>
</event>
<event>
 8    1  0.4760912E-006  0.3013884E+03  0.7546771E-02  0.1084549E+00
         21   -1    0    0  504  503  0.00000000000E+00  0.00000000000E+00  0.11668565277E+04  0.11668565277E+04  0.00000000000E+00 0.  1.
         21   -1    0    0  503  504 -0.00000000000E+00 -0.00000000000E+00 -0.19461469685E+02  0.19461469685E+02  0.00000000000E+00 0.  1.
         25    2    1    2    0    0  0.72607078747E+02 -0.87055896888E+01  0.40970832911E+03  0.43455019319E+03  0.12500152113E+03 0.  0.
         25    2    1    2    0    0 -0.72607078747E+02  0.87055896888E+01  0.73768672892E+03  0.75176780421E+03  0.12500218496E+03 0.  0.
          5    1    3    3  501    0  0.74348203768E+02  0.40109414934E+02  0.17023963564E+03  0.19010535004E+03  0.47000000000E+01 0.  1.
         -5    1    3    3    0  501 -0.17411250207E+01 -0.48815004623E+02  0.23946869347E+03  0.24444484315E+03  0.47000000000E+01 0.  1.
          5    1    4    4  502    0 -0.10694675334E+03 -0.35532464659E+01  0.50929518886E+03  0.52043627181E+03  0.47000000000E+01 0. -1.
         -5    1    4    4    0  502  0.34339674595E+02  0.12258836155E+02  0.22839154006E+03  0.23133153240E+03  0.47000000000E+01 0. -1.
<mgrwt>
<rscale>  0 0.30138841E+03</rscale>
<asrwt>0</asrwt>
<pdfrwt beam="1">  1       21 0.17951633E+00 0.30138841E+03</pdfrwt>
<pdfrwt beam="2">  1       21 0.29940732E-02 0.30138841E+03</pdfrwt>
<totfact> 0.11097671E+05</totfact>
</mgrwt>
</event>
<event>
 8    1  0.4760912E-006  0.2544383E+03  0.7546771E-02  0.1110532E+00
         21   -1    0    0  504  503  0.00000000000E+00  0.00000000000E+00  0.72523700412E+02  0.72523700412E+02  0.00000000000E+00 0.  1.
         21   -1    0    0  503  504 -0.00000000000E+00 -0.00000000000E+00 -0.22316447236E+03  0.22316447236E+03  0.00000000000E+00 0.  1.
         25    2    1    2    0    0 -0.11295710023E+02 -0.20088554251E+02 -0.81485596937E+02  0.15098800535E+03  0.12500532858E+03 0.  0.
         25    2    1    2    0    0  0.11295710023E+02  0.20088554251E+02 -0.69155175010E+02  0.14470016742E+03  0.12499822856E+03 0.  0.
          5    1    3    3  501    0 -0.67567243644E+02 -0.28629180139E+01 -0.48580096355E+02  0.83400506444E+02  0.47000000000E+01 0. -1.
         -5    1    3    3    0  501  0.56271533621E+02 -0.17225636237E+02 -0.32905500582E+02  0.67587498907E+02  0.47000000000E+01 0. -1.
          5    1    4    4  502    0  0.36767797055E+02 -0.40189995195E+02 -0.55062502070E+02  0.77595591036E+02  0.47000000000E+01 0.  1.
         -5    1    4    4    0  502 -0.25472087032E+02  0.60278549446E+02 -0.14092672940E+02  0.67104576384E+02  0.47000000000E+01 0.  1.
<mgrwt>
<rscale>  0 0.25443831E+03</rscale>
<asrwt>0</asrwt>
<pdfrwt beam="1">  1       21 0.11157492E-01 0.25443831E+03</pdfrwt>
<pdfrwt beam="2">  1       21 0.34332996E-01 0.25443831E+03</pdfrwt>
<totfact> 0.53995879E+05</totfact>
</mgrwt>
</event>
<event>
 8    1  0.4760912E-006  0.3826574E+03  0.7546771E-02  0.1049956E+00
         21   -1    0    0  504  503  0.00000000000E+00  0.00000000000E+00  0.91329592016E+03  0.91329592016E+03  0.00000000000E+00 0. -1.
         21   -1    0    0  503  504 -0.00000000000E+00 -0.00000000000E+00 -0.40081947133E+02  0.40081947133E+02  0.00000000000E+00 0. -1.
         25    2    1    2    0    0  0.73470674844E+02 -0.10989917739E+03  0.28908315856E+03  0.34156923825E+03  0.12499881081E+03 0.  0.
         25    2    1    2    0    0 -0.73470674844E+02  0.10989917739E+03  0.58413081446E+03  0.61180862904E+03  0.12500088363E+03 0.  0.
          5    1    3    3  501    0 -0.25173361538E+02  0.60567267044E+01  0.69657013416E+02  0.74461880097E+02  0.47000000000E+01 0.  1.
         -5    1    3    3    0  501  0.98644036382E+02 -0.11595590409E+03  0.21942614515E+03  0.26710735816E+03  0.47000000000E+01 0.  1.
          5    1    4    4  502    0 -0.39459844505E+01  0.11054774475E+03  0.39597836626E+03  0.41116581960E+03  0.47000000000E+01 0. -1.
         -5    1    4    4    0  502 -0.69524690394E+02 -0.64856736266E+00  0.18815244820E+03  0.20064280944E+03  0.47000000000E+01 0. -1.
<mgrwt>
<rscale>  0 0.38265744E+03</rscale>
<asrwt>0</asrwt>
<pdfrwt beam="1">  1       21 0.14050705E+00 0.38265744E+03</pdfrwt>
<pdfrwt beam="2">  1       21 0.61664541E-02 0.38265744E+03</pdfrwt>
<totfact> 0.62005179E+04</totfact>
</mgrwt>
</event>
<event>
 8    1  0.4760912E-006  0.2835026E+03  0.7546771E-02  0.1093791E+00
         21   -1    0    0  504  503  0.00000000000E+00  0.00000000000E+00  0.11012926190E+03  0.11012926190E+03  0.00000000000E+00 0. -1.
         21   -1    0    0  503  504 -0.00000000000E+00 -0.00000000000E+00 -0.18245319561E+03  0.18245319561E+03  0.00000000000E+00 0. -1.
         25    2    1    2    0    0  0.30675954214E+02  0.54623816311E+02 -0.60216398460E+02  0.15223980720E+03  0.12500467503E+03 0.  0.
         25    2    1    2    0    0 -0.30675954214E+02 -0.54623816311E+02 -0.12107535243E+02  0.14034265031E+03  0.12499876644E+03 0.  0.
          5    1    3    3  501    0  0.64448094099E+02  0.59826775322E+02 -0.74068751461E+02  0.11506984758E+03  0.47000000000E+01 0.  1.
         -5    1    3    3    0  501 -0.33772139885E+02 -0.52029590106E+01  0.13852353001E+02  0.37169959625E+02  0.47000000000E+01 0.  1.
          5    1    4    4  502    0  0.25801353005E+02  0.15399272730E+02 -0.36017513388E+02  0.47140202462E+02  0.47000000000E+01 0. -1.
         -5    1    4    4    0  502 -0.56477307219E+02 -0.70023089041E+02  0.23909978145E+02  0.93202447846E+02  0.47000000000E+01 0. -1.
<mgrwt>
<rscale>  0 0.28350263E+03</rscale>
<asrwt>0</asrwt>
<pdfrwt beam="1">  1       21 0.16942963E-01 0.28350263E+03</pdfrwt>
<pdfrwt beam="2">  1       21 0.28069722E-01 0.28350263E+03</pdfrwt>
<totfact> 0.37327275E+05</totfact>
</mgrwt>
</event>
<event>
 8    1  0.4760912E-006  0.3290061E+03  0.7546771E-02  0.1071577E+00
         21   -1    0    0  504  503  0.00000000000E+00  0.00000000000E+00  0.24607393357E+02  0.24607393357E+02  0.00000000000E+00 0. -1.
         21   -1    0    0  503  504 -0.00000000000E+00 -0.00000000000E+00 -0.10997205740E+04  0.10997205740E+04  0.00000000000E+00 0. -1.
         25    2    1    2    0    0  0.52041508903E+02  0.34814368720E+02 -0.24126337440E+03  0.27884077884E+03  0.12499522070E+03 0.  0.
         25    2    1    2    0    0 -0.52041508903E+02 -0.34814368720E+02 -0.83384980624E+03  0.84548718852E+03  0.12499091031E+03 0.  0.
          5    1    3    3  501    0  0.17453686119E+02  0.87466425282E+01  0.10964015255E+02  0.22878691946E+02  0.47000000000E+01 0. -1.
         -5    1    3    3    0  501  0.34587822784E+02  0.26067726192E+02 -0.25222738965E+03  0.25596208689E+03  0.47000000000E+01 0. -1.
          5    1    4    4  502    0  0.12599081866E+02  0.12994184892E+02 -0.55305351213E+03  0.55336955372E+03  0.47000000000E+01 0.  1.
         -5    1    4    4    0  502 -0.64640590768E+02 -0.47808553612E+02 -0.28079629411E+03  0.29211763480E+03  0.47000000000E+01 0.  1.
<mgrwt>
<rscale>  0 0.32900612E+03</rscale>
<asrwt>0</asrwt>
<pdfrwt beam="1">  1       21 0.37857532E-02 0.32900612E+03</pdfrwt>
<pdfrwt beam="2">  1       21 0.16918776E+00 0.32900612E+03</pdfrwt>
<totfact> 0.87692712E+04</totfact>
</mgrwt>
</event>
<event>
 8    1  0.4760912E-006  0.3054996E+03  0.7546771E-02  0.1082523E+00
         21   -1    0    0  504  503  0.00000000000E+00  0.00000000000E+00  0.42539461558E+03  0.42539461558E+03  0.00000000000E+00 0.  1.
         21   -1    0    0  503  504 -0.00000000000E+00 -0.00000000000E+00 -0.54849089470E+02  0.54849089470E+02  0.00000000000E+00 0.  1.
         25    2    1    2    0    0 -0.60413540728E+02  0.55944557423E+02  0.13738666746E+03  0.20317309177E+03  0.12499847765E+03 0.  0.
         25    2    1    2    0    0  0.60413540728E+02 -0.55944557423E+02  0.23315885865E+03  0.27707061328E+03  0.12500192785E+03 0.  0.
          5    1    3    3  501    0 -0.15776045520E+02  0.69980046474E+02  0.16922616013E+02  0.73854962254E+02  0.47000000000E+01 0.  1.
         -5    1    3    3    0  501 -0.44637495208E+02 -0.14035489051E+02  0.12046405144E+03  0.12931812952E+03  0.47000000000E+01 0.  1.
          5    1    4    4  502    0  0.21358755589E+02 -0.71609145043E+02  0.52324576981E+02  0.91345593492E+02  0.47000000000E+01 0. -1.
         -5    1    4    4    0  502  0.39054785139E+02  0.15664587620E+02  0.18083428167E+03  0.18572501979E+03  0.47000000000E+01 0. -1.
<mgrwt>
<rscale>  0 0.30549964E+03</rscale>
<asrwt>0</asrwt>
<pdfrwt beam="1">  1       21 0.65445324E-01 0.30549964E+03</pdfrwt>
<pdfrwt beam="2">  1       21 0.84383217E-02 0.30549964E+03</pdfrwt>
<totfact> 0.22789818E+05</totfact>
</mgrwt>
</event>
<event>
 8    1  0.4760912E-006  0.4213894E+03  0.7546771E-02  0.1036615E+00
         21   -1    0    0  504  503  0.00000000000E+00  0.00000000000E+00  0.18682080277E+02  0.18682080277E+02  0.00000000000E+00 0. -1.
         21   -1    0    0  503  504 -0.00000000000E+00 -0.00000000000E+00 -0.23761948340E+04  0.23761948340E+04  0.00000000000E+00 0. -1.
         25    2    1    2    0    0 -0.75210762492E+02 -0.14600129381E+03 -0.14196091381E+04  0.14345335062E+04  0.12499295493E+03 0.  0.
         25    2    1    2    0    0  0.75210762492E+02  0.14600129381E+03 -0.93790361561E+03  0.96034340808E+03  0.12499293056E+03 0.  0.
          5    1    3    3  501    0 -0.99377778539E+02 -0.58333937859E+02 -0.79181621849E+03  0.80017110985E+03  0.47000000000E+01 0. -1.
         -5    1    3    3    0  501  0.24167016047E+02 -0.87667355949E+02 -0.62779291959E+03  0.63436239631E+03  0.47000000000E+01 0. -1.
          5    1    4    4  502    0  0.29329287745E+02  0.97480121135E+02 -0.80607686968E+03  0.81249282518E+03  0.47000000000E+01 0.  1.
         -5    1    4    4    0  502  0.45881474747E+02  0.48521172674E+02 -0.13182674592E+03  0.14785058290E+03  0.47000000000E+01 0.  1.
<mgrwt>
<rscale>  0 0.42138943E+03</rscale>
<asrwt>0</asrwt>
<pdfrwt beam="1">  1       21 0.28741662E-02 0.42138943E+03</pdfrwt>
<pdfrwt beam="2">  1       21 0.36556844E+00 0.42138943E+03</pdfrwt>
<totfact> 0.79915694E+03</totfact>
</mgrwt>
</event>
<event>
 8    1  0.4760912E-006  0.3990519E+03  0.7546771E-02  0.1044108E+00
         21   -1    0    0  504  503  0.00000000000E+00  0.00000000000E+00  0.57138365547E+02  0.57138365547E+02  0.00000000000E+00 0.  1.
         21   -1    0    0  503  504 -0.00000000000E+00 -0.00000000000E+00 -0.69674036978E+03  0.69674036978E+03  0.00000000000E+00 0.  1.
         25    2    1    2    0    0 -0.11377554626E+02  0.13424934180E+03 -0.46653152570E+03  0.50142949481E+03  0.12501015668E+03 0.  0.
         25    2    1    2    0    0  0.11377554626E+02 -0.13424934180E+03 -0.17307047853E+03  0.25244924051E+03  0.12499957590E+03 0.  0.
          5    1    3    3  501    0 -0.52635274322E+02  0.12215281965E+03 -0.40430735550E+03  0.42565045655E+03  0.47000000000E+01 0. -1.
         -5    1    3    3    0  501  0.41257719696E+02  0.12096522144E+02 -0.62224170194E+02  0.75779038254E+02  0.47000000000E+01 0. -1.
          5    1    4    4  502    0 -0.88322649589E+00 -0.26439641307E+02 -0.13456148250E+03  0.13721777325E+03  0.47000000000E+01 0. -1.
         -5    1    4    4    0  502  0.12260781122E+02 -0.10780970049E+03 -0.38508996028E+02  0.11523146727E+03  0.47000000000E+01 0. -1.
<mgrwt>
<rscale>  0 0.39905191E+03</rscale>
<asrwt>0</asrwt>
<pdfrwt beam="1">  1       21 0.87905181E-02 0.39905191E+03</pdfrwt>
<pdfrwt beam="2">  1       21 0.10719082E+00 0.39905191E+03</pdfrwt>
<totfact> 0.65906548E+04</totfact>
</mgrwt>
</event>
<event>
 8    1  0.4760912E-006  0.2844423E+03  0.7546771E-02  0.1093287E+00
         21   -1    0    0  504  503  0.00000000000E+00  0.00000000000E+00  0.41070378964E+03  0.41070378964E+03  0.00000000000E+00 0.  1.
         21   -1    0    0  503  504 -0.00000000000E+00 -0.00000000000E+00 -0.49249266241E+02  0.49249266241E+02  0.00000000000E+00 0.  1.
         25    2    1    2    0    0  0.25640935995E+02  0.65671526427E+01  0.79678192722E+02  0.15056058746E+03  0.12497716195E+03 0.  0.
         25    2    1    2    0    0 -0.25640935995E+02 -0.65671526427E+01  0.28177633068E+03  0.30939246842E+03  0.12500085556E+03 0.  0.
          5    1    3    3  501    0  0.72023442990E+02 -0.16809248720E+02  0.35317912421E+02  0.82093678931E+02  0.47000000000E+01 0.  1.
         -5    1    3    3    0  501 -0.46382506995E+02  0.23376401363E+02  0.44360280301E+02  0.68466908534E+02  0.47000000000E+01 0.  1.
          5    1    4    4  502    0 -0.28598734201E+02  0.36784655148E+02  0.25245567645E+03  0.25676245252E+03  0.47000000000E+01 0. -1.
         -5    1    4    4    0  502  0.29577982063E+01 -0.43351807790E+02  0.29320654224E+02  0.52630015894E+02  0.47000000000E+01 0. -1.
<mgrwt>
<rscale>  0 0.28444233E+03</rscale>
<asrwt>0</asrwt>
<pdfrwt beam="1">  1       21 0.63185196E-01 0.28444233E+03</pdfrwt>
<pdfrwt beam="2">  1       21 0.75768104E-02 0.28444233E+03</pdfrwt>
<totfact> 0.29881669E+05</totfact>
</mgrwt>
</event>
<event>
 8    1  0.4760912E-006  0.2644231E+03  0.7546771E-02  0.1104515E+00
         21   -1    0    0  504  503  0.00000000000E+00  0.00000000000E+00  0.16817077585E+04  0.16817077585E+04  0.00000000000E+00 0.  1.
         21   -1    0    0  503  504 -0.00000000000E+00 -0.00000000000E+00 -0.10394129399E+02  0.10394129399E+02  0.00000000000E+00 0.  1.
         25    2    1    2    0    0 -0.23082752667E+02  0.97590329817E+01  0.10599431052E+04  0.10675827505E+04  0.12500196266E+03 0.  0.
         25    2    1    2    0    0  0.23082752667E+02 -0.97590329817E+01  0.61137052393E+03  0.62451913745E+03  0.12498873274E+03 0.  0.
          5    1    3    3  501    0 -0.10939991621E+02  0.27370729921E+02  0.10302677019E+04  0.10306999892E+04  0.47000000000E+01 0. -1.
         -5    1    3    3    0  501 -0.12142761046E+02 -0.17611696940E+02  0.29675403317E+02  0.36882761244E+02  0.47000000000E+01 0. -1.
          5    1    4    4  502    0  0.21489521212E+02 -0.34941794697E+02  0.58907644562E+03  0.59052169928E+03  0.47000000000E+01 0. -1.
         -5    1    4    4    0  502  0.15932314558E+01  0.25182761715E+02  0.22294078310E+02  0.33997438165E+02  0.47000000000E+01 0. -1.
<mgrwt>
<rscale>  0 0.26442306E+03</rscale>
<asrwt>0</asrwt>
<pdfrwt beam="1">  1       21 0.25872405E+00 0.26442306E+03</pdfrwt>
<pdfrwt beam="2">  1       21 0.15990982E-02 0.26442306E+03</pdfrwt>
<totfact> 0.99957107E+04</totfact>
</mgrwt>
</event>
<event>
 8    1  0.4760912E-006  0.6145334E+03  0.7546771E-02  0.9875704E-01
         21   -1    0    0  504  503  0.00000000000E+00  0.00000000000E+00  0.80106962710E+02  0.80106962710E+02  0.00000000000E+00 0. -1.
         21   -1    0    0  503  504 -0.00000000000E+00 -0.00000000000E+00 -0.11785843555E+04  0.11785843555E+04  0.00000000000E+00 0. -1.
         25    2    1    2    0    0 -0.23104533034E+03 -0.15348045414E+03 -0.46114730468E+03  0.55246676380E+03  0.12499797608E+03 0.  0.
         25    2    1    2    0    0  0.23104533034E+03  0.15348045414E+03 -0.63733008808E+03  0.70622455437E+03  0.12500114219E+03 0.  0.
          5    1    3    3  501    0 -0.26014289533E+02  0.20487834001E+02 -0.72526232483E+02  0.79866382165E+02  0.47000000000E+01 0. -1.
         -5    1    3    3    0  501 -0.20503104081E+03 -0.17396828814E+03 -0.38862107219E+03  0.47260038164E+03  0.47000000000E+01 0. -1.
          5    1    4    4  502    0  0.24359755601E+03  0.14702607886E+03 -0.62559922000E+03  0.68727935458E+03  0.47000000000E+01 0.  1.
         -5    1    4    4    0  502 -0.12552225665E+02  0.64543752804E+01 -0.11730868072E+02  0.18945199791E+02  0.47000000000E+01 0.  1.
<mgrwt>
<rscale>  0 0.61453336E+03</rscale>
<asrwt>0</asrwt>
<pdfrwt beam="1">  1       21 0.12324148E-01 0.61453336E+03</pdfrwt>
<pdfrwt beam="2">  1       21 0.18132067E+00 0.61453336E+03</pdfrwt>
<totfact> 0.82985376E+03</totfact>
</mgrwt>
</event>
<event>
 8    1  0.4760912E-006  0.2743494E+03  0.7546771E-02  0.1098816E+00
         21   -1    0    0  504  503  0.00000000000E+00  0.00000000000E+00  0.71422650796E+03  0.71422650796E+03  0.00000000000E+00 0.  1.
         21   -1    0    0  503  504 -0.00000000000E+00 -0.00000000000E+00 -0.26345836699E+02  0.26345836699E+02  0.00000000000E+00 0.  1.
         25    2    1    2    0    0 -0.81777201626E+00  0.38533561272E+02  0.45550737964E+03  0.47391677790E+03  0.12499854148E+03 0.  0.
         25    2    1    2    0    0  0.81777201626E+00 -0.38533561272E+02  0.23237329162E+03  0.26665556676E+03  0.12498936167E+03 0.  0.
          5    1    3    3  501    0  0.23153037573E+02  0.17666361945E+02  0.16629001707E+02  0.33864098851E+02  0.47000000000E+01 0. -1.
         -5    1    3    3    0  501 -0.23970809589E+02  0.20867199328E+02  0.43887837793E+03  0.44005267905E+03  0.47000000000E+01 0. -1.
          5    1    4    4  502    0  0.35973916982E+01  0.38560913989E+02  0.27616963066E+02  0.47798242266E+02  0.47000000000E+01 0.  1.
         -5    1    4    4    0  502 -0.27796196819E+01 -0.77094475261E+02  0.20475632855E+03  0.21885732449E+03  0.47000000000E+01 0.  1.
<mgrwt>
<rscale>  0 0.27434938E+03</rscale>
<asrwt>0</asrwt>
<pdfrwt beam="1">  1       21 0.10988099E+00 0.27434938E+03</pdfrwt>
<pdfrwt beam="2">  1       21 0.40532062E-02 0.27434938E+03</pdfrwt>
<totfact> 0.24483467E+05</totfact>
</mgrwt>
</event>
<event>
 8    1  0.4760912E-006  0.2988432E+03  0.7546771E-02  0.1085820E+00
         21   -1    0    0  504  503  0.00000000000E+00  0.00000000000E+00  0.88381820242E+02  0.88381820242E+02  0.00000000000E+00 0. -1.
         21   -1    0    0  503  504 -0.00000000000E+00 -0.00000000000E+00 -0.25261776215E+03  0.25261776215E+03  0.00000000000E+00 0. -1.
         25    2    1    2    0    0  0.43759711706E+02 -0.55014165484E+02 -0.34252059616E+02  0.14744513943E+03  0.12500157911E+03 0.  0.
         25    2    1    2    0    0 -0.43759711706E+02  0.55014165484E+02 -0.12998388230E+03  0.19355444297E+03  0.12500416778E+03 0.  0.
          5    1    3    3  501    0 -0.38462470345E+02 -0.12076173369E+02 -0.36435305332E+02  0.54541883566E+02  0.47000000000E+01 0.  1.
         -5    1    3    3    0  501  0.82222182051E+02 -0.42937992114E+02  0.21832457157E+01  0.92903255863E+02  0.47000000000E+01 0.  1.
          5    1    4    4  502    0  0.25390617475E+02  0.67688213880E+02 -0.74029627532E+02  0.10358017912E+03  0.47000000000E+01 0.  1.
         -5    1    4    4    0  502 -0.69150329181E+02 -0.12674048396E+02 -0.55954254764E+02  0.89974263847E+02  0.47000000000E+01 0.  1.
<mgrwt>
<rscale>  0 0.29884322E+03</rscale>
<asrwt>0</asrwt>
<pdfrwt beam="1">  1       21 0.13597203E-01 0.29884322E+03</pdfrwt>
<pdfrwt beam="2">  1       21 0.38864272E-01 0.29884322E+03</pdfrwt>
<totfact> 0.29186854E+05</totfact>
</mgrwt>
</event>
<event>
 8    1  0.4760912E-006  0.3002392E+03  0.7546771E-02  0.1085121E+00
         21   -1    0    0  504  503  0.00000000000E+00  0.00000000000E+00  0.13496818755E+03  0.13496818755E+03  0.00000000000E+00 0.  1.
         21   -1    0    0  503  504 -0.00000000000E+00 -0.00000000000E+00 -0.16697189475E+03  0.16697189475E+03  0.00000000000E+00 0.  1.
         25    2    1    2    0    0 -0.64891304540E+02 -0.23951780578E+02 -0.62382635011E+02  0.15588430945E+03  0.12499502224E+03 0.  0.
         25    2    1    2    0    0  0.64891304540E+02  0.23951780578E+02  0.30378927807E+02  0.14605577285E+03  0.12499936131E+03 0.  0.
          5    1    3    3  501    0 -0.31991709915E+02  0.46050171152E+02  0.21466306547E+00  0.56269208691E+02  0.47000000000E+01 0.  1.
         -5    1    3    3    0  501 -0.32899594625E+02 -0.70001951731E+02 -0.62597298076E+02  0.99615100758E+02  0.47000000000E+01 0.  1.
          5    1    4    4  502    0  0.25163461453E+02  0.72854495979E+02  0.32296481802E+01  0.77288407954E+02  0.47000000000E+01 0.  1.
         -5    1    4    4    0  502  0.39727843087E+02 -0.48902715401E+02  0.27149279626E+02  0.68767364891E+02  0.47000000000E+01 0.  1.
<mgrwt>
<rscale>  0 0.30023920E+03</rscale>
<asrwt>0</asrwt>
<pdfrwt beam="1">  1       21 0.20764337E-01 0.30023920E+03</pdfrwt>
<pdfrwt beam="2">  1       21 0.25687984E-01 0.30023920E+03</pdfrwt>
<totfact> 0.30193190E+05</totfact>
</mgrwt>
</event>
<event>
 8    1  0.4760912E-006  0.2902281E+03  0.7546771E-02  0.1090230E+00
         21   -1    0    0  504  503  0.00000000000E+00  0.00000000000E+00  0.28585086568E+03  0.28585086568E+03  0.00000000000E+00 0.  1.
         21   -1    0    0  503  504 -0.00000000000E+00 -0.00000000000E+00 -0.73668101679E+02  0.73668101679E+02  0.00000000000E+00 0.  1.
         25    2    1    2    0    0 -0.22051316597E+02  0.70314897602E+02  0.10855662773E+03  0.18121233170E+03  0.12499168911E+03 0.  0.
         25    2    1    2    0    0  0.22051316597E+02 -0.70314897602E+02  0.10362613627E+03  0.17830663567E+03  0.12499773924E+03 0.  0.
          5    1    3    3  501    0  0.64259731572E+01  0.86723907513E+02  0.11803433490E+03  0.14668511676E+03  0.47000000000E+01 0.  1.
         -5    1    3    3    0  501 -0.28477289754E+02 -0.16409009912E+02 -0.94777071641E+01  0.34527214934E+02  0.47000000000E+01 0.  1.
          5    1    4    4  502    0  0.64845621917E+02 -0.73617995734E+02  0.52436195107E+02  0.11133826177E+03  0.47000000000E+01 0. -1.
         -5    1    4    4    0  502 -0.42794305321E+02  0.33030981319E+01  0.51189941166E+02  0.66968373892E+02  0.47000000000E+01 0. -1.
<mgrwt>
<rscale>  0 0.29022812E+03</rscale>
<asrwt>0</asrwt>
<pdfrwt beam="1">  1       21 0.43977056E-01 0.29022812E+03</pdfrwt>
<pdfrwt beam="2">  1       21 0.11333554E-01 0.29022812E+03</pdfrwt>
<totfact> 0.31557143E+05</totfact>
</mgrwt>
</event>
<event>
 8    1  0.4760912E-006  0.2530374E+03  0.7546771E-02  0.1111400E+00
         21   -1    0    0  504  503  0.00000000000E+00  0.00000000000E+00  0.20660840205E+02  0.20660840205E+02  0.00000000000E+00 0. -1.
         21   -1    0    0  503  504 -0.00000000000E+00 -0.00000000000E+00 -0.77474958304E+03  0.77474958304E+03  0.00000000000E+00 0. -1.
         25    2    1    2    0    0  0.57511296114E+01 -0.11429343513E+02 -0.33052589425E+03  0.35360264282E+03  0.12499502731E+03 0.  0.
         25    2    1    2    0    0 -0.57511296114E+01  0.11429343513E+02 -0.42356284859E+03  0.44180778043E+03  0.12499969105E+03 0.  0.
          5    1    3    3  501    0 -0.88180698360E+01  0.38551233155E+02 -0.27294027780E+03  0.27583045731E+03  0.47000000000E+01 0.  1.
         -5    1    3    3    0  501  0.14569199447E+02 -0.49980576668E+02 -0.57585616449E+02  0.77772185507E+02  0.47000000000E+01 0.  1.
          5    1    4    4  502    0  0.12262910068E+02 -0.18356316500E+02 -0.39732315521E+03  0.39796370812E+03  0.47000000000E+01 0.  1.
         -5    1    4    4    0  502 -0.18014039679E+02  0.29785660013E+02 -0.26239693380E+02  0.43844072309E+02  0.47000000000E+01 0.  1.
<mgrwt>
<rscale>  0 0.25303737E+03</rscale>
<asrwt>0</asrwt>
<pdfrwt beam="1">  1       21 0.31785905E-02 0.25303737E+03</pdfrwt>
<pdfrwt beam="2">  1       21 0.11919226E+00 0.25303737E+03</pdfrwt>
<totfact> 0.30314356E+05</totfact>
</mgrwt>
</event>
<event>
 8    1  0.4760912E-006  0.3408120E+03  0.7546771E-02  0.1066451E+00
         21   -1    0    0  504  503  0.00000000000E+00  0.00000000000E+00  0.41093727463E+03  0.41093727463E+03  0.00000000000E+00 0. -1.
         21   -1    0    0  503  504 -0.00000000000E+00 -0.00000000000E+00 -0.70663346494E+02  0.70663346494E+02  0.00000000000E+00 0. -1.
         25    2    1    2    0    0 -0.11534867845E+03  0.40053748821E+01  0.15662695195E+03  0.23125501147E+03  0.12500207040E+03 0.  0.
         25    2    1    2    0    0  0.11534867845E+03 -0.40053748821E+01  0.18364697619E+03  0.25034560966E+03  0.12500140705E+03 0.  0.
          5    1    3    3  501    0 -0.12598668810E+03  0.38588396595E+02  0.10783483591E+03  0.17032953874E+03  0.47000000000E+01 0.  1.
         -5    1    3    3    0  501  0.10638009651E+02 -0.34583021713E+02  0.48792116039E+02  0.60925472733E+02  0.47000000000E+01 0.  1.
          5    1    4    4  502    0  0.49182797665E+02 -0.45458921866E+02  0.15162541863E+03  0.16582466263E+03  0.47000000000E+01 0. -1.
         -5    1    4    4    0  502  0.66165880783E+02  0.41453546983E+02  0.32021557557E+02  0.84520947023E+02  0.47000000000E+01 0. -1.
<mgrwt>
<rscale>  0 0.34081199E+03</rscale>
<asrwt>0</asrwt>
<pdfrwt beam="1">  1       21 0.63221118E-01 0.34081199E+03</pdfrwt>
<pdfrwt beam="2">  1       21 0.10871284E-01 0.34081199E+03</pdfrwt>
<totfact> 0.15538221E+05</totfact>
</mgrwt>
</event>
<event>
 8    1  0.4760912E-006  0.3560979E+03  0.7546771E-02  0.1060140E+00
         21   -1    0    0  504  503  0.00000000000E+00  0.00000000000E+00  0.96517218314E+02  0.96517218314E+02  0.00000000000E+00 0.  1.
         21   -1    0    0  503  504 -0.00000000000E+00 -0.00000000000E+00 -0.32845366796E+03  0.32845366796E+03  0.00000000000E+00 0.  1.
         25    2    1    2    0    0  0.36647798699E+02 -0.96476861390E+02 -0.28048341046E+02  0.16450041678E+03  0.12499132671E+03 0.  0.
         25    2    1    2    0    0 -0.36647798699E+02  0.96476861390E+02 -0.20388810860E+03  0.26047046950E+03  0.12499463476E+03 0.  0.
          5    1    3    3  501    0  0.83167812158E+02 -0.62179053868E+02 -0.14536815978E+02  0.10495965290E+03  0.47000000000E+01 0.  1.
         -5    1    3    3    0  501 -0.46520013459E+02 -0.34297807522E+02 -0.13511525068E+02  0.59540763874E+02  0.47000000000E+01 0.  1.
          5    1    4    4  502    0  0.43572955004E+02  0.16314265410E+02 -0.42682788780E+02  0.63314043638E+02  0.47000000000E+01 0. -1.
         -5    1    4    4    0  502 -0.80220753703E+02  0.80162595980E+02 -0.16120531982E+03  0.19715642586E+03  0.47000000000E+01 0. -1.
<mgrwt>
<rscale>  0 0.35609793E+03</rscale>
<asrwt>0</asrwt>
<pdfrwt beam="1">  1       21 0.14848803E-01 0.35609793E+03</pdfrwt>
<pdfrwt beam="2">  1       21 0.50531334E-01 0.35609793E+03</pdfrwt>
<totfact> 0.14231546E+05</totfact>
</mgrwt>
</event>
<event>
 8    1  0.4760912E-006  0.2637818E+03  0.7546771E-02  0.1104892E+00
         21   -1    0    0  504  503  0.00000000000E+00  0.00000000000E+00  0.61411908841E+03  0.61411908841E+03  0.00000000000E+00 0.  1.
         21   -1    0    0  503  504 -0.00000000000E+00 -0.00000000000E+00 -0.28325468535E+02  0.28325468535E+02  0.00000000000E+00 0.  1.
         25    2    1    2    0    0  0.38389835786E+02  0.13111961444E+02  0.32035439352E+03  0.34626029560E+03  0.12499420720E+03 0.  0.
         25    2    1    2    0    0 -0.38389835786E+02 -0.13111961444E+02  0.26543922636E+03  0.29618426135E+03  0.12498572222E+03 0.  0.
          5    1    3    3  501    0  0.44813705015E+02  0.59756576305E+02  0.25376060380E+03  0.26456691141E+03  0.47000000000E+01 0.  1.
         -5    1    3    3    0  501 -0.64238692294E+01 -0.46644614861E+02  0.66593789719E+02  0.81693384191E+02  0.47000000000E+01 0.  1.
          5    1    4    4  502    0  0.43539325680E+02 -0.21350901264E+02  0.90625544127E+02  0.10289126840E+03  0.47000000000E+01 0. -1.
         -5    1    4    4    0  502 -0.81929161466E+02  0.82389398201E+01  0.17481368223E+03  0.19329299295E+03  0.47000000000E+01 0. -1.
<mgrwt>
<rscale>  0 0.26378181E+03</rscale>
<asrwt>0</asrwt>
<pdfrwt beam="1">  1       21 0.94479850E-01 0.26378181E+03</pdfrwt>
<pdfrwt beam="2">  1       21 0.43577649E-02 0.26378181E+03</pdfrwt>
<totfact> 0.31229382E+05</totfact>
</mgrwt>
</event>
<event>
 8    1  0.4760912E-006  0.3488666E+03  0.7546771E-02  0.1063081E+00
         21   -1    0    0  504  503  0.00000000000E+00  0.00000000000E+00  0.66191939606E+02  0.66191939606E+02  0.00000000000E+00 0.  1.
         21   -1    0    0  503  504 -0.00000000000E+00 -0.00000000000E+00 -0.45967794305E+03  0.45967794305E+03  0.00000000000E+00 0.  1.
         25    2    1    2    0    0 -0.57808532856E+02  0.10146592315E+03 -0.14529140648E+03  0.22443496423E+03  0.12499720133E+03 0.  0.
         25    2    1    2    0    0  0.57808532856E+02 -0.10146592315E+03 -0.24819459696E+03  0.30143491842E+03  0.12500116820E+03 0.  0.
          5    1    3    3  501    0 -0.41290346310E+02  0.12984789154E+02 -0.12455880486E+03  0.13194879051E+03  0.47000000000E+01 0.  1.
         -5    1    3    3    0  501 -0.16518186546E+02  0.88481133999E+02 -0.20732601623E+02  0.92486173727E+02  0.47000000000E+01 0.  1.
          5    1    4    4  502    0  0.23210484705E+02  0.26951026785E+02 -0.73853748382E+02  0.82106946083E+02  0.47000000000E+01 0. -1.
         -5    1    4    4    0  502  0.34598048151E+02 -0.12841694994E+03 -0.17434084857E+03  0.21932797234E+03  0.47000000000E+01 0. -1.
<mgrwt>
<rscale>  0 0.34886659E+03</rscale>
<asrwt>0</asrwt>
<pdfrwt beam="1">  1       21 0.10183376E-01 0.34886659E+03</pdfrwt>
<pdfrwt beam="2">  1       21 0.70719680E-01 0.34886659E+03</pdfrwt>
<totfact> 0.13600489E+05</totfact>
</mgrwt>
</event>
<event>
 8    1  0.4760912E-006  0.2827729E+03  0.7546771E-02  0.1094184E+00
         21   -1    0    0  504  503  0.00000000000E+00  0.00000000000E+00  0.67454168763E+03  0.67454168763E+03  0.00000000000E+00 0.  1.
         21   -1    0    0  503  504 -0.00000000000E+00 -0.00000000000E+00 -0.29635120123E+02  0.29635120123E+02  0.00000000000E+00 0.  1.
         25    2    1    2    0    0 -0.31792088770E+02  0.38363641217E+02  0.21446441374E+03  0.25318941558E+03  0.12500955772E+03 0.  0.
         25    2    1    2    0    0  0.31792088770E+02 -0.38363641217E+02  0.43044215377E+03  0.45098739218E+03  0.12500669698E+03 0.  0.
          5    1    3    3  501    0  0.36169689730E+02  0.51856649677E+02  0.82282219500E+02  0.10387402089E+03  0.47000000000E+01 0.  1.
         -5    1    3    3    0  501 -0.67961778500E+02 -0.13493008460E+02  0.13218219424E+03  0.14931539468E+03  0.47000000000E+01 0.  1.
          5    1    4    4  502    0  0.26410549880E+02 -0.15395112361E+02  0.14169705826E+02  0.34020540748E+02  0.47000000000E+01 0. -1.
         -5    1    4    4    0  502  0.53815388897E+01 -0.22968528856E+02  0.41627244794E+03  0.41696685143E+03  0.47000000000E+01 0. -1.
<mgrwt>
<rscale>  0 0.28277287E+03</rscale>
<asrwt>0</asrwt>
<pdfrwt beam="1">  1       21 0.10377563E+00 0.28277287E+03</pdfrwt>
<pdfrwt beam="2">  1       21 0.45592498E-02 0.28277287E+03</pdfrwt>
<totfact> 0.23000184E+05</totfact>
</mgrwt>
</event>
<event>
 8    1  0.4760912E-006  0.2973336E+03  0.7546771E-02  0.1086581E+00
         21   -1    0    0  504  503  0.00000000000E+00  0.00000000000E+00  0.48077469876E+02  0.48077469876E+02  0.00000000000E+00 0.  1.
         21   -1    0    0  503  504 -0.00000000000E+00 -0.00000000000E+00 -0.45971254607E+03  0.45971254607E+03  0.00000000000E+00 0.  1.
         25    2    1    2    0    0 -0.64793055811E+02 -0.30089483772E+02 -0.26910958388E+03  0.30520213127E+03  0.12499942272E+03 0.  0.
         25    2    1    2    0    0  0.64793055811E+02  0.30089483772E+02 -0.14252549231E+03  0.20258788468E+03  0.12499927177E+03 0.  0.
          5    1    3    3  501    0 -0.50424625105E+02 -0.75207135051E+02 -0.21386215721E+03  0.23228833002E+03  0.47000000000E+01 0.  1.
         -5    1    3    3    0  501 -0.14368430706E+02  0.45117651279E+02 -0.55247426669E+02  0.72913801241E+02  0.47000000000E+01 0.  1.
          5    1    4    4  502    0 -0.16242085691E+02 -0.30786532148E+02 -0.11685834950E+02  0.37017085890E+02  0.47000000000E+01 0.  1.
         -5    1    4    4    0  502  0.81035141502E+02  0.60876015920E+02 -0.13083965736E+03  0.16557079879E+03  0.47000000000E+01 0.  1.
<mgrwt>
<rscale>  0 0.29733359E+03</rscale>
<asrwt>0</asrwt>
<pdfrwt beam="1">  1       21 0.73965336E-02 0.29733359E+03</pdfrwt>
<pdfrwt beam="2">  1       21 0.70725009E-01 0.29733359E+03</pdfrwt>
<totfact> 0.24225853E+05</totfact>
</mgrwt>
</event>
<event>
 8    1  0.4760912E-006  0.3610101E+03  0.7546771E-02  0.1058185E+00
         21   -1    0    0  504  503  0.00000000000E+00  0.00000000000E+00  0.62347781820E+02  0.62347781820E+02  0.00000000000E+00 0. -1.
         21   -1    0    0  503  504 -0.00000000000E+00 -0.00000000000E+00 -0.52258590112E+03  0.52258590112E+03  0.00000000000E+00 0. -1.
         25    2    1    2    0    0  0.11296163599E+02 -0.12323928070E+03 -0.29576684624E+03  0.34412008002E+03  0.12500031409E+03 0.  0.
         25    2    1    2    0    0 -0.11296163599E+02  0.12323928070E+03 -0.16447127306E+03  0.24081360291E+03  0.12499947227E+03 0.  0.
          5    1    3    3  501    0  0.47394044219E+02 -0.76849345484E+02 -0.25972232778E+03  0.27500871782E+03  0.47000000000E+01 0.  1.
         -5    1    3    3    0  501 -0.36097880621E+02 -0.46389935218E+02 -0.36044518455E+02  0.69111362202E+02  0.47000000000E+01 0.  1.
          5    1    4    4  502    0 -0.71832537242E+01 -0.61468568981E+01 -0.91560399343E+02  0.92167129237E+02  0.47000000000E+01 0. -1.
         -5    1    4    4    0  502 -0.41129098743E+01  0.12938613760E+03 -0.72910873714E+02  0.14864647368E+03  0.47000000000E+01 0. -1.
<mgrwt>
<rscale>  0 0.36101009E+03</rscale>
<asrwt>0</asrwt>
<pdfrwt beam="1">  1       21 0.95919663E-02 0.36101009E+03</pdfrwt>
<pdfrwt beam="2">  1       21 0.80397832E-01 0.36101009E+03</pdfrwt>
<totfact> 0.11281124E+05</totfact>
</mgrwt>
</event>
<event>
 8    1  0.4760912E-006  0.3739642E+03  0.7546771E-02  0.1053187E+00
         21   -1    0    0  504  503  0.00000000000E+00  0.00000000000E+00  0.32471157830E+02  0.32471157830E+02  0.00000000000E+00 0.  1.
         21   -1    0    0  503  504 -0.00000000000E+00 -0.00000000000E+00 -0.10767189249E+04  0.10767189249E+04  0.00000000000E+00 0.  1.
         25    2    1    2    0    0 -0.11822149817E+02 -0.11202754532E+03 -0.76390599736E+03  0.78221914158E+03  0.12499791404E+03 0.  0.
         25    2    1    2    0    0  0.11822149817E+02  0.11202754532E+03 -0.28034176968E+03  0.32697094112E+03  0.12501421668E+03 0.  0.
          5    1    3    3  501    0 -0.58229749181E+02 -0.57417663937E+02 -0.24414315094E+03  0.25751788282E+03  0.47000000000E+01 0. -1.
         -5    1    3    3    0  501  0.46407599364E+02 -0.54609881382E+02 -0.51976284642E+03  0.52470125876E+03  0.47000000000E+01 0. -1.
          5    1    4    4  502    0 -0.50945085865E+02  0.85732883416E+02 -0.15811173808E+03  0.18699449401E+03  0.47000000000E+01 0. -1.
         -5    1    4    4    0  502  0.62767235682E+02  0.26294661904E+02 -0.12223003160E+03  0.13997644711E+03  0.47000000000E+01 0. -1.
<mgrwt>
<rscale>  0 0.37396422E+03</rscale>
<asrwt>0</asrwt>
<pdfrwt beam="1">  1       21 0.49955633E-02 0.37396422E+03</pdfrwt>
<pdfrwt beam="2">  1       21 0.16564905E+00 0.37396422E+03</pdfrwt>
<totfact> 0.57169685E+04</totfact>
</mgrwt>
</event>
<event>
 8    1  0.4760912E-006  0.4020459E+03  0.7546771E-02  0.1043074E+00
         21   -1    0    0  504  503  0.00000000000E+00  0.00000000000E+00  0.73352427480E+03  0.73352427480E+03  0.00000000000E+00 0. -1.
         21   -1    0    0  503  504 -0.00000000000E+00 -0.00000000000E+00 -0.55090511386E+02  0.55090511386E+02  0.00000000000E+00 0. -1.
         25    2    1    2    0    0 -0.14072765767E+03  0.10860664433E+02  0.47601242076E+03  0.51199011747E+03  0.12499531195E+03 0.  0.
         25    2    1    2    0    0  0.14072765767E+03 -0.10860664433E+02  0.20242134265E+03  0.27662466871E+03  0.12499831884E+03 0.  0.
          5    1    3    3  501    0 -0.54413046258E+02 -0.56376912622E+01  0.41952287696E+02  0.69098824945E+02  0.47000000000E+01 0.  1.
         -5    1    3    3    0  501 -0.86314611409E+02  0.16498355696E+02  0.43406013306E+03  0.44289129253E+03  0.47000000000E+01 0.  1.
          5    1    4    4  502    0 -0.19484612848E+01 -0.25686876783E+02 -0.26499109882E+01  0.26319653655E+02  0.47000000000E+01 0. -1.
         -5    1    4    4    0  502  0.14267611895E+03  0.14826212350E+02  0.20507125364E+03  0.25030501506E+03  0.47000000000E+01 0. -1.
<mgrwt>
<rscale>  0 0.40204590E+03</rscale>
<asrwt>0</asrwt>
<pdfrwt beam="1">  1       21 0.11284988E+00 0.40204590E+03</pdfrwt>
<pdfrwt beam="2">  1       21 0.84754638E-02 0.40204590E+03</pdfrwt>
<totfact> 0.61872697E+04</totfact>
</mgrwt>
</event>
<event>
 8    1  0.4760912E-006  0.3195993E+03  0.7546771E-02  0.1075834E+00
         21   -1    0    0  504  503  0.00000000000E+00  0.00000000000E+00  0.31115210847E+03  0.31115210847E+03  0.00000000000E+00 0. -1.
         21   -1    0    0  503  504 -0.00000000000E+00 -0.00000000000E+00 -0.82068967768E+02  0.82068967768E+02  0.00000000000E+00 0. -1.
         25    2    1    2    0    0 -0.45468081190E+02 -0.31609726625E+02  0.12753727894E+02  0.13731180239E+03  0.12500140910E+03 0.  0.
         25    2    1    2    0    0  0.45468081190E+02  0.31609726625E+02  0.21632941281E+03  0.25590927385E+03  0.12499848147E+03 0.  0.
          5    1    3    3  501    0 -0.20884672782E+02  0.23324384627E+02  0.55117690772E+02  0.63562931899E+02  0.47000000000E+01 0. -1.
         -5    1    3    3    0  501 -0.24583408408E+02 -0.54934111253E+02 -0.42363962878E+02  0.73748870492E+02  0.47000000000E+01 0. -1.
          5    1    4    4  502    0 -0.31527384439E+02  0.22811633282E+02  0.18407765528E+02  0.43304531106E+02  0.47000000000E+01 0. -1.
         -5    1    4    4    0  502  0.76995465630E+02  0.87980933429E+01  0.19792164728E+03  0.21260474274E+03  0.47000000000E+01 0. -1.
<mgrwt>
<rscale>  0 0.31959933E+03</rscale>
<asrwt>0</asrwt>
<pdfrwt beam="1">  1       21 0.47869555E-01 0.31959933E+03</pdfrwt>
<pdfrwt beam="2">  1       21 0.12625995E-01 0.31959933E+03</pdfrwt>
<totfact> 0.21630100E+05</totfact>
</mgrwt>
</event>
<event>
 8    1  0.4760912E-006  0.4747511E+03  0.7546771E-02  0.1020588E+00
         21   -1    0    0  504  503  0.00000000000E+00  0.00000000000E+00  0.14779593686E+04  0.14779593686E+04  0.00000000000E+00 0.  1.
         21   -1    0    0  503  504 -0.00000000000E+00 -0.00000000000E+00 -0.38124968130E+02  0.38124968130E+02  0.00000000000E+00 0.  1.
         25    2    1    2    0    0 -0.15974461979E+03 -0.62489564920E+02  0.10593058107E+04  0.10803597941E+04  0.12500077990E+03 0.  0.
         25    2    1    2    0    0  0.15974461979E+03  0.62489564920E+02  0.38052858979E+03  0.43572454259E+03  0.12502231837E+03 0.  0.
          5    1    3    3  501    0 -0.14536833753E+03 -0.43724528575E+02  0.10351660747E+04  0.10462479057E+04  0.47000000000E+01 0.  1.
         -5    1    3    3    0  501 -0.14376282267E+02 -0.18765036345E+02  0.24139736008E+02  0.34111888476E+02  0.47000000000E+01 0.  1.
          5    1    4    4  502    0  0.11233427772E+03 -0.22497928618E+02  0.21431090688E+03  0.24305637525E+03  0.47000000000E+01 0.  1.
         -5    1    4    4    0  502  0.47410342072E+02  0.84987493538E+02  0.16621768292E+03  0.19266816734E+03  0.47000000000E+01 0.  1.
<mgrwt>
<rscale>  0 0.47475111E+03</rscale>
<asrwt>0</asrwt>
<pdfrwt beam="1">  1       21 0.22737832E+00 0.47475111E+03</pdfrwt>
<pdfrwt beam="2">  1       21 0.58653808E-02 0.47475111E+03</pdfrwt>
<totfact> 0.16051057E+04</totfact>
</mgrwt>
</event>
<event>
 8    1  0.4760912E-006  0.3161531E+03  0.7546771E-02  0.1077434E+00
         21   -1    0    0  504  503  0.00000000000E+00  0.00000000000E+00  0.12072009467E+03  0.12072009467E+03  0.00000000000E+00 0. -1.
         21   -1    0    0  503  504 -0.00000000000E+00 -0.00000000000E+00 -0.20699283764E+03  0.20699283764E+03  0.00000000000E+00 0. -1.
         25    2    1    2    0    0 -0.25279075232E+02  0.54971400437E+02  0.35167163493E+02  0.14323322149E+03  0.12497255635E+03 0.  0.
         25    2    1    2    0    0  0.25279075232E+02 -0.54971400437E+02 -0.12143990646E+03  0.18447971082E+03  0.12499690521E+03 0.  0.
          5    1    3    3  501    0  0.37576888655E+02 -0.31343445049E+01  0.42718614651E+02  0.57173566568E+02  0.47000000000E+01 0.  1.
         -5    1    3    3    0  501 -0.62855963887E+02  0.58105744941E+02 -0.75514511576E+01  0.86059654926E+02  0.47000000000E+01 0.  1.
          5    1    4    4  502    0  0.69766616268E+02 -0.58769214691E+02 -0.63795031813E+02  0.11141408091E+03  0.47000000000E+01 0.  1.
         -5    1    4    4    0  502 -0.44487541036E+02  0.37978142547E+01 -0.57644874650E+02  0.73065629909E+02  0.47000000000E+01 0.  1.
<mgrwt>
<rscale>  0 0.31615310E+03</rscale>
<asrwt>0</asrwt>
<pdfrwt beam="1">  1       21 0.18572322E-01 0.31615310E+03</pdfrwt>
<pdfrwt beam="2">  1       21 0.31845052E-01 0.31615310E+03</pdfrwt>
<totfact> 0.24379270E+05</totfact>
</mgrwt>
</event>
<event>
 8    1  0.4760912E-006  0.2906025E+03  0.7546771E-02  0.1090035E+00
         21   -1    0    0  504  503  0.00000000000E+00  0.00000000000E+00  0.81545646812E+02  0.81545646812E+02  0.00000000000E+00 0.  1.
         21   -1    0    0  503  504 -0.00000000000E+00 -0.00000000000E+00 -0.25890347670E+03  0.25890347670E+03  0.00000000000E+00 0.  1.
         25    2    1    2    0    0 -0.70965437273E+02 -0.40216423437E+01 -0.64195335525E+02  0.15747554968E+03  0.12500096299E+03 0.  0.
         25    2    1    2    0    0  0.70965437273E+02  0.40216423437E+01 -0.11316249436E+03  0.18297357384E+03  0.12498524592E+03 0.  0.
          5    1    3    3  501    0  0.20393769622E+01 -0.41300892360E+02  0.14179969663E+02  0.43966854649E+02  0.47000000000E+01 0.  1.
         -5    1    3    3    0  501 -0.73004814236E+02  0.37279250016E+02 -0.78375305189E+02  0.11350869503E+03  0.47000000000E+01 0.  1.
          5    1    4    4  502    0 -0.15647278217E+02 -0.18014967198E+02 -0.86110241536E+02  0.89478712866E+02  0.47000000000E+01 0. -1.
         -5    1    4    4    0  502  0.86612715491E+02  0.22036609542E+02 -0.27052252827E+02  0.93494860970E+02  0.47000000000E+01 0. -1.
<mgrwt>
<rscale>  0 0.29060249E+03</rscale>
<asrwt>0</asrwt>
<pdfrwt beam="1">  1       21 0.12545484E-01 0.29060249E+03</pdfrwt>
<pdfrwt beam="2">  1       21 0.39831303E-01 0.29060249E+03</pdfrwt>
<totfact> 0.32190918E+05</totfact>
</mgrwt>
</event>
<event>
 8    1  0.4760912E-006  0.3463309E+03  0.7546771E-02  0.1064131E+00
         21   -1    0    0  504  503  0.00000000000E+00  0.00000000000E+00  0.44107059503E+02  0.44107059503E+02  0.00000000000E+00 0. -1.
         21   -1    0    0  503  504 -0.00000000000E+00 -0.00000000000E+00 -0.67985194169E+03  0.67985194169E+03  0.00000000000E+00 0. -1.
         25    2    1    2    0    0  0.11672444280E+03 -0.19002555601E+02 -0.27735229682E+03  0.32639772960E+03  0.12500195466E+03 0.  0.
         25    2    1    2    0    0 -0.11672444280E+03  0.19002555601E+02 -0.35839258536E+03  0.39756127159E+03  0.12499610698E+03 0.  0.
          5    1    3    3  501    0  0.73591004539E+01 -0.50179988764E+02 -0.46303642237E+02  0.68835346417E+02  0.47000000000E+01 0. -1.
         -5    1    3    3    0  501  0.10936534235E+03  0.31177433164E+02 -0.23104865459E+03  0.25756238318E+03  0.47000000000E+01 0. -1.
          5    1    4    4  502    0 -0.92839471795E+02 -0.18366511620E+02 -0.10994714759E+03  0.14514462283E+03  0.47000000000E+01 0.  1.
         -5    1    4    4    0  502 -0.23884971004E+02  0.37369067220E+02 -0.24844543777E+03  0.25241664876E+03  0.47000000000E+01 0.  1.
<mgrwt>
<rscale>  0 0.34633088E+03</rscale>
<asrwt>0</asrwt>
<pdfrwt beam="1">  1       21 0.67857019E-02 0.34633088E+03</pdfrwt>
<pdfrwt beam="2">  1       21 0.10459260E+00 0.34633088E+03</pdfrwt>
<totfact> 0.11190902E+05</totfact>
</mgrwt>
</event>
<event>
 8    1  0.4760912E-006  0.3363383E+03  0.7546771E-02  0.1068366E+00
         21   -1    0    0  504  503  0.00000000000E+00  0.00000000000E+00  0.10452835609E+03  0.10452835609E+03  0.00000000000E+00 0. -1.
         21   -1    0    0  503  504 -0.00000000000E+00 -0.00000000000E+00 -0.27055689141E+03  0.27055689141E+03  0.00000000000E+00 0. -1.
         25    2    1    2    0    0 -0.68340387524E+02  0.76638564255E+01  0.16278835416E+02  0.14358926857E+03  0.12499493711E+03 0.  0.
         25    2    1    2    0    0  0.68340387524E+02 -0.76638564255E+01 -0.18230737073E+03  0.23149597893E+03  0.12500107030E+03 0.  0.
          5    1    3    3  501    0 -0.66290341579E+02 -0.50447366210E+02  0.16746925105E+01  0.83452026573E+02  0.47000000000E+01 0. -1.
         -5    1    3    3    0  501 -0.20500459450E+01  0.58111222636E+02  0.14604142905E+02  0.60137241994E+02  0.47000000000E+01 0. -1.
          5    1    4    4  502    0  0.30862234721E+02  0.18678348761E+02 -0.18184014583E+03  0.18544348703E+03  0.47000000000E+01 0. -1.
         -5    1    4    4    0  502  0.37478152803E+02 -0.26342205186E+02 -0.46722490013E+00  0.46052491905E+02  0.47000000000E+01 0. -1.
<mgrwt>
<rscale>  0 0.33633832E+03</rscale>
<asrwt>0</asrwt>
<pdfrwt beam="1">  1       21 0.16081286E-01 0.33633832E+03</pdfrwt>
<pdfrwt beam="2">  1       21 0.41624136E-01 0.33633832E+03</pdfrwt>
<totfact> 0.18488069E+05</totfact>
</mgrwt>
</event>
<event>
 8    1  0.4760912E-006  0.4485904E+03  0.7546771E-02  0.1028143E+00
         21   -1    0    0  504  503  0.00000000000E+00  0.00000000000E+00  0.90276352788E+02  0.90276352788E+02  0.00000000000E+00 0.  1.
         21   -1    0    0  503  504 -0.00000000000E+00 -0.00000000000E+00 -0.55727032666E+03  0.55727032666E+03  0.00000000000E+00 0.  1.
         25    2    1    2    0    0 -0.14931886788E+03 -0.79283600310E+02 -0.12074194874E+03  0.24245723321E+03  0.12499951267E+03 0.  0.
         25    2    1    2    0    0  0.14931886788E+03  0.79283600310E+02 -0.34625202513E+03  0.40508944624E+03  0.12499992385E+03 0.  0.
          5    1    3    3  501    0 -0.83720878913E+02  0.22439753958E+02 -0.32906243682E+02  0.92831239337E+02  0.47000000000E+01 0.  1.
         -5    1    3    3    0  501 -0.65597988963E+02 -0.10172335427E+03 -0.87835705058E+02  0.14962599387E+03  0.47000000000E+01 0.  1.
          5    1    4    4  502    0 -0.21743573108E+02  0.64327700106E+01 -0.26612473872E+02  0.35277149362E+02  0.47000000000E+01 0. -1.
         -5    1    4    4    0  502  0.17106244098E+03  0.72850830300E+02 -0.31963955126E+03  0.36981229687E+03  0.47000000000E+01 0. -1.
<mgrwt>
<rscale>  0 0.44859038E+03</rscale>
<asrwt>0</asrwt>
<pdfrwt beam="1">  1       21 0.13888670E-01 0.44859038E+03</pdfrwt>
<pdfrwt beam="2">  1       21 0.85733896E-01 0.44859038E+03</pdfrwt>
<totfact> 0.48673603E+04</totfact>
</mgrwt>
</event>
<event>
 8    1  0.4760912E-006  0.2580238E+03  0.7546771E-02  0.1108336E+00
         21   -1    0    0  504  503  0.00000000000E+00  0.00000000000E+00  0.33875776212E+02  0.33875776212E+02  0.00000000000E+00 0.  1.
         21   -1    0    0  503  504 -0.00000000000E+00 -0.00000000000E+00 -0.49132679616E+03  0.49132679616E+03  0.00000000000E+00 0.  1.
         25    2    1    2    0    0  0.25260035154E+02  0.39906326287E+01 -0.18991746604E+03  0.22880278109E+03  0.12501229620E+03 0.  0.
         25    2    1    2    0    0 -0.25260035154E+02 -0.39906326287E+01 -0.26753355391E+03  0.29639979129E+03  0.12499855712E+03 0.  0.
          5    1    3    3  501    0  0.35703343113E+02  0.89323930530E+00  0.24163719203E+01  0.36103399274E+02  0.47000000000E+01 0.  1.
         -5    1    3    3    0  501 -0.10443307959E+02  0.30973933234E+01 -0.19233383796E+03  0.19269938181E+03  0.47000000000E+01 0.  1.
          5    1    4    4  502    0  0.27989059861E+01 -0.24652452473E+01 -0.26784022507E+03  0.26790742333E+03  0.47000000000E+01 0. -1.
         -5    1    4    4    0  502 -0.28058941140E+02 -0.15253873814E+01  0.30667116305E+00  0.28492367957E+02  0.47000000000E+01 0. -1.
<mgrwt>
<rscale>  0 0.25802385E+03</rscale>
<asrwt>0</asrwt>
<pdfrwt beam="1">  1       21 0.52116583E-02 0.25802385E+03</pdfrwt>
<pdfrwt beam="2">  1       21 0.75588732E-01 0.25802385E+03</pdfrwt>
<totfact> 0.38558830E+05</totfact>
</mgrwt>
</event>
<event>
 8    1  0.4760912E-006  0.2640716E+03  0.7546771E-02  0.1104721E+00
         21   -1    0    0  504  503  0.00000000000E+00  0.00000000000E+00  0.45584445206E+02  0.45584445206E+02  0.00000000000E+00 0.  1.
         21   -1    0    0  503  504 -0.00000000000E+00 -0.00000000000E+00 -0.38244293234E+03  0.38244293234E+03  0.00000000000E+00 0.  1.
         25    2    1    2    0    0  0.13930430445E+02  0.36104796798E+02 -0.19706048221E+03  0.23654959103E+03  0.12500104848E+03 0.  0.
         25    2    1    2    0    0 -0.13930430445E+02 -0.36104796798E+02 -0.13979800492E+03  0.19147778652E+03  0.12499058887E+03 0.  0.
          5    1    3    3  501    0 -0.12705533115E+02  0.42379736256E+02 -0.76870101661E+01  0.45151442305E+02  0.47000000000E+01 0. -1.
         -5    1    3    3    0  501  0.26635963560E+02 -0.62749394584E+01 -0.18937347205E+03  0.19139814872E+03  0.47000000000E+01 0. -1.
          5    1    4    4  502    0 -0.44364539877E+02 -0.54427936958E+02 -0.13880958118E+03  0.15563033942E+03  0.47000000000E+01 0.  1.
         -5    1    4    4    0  502  0.30434109433E+02  0.18323140160E+02 -0.98842374494E+00  0.35847447103E+02  0.47000000000E+01 0.  1.
<mgrwt>
<rscale>  0 0.26407157E+03</rscale>
<asrwt>0</asrwt>
<pdfrwt beam="1">  1       21 0.70129916E-02 0.26407157E+03</pdfrwt>
<pdfrwt beam="2">  1       21 0.58837374E-01 0.26407157E+03</pdfrwt>
<totfact> 0.40093955E+05</totfact>
</mgrwt>
</event>
<event>
 8    1  0.4760912E-006  0.5211454E+03  0.7546771E-02  0.1008402E+00
         21   -1    0    0  504  503  0.00000000000E+00  0.00000000000E+00  0.11733973071E+04  0.11733973071E+04  0.00000000000E+00 0. -1.
         21   -1    0    0  503  504 -0.00000000000E+00 -0.00000000000E+00 -0.57864573369E+02  0.57864573369E+02  0.00000000000E+00 0. -1.
         25    2    1    2    0    0 -0.36379808904E+02  0.39319848684E+02  0.10828965782E+04  0.10914030247E+04  0.12500408913E+03 0.  0.
         25    2    1    2    0    0  0.36379808904E+02 -0.39319848684E+02  0.32636155540E+02  0.13985885576E+03  0.12500335951E+03 0.  0.
          5    1    3    3  501    0 -0.27684737800E+02 -0.40596014504E+02  0.58040651269E+03  0.58250175199E+03  0.47000000000E+01 0. -1.
         -5    1    3    3    0  501 -0.86950711041E+01  0.79915863188E+02  0.50249006549E+03  0.50890127271E+03  0.47000000000E+01 0. -1.
          5    1    4    4  502    0 -0.33140700199E+01 -0.77761301137E+02  0.56317341613E+01  0.78176783281E+02  0.47000000000E+01 0. -1.
         -5    1    4    4    0  502  0.39693878924E+02  0.38441452452E+02  0.27004421379E+02  0.61682072474E+02  0.47000000000E+01 0. -1.
<mgrwt>
<rscale>  0 0.52114541E+03</rscale>
<asrwt>0</asrwt>
<pdfrwt beam="1">  1       21 0.18052265E+00 0.52114541E+03</pdfrwt>
<pdfrwt beam="2">  1       21 0.89022429E-02 0.52114541E+03</pdfrwt>
<totfact> 0.15540144E+04</totfact>
</mgrwt>
</event>
<event>
 8    1  0.4760912E-006  0.2732557E+03  0.7546771E-02  0.1099431E+00
         21   -1    0    0  504  503  0.00000000000E+00  0.00000000000E+00  0.31677223582E+03  0.31677223582E+03  0.00000000000E+00 0.  1.
         21   -1    0    0  503  504 -0.00000000000E+00 -0.00000000000E+00 -0.58929303213E+02  0.58929303213E+02  0.00000000000E+00 0.  1.
         25    2    1    2    0    0  0.44924097449E+01  0.29788938657E+02  0.19245823867E+03  0.23145770342E+03  0.12499972891E+03 0.  0.
         25    2    1    2    0    0 -0.44924097449E+01 -0.29788938657E+02  0.65384693938E+02  0.14424383562E+03  0.12499425307E+03 0.  0.
          5    1    3    3  501    0 -0.57217029255E+02 -0.49095466911E+01  0.87524648502E+02  0.10478810133E+03  0.47000000000E+01 0.  1.
         -5    1    3    3    0  501  0.61709439000E+02  0.34698485348E+02  0.10493359017E+03  0.12666960209E+03  0.47000000000E+01 0.  1.
          5    1    4    4  502    0 -0.19381143063E+02  0.46491141532E+02  0.22670490473E+02  0.55435512857E+02  0.47000000000E+01 0. -1.
         -5    1    4    4    0  502  0.14888733318E+02 -0.76280080190E+02  0.42714203465E+02  0.88808322759E+02  0.47000000000E+01 0. -1.
<mgrwt>
<rscale>  0 0.27325568E+03</rscale>
<asrwt>0</asrwt>
<pdfrwt beam="1">  1       21 0.48734189E-01 0.27325568E+03</pdfrwt>
<pdfrwt beam="2">  1       21 0.90660468E-02 0.27325568E+03</pdfrwt>
<totfact> 0.38072284E+05</totfact>
</mgrwt>
</event>
<event>
 8    1  0.4760912E-006  0.2922909E+03  0.7546771E-02  0.1089159E+00
         21   -1    0    0  504  503  0.00000000000E+00  0.00000000000E+00  0.41300933719E+03  0.41300933719E+03  0.00000000000E+00 0. -1.
         21   -1    0    0  503  504 -0.00000000000E+00 -0.00000000000E+00 -0.51714297121E+02  0.51714297121E+02  0.00000000000E+00 0. -1.
         25    2    1    2    0    0 -0.72142774632E+02  0.20414015924E+02  0.16381757506E+03  0.21927983685E+03  0.12500454780E+03 0.  0.
         25    2    1    2    0    0  0.72142774632E+02 -0.20414015924E+02  0.19747746501E+03  0.24544379746E+03  0.12499598613E+03 0.  0.
          5    1    3    3  501    0  0.30492666118E+02 -0.13838548658E+02  0.20145645756E+02  0.39360451711E+02  0.47000000000E+01 0.  1.
         -5    1    3    3    0  501 -0.10263544075E+03  0.34252564582E+02  0.14367192930E+03  0.17991938513E+03  0.47000000000E+01 0.  1.
          5    1    4    4  502    0  0.39716329697E+02 -0.51753809935E+02  0.18809571841E+03  0.19914299629E+03  0.47000000000E+01 0.  1.
         -5    1    4    4    0  502  0.32426444936E+02  0.31339794011E+02  0.93817465986E+01  0.46300801171E+02  0.47000000000E+01 0.  1.
<mgrwt>
<rscale>  0 0.29229087E+03</rscale>
<asrwt>0</asrwt>
<pdfrwt beam="1">  1       21 0.63539896E-01 0.29229087E+03</pdfrwt>
<pdfrwt beam="2">  1       21 0.79560460E-02 0.29229087E+03</pdfrwt>
<totfact> 0.27050213E+05</totfact>
</mgrwt>
</event>
<event>
 8    1  0.4760912E-006  0.4276740E+03  0.7546771E-02  0.1034597E+00
         21   -1    0    0  504  503  0.00000000000E+00  0.00000000000E+00  0.12072268563E+03  0.12072268563E+03  0.00000000000E+00 0.  1.
         21   -1    0    0  503  504 -0.00000000000E+00 -0.00000000000E+00 -0.37877100640E+03  0.37877100640E+03  0.00000000000E+00 0.  1.
         25    2    1    2    0    0  0.82157614603E+01  0.15404304670E+03 -0.36292843916E+02  0.20184116846E+03  0.12500371111E+03 0.  0.
         25    2    1    2    0    0 -0.82157614603E+01 -0.15404304670E+03 -0.22175547685E+03  0.29765252357E+03  0.12499909719E+03 0.  0.
          5    1    3    3  501    0 -0.13164849088E+02  0.12586288170E+03  0.26720916949E+02  0.12942517392E+03  0.47000000000E+01 0.  1.
         -5    1    3    3    0  501  0.21380610548E+02  0.28180165004E+02 -0.63013760865E+02  0.72415994541E+02  0.47000000000E+01 0.  1.
          5    1    4    4  502    0  0.54337920937E+02 -0.10598459806E+03 -0.14167886699E+03  0.18514949643E+03  0.47000000000E+01 0. -1.
         -5    1    4    4    0  502 -0.62553682397E+02 -0.48058448646E+02 -0.80076609869E+02  0.11250302714E+03  0.47000000000E+01 0. -1.
<mgrwt>
<rscale>  0 0.42767396E+03</rscale>
<asrwt>0</asrwt>
<pdfrwt beam="1">  1       21 0.18572721E-01 0.42767396E+03</pdfrwt>
<pdfrwt beam="2">  1       21 0.58272461E-01 0.42767396E+03</pdfrwt>
<totfact> 0.67973910E+04</totfact>
</mgrwt>
</event>
<event>
 8    1  0.4760912E-006  0.2541705E+03  0.7546771E-02  0.1110697E+00
         21   -1    0    0  504  503  0.00000000000E+00  0.00000000000E+00  0.69329264031E+02  0.69329264031E+02  0.00000000000E+00 0. -1.
         21   -1    0    0  503  504 -0.00000000000E+00 -0.00000000000E+00 -0.23295586207E+03  0.23295586207E+03  0.00000000000E+00 0. -1.
         25    2    1    2    0    0  0.33718520261E+01  0.18295749919E+02 -0.97768159196E+02  0.15977699761E+03  0.12499588858E+03 0.  0.
         25    2    1    2    0    0 -0.33718520261E+01 -0.18295749919E+02 -0.65858438839E+02  0.14250812849E+03  0.12500051547E+03 0.  0.
          5    1    3    3  501    0  0.44727647842E+01 -0.90306715728E+01 -0.12226023801E+03  0.12276487466E+03  0.47000000000E+01 0.  1.
         -5    1    3    3    0  501 -0.11009127581E+01  0.27326421492E+02  0.24492078811E+02  0.37012122945E+02  0.47000000000E+01 0.  1.
          5    1    4    4  502    0  0.27861761534E+02  0.45968861120E+02 -0.36345224878E+02  0.65057507790E+02  0.47000000000E+01 0. -1.
         -5    1    4    4    0  502 -0.31233613560E+02 -0.64264611038E+02 -0.29513213962E+02  0.77450620697E+02  0.47000000000E+01 0. -1.
<mgrwt>
<rscale>  0 0.25417048E+03</rscale>
<asrwt>0</asrwt>
<pdfrwt beam="1">  1       21 0.10666040E-01 0.25417048E+03</pdfrwt>
<pdfrwt beam="2">  1       21 0.35839364E-01 0.25417048E+03</pdfrwt>
<totfact> 0.53714666E+05</totfact>
</mgrwt>
</event>
<event>
 8    1  0.4760912E-006  0.3027601E+03  0.7546771E-02  0.1083869E+00
         21   -1    0    0  504  503  0.00000000000E+00  0.00000000000E+00  0.61593267942E+02  0.61593267942E+02  0.00000000000E+00 0. -1.
         21   -1    0    0  503  504 -0.00000000000E+00 -0.00000000000E+00 -0.37205243333E+03  0.37205243333E+03  0.00000000000E+00 0. -1.
         25    2    1    2    0    0 -0.23607613932E+02  0.78653933958E+02 -0.18873020902E+03  0.24080671744E+03  0.12500009042E+03 0.  0.
         25    2    1    2    0    0  0.23607613932E+02 -0.78653933958E+02 -0.12172895637E+03  0.19283898383E+03  0.12500069642E+03 0.  0.
          5    1    3    3  501    0  0.44326123494E+02  0.27450148816E+02 -0.12142929490E+03  0.13223267203E+03  0.47000000000E+01 0.  1.
         -5    1    3    3    0  501 -0.67933737427E+02  0.51203785142E+02 -0.67300914123E+02  0.10857404540E+03  0.47000000000E+01 0.  1.
          5    1    4    4  502    0  0.68802538315E+02 -0.53754396304E+02 -0.10852988000E+03  0.13937054658E+03  0.47000000000E+01 0. -1.
         -5    1    4    4    0  502 -0.45194924383E+02 -0.24899537653E+02 -0.13199076363E+02  0.53468437252E+02  0.47000000000E+01 0. -1.
<mgrwt>
<rscale>  0 0.30276014E+03</rscale>
<asrwt>0</asrwt>
<pdfrwt beam="1">  1       21 0.94758875E-02 0.30276014E+03</pdfrwt>
<pdfrwt beam="2">  1       21 0.57238835E-01 0.30276014E+03</pdfrwt>
<totfact> 0.24866033E+05</totfact>
</mgrwt>
</event>
<event>
 8    1  0.4760912E-006  0.3158817E+03  0.7546771E-02  0.1077560E+00
         21   -1    0    0  504  503  0.00000000000E+00  0.00000000000E+00  0.97962082901E+02  0.97962082901E+02  0.00000000000E+00 0. -1.
         21   -1    0    0  503  504 -0.00000000000E+00 -0.00000000000E+00 -0.25464252369E+03  0.25464252369E+03  0.00000000000E+00 0. -1.
         25    2    1    2    0    0 -0.32282423670E+02  0.88607188762E+02 -0.55310344068E+02  0.16606979795E+03  0.12500621925E+03 0.  0.
         25    2    1    2    0    0  0.32282423670E+02 -0.88607188762E+02 -0.10137009672E+03  0.18653480864E+03  0.12500379813E+03 0.  0.
          5    1    3    3  501    0 -0.23920427841E+02  0.99290554664E+01 -0.79060512656E+02  0.83327232475E+02  0.47000000000E+01 0. -1.
         -5    1    3    3    0  501 -0.83619958292E+01  0.78678133296E+02  0.23750168588E+02  0.82742565473E+02  0.47000000000E+01 0. -1.
          5    1    4    4  502    0 -0.28694126383E+02  0.14880353649E+02 -0.62741276603E+01  0.33260073534E+02  0.47000000000E+01 0. -1.
         -5    1    4    4    0  502  0.60976550053E+02 -0.10348754241E+03 -0.95095969060E+02  0.15327473511E+03  0.47000000000E+01 0. -1.
<mgrwt>
<rscale>  0 0.31588170E+03</rscale>
<asrwt>0</asrwt>
<pdfrwt beam="1">  1       21 0.15071090E-01 0.31588170E+03</pdfrwt>
<pdfrwt beam="2">  1       21 0.39175772E-01 0.31588170E+03</pdfrwt>
<totfact> 0.23697989E+05</totfact>
</mgrwt>
</event>
<event>
 8    1  0.4760912E-006  0.4306631E+03  0.7546771E-02  0.1033651E+00
         21   -1    0    0  504  503  0.00000000000E+00  0.00000000000E+00  0.22461682960E+03  0.22461682960E+03  0.00000000000E+00 0. -1.
         21   -1    0    0  503  504 -0.00000000000E+00 -0.00000000000E+00 -0.20643013265E+03  0.20643013265E+03  0.00000000000E+00 0. -1.
         25    2    1    2    0    0  0.13160890694E+02  0.15186380394E+03 -0.77619230025E+02  0.21186146323E+03  0.12499884297E+03 0.  0.
         25    2    1    2    0    0 -0.13160890694E+02 -0.15186380394E+03  0.95805926975E+02  0.21918549902E+03  0.12501073293E+03 0.  0.
          5    1    3    3  501    0 -0.51476457059E+02  0.58669854266E+02 -0.77657441612E+01  0.78577186341E+02  0.47000000000E+01 0. -1.
         -5    1    3    3    0  501  0.64637347753E+02  0.93193949670E+02 -0.69853485864E+02  0.13328427689E+03  0.47000000000E+01 0. -1.
          5    1    4    4  502    0  0.15865624623E+02 -0.11904809636E+03  0.11921724367E+03  0.16928971759E+03  0.47000000000E+01 0. -1.
         -5    1    4    4    0  502 -0.29026515317E+02 -0.32815707576E+02 -0.23411316698E+02  0.49895781432E+02  0.47000000000E+01 0. -1.
<mgrwt>
<rscale>  0 0.43066313E+03</rscale>
<asrwt>0</asrwt>
<pdfrwt beam="1">  1       21 0.34556435E-01 0.43066313E+03</pdfrwt>
<pdfrwt beam="2">  1       21 0.31758482E-01 0.43066313E+03</pdfrwt>
<totfact> 0.71638625E+04</totfact>
</mgrwt>
</event>
<event>
 8    1  0.4760912E-006  0.3238659E+03  0.7546771E-02  0.1073884E+00
         21   -1    0    0  504  503  0.00000000000E+00  0.00000000000E+00  0.36805010178E+02  0.36805010178E+02  0.00000000000E+00 0. -1.
         21   -1    0    0  503  504 -0.00000000000E+00 -0.00000000000E+00 -0.71246513530E+03  0.71246513530E+03  0.00000000000E+00 0. -1.
         25    2    1    2    0    0 -0.35455555662E+02  0.96105558679E+02 -0.36124458011E+03  0.39574560620E+03  0.12499425318E+03 0.  0.
         25    2    1    2    0    0  0.35455555662E+02 -0.96105558679E+02 -0.31441554501E+03  0.35352453928E+03  0.12501635930E+03 0.  0.
          5    1    3    3  501    0 -0.76342322485E+02  0.71382864773E+02 -0.17947801421E+03  0.20774530361E+03  0.47000000000E+01 0.  1.
         -5    1    3    3    0  501  0.40886766823E+02  0.24722693906E+02 -0.18176656590E+03  0.18800030259E+03  0.47000000000E+01 0.  1.
          5    1    4    4  502    0  0.80805147421E+02 -0.76806632809E+02 -0.20415119128E+03  0.23265538806E+03  0.47000000000E+01 0. -1.
         -5    1    4    4    0  502 -0.45349591759E+02 -0.19298925870E+02 -0.11026435373E+03  0.12086915122E+03  0.47000000000E+01 0. -1.
<mgrwt>
<rscale>  0 0.32386594E+03</rscale>
<asrwt>0</asrwt>
<pdfrwt beam="1">  1       21 0.56623099E-02 0.32386594E+03</pdfrwt>
<pdfrwt beam="2">  1       21 0.10961001E+00 0.32386594E+03</pdfrwt>
<totfact> 0.13738639E+05</totfact>
</mgrwt>
</event>
<event>
 8    1  0.4760912E-006  0.2862557E+03  0.7546771E-02  0.1092320E+00
         21   -1    0    0  504  503  0.00000000000E+00  0.00000000000E+00  0.18693534947E+02  0.18693534947E+02  0.00000000000E+00 0. -1.
         21   -1    0    0  503  504 -0.00000000000E+00 -0.00000000000E+00 -0.10958647409E+04  0.10958647409E+04  0.00000000000E+00 0. -1.
         25    2    1    2    0    0 -0.11404597270E+02 -0.68739733977E+02 -0.54723223424E+03  0.56563577569E+03  0.12500198674E+03 0.  0.
         25    2    1    2    0    0  0.11404597270E+02  0.68739733977E+02 -0.52993897176E+03  0.54892250020E+03  0.12500152627E+03 0.  0.
          5    1    3    3  501    0  0.39538515770E+02 -0.53714081228E+02 -0.44821617634E+03  0.45317582403E+03  0.47000000000E+01 0.  1.
         -5    1    3    3    0  501 -0.50943113039E+02 -0.15025652749E+02 -0.99016057902E+02  0.11245995167E+03  0.47000000000E+01 0.  1.
          5    1    4    4  502    0 -0.53449319899E+02  0.11366596348E+02 -0.24583950321E+03  0.25188326790E+03  0.47000000000E+01 0. -1.
         -5    1    4    4    0  502  0.64853917169E+02  0.57373137629E+02 -0.28409946855E+03  0.29703923230E+03  0.47000000000E+01 0. -1.
<mgrwt>
<rscale>  0 0.28625573E+03</rscale>
<asrwt>0</asrwt>
<pdfrwt beam="1">  1       21 0.28759283E-02 0.28625573E+03</pdfrwt>
<pdfrwt beam="2">  1       21 0.16859458E+00 0.28625573E+03</pdfrwt>
<totfact> 0.14250619E+05</totfact>
</mgrwt>
</event>
<event>
 8    1  0.4760912E-006  0.2683421E+03  0.7546771E-02  0.1102232E+00
         21   -1    0    0  504  503  0.00000000000E+00  0.00000000000E+00  0.10796313567E+04  0.10796313567E+04  0.00000000000E+00 0. -1.
         21   -1    0    0  503  504 -0.00000000000E+00 -0.00000000000E+00 -0.16674093526E+02  0.16674093526E+02  0.00000000000E+00 0. -1.
         25    2    1    2    0    0 -0.24477291765E+02 -0.15464777558E+02  0.69167936711E+03  0.70347962893E+03  0.12499977712E+03 0.  0.
         25    2    1    2    0    0  0.24477291765E+02  0.15464777558E+02  0.37127789611E+03  0.39282582134E+03  0.12500621030E+03 0.  0.
          5    1    3    3  501    0 -0.22406228578E+02  0.33057845319E+02  0.77006926566E+02  0.86873568796E+02  0.47000000000E+01 0. -1.
         -5    1    3    3    0  501 -0.20710631878E+01 -0.48522622876E+02  0.61467244054E+03  0.61660606014E+03  0.47000000000E+01 0. -1.
          5    1    4    4  502    0  0.66950032648E+01 -0.42688093181E+02  0.27799852333E+03  0.28137584357E+03  0.47000000000E+01 0. -1.
         -5    1    4    4    0  502  0.17782288501E+02  0.58152870739E+02  0.93279372777E+02  0.11144997777E+03  0.47000000000E+01 0. -1.
<mgrwt>
<rscale>  0 0.26834213E+03</rscale>
<asrwt>0</asrwt>
<pdfrwt beam="1">  1       21 0.16609708E+00 0.26834213E+03</pdfrwt>
<pdfrwt beam="2">  1       21 0.25652460E-02 0.26834213E+03</pdfrwt>
<totfact> 0.18070867E+05</totfact>
</mgrwt>
</event>
<event>
 8    1  0.4760912E-006  0.3117704E+03  0.7546771E-02  0.1079500E+00
         21   -1    0    0  504  503  0.00000000000E+00  0.00000000000E+00  0.43499506933E+03  0.43499506933E+03  0.00000000000E+00 0.  1.
         21   -1    0    0  503  504 -0.00000000000E+00 -0.00000000000E+00 -0.55863166491E+02  0.55863166491E+02  0.00000000000E+00 0.  1.
         25    2    1    2    0    0  0.23222008284E+02 -0.71429727560E+02  0.10284124535E+03  0.17844485939E+03  0.12499911380E+03 0.  0.
         25    2    1    2    0    0 -0.23222008284E+02  0.71429727560E+02  0.27629065749E+03  0.31241337643E+03  0.12499649078E+03 0.  0.
          5    1    3    3  501    0  0.46487266404E+00  0.33361680619E+02  0.45900080866E+02  0.56939663362E+02  0.47000000000E+01 0.  1.
         -5    1    3    3    0  501  0.22757135620E+02 -0.10479140818E+03  0.56941164481E+02  0.12150519603E+03  0.47000000000E+01 0.  1.
          5    1    4    4  502    0 -0.35149547881E+02  0.94286562868E+02  0.13352133266E+03  0.16725873050E+03  0.47000000000E+01 0.  1.
         -5    1    4    4    0  502  0.11927539597E+02 -0.22856835308E+02  0.14276932483E+03  0.14515464593E+03  0.47000000000E+01 0.  1.
<mgrwt>
<rscale>  0 0.31177044E+03</rscale>
<asrwt>0</asrwt>
<pdfrwt beam="1">  1       21 0.66922316E-01 0.31177044E+03</pdfrwt>
<pdfrwt beam="2">  1       21 0.85943336E-02 0.31177044E+03</pdfrwt>
<totfact> 0.20974058E+05</totfact>
</mgrwt>
</event>
<event>
 8    1  0.4760912E-006  0.4172912E+03  0.7546771E-02  0.1037952E+00
         21   -1    0    0  504  503  0.00000000000E+00  0.00000000000E+00  0.28851504614E+03  0.28851504614E+03  0.00000000000E+00 0.  1.
         21   -1    0    0  503  504 -0.00000000000E+00 -0.00000000000E+00 -0.15088634737E+03  0.15088634737E+03  0.00000000000E+00 0.  1.
         25    2    1    2    0    0  0.62050936026E+02  0.10357523501E+03  0.19038188127E+03  0.25777647840E+03  0.12500121653E+03 0.  0.
         25    2    1    2    0    0 -0.62050936026E+02 -0.10357523501E+03 -0.52753182503E+02  0.18162491511E+03  0.12500625406E+03 0.  0.
          5    1    3    3  501    0  0.80830740387E+02  0.14616537985E+02  0.80896359675E+02  0.11538441308E+03  0.47000000000E+01 0.  1.
         -5    1    3    3    0  501 -0.18779804362E+02  0.88958697022E+02  0.10948552159E+03  0.14239206532E+03  0.47000000000E+01 0.  1.
          5    1    4    4  502    0  0.17250202283E+02 -0.10406192742E+01 -0.48661603690E+02  0.51852618458E+02  0.47000000000E+01 0.  1.
         -5    1    4    4    0  502 -0.79301138309E+02 -0.10253461573E+03 -0.40915788139E+01  0.12977229665E+03  0.47000000000E+01 0.  1.
<mgrwt>
<rscale>  0 0.41729118E+03</rscale>
<asrwt>0</asrwt>
<pdfrwt beam="1">  1       21 0.44386930E-01 0.41729118E+03</pdfrwt>
<pdfrwt beam="2">  1       21 0.23213284E-01 0.41729118E+03</pdfrwt>
<totfact> 0.79495703E+04</totfact>
</mgrwt>
</event>
<event>
 8    1  0.4760912E-006  0.2910315E+03  0.7546771E-02  0.1089812E+00
         21   -1    0    0  504  503  0.00000000000E+00  0.00000000000E+00  0.81558672918E+02  0.81558672918E+02  0.00000000000E+00 0. -1.
         21   -1    0    0  503  504 -0.00000000000E+00 -0.00000000000E+00 -0.25962691230E+03  0.25962691230E+03  0.00000000000E+00 0. -1.
         25    2    1    2    0    0 -0.91298033905E+01 -0.57346434403E+02 -0.34334481224E+02  0.14204496648E+03  0.12500379615E+03 0.  0.
         25    2    1    2    0    0  0.91298033905E+01  0.57346434403E+02 -0.14373375816E+03  0.19914061874E+03  0.12500250377E+03 0.  0.
          5    1    3    3  501    0 -0.53876547208E+02 -0.74173156574E+01 -0.48885207311E+02  0.73277229782E+02  0.47000000000E+01 0.  1.
         -5    1    3    3    0  501  0.44746743818E+02 -0.49929118745E+02  0.14550726087E+02  0.68767736699E+02  0.47000000000E+01 0.  1.
          5    1    4    4  502    0  0.12661454220E+02  0.94728285254E+02 -0.12349532054E+03  0.15622722120E+03  0.47000000000E+01 0. -1.
         -5    1    4    4    0  502 -0.35316508296E+01 -0.37381850851E+02 -0.20238437619E+02  0.42913397534E+02  0.47000000000E+01 0. -1.
<mgrwt>
<rscale>  0 0.29103145E+03</rscale>
<asrwt>0</asrwt>
<pdfrwt beam="1">  1       21 0.12547488E-01 0.29103145E+03</pdfrwt>
<pdfrwt beam="2">  1       21 0.39942602E-01 0.29103145E+03</pdfrwt>
<totfact> 0.31996249E+05</totfact>
</mgrwt>
</event>
<event>
 8    1  0.4760912E-006  0.3834626E+03  0.7546771E-02  0.1049661E+00
         21   -1    0    0  504  503  0.00000000000E+00  0.00000000000E+00  0.53171767443E+02  0.53171767443E+02  0.00000000000E+00 0. -1.
         21   -1    0    0  503  504 -0.00000000000E+00 -0.00000000000E+00 -0.69136114977E+03  0.69136114977E+03  0.00000000000E+00 0. -1.
         25    2    1    2    0    0 -0.22731269278E+02  0.86683848884E+02 -0.96808612759E+02  0.18173213019E+03  0.12499543743E+03 0.  0.
         25    2    1    2    0    0  0.22731269278E+02 -0.86683848884E+02 -0.54138076957E+03  0.56280078703E+03  0.12498315069E+03 0.  0.
          5    1    3    3  501    0 -0.29352657462E+02  0.21371846117E+02  0.24267521379E+02  0.43924217698E+02  0.47000000000E+01 0. -1.
         -5    1    3    3    0  501  0.66213881842E+01  0.65312002767E+02 -0.12107613414E+03  0.13780791249E+03  0.47000000000E+01 0. -1.
          5    1    4    4  502    0  0.74334260160E+02 -0.46068614090E+02 -0.28942448022E+03  0.30238472049E+03  0.47000000000E+01 0. -1.
         -5    1    4    4    0  502 -0.51602990882E+02 -0.40615234794E+02 -0.25195628935E+03  0.26041606653E+03  0.47000000000E+01 0. -1.
<mgrwt>
<rscale>  0 0.38346261E+03</rscale>
<asrwt>0</asrwt>
<pdfrwt beam="1">  1       21 0.81802721E-02 0.38346261E+03</pdfrwt>
<pdfrwt beam="2">  1       21 0.10636325E+00 0.38346261E+03</pdfrwt>
<totfact> 0.76615974E+04</totfact>
</mgrwt>
</event>
<event>
 8    1  0.4760912E-006  0.3386054E+03  0.7546771E-02  0.1067391E+00
         21   -1    0    0  504  503  0.00000000000E+00  0.00000000000E+00  0.17851611652E+03  0.17851611652E+03  0.00000000000E+00 0. -1.
         21   -1    0    0  503  504 -0.00000000000E+00 -0.00000000000E+00 -0.16056476537E+03  0.16056476537E+03  0.00000000000E+00 0. -1.
         25    2    1    2    0    0 -0.70006671806E+02 -0.45743557532E+02 -0.68888356117E+02  0.16541795172E+03  0.12499634391E+03 0.  0.
         25    2    1    2    0    0  0.70006671806E+02  0.45743557532E+02  0.86839707262E+02  0.17366293017E+03  0.12499708558E+03 0.  0.
          5    1    3    3  501    0 -0.30766520272E+02 -0.86957630826E+02 -0.33537321013E+02  0.98260115150E+02  0.47000000000E+01 0.  1.
         -5    1    3    3    0  501 -0.39240151533E+02  0.41214073294E+02 -0.35351035104E+02  0.67157836570E+02  0.47000000000E+01 0.  1.
          5    1    4    4  502    0  0.98915623715E+02  0.44938454830E+02  0.35220664229E+02  0.11430813849E+03  0.47000000000E+01 0. -1.
         -5    1    4    4    0  502 -0.28908951909E+02  0.80510270216E+00  0.51619043033E+02  0.59354791673E+02  0.47000000000E+01 0. -1.
<mgrwt>
<rscale>  0 0.33860537E+03</rscale>
<asrwt>0</asrwt>
<pdfrwt beam="1">  1       21 0.27464018E-01 0.33860537E+03</pdfrwt>
<pdfrwt beam="2">  1       21 0.24702271E-01 0.33860537E+03</pdfrwt>
<totfact> 0.18877418E+05</totfact>
</mgrwt>
</event>
<event>
 8    1  0.4760912E-006  0.2536068E+03  0.7546771E-02  0.1111046E+00
         21   -1    0    0  504  503  0.00000000000E+00  0.00000000000E+00  0.14325539708E+03  0.14325539708E+03  0.00000000000E+00 0.  1.
         21   -1    0    0  503  504 -0.00000000000E+00 -0.00000000000E+00 -0.11224085216E+03  0.11224085216E+03  0.00000000000E+00 0.  1.
         25    2    1    2    0    0 -0.70339508727E+01 -0.82220948573E+01 -0.29904959560E+01  0.12550262081E+03  0.12499954182E+03 0.  0.
         25    2    1    2    0    0  0.70339508727E+01  0.82220948573E+01  0.34005040882E+02  0.12999362842E+03  0.12499968527E+03 0.  0.
          5    1    3    3  501    0 -0.64344589565E+02  0.39806190125E+01  0.97065765950E+01  0.65363439040E+02  0.47000000000E+01 0.  1.
         -5    1    3    3    0  501  0.57310638692E+02 -0.12202713870E+02 -0.12697072551E+02  0.60139181774E+02  0.47000000000E+01 0.  1.
          5    1    4    4  502    0  0.38768841372E+02  0.11363128286E+02 -0.35110613772E+02  0.53730707656E+02  0.47000000000E+01 0. -1.
         -5    1    4    4    0  502 -0.31734890499E+02 -0.31410334292E+01  0.69115654654E+02  0.76262920769E+02  0.47000000000E+01 0. -1.
<mgrwt>
<rscale>  0 0.25360684E+03</rscale>
<asrwt>0</asrwt>
<pdfrwt beam="1">  1       21 0.22039292E-01 0.25360684E+03</pdfrwt>
<pdfrwt beam="2">  1       21 0.17267823E-01 0.25360684E+03</pdfrwt>
<totfact> 0.57681570E+05</totfact>
</mgrwt>
</event>
<event>
 8    1  0.4760912E-006  0.2681226E+03  0.7546771E-02  0.1102359E+00
         21   -1    0    0  504  503  0.00000000000E+00  0.00000000000E+00  0.88831077965E+02  0.88831077965E+02  0.00000000000E+00 0.  1.
         21   -1    0    0  503  504 -0.00000000000E+00 -0.00000000000E+00 -0.20232144999E+03  0.20232144999E+03  0.00000000000E+00 0.  1.
         25    2    1    2    0    0  0.19410923226E+02  0.25434793820E+02 -0.17277396073E+02  0.13019930007E+03  0.12501854521E+03 0.  0.
         25    2    1    2    0    0 -0.19410923226E+02 -0.25434793820E+02 -0.96212975950E+02  0.16095322788E+03  0.12500116858E+03 0.  0.
          5    1    3    3  501    0 -0.23734157177E+02 -0.10093626180E+01  0.44221817184E+02  0.50418133095E+02  0.47000000000E+01 0. -1.
         -5    1    3    3    0  501  0.43145080403E+02  0.26444156438E+02 -0.61499213257E+02  0.79781166975E+02  0.47000000000E+01 0. -1.
          5    1    4    4  502    0 -0.30730411628E+02 -0.43334553347E+02  0.85099183503E+01  0.54006947913E+02  0.47000000000E+01 0. -1.
         -5    1    4    4    0  502  0.11319488401E+02  0.17899759527E+02 -0.10472289430E+03  0.10694627997E+03  0.47000000000E+01 0. -1.
<mgrwt>
<rscale>  0 0.26812260E+03</rscale>
<asrwt>0</asrwt>
<pdfrwt beam="1">  1       21 0.13666320E-01 0.26812260E+03</pdfrwt>
<pdfrwt beam="2">  1       21 0.31126377E-01 0.26812260E+03</pdfrwt>
<totfact> 0.45364181E+05</totfact>
</mgrwt>
</event>
<event>
 8    1  0.4760912E-006  0.2678538E+03  0.7546771E-02  0.1102514E+00
         21   -1    0    0  504  503  0.00000000000E+00  0.00000000000E+00  0.97385834626E+02  0.97385834626E+02  0.00000000000E+00 0.  1.
         21   -1    0    0  503  504 -0.00000000000E+00 -0.00000000000E+00 -0.18417884143E+03  0.18417884143E+03  0.00000000000E+00 0.  1.
         25    2    1    2    0    0  0.31804998579E+02  0.18561382483E+02 -0.10900130979E+02  0.13076453488E+03  0.12499787148E+03 0.  0.
         25    2    1    2    0    0 -0.31804998579E+02 -0.18561382483E+02 -0.75892875827E+02  0.15080014117E+03  0.12499948449E+03 0.  0.
          5    1    3    3  501    0  0.14140077114E+02 -0.50129361560E+02  0.16113391561E+02  0.54723176614E+02  0.47000000000E+01 0.  1.
         -5    1    3    3    0  501  0.17664921466E+02  0.68690744043E+02 -0.27013522540E+02  0.76041358270E+02  0.47000000000E+01 0.  1.
          5    1    4    4  502    0  0.79884219696E+01 -0.52264412208E+02  0.61898816833E+01  0.53439576199E+02  0.47000000000E+01 0. -1.
         -5    1    4    4    0  502 -0.39793420549E+02  0.33703029725E+02 -0.82082757510E+02  0.97360564974E+02  0.47000000000E+01 0. -1.
<mgrwt>
<rscale>  0 0.26785377E+03</rscale>
<asrwt>0</asrwt>
<pdfrwt beam="1">  1       21 0.14982436E-01 0.26785377E+03</pdfrwt>
<pdfrwt beam="2">  1       21 0.28335206E-01 0.26785377E+03</pdfrwt>
<totfact> 0.46110851E+05</totfact>
</mgrwt>
</event>
<event>
 8    1  0.4760912E-006  0.3479730E+03  0.7546771E-02  0.1063450E+00
         21   -1    0    0  504  503  0.00000000000E+00  0.00000000000E+00  0.16725027721E+03  0.16725027721E+03  0.00000000000E+00 0.  1.
         21   -1    0    0  503  504 -0.00000000000E+00 -0.00000000000E+00 -0.18099406822E+03  0.18099406822E+03  0.00000000000E+00 0.  1.
         25    2    1    2    0    0 -0.31916649339E+02  0.11191003551E+03  0.26414776849E+02  0.17281239754E+03  0.12499542293E+03 0.  0.
         25    2    1    2    0    0  0.31916649339E+02 -0.11191003551E+03 -0.40158567858E+02  0.17543194789E+03  0.12498451589E+03 0.  0.
          5    1    3    3  501    0 -0.63073027222E+02  0.61178665852E+02  0.57866093063E+02  0.10531671588E+03  0.47000000000E+01 0.  1.
         -5    1    3    3    0  501  0.31156377883E+02  0.50731369660E+02 -0.31451316214E+02  0.67495681655E+02  0.47000000000E+01 0.  1.
          5    1    4    4  502    0 -0.45740367131E+02 -0.30187484045E+02 -0.28634493588E+02  0.62012011750E+02  0.47000000000E+01 0.  1.
         -5    1    4    4    0  502  0.77657016470E+02 -0.81722551467E+02 -0.11524074270E+02  0.11341993614E+03  0.47000000000E+01 0.  1.
<mgrwt>
<rscale>  0 0.34797303E+03</rscale>
<asrwt>0</asrwt>
<pdfrwt beam="1">  1       21 0.25730812E-01 0.34797303E+03</pdfrwt>
<pdfrwt beam="2">  1       21 0.27845241E-01 0.34797303E+03</pdfrwt>
<totfact> 0.16946951E+05</totfact>
</mgrwt>
</event>
<event>
 8    1  0.4760912E-006  0.2569934E+03  0.7546771E-02  0.1108963E+00
         21   -1    0    0  504  503  0.00000000000E+00  0.00000000000E+00  0.89529809504E+01  0.89529809504E+01  0.00000000000E+00 0. -1.
         21   -1    0    0  503  504 -0.00000000000E+00 -0.00000000000E+00 -0.18442349651E+04  0.18442349651E+04  0.00000000000E+00 0. -1.
         25    2    1    2    0    0 -0.19607243073E+02 -0.25152942047E+01 -0.75709576993E+03  0.76759990466E+03  0.12499935240E+03 0.  0.
         25    2    1    2    0    0  0.19607243073E+02  0.25152942047E+01 -0.10781862142E+04  0.10855880414E+04  0.12500044958E+03 0.  0.
          5    1    3    3  501    0 -0.68302203673E+02  0.13443898168E+02 -0.32203959189E+03  0.32951102891E+03  0.47000000000E+01 0. -1.
         -5    1    3    3    0  501  0.48694960601E+02 -0.15959192373E+02 -0.43505617804E+03  0.43808887576E+03  0.47000000000E+01 0. -1.
          5    1    4    4  502    0  0.28914833915E+02 -0.15805313098E+02 -0.73558593262E+02  0.80739285266E+02  0.47000000000E+01 0. -1.
         -5    1    4    4    0  502 -0.93075908421E+01  0.18320607303E+02 -0.10046276210E+04  0.10048487561E+04  0.47000000000E+01 0. -1.
<mgrwt>
<rscale>  0 0.25699339E+03</rscale>
<asrwt>0</asrwt>
<pdfrwt beam="1">  1       21 0.13773828E-02 0.25699339E+03</pdfrwt>
<pdfrwt beam="2">  1       21 0.28372822E+00 0.25699339E+03</pdfrwt>
<totfact> 0.91089498E+04</totfact>
</mgrwt>
</event>
<event>
 8    1  0.4760912E-006  0.4040623E+03  0.7546771E-02  0.1042382E+00
         21   -1    0    0  504  503  0.00000000000E+00  0.00000000000E+00  0.52814824652E+02  0.52814824652E+02  0.00000000000E+00 0. -1.
         21   -1    0    0  503  504 -0.00000000000E+00 -0.00000000000E+00 -0.77282436747E+03  0.77282436747E+03  0.00000000000E+00 0. -1.
         25    2    1    2    0    0  0.12512498461E+03  0.97648157736E+02 -0.36026788991E+03  0.41304846934E+03  0.12499864415E+03 0.  0.
         25    2    1    2    0    0 -0.12512498461E+03 -0.97648157736E+02 -0.35974165291E+03  0.41259072279E+03  0.12500249280E+03 0.  0.
          5    1    3    3  501    0  0.25707484167E+02  0.69701698657E+02 -0.60400962045E+02  0.95862233199E+02  0.47000000000E+01 0.  1.
         -5    1    3    3    0  501  0.99417500443E+02  0.27946459079E+02 -0.29986692786E+03  0.31718623614E+03  0.47000000000E+01 0.  1.
          5    1    4    4  502    0 -0.12690227253E+03 -0.50723676005E+02 -0.32895163969E+03  0.35624198143E+03  0.47000000000E+01 0.  1.
         -5    1    4    4    0  502  0.17772879168E+01 -0.46924481731E+02 -0.30790013224E+02  0.56348741356E+02  0.47000000000E+01 0.  1.
<mgrwt>
<rscale>  0 0.40406229E+03</rscale>
<asrwt>0</asrwt>
<pdfrwt beam="1">  1       21 0.81253581E-02 0.40406229E+03</pdfrwt>
<pdfrwt beam="2">  1       21 0.11889605E+00 0.40406229E+03</pdfrwt>
<totfact> 0.58493985E+04</totfact>
</mgrwt>
</event>
<event>
 8    1  0.4760912E-006  0.3896864E+03  0.7546771E-02  0.1047411E+00
         21   -1    0    0  504  503  0.00000000000E+00  0.00000000000E+00  0.24204009311E+03  0.24204009311E+03  0.00000000000E+00 0. -1.
         21   -1    0    0  503  504 -0.00000000000E+00 -0.00000000000E+00 -0.15684952307E+03  0.15684952307E+03  0.00000000000E+00 0. -1.
         25    2    1    2    0    0 -0.48710623971E+02 -0.56809104754E+02  0.17498712250E+03  0.22768824947E+03  0.12498578573E+03 0.  0.
         25    2    1    2    0    0  0.48710623971E+02  0.56809104754E+02 -0.89796552462E+02  0.17120136670E+03  0.12508592189E+03 0.  0.
          5    1    3    3  501    0 -0.48385528445E+02 -0.26010764421E+02  0.18649513648E+03  0.19447427891E+03  0.47000000000E+01 0.  1.
         -5    1    3    3    0  501 -0.32509552554E+00 -0.30798340333E+02 -0.11508013978E+02  0.33213970556E+02  0.47000000000E+01 0.  1.
          5    1    4    4  502    0  0.65738189990E+02 -0.18462516143E+02 -0.42621367009E+02  0.80629058354E+02  0.47000000000E+01 0. -1.
         -5    1    4    4    0  502 -0.17027566019E+02  0.75271620897E+02 -0.47175185454E+02  0.90572308349E+02  0.47000000000E+01 0. -1.
<mgrwt>
<rscale>  0 0.38968640E+03</rscale>
<asrwt>0</asrwt>
<pdfrwt beam="1">  1       21 0.37236937E-01 0.38968640E+03</pdfrwt>
<pdfrwt beam="2">  1       21 0.24130696E-01 0.38968640E+03</pdfrwt>
<totfact> 0.10653806E+05</totfact>
</mgrwt>
</event>
<event>
 8    1  0.4760912E-006  0.2888001E+03  0.7546771E-02  0.1090977E+00
         21   -1    0    0  504  503  0.00000000000E+00  0.00000000000E+00  0.38569205132E+02  0.38569205132E+02  0.00000000000E+00 0. -1.
         21   -1    0    0  503  504 -0.00000000000E+00 -0.00000000000E+00 -0.54062237961E+03  0.54062237961E+03  0.00000000000E+00 0. -1.
         25    2    1    2    0    0  0.12339256522E+02  0.19802363333E+02 -0.38825163830E+03  0.40854384296E+03  0.12499738452E+03 0.  0.
         25    2    1    2    0    0 -0.12339256522E+02 -0.19802363333E+02 -0.11380153618E+03  0.17064774178E+03  0.12500188516E+03 0.  0.
          5    1    3    3  501    0 -0.11380355035E+02 -0.46348420440E+02 -0.88810869060E+02  0.10093140751E+03  0.47000000000E+01 0.  1.
         -5    1    3    3    0  501  0.23719611557E+02  0.66150783773E+02 -0.29944076924E+03  0.30761243546E+03  0.47000000000E+01 0.  1.
          5    1    4    4  502    0 -0.53280974072E+02  0.30274756025E+02 -0.65211538861E+02  0.89610590061E+02  0.47000000000E+01 0.  1.
         -5    1    4    4    0  502  0.40941717551E+02 -0.50077119358E+02 -0.48589997320E+02  0.81037151719E+02  0.47000000000E+01 0.  1.
<mgrwt>
<rscale>  0 0.28880011E+03</rscale>
<asrwt>0</asrwt>
<pdfrwt beam="1">  1       21 0.59337238E-02 0.28880011E+03</pdfrwt>
<pdfrwt beam="2">  1       21 0.83172674E-01 0.28880011E+03</pdfrwt>
<totfact> 0.24646779E+05</totfact>
</mgrwt>
</event>
<event>
 8    1  0.4760912E-006  0.2715643E+03  0.7546771E-02  0.1100388E+00
         21   -1    0    0  504  503  0.00000000000E+00  0.00000000000E+00  0.15112154319E+03  0.15112154319E+03  0.00000000000E+00 0.  1.
         21   -1    0    0  503  504 -0.00000000000E+00 -0.00000000000E+00 -0.12199972082E+03  0.12199972082E+03  0.00000000000E+00 0.  1.
         25    2    1    2    0    0  0.22314497352E+02 -0.26219333416E+02  0.55076703144E+02  0.14086557765E+03  0.12499710997E+03 0.  0.
         25    2    1    2    0    0 -0.22314497352E+02  0.26219333416E+02 -0.25954880779E+02  0.13225568636E+03  0.12503007839E+03 0.  0.
          5    1    3    3  501    0 -0.48481065555E+02 -0.31492134769E+02  0.30922285027E+02  0.65730099505E+02  0.47000000000E+01 0.  1.
         -5    1    3    3    0  501  0.70795562907E+02  0.52728013532E+01  0.24154418117E+02  0.75135478145E+02  0.47000000000E+01 0.  1.
          5    1    4    4  502    0  0.11332091348E+02  0.35322976631E+02 -0.67900292063E+02  0.77515602524E+02  0.47000000000E+01 0. -1.
         -5    1    4    4    0  502 -0.33646588701E+02 -0.91036432154E+01  0.41945411284E+02  0.54740083840E+02  0.47000000000E+01 0. -1.
<mgrwt>
<rscale>  0 0.27156425E+03</rscale>
<asrwt>0</asrwt>
<pdfrwt beam="1">  1       21 0.23249468E-01 0.27156425E+03</pdfrwt>
<pdfrwt beam="2">  1       21 0.18769188E-01 0.27156425E+03</pdfrwt>
<totfact> 0.44471798E+05</totfact>
</mgrwt>
</event>
<event>
 8    1  0.4760912E-006  0.5132912E+03  0.7546771E-02  0.1010367E+00
         21   -1    0    0  504  503  0.00000000000E+00  0.00000000000E+00  0.24288609243E+03  0.24288609243E+03  0.00000000000E+00 0. -1.
         21   -1    0    0  503  504 -0.00000000000E+00 -0.00000000000E+00 -0.27118459672E+03  0.27118459672E+03  0.00000000000E+00 0. -1.
         25    2    1    2    0    0 -0.19726582200E+03  0.10603335367E+03 -0.23357947851E+02  0.25754237037E+03  0.12500240872E+03 0.  0.
         25    2    1    2    0    0  0.19726582200E+03 -0.10603335367E+03 -0.49405564419E+01  0.25652831878E+03  0.12500197045E+03 0.  0.
          5    1    3    3  501    0 -0.32748948399E+02  0.36595708237E+02  0.44516579209E+02  0.66449644898E+02  0.47000000000E+01 0.  1.
         -5    1    3    3    0  501 -0.16451687361E+03  0.69437645433E+02 -0.67874527060E+02  0.19109272547E+03  0.47000000000E+01 0.  1.
          5    1    4    4  502    0  0.17848451761E+03 -0.13038141017E+03  0.11424693472E+02  0.22137897092E+03  0.47000000000E+01 0. -1.
         -5    1    4    4    0  502  0.18781304391E+02  0.24348056501E+02 -0.16365249914E+02  0.35149347856E+02  0.47000000000E+01 0. -1.
<mgrwt>
<rscale>  0 0.51329121E+03</rscale>
<asrwt>0</asrwt>
<pdfrwt beam="1">  1       21 0.37367091E-01 0.51329121E+03</pdfrwt>
<pdfrwt beam="2">  1       21 0.41720707E-01 0.51329121E+03</pdfrwt>
<totfact> 0.34467037E+04</totfact>
</mgrwt>
</event>
<event>
 8    1  0.4760912E-006  0.2840970E+03  0.7546771E-02  0.1093472E+00
         21   -1    0    0  504  503  0.00000000000E+00  0.00000000000E+00  0.20673820160E+03  0.20673820160E+03  0.00000000000E+00 0. -1.
         21   -1    0    0  503  504 -0.00000000000E+00 -0.00000000000E+00 -0.97600587402E+02  0.97600587402E+02  0.00000000000E+00 0. -1.
         25    2    1    2    0    0 -0.31795875052E+02  0.52658741991E+01  0.11807426697E+03  0.17494418863E+03  0.12500091805E+03 0.  0.
         25    2    1    2    0    0  0.31795875052E+02 -0.52658741991E+01 -0.89366527637E+01  0.12939460038E+03  0.12499756695E+03 0.  0.
          5    1    3    3  501    0  0.77656798051E+01 -0.52049870355E+02  0.24595252660E+02  0.58279595402E+02  0.47000000000E+01 0. -1.
         -5    1    3    3    0  501 -0.39561554858E+02  0.57315744554E+02  0.93479014307E+02  0.11666459322E+03  0.47000000000E+01 0. -1.
          5    1    4    4  502    0 -0.33295532252E+02  0.30573249700E+00 -0.43780989788E+02  0.55204628493E+02  0.47000000000E+01 0. -1.
         -5    1    4    4    0  502  0.65091407304E+02 -0.55716066961E+01  0.34844337024E+02  0.74189971887E+02  0.47000000000E+01 0. -1.
<mgrwt>
<rscale>  0 0.28409695E+03</rscale>
<asrwt>0</asrwt>
<pdfrwt beam="1">  1       21 0.31805877E-01 0.28409695E+03</pdfrwt>
<pdfrwt beam="2">  1       21 0.15015475E-01 0.28409695E+03</pdfrwt>
<totfact> 0.36485476E+05</totfact>
</mgrwt>
</event>
<event>
 8    1  0.4760912E-006  0.3331886E+03  0.7546771E-02  0.1069735E+00
         21   -1    0    0  504  503  0.00000000000E+00  0.00000000000E+00  0.84620604401E+02  0.84620604401E+02  0.00000000000E+00 0. -1.
         21   -1    0    0  503  504 -0.00000000000E+00 -0.00000000000E+00 -0.32797749758E+03  0.32797749758E+03  0.00000000000E+00 0. -1.
         25    2    1    2    0    0 -0.98692989642E+02 -0.25872892326E+02 -0.17302072300E+03  0.23658132934E+03  0.12499936816E+03 0.  0.
         25    2    1    2    0    0  0.98692989642E+02  0.25872892326E+02 -0.70336170175E+02  0.17601677264E+03  0.12500005862E+03 0.  0.
          5    1    3    3  501    0 -0.11112625864E+02 -0.57409179088E+02 -0.10811308211E+03  0.12300338540E+03  0.47000000000E+01 0.  1.
         -5    1    3    3    0  501 -0.87580363778E+02  0.31536286762E+02 -0.64907640888E+02  0.11357794393E+03  0.47000000000E+01 0.  1.
          5    1    4    4  502    0  0.68630614807E+02  0.55454777348E+02 -0.92684745148E+02  0.12805446342E+03  0.47000000000E+01 0.  1.
         -5    1    4    4    0  502  0.30062374835E+02 -0.29581885021E+02  0.22348574973E+02  0.47962309217E+02  0.47000000000E+01 0.  1.
<mgrwt>
<rscale>  0 0.33318856E+03</rscale>
<asrwt>0</asrwt>
<pdfrwt beam="1">  1       21 0.13018555E-01 0.33318856E+03</pdfrwt>
<pdfrwt beam="2">  1       21 0.50458077E-01 0.33318856E+03</pdfrwt>
<totfact> 0.18258073E+05</totfact>
</mgrwt>
</event>
<event>
 8    1  0.4760912E-006  0.2852706E+03  0.7546771E-02  0.1092845E+00
         21   -1    0    0  504  503  0.00000000000E+00  0.00000000000E+00  0.36404279686E+03  0.36404279686E+03  0.00000000000E+00 0. -1.
         21   -1    0    0  503  504 -0.00000000000E+00 -0.00000000000E+00 -0.55885808442E+02  0.55885808442E+02  0.00000000000E+00 0. -1.
         25    2    1    2    0    0 -0.61703907192E+02  0.21258340464E+02  0.18565935441E+03  0.23313876196E+03  0.12499998899E+03 0.  0.
         25    2    1    2    0    0  0.61703907192E+02 -0.21258340464E+02  0.12249763400E+03  0.18678984333E+03  0.12500194412E+03 0.  0.
          5    1    3    3  501    0  0.24603250345E+02  0.44827588720E+02  0.64138388586E+02  0.82162372947E+02  0.47000000000E+01 0. -1.
         -5    1    3    3    0  501 -0.86307157536E+02 -0.23569248256E+02  0.12152096583E+03  0.15097638902E+03  0.47000000000E+01 0. -1.
          5    1    4    4  502    0  0.25302624659E+02 -0.69538598351E+02  0.39552680699E+02  0.84037753574E+02  0.47000000000E+01 0.  1.
         -5    1    4    4    0  502  0.36401282533E+02  0.48280257887E+02  0.82944953301E+02  0.10275208976E+03  0.47000000000E+01 0.  1.
<mgrwt>
<rscale>  0 0.28527058E+03</rscale>
<asrwt>0</asrwt>
<pdfrwt beam="1">  1       21 0.56006583E-01 0.28527058E+03</pdfrwt>
<pdfrwt beam="2">  1       21 0.85978169E-02 0.28527058E+03</pdfrwt>
<totfact> 0.31065726E+05</totfact>
</mgrwt>
</event>
<event>
 8    1  0.4760912E-006  0.2761636E+03  0.7546771E-02  0.1097803E+00
         21   -1    0    0  504  503  0.00000000000E+00  0.00000000000E+00  0.32422503476E+03  0.32422503476E+03  0.00000000000E+00 0. -1.
         21   -1    0    0  503  504 -0.00000000000E+00 -0.00000000000E+00 -0.58806640594E+02  0.58806640594E+02  0.00000000000E+00 0. -1.
         25    2    1    2    0    0 -0.48876109717E+02  0.23205104764E+02  0.16408009034E+03  0.21325470926E+03  0.12501177539E+03 0.  0.
         25    2    1    2    0    0  0.48876109717E+02 -0.23205104764E+02  0.10133830383E+03  0.16977696610E+03  0.12500966125E+03 0.  0.
          5    1    3    3  501    0  0.24493253959E+02  0.39848858852E+01 -0.68714426817E+01  0.26174520617E+02  0.47000000000E+01 0.  1.
         -5    1    3    3    0  501 -0.73369363676E+02  0.19220218878E+02  0.17095153302E+03  0.18708018864E+03  0.47000000000E+01 0.  1.
          5    1    4    4  502    0  0.23572895800E+02 -0.50330663028E+02 -0.60139536901E+01  0.56099150584E+02  0.47000000000E+01 0. -1.
         -5    1    4    4    0  502  0.25303213917E+02  0.27125558264E+02  0.10735225752E+03  0.11367781552E+03  0.47000000000E+01 0. -1.
<mgrwt>
<rscale>  0 0.27616361E+03</rscale>
<asrwt>0</asrwt>
<pdfrwt beam="1">  1       21 0.49880774E-01 0.27616361E+03</pdfrwt>
<pdfrwt beam="2">  1       21 0.90471756E-02 0.27616361E+03</pdfrwt>
<totfact> 0.36371826E+05</totfact>
</mgrwt>
</event>
<event>
 8    1  0.4760912E-006  0.4741886E+03  0.7546771E-02  0.1020745E+00
         21   -1    0    0  504  503  0.00000000000E+00  0.00000000000E+00  0.44926297146E+02  0.44926297146E+02  0.00000000000E+00 0.  1.
         21   -1    0    0  503  504 -0.00000000000E+00 -0.00000000000E+00 -0.12512430418E+04  0.12512430418E+04  0.00000000000E+00 0.  1.
         25    2    1    2    0    0 -0.12268437952E+03  0.14137828881E+03 -0.80679173160E+03  0.83760277646E+03  0.12500494160E+03 0.  0.
         25    2    1    2    0    0  0.12268437952E+03 -0.14137828881E+03 -0.39952501302E+03  0.45856656246E+03  0.12499511449E+03 0.  0.
          5    1    3    3  501    0 -0.27977997135E+02  0.11406371143E+02 -0.38430763421E+03  0.38552214118E+03  0.47000000000E+01 0. -1.
         -5    1    3    3    0  501 -0.94706382389E+02  0.12997191767E+03 -0.42248409738E+03  0.45208063527E+03  0.47000000000E+01 0. -1.
          5    1    4    4  502    0 -0.86020076936E+01 -0.39869853383E+02 -0.22988617669E+02  0.47054928408E+02  0.47000000000E+01 0.  1.
         -5    1    4    4    0  502  0.13128638722E+03 -0.10150843543E+03 -0.37653639535E+03  0.41151163405E+03  0.47000000000E+01 0.  1.
<mgrwt>
<rscale>  0 0.47418864E+03</rscale>
<asrwt>0</asrwt>
<pdfrwt beam="1">  1       21 0.69117382E-02 0.47418864E+03</pdfrwt>
<pdfrwt beam="2">  1       21 0.19249893E+00 0.47418864E+03</pdfrwt>
<totfact> 0.20380075E+04</totfact>
</mgrwt>
</event>
<event>
 8    1  0.4760912E-006  0.4337209E+03  0.7546771E-02  0.1032691E+00
         21   -1    0    0  504  503  0.00000000000E+00  0.00000000000E+00  0.49434315720E+03  0.49434315720E+03  0.00000000000E+00 0. -1.
         21   -1    0    0  503  504 -0.00000000000E+00 -0.00000000000E+00 -0.95133205033E+02  0.95133205033E+02  0.00000000000E+00 0. -1.
         25    2    1    2    0    0 -0.10675461753E+03 -0.14105813995E+03  0.18535869235E+03  0.28509280911E+03  0.12500447097E+03 0.  0.
         25    2    1    2    0    0  0.10675461753E+03  0.14105813995E+03  0.21385125982E+03  0.30438355313E+03  0.12499215527E+03 0.  0.
          5    1    3    3  501    0  0.24808551734E+02 -0.44450228031E+02  0.62500660059E+02  0.80744718211E+02  0.47000000000E+01 0. -1.
         -5    1    3    3    0  501 -0.13156316927E+03 -0.96607911922E+02  0.12285803229E+03  0.20434809090E+03  0.47000000000E+01 0. -1.
          5    1    4    4  502    0  0.11030317890E+03  0.12656157310E+03  0.11323026624E+03  0.20255321833E+03  0.47000000000E+01 0.  1.
         -5    1    4    4    0  502 -0.35485613634E+01  0.14496566852E+02  0.10062099358E+03  0.10183033480E+03  0.47000000000E+01 0.  1.
<mgrwt>
<rscale>  0 0.43372087E+03</rscale>
<asrwt>0</asrwt>
<pdfrwt beam="1">  1       21 0.76052792E-01 0.43372087E+03</pdfrwt>
<pdfrwt beam="2">  1       21 0.14635878E-01 0.43372087E+03</pdfrwt>
<totfact> 0.58494425E+04</totfact>
</mgrwt>
</event>
<event>
 8    1  0.4760912E-006  0.2632254E+03  0.7546771E-02  0.1105221E+00
         21   -1    0    0  504  503  0.00000000000E+00  0.00000000000E+00  0.20591445087E+03  0.20591445087E+03  0.00000000000E+00 0.  1.
         21   -1    0    0  503  504 -0.00000000000E+00 -0.00000000000E+00 -0.84121872517E+02  0.84121872517E+02  0.00000000000E+00 0.  1.
         25    2    1    2    0    0 -0.21204989719E+02 -0.96861116393E+01  0.23498265925E+02  0.12930276492E+03  0.12499425653E+03 0.  0.
         25    2    1    2    0    0  0.21204989719E+02  0.96861116393E+01  0.98294312423E+02  0.16073355846E+03  0.12502012884E+03 0.  0.
          5    1    3    3  501    0 -0.53220470174E+02 -0.38122403481E+02 -0.19467894108E+02  0.68460389962E+02  0.47000000000E+01 0. -1.
         -5    1    3    3    0  501  0.32015480455E+02  0.28436291842E+02  0.42966160033E+02  0.60842374958E+02  0.47000000000E+01 0. -1.
          5    1    4    4  502    0  0.13209233886E+02  0.47384977626E+02 -0.56862232546E+01  0.49741764137E+02  0.47000000000E+01 0.  1.
         -5    1    4    4    0  502  0.79957558322E+01 -0.37698865987E+02  0.10398053568E+03  0.11099179433E+03  0.47000000000E+01 0.  1.
<mgrwt>
<rscale>  0 0.26322545E+03</rscale>
<asrwt>0</asrwt>
<pdfrwt beam="1">  1       21 0.31679146E-01 0.26322545E+03</pdfrwt>
<pdfrwt beam="2">  1       21 0.12941827E-01 0.26322545E+03</pdfrwt>
<totfact> 0.48414919E+05</totfact>
</mgrwt>
</event>
<event>
 8    1  0.4760912E-006  0.2798793E+03  0.7546771E-02  0.1095755E+00
         21   -1    0    0  504  503  0.00000000000E+00  0.00000000000E+00  0.61176819020E+03  0.61176819020E+03  0.00000000000E+00 0.  1.
         21   -1    0    0  503  504 -0.00000000000E+00 -0.00000000000E+00 -0.32010655371E+02  0.32010655371E+02  0.00000000000E+00 0.  1.
         25    2    1    2    0    0 -0.43525873787E+02 -0.30881003436E+02  0.36651899735E+03  0.39090691110E+03  0.12499559858E+03 0.  0.
         25    2    1    2    0    0  0.43525873787E+02  0.30881003436E+02  0.21323853748E+03  0.25287193447E+03  0.12500161325E+03 0.  0.
          5    1    3    3  501    0 -0.12879638528E+02 -0.45356164386E+02  0.34948833676E+03  0.35268577271E+03  0.47000000000E+01 0.  1.
         -5    1    3    3    0  501 -0.30646235259E+02  0.14475160951E+02  0.17030660592E+02  0.38221138396E+02  0.47000000000E+01 0.  1.
          5    1    4    4  502    0 -0.15916506881E+02 -0.37761417359E+02  0.96162235489E+02  0.10463520137E+03  0.47000000000E+01 0.  1.
         -5    1    4    4    0  502  0.59442380668E+02  0.68642420795E+02  0.11707630199E+03  0.14823673310E+03  0.47000000000E+01 0.  1.
<mgrwt>
<rscale>  0 0.27987926E+03</rscale>
<asrwt>0</asrwt>
<pdfrwt beam="1">  1       21 0.94118175E-01 0.27987926E+03</pdfrwt>
<pdfrwt beam="2">  1       21 0.49247167E-02 0.27987926E+03</pdfrwt>
<totfact> 0.25492969E+05</totfact>
</mgrwt>
</event>
<event>
 8    1  0.4760912E-006  0.2897759E+03  0.7546771E-02  0.1090466E+00
         21   -1    0    0  504  503  0.00000000000E+00  0.00000000000E+00  0.35016163543E+03  0.35016163543E+03  0.00000000000E+00 0.  1.
         21   -1    0    0  503  504 -0.00000000000E+00 -0.00000000000E+00 -0.59950944754E+02  0.59950944754E+02  0.00000000000E+00 0.  1.
         25    2    1    2    0    0 -0.44656492857E+02  0.18159354495E+02  0.67025114923E+02  0.14980162055E+03  0.12499677988E+03 0.  0.
         25    2    1    2    0    0  0.44656492857E+02 -0.18159354495E+02  0.22318557575E+03  0.26031095963E+03  0.12500411981E+03 0.  0.
          5    1    3    3  501    0 -0.42780585724E+02 -0.49714699643E+02  0.29363491605E+02  0.72014127189E+02  0.47000000000E+01 0. -1.
         -5    1    3    3    0  501 -0.18759071329E+01  0.67874054138E+02  0.37661623318E+02  0.77787493363E+02  0.47000000000E+01 0. -1.
          5    1    4    4  502    0 -0.12119836071E+02  0.30654348580E+02  0.15628240766E+03  0.15979005118E+03  0.47000000000E+01 0.  1.
         -5    1    4    4    0  502  0.56776328928E+02 -0.48813703075E+02  0.66903168093E+02  0.10052090845E+03  0.47000000000E+01 0.  1.
<mgrwt>
<rscale>  0 0.28977592E+03</rscale>
<asrwt>0</asrwt>
<pdfrwt beam="1">  1       21 0.53871020E-01 0.28977592E+03</pdfrwt>
<pdfrwt beam="2">  1       21 0.92232225E-02 0.28977592E+03</pdfrwt>
<totfact> 0.29786341E+05</totfact>
</mgrwt>
</event>
<event>
 8    1  0.4760912E-006  0.2854832E+03  0.7546771E-02  0.1092731E+00
         21   -1    0    0  504  503  0.00000000000E+00  0.00000000000E+00  0.11365630100E+03  0.11365630100E+03  0.00000000000E+00 0.  1.
         21   -1    0    0  503  504 -0.00000000000E+00 -0.00000000000E+00 -0.17926997189E+03  0.17926997189E+03  0.00000000000E+00 0.  1.
         25    2    1    2    0    0  0.12563397626E+02  0.59605849366E+02  0.27438586659E+00  0.13905290371E+03  0.12499975401E+03 0.  0.
         25    2    1    2    0    0 -0.12563397626E+02 -0.59605849366E+02 -0.65888056754E+02  0.15387336918E+03  0.12500032593E+03 0.  0.
          5    1    3    3  501    0 -0.54197912618E+02  0.92079569976E+01 -0.24374099744E+01  0.55228897975E+02  0.47000000000E+01 0.  1.
         -5    1    3    3    0  501  0.66761310243E+02  0.50397892369E+02  0.27117958410E+01  0.83824005734E+02  0.47000000000E+01 0.  1.
          5    1    4    4  502    0  0.23538459927E+02 -0.80946751189E+02 -0.11770669529E+02  0.85247136521E+02  0.47000000000E+01 0.  1.
         -5    1    4    4    0  502 -0.36101857553E+02  0.21340901823E+02 -0.54117387225E+02  0.68626232663E+02  0.47000000000E+01 0.  1.
<mgrwt>
<rscale>  0 0.28548318E+03</rscale>
<asrwt>0</asrwt>
<pdfrwt beam="1">  1       21 0.17485585E-01 0.28548318E+03</pdfrwt>
<pdfrwt beam="2">  1       21 0.27579995E-01 0.28548318E+03</pdfrwt>
<totfact> 0.36419369E+05</totfact>
</mgrwt>
</event>
<event>
 8    1  0.4760912E-006  0.2634657E+03  0.7546771E-02  0.1105079E+00
         21   -1    0    0  504  503  0.00000000000E+00  0.00000000000E+00  0.43434608715E+02  0.43434608715E+02  0.00000000000E+00 0. -1.
         21   -1    0    0  503  504 -0.00000000000E+00 -0.00000000000E+00 -0.39953252454E+03  0.39953252454E+03  0.00000000000E+00 0. -1.
         25    2    1    2    0    0  0.63209063068E+01 -0.19319577477E+02 -0.23901648982E+03  0.27049568194E+03  0.12500332641E+03 0.  0.
         25    2    1    2    0    0 -0.63209063068E+01  0.19319577477E+02 -0.11708142600E+03  0.17247145131E+03  0.12500056508E+03 0.  0.
          5    1    3    3  501    0 -0.23112388583E+02 -0.51229954496E+02 -0.46519877471E+02  0.73108684461E+02  0.47000000000E+01 0.  1.
         -5    1    3    3    0  501  0.29433294889E+02  0.31910377019E+02 -0.19249661235E+03  0.19738699748E+03  0.47000000000E+01 0.  1.
          5    1    4    4  502    0  0.22209856473E+02  0.65932236100E+02 -0.80684794031E+02  0.10664175294E+03  0.47000000000E+01 0. -1.
         -5    1    4    4    0  502 -0.28530762780E+02 -0.46612658623E+02 -0.36396631971E+02  0.65829698371E+02  0.47000000000E+01 0. -1.
<mgrwt>
<rscale>  0 0.26346566E+03</rscale>
<asrwt>0</asrwt>
<pdfrwt beam="1">  1       21 0.66822476E-02 0.26346566E+03</pdfrwt>
<pdfrwt beam="2">  1       21 0.61466541E-01 0.26346566E+03</pdfrwt>
<totfact> 0.39670430E+05</totfact>
</mgrwt>
</event>
<event>
 8    1  0.4760912E-006  0.2806539E+03  0.7546771E-02  0.1095332E+00
         21   -1    0    0  504  503  0.00000000000E+00  0.00000000000E+00  0.44146074592E+03  0.44146074592E+03  0.00000000000E+00 0.  1.
         21   -1    0    0  503  504 -0.00000000000E+00 -0.00000000000E+00 -0.44605686642E+02  0.44605686642E+02  0.00000000000E+00 0.  1.
         25    2    1    2    0    0 -0.22749830588E+02 -0.16230848812E+02  0.99119271330E+02  0.16191772340E+03  0.12494688455E+03 0.  0.
         25    2    1    2    0    0  0.22749830588E+02  0.16230848812E+02  0.29773578794E+03  0.32414870916E+03  0.12507913887E+03 0.  0.
          5    1    3    3  501    0 -0.35903137848E+02  0.46617099194E+02  0.69106334136E+02  0.90884347730E+02  0.47000000000E+01 0.  1.
         -5    1    3    3    0  501  0.13153307259E+02 -0.62847948006E+02  0.30012937194E+02  0.71033375672E+02  0.47000000000E+01 0.  1.
          5    1    4    4  502    0 -0.17973150916E+02  0.96410737979E+01 -0.24789310071E+01  0.21076516713E+02  0.47000000000E+01 0. -1.
         -5    1    4    4    0  502  0.40722981504E+02  0.65897750139E+01  0.30021471895E+03  0.30307219244E+03  0.47000000000E+01 0. -1.
<mgrwt>
<rscale>  0 0.28065395E+03</rscale>
<asrwt>0</asrwt>
<pdfrwt beam="1">  1       21 0.67917035E-01 0.28065395E+03</pdfrwt>
<pdfrwt beam="2">  1       21 0.68624136E-02 0.28065395E+03</pdfrwt>
<totfact> 0.30323000E+05</totfact>
</mgrwt>
</event>
<event>
 8    1  0.4760912E-006  0.2831611E+03  0.7546771E-02  0.1093975E+00
         21   -1    0    0  504  503  0.00000000000E+00  0.00000000000E+00  0.22311080866E+04  0.22311080866E+04  0.00000000000E+00 0. -1.
         21   -1    0    0  503  504 -0.00000000000E+00 -0.00000000000E+00 -0.89843503761E+01  0.89843503761E+01  0.00000000000E+00 0. -1.
         25    2    1    2    0    0  0.24908550193E+02  0.96652272224E+01  0.62947307295E+03  0.64232066974E+03  0.12500256282E+03 0.  0.
         25    2    1    2    0    0 -0.24908550193E+02 -0.96652272224E+01  0.15926506633E+04  0.15977717673E+04  0.12499852987E+03 0.  0.
          5    1    3    3  501    0  0.26030416031E+02  0.64671438580E+02  0.28438647973E+03  0.29284422033E+03  0.47000000000E+01 0.  1.
         -5    1    3    3    0  501 -0.11218658379E+01 -0.55006211358E+02  0.34508659322E+03  0.34947644941E+03  0.47000000000E+01 0.  1.
          5    1    4    4  502    0 -0.74809967469E+02 -0.13154734194E+02  0.10740998284E+04  0.10767925100E+04  0.47000000000E+01 0.  1.
         -5    1    4    4    0  502  0.49901417276E+02  0.34895069714E+01  0.51855083494E+03  0.52097925729E+03  0.47000000000E+01 0.  1.
<mgrwt>
<rscale>  0 0.28316113E+03</rscale>
<asrwt>0</asrwt>
<pdfrwt beam="1">  1       21 0.34324696E+00 0.28316113E+03</pdfrwt>
<pdfrwt beam="2">  1       21 0.13822095E-02 0.28316113E+03</pdfrwt>
<totfact> 0.39694911E+04</totfact>
</mgrwt>
</event>
<event>
 8    1  0.4760912E-006  0.2559047E+03  0.7546771E-02  0.1109629E+00
         21   -1    0    0  504  503  0.00000000000E+00  0.00000000000E+00  0.66899092785E+03  0.66899092785E+03  0.00000000000E+00 0.  1.
         21   -1    0    0  503  504 -0.00000000000E+00 -0.00000000000E+00 -0.24472377188E+02  0.24472377188E+02  0.00000000000E+00 0.  1.
         25    2    1    2    0    0 -0.18875273703E+01 -0.93963954747E+01  0.39200485000E+03  0.41154216826E+03  0.12492917524E+03 0.  0.
         25    2    1    2    0    0  0.18875273703E+01  0.93963954747E+01  0.25251370066E+03  0.28192113678E+03  0.12499801331E+03 0.  0.
          5    1    3    3  501    0 -0.47008542519E+02 -0.37362972560E+02  0.29277991569E+03  0.29891129758E+03  0.47000000000E+01 0.  1.
         -5    1    3    3    0  501  0.45121015148E+02  0.27966577086E+02  0.99224934302E+02  0.11263087068E+03  0.47000000000E+01 0.  1.
          5    1    4    4  502    0 -0.53908694856E+02  0.13733626620E+02  0.62605515884E+02  0.83882659115E+02  0.47000000000E+01 0.  1.
         -5    1    4    4    0  502  0.55796222226E+02 -0.43372311454E+01  0.18990818478E+03  0.19803847766E+03  0.47000000000E+01 0.  1.
<mgrwt>
<rscale>  0 0.25590466E+03</rscale>
<asrwt>0</asrwt>
<pdfrwt beam="1">  1       21 0.10292167E+00 0.25590466E+03</pdfrwt>
<pdfrwt beam="2">  1       21 0.37649816E-02 0.25590466E+03</pdfrwt>
<totfact> 0.32657313E+05</totfact>
</mgrwt>
</event>
<event>
 8    1  0.4760912E-006  0.3417575E+03  0.7546771E-02  0.1066050E+00
         21   -1    0    0  504  503  0.00000000000E+00  0.00000000000E+00  0.24262149099E+03  0.24262149099E+03  0.00000000000E+00 0. -1.
         21   -1    0    0  503  504 -0.00000000000E+00 -0.00000000000E+00 -0.12035018170E+03  0.12035018170E+03  0.00000000000E+00 0. -1.
         25    2    1    2    0    0  0.42696684417E+01  0.85737735607E+02 -0.22529121933E+02  0.15330485936E+03  0.12500251674E+03 0.  0.
         25    2    1    2    0    0 -0.42696684417E+01 -0.85737735607E+02  0.14480043123E+03  0.20966681333E+03  0.12499527332E+03 0.  0.
          5    1    3    3  501    0 -0.29452299443E+02 -0.21507285702E+02 -0.17368905591E+02  0.40666573032E+02  0.47000000000E+01 0.  1.
         -5    1    3    3    0  501  0.33721967885E+02  0.10724502131E+03 -0.51602163415E+01  0.11263828633E+03  0.47000000000E+01 0.  1.
          5    1    4    4  502    0 -0.24792864954E+02 -0.72565648750E+02  0.15977610958E+02  0.78471864914E+02  0.47000000000E+01 0. -1.
         -5    1    4    4    0  502  0.20523196512E+02 -0.13172086857E+02  0.12882282027E+03  0.13119494842E+03  0.47000000000E+01 0. -1.
<mgrwt>
<rscale>  0 0.34175746E+03</rscale>
<asrwt>0</asrwt>
<pdfrwt beam="1">  1       21 0.37326383E-01 0.34175746E+03</pdfrwt>
<pdfrwt beam="2">  1       21 0.18515413E-01 0.34175746E+03</pdfrwt>
<totfact> 0.17737489E+05</totfact>
</mgrwt>
</event>
<event>
 8    1  0.4760912E-006  0.2628843E+03  0.7546771E-02  0.1105423E+00
         21   -1    0    0  504  503  0.00000000000E+00  0.00000000000E+00  0.14782359099E+03  0.14782359099E+03  0.00000000000E+00 0.  1.
         21   -1    0    0  503  504 -0.00000000000E+00 -0.00000000000E+00 -0.11687602497E+03  0.11687602497E+03  0.00000000000E+00 0.  1.
         25    2    1    2    0    0  0.14443493207E+02  0.21418045298E+02  0.47084335510E+02  0.13604819959E+03  0.12499932320E+03 0.  0.
         25    2    1    2    0    0 -0.14443493207E+02 -0.21418045298E+02 -0.16136769486E+02  0.12865141637E+03  0.12499377762E+03 0.  0.
          5    1    3    3  501    0  0.38062804704E+01  0.20790861125E+02 -0.41442769462E+02  0.46758323516E+02  0.47000000000E+01 0. -1.
         -5    1    3    3    0  501  0.10637212737E+02  0.62718417281E+00  0.88527104972E+02  0.89289876075E+02  0.47000000000E+01 0. -1.
          5    1    4    4  502    0  0.33491049185E+02  0.29588271070E+02 -0.33894927784E+02  0.56285631292E+02  0.47000000000E+01 0. -1.
         -5    1    4    4    0  502 -0.47934542392E+02 -0.51006316368E+02  0.17758158299E+02  0.72365785078E+02  0.47000000000E+01 0. -1.
<mgrwt>
<rscale>  0 0.26288426E+03</rscale>
<asrwt>0</asrwt>
<pdfrwt beam="1">  1       21 0.22742091E-01 0.26288426E+03</pdfrwt>
<pdfrwt beam="2">  1       21 0.17980927E-01 0.26288426E+03</pdfrwt>
<totfact> 0.50325966E+05</totfact>
</mgrwt>
</event>
<event>
 8    1  0.4760912E-006  0.2999547E+03  0.7546771E-02  0.1085263E+00
         21   -1    0    0  504  503  0.00000000000E+00  0.00000000000E+00  0.13372323537E+03  0.13372323537E+03  0.00000000000E+00 0. -1.
         21   -1    0    0  503  504 -0.00000000000E+00 -0.00000000000E+00 -0.16820719304E+03  0.16820719304E+03  0.00000000000E+00 0. -1.
         25    2    1    2    0    0 -0.70571572859E+02  0.13439014007E+02  0.24334821614E+02  0.14621325612E+03  0.12500071491E+03 0.  0.
         25    2    1    2    0    0  0.70571572859E+02 -0.13439014007E+02 -0.58818779282E+02  0.15571717229E+03  0.12500893950E+03 0.  0.
          5    1    3    3  501    0 -0.69326125216E+02 -0.34328329474E+02  0.49542518352E+02  0.91984221292E+02  0.47000000000E+01 0.  1.
         -5    1    3    3    0  501 -0.12454476423E+01  0.47767343481E+02 -0.25207696738E+02  0.54229034824E+02  0.47000000000E+01 0.  1.
          5    1    4    4  502    0  0.99594824339E+02 -0.20460985911E+02 -0.15593698674E+02  0.10297103679E+03  0.47000000000E+01 0. -1.
         -5    1    4    4    0  502 -0.29023251480E+02  0.70219719045E+01 -0.43225080608E+02  0.52746135494E+02  0.47000000000E+01 0. -1.
<mgrwt>
<rscale>  0 0.29995473E+03</rscale>
<asrwt>0</asrwt>
<pdfrwt beam="1">  1       21 0.20572806E-01 0.29995473E+03</pdfrwt>
<pdfrwt beam="2">  1       21 0.25878030E-01 0.29995473E+03</pdfrwt>
<totfact> 0.30293985E+05</totfact>
</mgrwt>
</event>
<event>
 8    1  0.4760912E-006  0.3368176E+03  0.7546771E-02  0.1068160E+00
         21   -1    0    0  504  503  0.00000000000E+00  0.00000000000E+00  0.17564967995E+03  0.17564967995E+03  0.00000000000E+00 0.  1.
         21   -1    0    0  503  504 -0.00000000000E+00 -0.00000000000E+00 -0.16146639929E+03  0.16146639929E+03  0.00000000000E+00 0.  1.
         25    2    1    2    0    0  0.22226733248E+02  0.81936894316E+02  0.81520233805E+02  0.17169145787E+03  0.12499890345E+03 0.  0.
         25    2    1    2    0    0 -0.22226733248E+02 -0.81936894316E+02 -0.67336953141E+02  0.16542462137E+03  0.12499343093E+03 0.  0.
          5    1    3    3  501    0  0.51477474020E+02 -0.11599265543E+02  0.27589035703E+02  0.59730379069E+02  0.47000000000E+01 0.  1.
         -5    1    3    3    0  501 -0.29250740772E+02  0.93536159859E+02  0.53931198101E+02  0.11196107880E+03  0.47000000000E+01 0.  1.
          5    1    4    4  502    0  0.12802044257E+02 -0.10693977678E+03 -0.48315572285E+02  0.11813760079E+03  0.47000000000E+01 0. -1.
         -5    1    4    4    0  502 -0.35028777505E+02  0.25002882468E+02 -0.19021380856E+02  0.47287020575E+02  0.47000000000E+01 0. -1.
<mgrwt>
<rscale>  0 0.33681758E+03</rscale>
<asrwt>0</asrwt>
<pdfrwt beam="1">  1       21 0.27023028E-01 0.33681758E+03</pdfrwt>
<pdfrwt beam="2">  1       21 0.24840985E-01 0.33681758E+03</pdfrwt>
<totfact> 0.19280930E+05</totfact>
</mgrwt>
</event>
<event>
 8    1  0.4760912E-006  0.3011554E+03  0.7546771E-02  0.1084664E+00
         21   -1    0    0  504  503  0.00000000000E+00  0.00000000000E+00  0.33404066488E+02  0.33404066488E+02  0.00000000000E+00 0. -1.
         21   -1    0    0  503  504 -0.00000000000E+00 -0.00000000000E+00 -0.67876903563E+03  0.67876903563E+03  0.00000000000E+00 0. -1.
         25    2    1    2    0    0 -0.11644796096E+02 -0.63648789144E+02 -0.44922292875E+03  0.47075757364E+03  0.12499873516E+03 0.  0.
         25    2    1    2    0    0  0.11644796096E+02  0.63648789144E+02 -0.19614204039E+03  0.24141552847E+03  0.12499195072E+03 0.  0.
          5    1    3    3  501    0  0.31158828672E+02 -0.81029582320E+02 -0.21384675779E+03  0.23084451831E+03  0.47000000000E+01 0.  1.
         -5    1    3    3    0  501 -0.42803624768E+02  0.17380793175E+02 -0.23537617096E+03  0.23991305533E+03  0.47000000000E+01 0.  1.
          5    1    4    4  502    0  0.67111014871E+02  0.20546738017E+02 -0.97307213985E+02  0.12007014889E+03  0.47000000000E+01 0.  1.
         -5    1    4    4    0  502 -0.55466218775E+02  0.43102051127E+02 -0.98834826406E+02  0.12134537959E+03  0.47000000000E+01 0.  1.
<mgrwt>
<rscale>  0 0.30115542E+03</rscale>
<asrwt>0</asrwt>
<pdfrwt beam="1">  1       21 0.51390873E-02 0.30115542E+03</pdfrwt>
<pdfrwt beam="2">  1       21 0.10442600E+00 0.30115542E+03</pdfrwt>
<totfact> 0.18379224E+05</totfact>
</mgrwt>
</event>
<event>
 8    1  0.4760912E-006  0.3174686E+03  0.7546771E-02  0.1076820E+00
         21   -1    0    0  504  503  0.00000000000E+00  0.00000000000E+00  0.12047136417E+02  0.12047136417E+02  0.00000000000E+00 0.  1.
         21   -1    0    0  503  504 -0.00000000000E+00 -0.00000000000E+00 -0.20914994143E+04  0.20914994143E+04  0.00000000000E+00 0.  1.
         25    2    1    2    0    0 -0.97051946365E+02 -0.28523924024E+01 -0.95998742883E+03  0.97294812982E+03  0.12499993349E+03 0.  0.
         25    2    1    2    0    0  0.97051946365E+02  0.28523924024E+01 -0.11194648490E+04  0.11305984209E+04  0.12499609848E+03 0.  0.
          5    1    3    3  501    0 -0.10804143156E+03 -0.10214055970E+02 -0.94880020432E+03  0.95499800816E+03  0.47000000000E+01 0. -1.
         -5    1    3    3    0  501  0.10989485195E+02  0.73616635671E+01 -0.11187224508E+02  0.17950121657E+02  0.47000000000E+01 0. -1.
          5    1    4    4  502    0  0.80414188427E+02  0.56915508537E+02 -0.80872478712E+03  0.81471693742E+03  0.47000000000E+01 0.  1.
         -5    1    4    4    0  502  0.16637757938E+02 -0.54063116134E+02 -0.31074006189E+03  0.31588148344E+03  0.47000000000E+01 0.  1.
<mgrwt>
<rscale>  0 0.31746860E+03</rscale>
<asrwt>0</asrwt>
<pdfrwt beam="1">  1       21 0.18534040E-02 0.31746860E+03</pdfrwt>
<pdfrwt beam="2">  1       21 0.32176942E+00 0.31746860E+03</pdfrwt>
<totfact> 0.32341298E+04</totfact>
</mgrwt>
</event>
<event>
 8    1  0.4760912E-006  0.3645544E+03  0.7546771E-02  0.1056795E+00
         21   -1    0    0  504  503  0.00000000000E+00  0.00000000000E+00  0.30049803117E+03  0.30049803117E+03  0.00000000000E+00 0.  1.
         21   -1    0    0  503  504 -0.00000000000E+00 -0.00000000000E+00 -0.11056634700E+03  0.11056634700E+03  0.00000000000E+00 0.  1.
         25    2    1    2    0    0 -0.11064790418E+03 -0.72267257847E+02  0.81922885017E+02  0.19950290952E+03  0.12499814623E+03 0.  0.
         25    2    1    2    0    0  0.11064790418E+03  0.72267257847E+02  0.10800879914E+03  0.21156146865E+03  0.12500735606E+03 0.  0.
          5    1    3    3  501    0  0.56379958022E+01 -0.48760724507E+02 -0.87861695063E+01  0.50086745011E+02  0.47000000000E+01 0.  1.
         -5    1    3    3    0  501 -0.11628589998E+03 -0.23506533339E+02  0.90709054523E+02  0.14941616451E+03  0.47000000000E+01 0.  1.
          5    1    4    4  502    0  0.21289594892E+02  0.65278499715E+02  0.10007622051E+03  0.12145727351E+03  0.47000000000E+01 0. -1.
         -5    1    4    4    0  502  0.89358309288E+02  0.69887581317E+01  0.79325786321E+01  0.90104195145E+02  0.47000000000E+01 0. -1.
<mgrwt>
<rscale>  0 0.36455436E+03</rscale>
<asrwt>0</asrwt>
<pdfrwt beam="1">  1       21 0.46230466E-01 0.36455436E+03</pdfrwt>
<pdfrwt beam="2">  1       21 0.17010207E-01 0.36455436E+03</pdfrwt>
<totfact> 0.13314950E+05</totfact>
</mgrwt>
</event>
<event>
 8    1  0.4760912E-006  0.3380423E+03  0.7546771E-02  0.1067633E+00
         21   -1    0    0  504  503  0.00000000000E+00  0.00000000000E+00  0.22175840849E+03  0.22175840849E+03  0.00000000000E+00 0.  1.
         21   -1    0    0  503  504 -0.00000000000E+00 -0.00000000000E+00 -0.12882551643E+03  0.12882551643E+03  0.00000000000E+00 0.  1.
         25    2    1    2    0    0 -0.27378769295E+02 -0.29980384247E+02 -0.63759452395E+02  0.14607267781E+03  0.12499415581E+03 0.  0.
         25    2    1    2    0    0  0.27378769295E+02  0.29980384247E+02  0.15669234446E+03  0.20451124710E+03  0.12499575566E+03 0.  0.
          5    1    3    3  501    0 -0.65441798064E+02  0.15254404171E+02 -0.53199991541E+02  0.85835044594E+02  0.47000000000E+01 0.  1.
         -5    1    3    3    0  501  0.38063028770E+02 -0.45234788418E+02 -0.10559460854E+02  0.60237633219E+02  0.47000000000E+01 0.  1.
          5    1    4    4  502    0  0.12883398898E+02  0.67668811016E+02  0.14745970811E+03  0.16282354089E+03  0.47000000000E+01 0. -1.
         -5    1    4    4    0  502  0.14495370397E+02 -0.37688426769E+02  0.92326363405E+01  0.41687706210E+02  0.47000000000E+01 0. -1.
<mgrwt>
<rscale>  0 0.33804225E+03</rscale>
<asrwt>0</asrwt>
<pdfrwt beam="1">  1       21 0.34116678E-01 0.33804225E+03</pdfrwt>
<pdfrwt beam="2">  1       21 0.19819310E-01 0.33804225E+03</pdfrwt>
<totfact> 0.18718106E+05</totfact>
</mgrwt>
</event>
<event>
 8    1  0.4760912E-006  0.3252865E+03  0.7546771E-02  0.1073242E+00
         21   -1    0    0  504  503  0.00000000000E+00  0.00000000000E+00  0.13712195357E+03  0.13712195357E+03  0.00000000000E+00 0. -1.
         21   -1    0    0  503  504 -0.00000000000E+00 -0.00000000000E+00 -0.19291461591E+03  0.19291461591E+03  0.00000000000E+00 0. -1.
         25    2    1    2    0    0 -0.26511681232E+02  0.29463289911E+02  0.69730940688E+02  0.14851106872E+03  0.12498871448E+03 0.  0.
         25    2    1    2    0    0  0.26511681232E+02 -0.29463289911E+02 -0.12552360303E+03  0.18152550076E+03  0.12499751123E+03 0.  0.
          5    1    3    3  501    0  0.43025560803E+01  0.68238447597E+02  0.76588184393E+01  0.68961911365E+02  0.47000000000E+01 0.  1.
         -5    1    3    3    0  501 -0.30814237312E+02 -0.38775157686E+02  0.62072122249E+02  0.79549157350E+02  0.47000000000E+01 0.  1.
          5    1    4    4  502    0 -0.56821638427E+01  0.47201637599E+02 -0.42843687398E+02  0.64171279618E+02  0.47000000000E+01 0. -1.
         -5    1    4    4    0  502  0.32193845074E+02 -0.76664927510E+02 -0.82679915631E+02  0.11735422114E+03  0.47000000000E+01 0. -1.
<mgrwt>
<rscale>  0 0.32528651E+03</rscale>
<asrwt>0</asrwt>
<pdfrwt beam="1">  1       21 0.21095685E-01 0.32528651E+03</pdfrwt>
<pdfrwt beam="2">  1       21 0.29679171E-01 0.32528651E+03</pdfrwt>
<totfact> 0.21992800E+05</totfact>
</mgrwt>
</event>
<event>
 8    1  0.4760912E-006  0.4310118E+03  0.7546771E-02  0.1033541E+00
         21   -1    0    0  504  503  0.00000000000E+00  0.00000000000E+00  0.50092937816E+03  0.50092937816E+03  0.00000000000E+00 0.  1.
         21   -1    0    0  503  504 -0.00000000000E+00 -0.00000000000E+00 -0.92713261475E+02  0.92713261475E+02  0.00000000000E+00 0.  1.
         25    2    1    2    0    0  0.74058753262E+02 -0.12910043275E+03  0.33230691375E+03  0.38498123365E+03  0.12502417635E+03 0.  0.
         25    2    1    2    0    0 -0.74058753262E+02  0.12910043275E+03  0.75909202938E+02  0.20866140598E+03  0.12500301830E+03 0.  0.
          5    1    3    3  501    0  0.29397553463E+02 -0.71544120840E+02  0.47329389308E+02  0.90801643535E+02  0.47000000000E+01 0.  1.
         -5    1    3    3    0  501  0.44661199799E+02 -0.57556311911E+02  0.28497752444E+03  0.29417959012E+03  0.47000000000E+01 0.  1.
          5    1    4    4  502    0 -0.38259970545E+02  0.78422586133E+02  0.10777695138E+03  0.13875117517E+03  0.47000000000E+01 0. -1.
         -5    1    4    4    0  502 -0.35798782717E+02  0.50677846618E+02 -0.31867748439E+02  0.69910230814E+02  0.47000000000E+01 0. -1.
<mgrwt>
<rscale>  0 0.43101182E+03</rscale>
<asrwt>0</asrwt>
<pdfrwt beam="1">  1       21 0.77066057E-01 0.43101182E+03</pdfrwt>
<pdfrwt beam="2">  1       21 0.14263579E-01 0.43101182E+03</pdfrwt>
<totfact> 0.59553084E+04</totfact>
</mgrwt>
</event>
<event>
 8    1  0.4760912E-006  0.3000090E+03  0.7546771E-02  0.1085236E+00
         21   -1    0    0  504  503  0.00000000000E+00  0.00000000000E+00  0.36620999289E+02  0.36620999289E+02  0.00000000000E+00 0.  1.
         21   -1    0    0  503  504 -0.00000000000E+00 -0.00000000000E+00 -0.61443863458E+03  0.61443863458E+03  0.00000000000E+00 0.  1.
         25    2    1    2    0    0 -0.69158759457E+02  0.45613891676E+02 -0.29652324087E+03  0.33228730467E+03  0.12500103737E+03 0.  0.
         25    2    1    2    0    0  0.69158759457E+02 -0.45613891676E+02 -0.28129439442E+03  0.31877232920E+03  0.12500280160E+03 0.  0.
          5    1    3    3  501    0 -0.99294547198E+02  0.53675673033E+02 -0.26308992580E+03  0.28631954882E+03  0.47000000000E+01 0.  1.
         -5    1    3    3    0  501  0.30135787740E+02 -0.80617813569E+01 -0.33433315078E+02  0.45967755857E+02  0.47000000000E+01 0.  1.
          5    1    4    4  502    0 -0.16434998178E+02  0.16858607580E+02 -0.75056900614E+01  0.25154466759E+02  0.47000000000E+01 0.  1.
         -5    1    4    4    0  502  0.85593757635E+02 -0.62472499256E+02 -0.27378870436E+03  0.29361786244E+03  0.47000000000E+01 0.  1.
<mgrwt>
<rscale>  0 0.30000905E+03</rscale>
<asrwt>0</asrwt>
<pdfrwt beam="1">  1       21 0.56340000E-02 0.30000905E+03</pdfrwt>
<pdfrwt beam="2">  1       21 0.94529019E-01 0.30000905E+03</pdfrwt>
<totfact> 0.19934745E+05</totfact>
</mgrwt>
</event>
<event>
 8    1  0.4760912E-006  0.2588895E+03  0.7546771E-02  0.1107812E+00
         21   -1    0    0  504  503  0.00000000000E+00  0.00000000000E+00  0.12264263874E+04  0.12264263874E+04  0.00000000000E+00 0. -1.
         21   -1    0    0  503  504 -0.00000000000E+00 -0.00000000000E+00 -0.13662409586E+02  0.13662409586E+02  0.00000000000E+00 0. -1.
         25    2    1    2    0    0 -0.92135099985E+00  0.33133411413E+02  0.63372388572E+03  0.64678350570E+03  0.12499707226E+03 0.  0.
         25    2    1    2    0    0  0.92135099985E+00 -0.33133411413E+02  0.57904009211E+03  0.59330529130E+03  0.12500027430E+03 0.  0.
          5    1    3    3  501    0  0.26319246702E+02  0.72800474414E+02  0.45844307820E+03  0.46495672678E+03  0.47000000000E+01 0.  1.
         -5    1    3    3    0  501 -0.27240597702E+02 -0.39667063001E+02  0.17528080752E+03  0.18182677893E+03  0.47000000000E+01 0.  1.
          5    1    4    4  502    0 -0.59416571953E+02 -0.51075235941E+01  0.33582598386E+03  0.34111229420E+03  0.47000000000E+01 0. -1.
         -5    1    4    4    0  502  0.60337922953E+02 -0.28025887819E+02  0.24321410825E+03  0.25219299710E+03  0.47000000000E+01 0. -1.
<mgrwt>
<rscale>  0 0.25888947E+03</rscale>
<asrwt>0</asrwt>
<pdfrwt beam="1">  1       21 0.18868090E+00 0.25888947E+03</pdfrwt>
<pdfrwt beam="2">  1       21 0.21019101E-02 0.25888947E+03</pdfrwt>
<totfact> 0.17535757E+05</totfact>
</mgrwt>
</event>
<event>
 8    1  0.4760912E-006  0.2670017E+03  0.7546771E-02  0.1103008E+00
         21   -1    0    0  504  503  0.00000000000E+00  0.00000000000E+00  0.96353552019E+02  0.96353552019E+02  0.00000000000E+00 0.  1.
         21   -1    0    0  503  504 -0.00000000000E+00 -0.00000000000E+00 -0.18496964552E+03  0.18496964552E+03  0.00000000000E+00 0.  1.
         25    2    1    2    0    0  0.46398427979E+02 -0.48019129656E+01 -0.39439545892E+02  0.13913318676E+03  0.12500677338E+03 0.  0.
         25    2    1    2    0    0 -0.46398427979E+02  0.48019129656E+01 -0.49176547605E+02  0.14219001077E+03  0.12499517528E+03 0.  0.
          5    1    3    3  501    0 -0.20332399815E+01  0.50457588530E+02  0.82855970115E+01  0.51389137207E+02  0.47000000000E+01 0.  1.
         -5    1    3    3    0  501  0.48431667960E+02 -0.55259501495E+02 -0.47725142903E+02  0.87744049554E+02  0.47000000000E+01 0.  1.
          5    1    4    4  502    0 -0.56102703299E+02  0.56995608870E+02 -0.28842747232E+02  0.85146971853E+02  0.47000000000E+01 0.  1.
         -5    1    4    4    0  502  0.97042753199E+01 -0.52193695904E+02 -0.20333800373E+02  0.57043038920E+02  0.47000000000E+01 0.  1.
<mgrwt>
<rscale>  0 0.26700174E+03</rscale>
<asrwt>0</asrwt>
<pdfrwt beam="1">  1       21 0.14823623E-01 0.26700174E+03</pdfrwt>
<pdfrwt beam="2">  1       21 0.28456868E-01 0.26700174E+03</pdfrwt>
<totfact> 0.46636093E+05</totfact>
</mgrwt>
</event>
<event>
 8    1  0.4760912E-006  0.2508952E+03  0.7546771E-02  0.1112740E+00
         21   -1    0    0  504  503  0.00000000000E+00  0.00000000000E+00  0.26887685863E+02  0.26887685863E+02  0.00000000000E+00 0.  1.
         21   -1    0    0  503  504 -0.00000000000E+00 -0.00000000000E+00 -0.58529006310E+03  0.58529006310E+03  0.00000000000E+00 0.  1.
         25    2    1    2    0    0 -0.57677518429E+01 -0.25633393101E+01 -0.25839136685E+03  0.28710619820E+03  0.12499613160E+03 0.  0.
         25    2    1    2    0    0  0.57677518429E+01  0.25633393101E+01 -0.30001101038E+03  0.32507155076E+03  0.12500027636E+03 0.  0.
          5    1    3    3  501    0 -0.30425096811E+02 -0.36227291284E+02 -0.33086663841E+02  0.57921675337E+02  0.47000000000E+01 0. -1.
         -5    1    3    3    0  501  0.24657344968E+02  0.33663951974E+02 -0.22530470301E+03  0.22918452287E+03  0.47000000000E+01 0. -1.
          5    1    4    4  502    0 -0.54934956345E+02  0.73881902443E+00 -0.82790447852E+02  0.99472325487E+02  0.47000000000E+01 0.  1.
         -5    1    4    4    0  502  0.60702708188E+02  0.18245202857E+01 -0.21722056253E+03  0.22559922527E+03  0.47000000000E+01 0.  1.
<mgrwt>
<rscale>  0 0.25089516E+03</rscale>
<asrwt>0</asrwt>
<pdfrwt beam="1">  1       21 0.41365671E-02 0.25089516E+03</pdfrwt>
<pdfrwt beam="2">  1       21 0.90044625E-01 0.25089516E+03</pdfrwt>
<totfact> 0.38295216E+05</totfact>
</mgrwt>
</event>
<event>
 8    1  0.4760912E-006  0.2858174E+03  0.7546771E-02  0.1092553E+00
         21   -1    0    0  504  503  0.00000000000E+00  0.00000000000E+00  0.16777961785E+03  0.16777961785E+03  0.00000000000E+00 0. -1.
         21   -1    0    0  503  504 -0.00000000000E+00 -0.00000000000E+00 -0.12172454377E+03  0.12172454377E+03  0.00000000000E+00 0. -1.
         25    2    1    2    0    0 -0.15746811310E+02 -0.42190336045E+02 -0.30278370554E+02  0.13627077890E+03  0.12499983574E+03 0.  0.
         25    2    1    2    0    0  0.15746811310E+02  0.42190336045E+02  0.76333444627E+02  0.15323338272E+03  0.12500275313E+03 0.  0.
          5    1    3    3  501    0  0.44046544243E+02 -0.23068121324E+02 -0.49631978744E+02  0.70410649729E+02  0.47000000000E+01 0.  1.
         -5    1    3    3    0  501 -0.59793355554E+02 -0.19122214721E+02  0.19353608191E+02  0.65860129169E+02  0.47000000000E+01 0.  1.
          5    1    4    4  502    0 -0.17281945808E+02 -0.16569474120E+02  0.81878276470E+02  0.85436264439E+02  0.47000000000E+01 0.  1.
         -5    1    4    4    0  502  0.33028757118E+02  0.58759810166E+02 -0.55448318435E+01  0.67797118284E+02  0.47000000000E+01 0.  1.
<mgrwt>
<rscale>  0 0.28581741E+03</rscale>
<asrwt>0</asrwt>
<pdfrwt beam="1">  1       21 0.25812249E-01 0.28581741E+03</pdfrwt>
<pdfrwt beam="2">  1       21 0.18726853E-01 0.28581741E+03</pdfrwt>
<totfact> 0.36436139E+05</totfact>
</mgrwt>
</event>
<event>
 8    1  0.4760912E-006  0.4605560E+03  0.7546771E-02  0.1024620E+00
         21   -1    0    0  504  503  0.00000000000E+00  0.00000000000E+00  0.34269192313E+03  0.34269192313E+03  0.00000000000E+00 0.  1.
         21   -1    0    0  503  504 -0.00000000000E+00 -0.00000000000E+00 -0.15473943464E+03  0.15473943464E+03  0.00000000000E+00 0.  1.
         25    2    1    2    0    0  0.19094496795E+02  0.12210872594E+03 -0.66689995008E+02  0.18801072215E+03  0.12500134180E+03 0.  0.
         25    2    1    2    0    0 -0.19094496795E+02 -0.12210872594E+03  0.25464248349E+03  0.30942063562E+03  0.12499277816E+03 0.  0.
          5    1    3    3  501    0 -0.24885872841E+02  0.99475367006E+02  0.26791950146E+01  0.10268360820E+03  0.47000000000E+01 0. -1.
         -5    1    3    3    0  501  0.43980369636E+02  0.22633358935E+02 -0.69369190022E+02  0.85327113946E+02  0.47000000000E+01 0. -1.
          5    1    4    4  502    0 -0.17779329019E+02 -0.60652545252E+02  0.23695370972E+03  0.24528348158E+03  0.47000000000E+01 0. -1.
         -5    1    4    4    0  502 -0.13151677755E+01 -0.61456180689E+02  0.17688773771E+02  0.64137154042E+02  0.47000000000E+01 0. -1.
<mgrwt>
<rscale>  0 0.46055599E+03</rscale>
<asrwt>0</asrwt>
<pdfrwt beam="1">  1       21 0.52721834E-01 0.46055599E+03</pdfrwt>
<pdfrwt beam="2">  1       21 0.23806067E-01 0.46055599E+03</pdfrwt>
<totfact> 0.52131547E+04</totfact>
</mgrwt>
</event>
<event>
 8    1  0.4760912E-006  0.3513348E+03  0.7546771E-02  0.1062069E+00
         21   -1    0    0  504  503  0.00000000000E+00  0.00000000000E+00  0.21268241863E+02  0.21268241863E+02  0.00000000000E+00 0.  1.
         21   -1    0    0  503  504 -0.00000000000E+00 -0.00000000000E+00 -0.14509439438E+04  0.14509439438E+04  0.00000000000E+00 0.  1.
         25    2    1    2    0    0 -0.12262071065E+03  0.90599360862E+01 -0.75964738107E+03  0.77962140699E+03  0.12500989381E+03 0.  0.
         25    2    1    2    0    0  0.12262071065E+03 -0.90599360862E+01 -0.67002832086E+03  0.69259077866E+03  0.12500445918E+03 0.  0.
          5    1    3    3  501    0 -0.53851426029E+02  0.61508707562E+02 -0.26218937534E+03  0.27467918693E+03  0.47000000000E+01 0.  1.
         -5    1    3    3    0  501 -0.68769284622E+02 -0.52448771475E+02 -0.49745800573E+03  0.50494222006E+03  0.47000000000E+01 0.  1.
          5    1    4    4  502    0  0.15070897060E+02  0.27309910324E+02 -0.37676036820E+03  0.37807860054E+03  0.47000000000E+01 0.  1.
         -5    1    4    4    0  502  0.10754981359E+03 -0.36369846410E+02 -0.29326795266E+03  0.31451217812E+03  0.47000000000E+01 0.  1.
<mgrwt>
<rscale>  0 0.35133475E+03</rscale>
<asrwt>0</asrwt>
<pdfrwt beam="1">  1       21 0.32720368E-02 0.35133475E+03</pdfrwt>
<pdfrwt beam="2">  1       21 0.22322217E+00 0.35133475E+03</pdfrwt>
<totfact> 0.48414227E+04</totfact>
</mgrwt>
</event>
<event>
 8    1  0.4760912E-006  0.3971313E+03  0.7546771E-02  0.1044778E+00
         21   -1    0    0  504  503  0.00000000000E+00  0.00000000000E+00  0.20261450102E+03  0.20261450102E+03  0.00000000000E+00 0. -1.
         21   -1    0    0  503  504 -0.00000000000E+00 -0.00000000000E+00 -0.19459767012E+03  0.19459767012E+03  0.00000000000E+00 0. -1.
         25    2    1    2    0    0  0.63207767039E+02  0.63530298407E+02 -0.12160780237E+03  0.19607254703E+03  0.12499866189E+03 0.  0.
         25    2    1    2    0    0 -0.63207767039E+02 -0.63530298407E+02  0.12962463327E+03  0.20113962410E+03  0.12499312862E+03 0.  0.
          5    1    3    3  501    0 -0.68160057623E+01  0.80486729124E+02 -0.73512347392E+02  0.10931937943E+03  0.47000000000E+01 0.  1.
         -5    1    3    3    0  501  0.70023772801E+02 -0.16956430717E+02 -0.48095454979E+02  0.86753167606E+02  0.47000000000E+01 0.  1.
          5    1    4    4  502    0 -0.92137728172E+02 -0.11038407504E+02  0.68776806475E+02  0.11560080667E+03  0.47000000000E+01 0. -1.
         -5    1    4    4    0  502  0.28929961133E+02 -0.52491890903E+02  0.60847826798E+02  0.85538817432E+02  0.47000000000E+01 0. -1.
<mgrwt>
<rscale>  0 0.39713126E+03</rscale>
<asrwt>0</asrwt>
<pdfrwt beam="1">  1       21 0.31171462E-01 0.39713126E+03</pdfrwt>
<pdfrwt beam="2">  1       21 0.29938103E-01 0.39713126E+03</pdfrwt>
<totfact> 0.99753510E+04</totfact>
</mgrwt>
</event>
<event>
 8    1  0.4760912E-006  0.2644756E+03  0.7546771E-02  0.1104484E+00
         21   -1    0    0  504  503  0.00000000000E+00  0.00000000000E+00  0.44292574206E+03  0.44292574206E+03  0.00000000000E+00 0. -1.
         21   -1    0    0  503  504 -0.00000000000E+00 -0.00000000000E+00 -0.39480277054E+02  0.39480277054E+02  0.00000000000E+00 0. -1.
         25    2    1    2    0    0  0.17955804238E+02 -0.24510514033E+01  0.27315112337E+03  0.30093992433E+03  0.12499953321E+03 0.  0.
         25    2    1    2    0    0 -0.17955804238E+02  0.24510514033E+01  0.13029434164E+03  0.18146609478E+03  0.12499963813E+03 0.  0.
          5    1    3    3  501    0  0.17693214695E+02 -0.62698810452E+02  0.15595542911E+03  0.16908097630E+03  0.47000000000E+01 0. -1.
         -5    1    3    3    0  501  0.26258954261E+00  0.60247759049E+02  0.11719569426E+03  0.13185894803E+03  0.47000000000E+01 0. -1.
          5    1    4    4  502    0  0.15312796290E+02  0.33857347523E+02 -0.57171707506E+01  0.37889018895E+02  0.47000000000E+01 0. -1.
         -5    1    4    4    0  502 -0.33268600527E+02 -0.31406296119E+02  0.13601151239E+03  0.14357707589E+03  0.47000000000E+01 0. -1.
<mgrwt>
<rscale>  0 0.26447556E+03</rscale>
<asrwt>0</asrwt>
<pdfrwt beam="1">  1       21 0.68142418E-01 0.26447556E+03</pdfrwt>
<pdfrwt beam="2">  1       21 0.60738891E-02 0.26447556E+03</pdfrwt>
<totfact> 0.37317356E+05</totfact>
</mgrwt>
</event>
<event>
 8    1  0.4760912E-006  0.2551467E+03  0.7546771E-02  0.1110095E+00
         21   -1    0    0  504  503  0.00000000000E+00  0.00000000000E+00  0.60230905632E+02  0.60230905632E+02  0.00000000000E+00 0.  1.
         21   -1    0    0  503  504 -0.00000000000E+00 -0.00000000000E+00 -0.27020954413E+03  0.27020954413E+03  0.00000000000E+00 0.  1.
         25    2    1    2    0    0  0.20321705451E+02 -0.10468514054E+02 -0.90604393710E+02  0.15609002001E+03  0.12502950327E+03 0.  0.
         25    2    1    2    0    0 -0.20321705451E+02  0.10468514054E+02 -0.11937424479E+03  0.17435042975E+03  0.12500120214E+03 0.  0.
          5    1    3    3  501    0 -0.16316952225E+02 -0.52103242122E+02 -0.83644604086E+02  0.99997502780E+02  0.47000000000E+01 0. -1.
         -5    1    3    3    0  501  0.36638657676E+02  0.41634728068E+02 -0.69597896240E+01  0.56092517230E+02  0.47000000000E+01 0. -1.
          5    1    4    4  502    0  0.14712431583E+02  0.50639819879E+02 -0.11857517433E+02  0.54254379732E+02  0.47000000000E+01 0.  1.
         -5    1    4    4    0  502 -0.35034137034E+02 -0.40171305825E+02 -0.10751672735E+03  0.12009605002E+03  0.47000000000E+01 0.  1.
<mgrwt>
<rscale>  0 0.25514675E+03</rscale>
<asrwt>0</asrwt>
<pdfrwt beam="1">  1       21 0.92662930E-02 0.25514675E+03</pdfrwt>
<pdfrwt beam="2">  1       21 0.41570700E-01 0.25514675E+03</pdfrwt>
<totfact> 0.51074032E+05</totfact>
</mgrwt>
</event>
<event>
 8    1  0.4760912E-006  0.5721658E+03  0.7546771E-02  0.9964897E-01
         21   -1    0    0  504  503  0.00000000000E+00  0.00000000000E+00  0.14513059133E+03  0.14513059133E+03  0.00000000000E+00 0. -1.
         21   -1    0    0  503  504 -0.00000000000E+00 -0.00000000000E+00 -0.56392948631E+03  0.56392948631E+03  0.00000000000E+00 0. -1.
         25    2    1    2    0    0 -0.11321185889E+03  0.38834053286E+02 -0.49170217136E+03  0.52126703829E+03  0.12499316461E+03 0.  0.
         25    2    1    2    0    0  0.11321185889E+03 -0.38834053286E+02  0.72903276374E+02  0.18779303936E+03  0.12500531683E+03 0.  0.
          5    1    3    3  501    0 -0.16962493941E+02  0.28779078342E+02 -0.33730701886E+03  0.33898978823E+03  0.47000000000E+01 0. -1.
         -5    1    3    3    0  501 -0.96249364949E+02  0.10054974944E+02 -0.15439515250E+03  0.18227725006E+03  0.47000000000E+01 0. -1.
          5    1    4    4  502    0  0.13783931915E+03 -0.48383212378E+02  0.59561783317E+02  0.15783000087E+03  0.47000000000E+01 0.  1.
         -5    1    4    4    0  502 -0.24627460259E+02  0.95491590918E+01  0.13341493057E+02  0.29963038484E+02  0.47000000000E+01 0.  1.
<mgrwt>
<rscale>  0 0.57216578E+03</rscale>
<asrwt>0</asrwt>
<pdfrwt beam="1">  1       21 0.22327783E-01 0.57216578E+03</pdfrwt>
<pdfrwt beam="2">  1       21 0.86758383E-01 0.57216578E+03</pdfrwt>
<totfact> 0.18817824E+04</totfact>
</mgrwt>
</event>
<event>
 8    1  0.4760912E-006  0.4416503E+03  0.7546771E-02  0.1030242E+00
         21   -1    0    0  504  503  0.00000000000E+00  0.00000000000E+00  0.44264684757E+02  0.44264684757E+02  0.00000000000E+00 0. -1.
         21   -1    0    0  503  504 -0.00000000000E+00 -0.00000000000E+00 -0.11016398461E+04  0.11016398461E+04  0.00000000000E+00 0. -1.
         25    2    1    2    0    0  0.14809332627E+02  0.17994687950E+03 -0.58890017239E+03  0.62851290582E+03  0.12499945589E+03 0.  0.
         25    2    1    2    0    0 -0.14809332627E+02 -0.17994687950E+03 -0.46847498899E+03  0.51739162507E+03  0.12500033043E+03 0.  0.
          5    1    3    3  501    0  0.32052940527E+02 -0.58413754379E+01 -0.84188221488E+02  0.90395018119E+02  0.47000000000E+01 0. -1.
         -5    1    3    3    0  501 -0.17243607899E+02  0.18578825494E+03 -0.50471195090E+03  0.53811788770E+03  0.47000000000E+01 0. -1.
          5    1    4    4  502    0 -0.63222808600E+02 -0.50168463719E+02 -0.18227514562E+03  0.19939989215E+03  0.47000000000E+01 0. -1.
         -5    1    4    4    0  502  0.48413475973E+02 -0.12977841578E+03 -0.28619984337E+03  0.31799173292E+03  0.47000000000E+01 0. -1.
<mgrwt>
<rscale>  0 0.44165027E+03</rscale>
<asrwt>0</asrwt>
<pdfrwt beam="1">  1       21 0.68099523E-02 0.44165027E+03</pdfrwt>
<pdfrwt beam="2">  1       21 0.16948303E+00 0.44165027E+03</pdfrwt>
<totfact> 0.30665987E+04</totfact>
</mgrwt>
</event>
<event>
 8    1  0.4760912E-006  0.2798391E+03  0.7546771E-02  0.1095777E+00
         21   -1    0    0  504  503  0.00000000000E+00  0.00000000000E+00  0.25600565863E+03  0.25600565863E+03  0.00000000000E+00 0. -1.
         21   -1    0    0  503  504 -0.00000000000E+00 -0.00000000000E+00 -0.76472839388E+02  0.76472839388E+02  0.00000000000E+00 0. -1.
         25    2    1    2    0    0  0.16030379268E+02  0.56398643989E+02  0.11672718495E+03  0.18079689876E+03  0.12499801115E+03 0.  0.
         25    2    1    2    0    0 -0.16030379268E+02 -0.56398643989E+02  0.62805634292E+02  0.15168159926E+03  0.12499991901E+03 0.  0.
          5    1    3    3  501    0 -0.52022632392E+02  0.22769706372E+02  0.26647145659E+02  0.62904484586E+02  0.47000000000E+01 0.  1.
         -5    1    3    3    0  501  0.68053011660E+02  0.33628937617E+02  0.90080039290E+02  0.11789241417E+03  0.47000000000E+01 0.  1.
          5    1    4    4  502    0 -0.56833352005E+02 -0.73295775148E+02  0.49935806763E+02  0.10544181026E+03  0.47000000000E+01 0. -1.
         -5    1    4    4    0  502  0.40802972737E+02  0.16897131159E+02  0.12869827529E+02  0.46239788994E+02  0.47000000000E+01 0. -1.
<mgrwt>
<rscale>  0 0.27983909E+03</rscale>
<asrwt>0</asrwt>
<pdfrwt beam="1">  1       21 0.39385486E-01 0.27983909E+03</pdfrwt>
<pdfrwt beam="2">  1       21 0.11765052E-01 0.27983909E+03</pdfrwt>
<totfact> 0.37066888E+05</totfact>
</mgrwt>
</event>
<event>
 8    1  0.4760912E-006  0.3960225E+03  0.7546771E-02  0.1045166E+00
         21   -1    0    0  504  503  0.00000000000E+00  0.00000000000E+00  0.14303634443E+03  0.14303634443E+03  0.00000000000E+00 0. -1.
         21   -1    0    0  503  504 -0.00000000000E+00 -0.00000000000E+00 -0.27411531807E+03  0.27411531807E+03  0.00000000000E+00 0. -1.
         25    2    1    2    0    0  0.79102812522E+02  0.11883995891E+03 -0.59230449261E+01  0.18984159186E+03  0.12499822702E+03 0.  0.
         25    2    1    2    0    0 -0.79102812522E+02 -0.11883995891E+03 -0.12515592872E+03  0.22731007064E+03  0.12500268373E+03 0.  0.
          5    1    3    3  501    0  0.19562912280E+02  0.81459866233E+02  0.51927974420E+02  0.98676349096E+02  0.47000000000E+01 0. -1.
         -5    1    3    3    0  501  0.59539900242E+02  0.37380092676E+02 -0.57851019346E+02  0.91165242767E+02  0.47000000000E+01 0. -1.
          5    1    4    4  502    0 -0.82649288043E+02 -0.12796791019E+03 -0.64176066198E+02  0.16537033690E+03  0.47000000000E+01 0.  1.
         -5    1    4    4    0  502  0.35464755205E+01  0.91279512817E+01 -0.60979862521E+02  0.61939733744E+02  0.47000000000E+01 0.  1.
<mgrwt>
<rscale>  0 0.39602249E+03</rscale>
<asrwt>0</asrwt>
<pdfrwt beam="1">  1       21 0.22005592E-01 0.39602249E+03</pdfrwt>
<pdfrwt beam="2">  1       21 0.42171587E-01 0.39602249E+03</pdfrwt>
<totfact> 0.98424134E+04</totfact>
</mgrwt>
</event>
<event>
 8    1  0.4760912E-006  0.5516025E+03  0.7546771E-02  0.1001124E+00
         21   -1    0    0  504  503  0.00000000000E+00  0.00000000000E+00  0.43921381537E+02  0.43921381537E+02  0.00000000000E+00 0. -1.
         21   -1    0    0  503  504 -0.00000000000E+00 -0.00000000000E+00 -0.17318748197E+04  0.17318748197E+04  0.00000000000E+00 0. -1.
         25    2    1    2    0    0 -0.11130572109E+03  0.11994906213E+03 -0.25315785363E+03  0.32630020668E+03  0.12492471723E+03 0.  0.
         25    2    1    2    0    0  0.11130572109E+03 -0.11994906213E+03 -0.14347955846E+04  0.14494959946E+04  0.12499411092E+03 0.  0.
          5    1    3    3  501    0 -0.86563461615E+01 -0.25382303949E+02 -0.25320738315E+02  0.37180955763E+02  0.47000000000E+01 0. -1.
         -5    1    3    3    0  501 -0.10264937493E+03  0.14533136608E+03 -0.22783711531E+03  0.28911925092E+03  0.47000000000E+01 0. -1.
          5    1    4    4  502    0  0.16595938807E+02 -0.92000244668E+02 -0.44272063565E+03  0.45250759268E+03  0.47000000000E+01 0.  1.
         -5    1    4    4    0  502  0.94709782282E+02 -0.27948817464E+02 -0.99207494891E+03  0.99698840189E+03  0.47000000000E+01 0.  1.
<mgrwt>
<rscale>  0 0.55160252E+03</rscale>
<asrwt>0</asrwt>
<pdfrwt beam="1">  1       21 0.67571354E-02 0.55160252E+03</pdfrwt>
<pdfrwt beam="2">  1       21 0.26644229E+00 0.55160252E+03</pdfrwt>
<totfact> 0.69831903E+03</totfact>
</mgrwt>
</event>
<event>
 8    1  0.4760912E-006  0.3284266E+03  0.7546771E-02  0.1071835E+00
         21   -1    0    0  504  503  0.00000000000E+00  0.00000000000E+00  0.48018844843E+03  0.48018844843E+03  0.00000000000E+00 0. -1.
         21   -1    0    0  503  504 -0.00000000000E+00 -0.00000000000E+00 -0.56157145794E+02  0.56157145794E+02  0.00000000000E+00 0. -1.
         25    2    1    2    0    0 -0.17441965283E+02  0.28755958268E+00  0.40450474235E+02  0.13253477466E+03  0.12499968313E+03 0.  0.
         25    2    1    2    0    0  0.17441965283E+02 -0.28755958268E+00  0.38358082840E+03  0.40381081957E+03  0.12499848495E+03 0.  0.
          5    1    3    3  501    0  0.16239006974E+02 -0.39834204235E+02 -0.23892438338E+02  0.49430838393E+02  0.47000000000E+01 0. -1.
         -5    1    3    3    0  501 -0.33680972256E+02  0.40121763818E+02  0.64342912573E+02  0.83103936262E+02  0.47000000000E+01 0. -1.
          5    1    4    4  502    0 -0.17453788921E+01  0.58695357351E+02  0.13020340424E+03  0.14290978902E+03  0.47000000000E+01 0.  1.
         -5    1    4    4    0  502  0.19187344175E+02 -0.58982916934E+02  0.25337742417E+03  0.26090103055E+03  0.47000000000E+01 0.  1.
<mgrwt>
<rscale>  0 0.32842663E+03</rscale>
<asrwt>0</asrwt>
<pdfrwt beam="1">  1       21 0.73875143E-01 0.32842663E+03</pdfrwt>
<pdfrwt beam="2">  1       21 0.86395612E-02 0.32842663E+03</pdfrwt>
<totfact> 0.16598381E+05</totfact>
</mgrwt>
</event>
<event>
 8    1  0.4760912E-006  0.8250949E+03  0.7546771E-02  0.9524387E-01
         21   -1    0    0  504  503  0.00000000000E+00  0.00000000000E+00  0.18508566752E+03  0.18508566752E+03  0.00000000000E+00 0.  1.
         21   -1    0    0  503  504 -0.00000000000E+00 -0.00000000000E+00 -0.91954942405E+03  0.91954942405E+03  0.00000000000E+00 0.  1.
         25    2    1    2    0    0 -0.11441583383E+03 -0.15261774305E+03  0.93025554064E+02  0.24629589366E+03  0.12499901999E+03 0.  0.
         25    2    1    2    0    0  0.11441583383E+03  0.15261774305E+03 -0.82748931059E+03  0.85833919791E+03  0.12499784394E+03 0.  0.
          5    1    3    3  501    0  0.26383640344E+02 -0.15006058390E+02  0.17679214812E+02  0.35439002561E+02  0.47000000000E+01 0.  1.
         -5    1    3    3    0  501 -0.14079947418E+03 -0.13761168466E+03  0.75346339251E+02  0.21085689110E+03  0.47000000000E+01 0.  1.
          5    1    4    4  502    0  0.72665484152E+02  0.10156865068E+03 -0.72952415841E+03  0.74015137039E+03  0.47000000000E+01 0. -1.
         -5    1    4    4    0  502  0.41750349683E+02  0.51049092370E+02 -0.97965152181E+02  0.11818782751E+03  0.47000000000E+01 0. -1.
<mgrwt>
<rscale>  0 0.82509495E+03</rscale>
<asrwt>0</asrwt>
<pdfrwt beam="1">  1       21 0.28474719E-01 0.82509495E+03</pdfrwt>
<pdfrwt beam="2">  1       21 0.14146914E+00 0.82509495E+03</pdfrwt>
<totfact> 0.32294972E+03</totfact>
</mgrwt>
</event>
<event>
 8    1  0.4760912E-006  0.2670397E+03  0.7546771E-02  0.1102986E+00
         21   -1    0    0  504  503  0.00000000000E+00  0.00000000000E+00  0.21688716890E+02  0.21688716890E+02  0.00000000000E+00 0.  1.
         21   -1    0    0  503  504 -0.00000000000E+00 -0.00000000000E+00 -0.82197330640E+03  0.82197330640E+03  0.00000000000E+00 0.  1.
         25    2    1    2    0    0 -0.16742338457E+02 -0.23986550519E+02 -0.28423476304E+03  0.31188399656E+03  0.12500626500E+03 0.  0.
         25    2    1    2    0    0  0.16742338457E+02  0.23986550519E+02 -0.51604982647E+03  0.53177802672E+03  0.12499914321E+03 0.  0.
          5    1    3    3  501    0 -0.82868264223E+01 -0.57107766696E+02 -0.54304408435E+02  0.79379010353E+02  0.47000000000E+01 0.  1.
         -5    1    3    3    0  501 -0.84555120346E+01  0.33121216177E+02 -0.22993035460E+03  0.23250498621E+03  0.47000000000E+01 0.  1.
          5    1    4    4  502    0  0.35068029534E+02  0.10868275097E+02 -0.37552814322E+02  0.52727506697E+02  0.47000000000E+01 0. -1.
         -5    1    4    4    0  502 -0.18325691078E+02  0.13118275422E+02 -0.47849701215E+03  0.47905052002E+03  0.47000000000E+01 0. -1.
<mgrwt>
<rscale>  0 0.26703967E+03</rscale>
<asrwt>0</asrwt>
<pdfrwt beam="1">  1       21 0.33367261E-02 0.26703967E+03</pdfrwt>
<pdfrwt beam="2">  1       21 0.12645741E+00 0.26703967E+03</pdfrwt>
<totfact> 0.23988905E+05</totfact>
</mgrwt>
</event>
<event>
 8    1  0.4760912E-006  0.2690032E+03  0.7546771E-02  0.1101851E+00
         21   -1    0    0  504  503  0.00000000000E+00  0.00000000000E+00  0.11727634553E+03  0.11727634553E+03  0.00000000000E+00 0. -1.
         21   -1    0    0  503  504 -0.00000000000E+00 -0.00000000000E+00 -0.15425688005E+03  0.15425688005E+03  0.00000000000E+00 0. -1.
         25    2    1    2    0    0 -0.33653158448E+02 -0.36531627422E+02 -0.18123909482E+02  0.13571453113E+03  0.12499145166E+03 0.  0.
         25    2    1    2    0    0  0.33653158448E+02  0.36531627422E+02 -0.18856625039E+02  0.13581869446E+03  0.12499620226E+03 0.  0.
          5    1    3    3  501    0 -0.74692446459E+02  0.61525882882E+01 -0.10813938533E+02  0.75867299723E+02  0.47000000000E+01 0. -1.
         -5    1    3    3    0  501  0.41039288011E+02 -0.42684215711E+02 -0.73099709490E+01  0.59847231403E+02  0.47000000000E+01 0. -1.
          5    1    4    4  502    0  0.68758791228E+02  0.14040736464E+02  0.25451081685E+02  0.74798136410E+02  0.47000000000E+01 0. -1.
         -5    1    4    4    0  502 -0.35105632780E+02  0.22490890958E+02 -0.44307706724E+02  0.61020558045E+02  0.47000000000E+01 0. -1.
<mgrwt>
<rscale>  0 0.26900322E+03</rscale>
<asrwt>0</asrwt>
<pdfrwt beam="1">  1       21 0.18042515E-01 0.26900322E+03</pdfrwt>
<pdfrwt beam="2">  1       21 0.23731827E-01 0.26900322E+03</pdfrwt>
<totfact> 0.46051483E+05</totfact>
</mgrwt>
</event>
<event>
 8    1  0.4760912E-006  0.3137649E+03  0.7546771E-02  0.1078555E+00
         21   -1    0    0  504  503  0.00000000000E+00  0.00000000000E+00  0.31226681515E+03  0.31226681515E+03  0.00000000000E+00 0. -1.
         21   -1    0    0  503  504 -0.00000000000E+00 -0.00000000000E+00 -0.78817535137E+02  0.78817535137E+02  0.00000000000E+00 0. -1.
         25    2    1    2    0    0  0.41413131547E+02 -0.85256774656E+02  0.11932691924E+03  0.19709909308E+03  0.12500149499E+03 0.  0.
         25    2    1    2    0    0 -0.41413131547E+02  0.85256774656E+02  0.11412236078E+03  0.19398525721E+03  0.12499040641E+03 0.  0.
          5    1    3    3  501    0  0.17155930445E+00 -0.67952014209E+02  0.13356256001E+03  0.14992849330E+03  0.47000000000E+01 0. -1.
         -5    1    3    3    0  501  0.41241572242E+02 -0.17304760448E+02 -0.14235640773E+02  0.47170599778E+02  0.47000000000E+01 0. -1.
          5    1    4    4  502    0 -0.61806340729E+02  0.96483617585E+02  0.49074808213E+02  0.12473788125E+03  0.47000000000E+01 0.  1.
         -5    1    4    4    0  502  0.20393209182E+02 -0.11226842929E+02  0.65047552563E+02  0.69247375960E+02  0.47000000000E+01 0.  1.
<mgrwt>
<rscale>  0 0.31376488E+03</rscale>
<asrwt>0</asrwt>
<pdfrwt beam="1">  1       21 0.48041048E-01 0.31376488E+03</pdfrwt>
<pdfrwt beam="2">  1       21 0.12125775E-01 0.31376488E+03</pdfrwt>
<totfact> 0.23128900E+05</totfact>
</mgrwt>
</event>
<event>
 8    1  0.4760912E-006  0.3269563E+03  0.7546771E-02  0.1072492E+00
         21   -1    0    0  504  503  0.00000000000E+00  0.00000000000E+00  0.63867000774E+02  0.63867000774E+02  0.00000000000E+00 0.  1.
         21   -1    0    0  503  504 -0.00000000000E+00 -0.00000000000E+00 -0.41844931823E+03  0.41844931823E+03  0.00000000000E+00 0.  1.
         25    2    1    2    0    0  0.91388763084E+02 -0.52265436970E+02 -0.17134738560E+03  0.23678863353E+03  0.12500139399E+03 0.  0.
         25    2    1    2    0    0 -0.91388763084E+02  0.52265436970E+02 -0.18323493186E+03  0.24552768547E+03  0.12500088864E+03 0.  0.
          5    1    3    3  501    0 -0.31074193733E+02 -0.12488505052E+02 -0.45392567246E+02  0.56605153791E+02  0.47000000000E+01 0. -1.
         -5    1    3    3    0  501  0.12246295682E+03 -0.39776931918E+02 -0.12595481835E+03  0.18018347974E+03  0.47000000000E+01 0. -1.
          5    1    4    4  502    0 -0.10730307204E+03  0.18421203515E+02 -0.17621149170E+03  0.20718559268E+03  0.47000000000E+01 0.  1.
         -5    1    4    4    0  502  0.15914308960E+02  0.33844233455E+02 -0.70234401610E+01  0.38342092790E+02  0.47000000000E+01 0.  1.
<mgrwt>
<rscale>  0 0.32695628E+03</rscale>
<asrwt>0</asrwt>
<pdfrwt beam="1">  1       21 0.98256929E-02 0.32695628E+03</pdfrwt>
<pdfrwt beam="2">  1       21 0.64376815E-01 0.32695628E+03</pdfrwt>
<totfact> 0.17952612E+05</totfact>
</mgrwt>
</event>
<event>
 8    1  0.4760912E-006  0.2725136E+03  0.7546771E-02  0.1099850E+00
         21   -1    0    0  504  503  0.00000000000E+00  0.00000000000E+00  0.47460189220E+02  0.47460189220E+02  0.00000000000E+00 0.  1.
         21   -1    0    0  503  504 -0.00000000000E+00 -0.00000000000E+00 -0.39118933170E+03  0.39118933170E+03  0.00000000000E+00 0.  1.
         25    2    1    2    0    0 -0.33441973372E+01  0.48750793415E+02 -0.13401147959E+03  0.18966276022E+03  0.12500024975E+03 0.  0.
         25    2    1    2    0    0  0.33441973372E+01 -0.48750793415E+02 -0.20971766289E+03  0.24898676071E+03  0.12500034145E+03 0.  0.
          5    1    3    3  501    0  0.31709749988E+02  0.21266354496E+02 -0.13934264395E+03  0.14455527836E+03  0.47000000000E+01 0.  1.
         -5    1    3    3    0  501 -0.35053947326E+02  0.27484438919E+02  0.53311643649E+01  0.45107481855E+02  0.47000000000E+01 0.  1.
          5    1    4    4  502    0 -0.35246454213E+02  0.12287708759E+02 -0.13702287223E+02  0.40039268178E+02  0.47000000000E+01 0. -1.
         -5    1    4    4    0  502  0.38590651550E+02 -0.61038502174E+02 -0.19601537567E+03  0.20894749253E+03  0.47000000000E+01 0. -1.
<mgrwt>
<rscale>  0 0.27251363E+03</rscale>
<asrwt>0</asrwt>
<pdfrwt beam="1">  1       21 0.73015679E-02 0.27251363E+03</pdfrwt>
<pdfrwt beam="2">  1       21 0.60182971E-01 0.27251363E+03</pdfrwt>
<totfact> 0.35530012E+05</totfact>
</mgrwt>
</event>
<event>
 8    1  0.4760912E-006  0.3057017E+03  0.7546771E-02  0.1082425E+00
         21   -1    0    0  504  503  0.00000000000E+00  0.00000000000E+00  0.24156231430E+03  0.24156231430E+03  0.00000000000E+00 0. -1.
         21   -1    0    0  503  504 -0.00000000000E+00 -0.00000000000E+00 -0.96717840504E+02  0.96717840504E+02  0.00000000000E+00 0. -1.
         25    2    1    2    0    0  0.27568121092E+02  0.10138118004E+02  0.16417633368E+03  0.20842683182E+03  0.12500037178E+03 0.  0.
         25    2    1    2    0    0 -0.27568121092E+02 -0.10138118004E+02 -0.19331859883E+02  0.12985332298E+03  0.12500152777E+03 0.  0.
          5    1    3    3  501    0 -0.11410085390E+02  0.60242403702E+02  0.57419278541E+02  0.84133232439E+02  0.47000000000E+01 0. -1.
         -5    1    3    3    0  501  0.38978206482E+02 -0.50104285698E+02  0.10675705514E+03  0.12429359938E+03  0.47000000000E+01 0. -1.
          5    1    4    4  502    0 -0.44798698229E+02 -0.58133914549E+02 -0.26439704398E+02  0.78151285034E+02  0.47000000000E+01 0.  1.
         -5    1    4    4    0  502  0.17230577137E+02  0.47995796545E+02  0.71078445146E+01  0.51702037949E+02  0.47000000000E+01 0.  1.
<mgrwt>
<rscale>  0 0.30570172E+03</rscale>
<asrwt>0</asrwt>
<pdfrwt beam="1">  1       21 0.37163433E-01 0.30570172E+03</pdfrwt>
<pdfrwt beam="2">  1       21 0.14879668E-01 0.30570172E+03</pdfrwt>
<totfact> 0.27057531E+05</totfact>
</mgrwt>
</event>
<event>
 8    1  0.4760912E-006  0.3228916E+03  0.7546771E-02  0.1074326E+00
         21   -1    0    0  504  503  0.00000000000E+00  0.00000000000E+00  0.15059819033E+03  0.15059819033E+03  0.00000000000E+00 0. -1.
         21   -1    0    0  503  504 -0.00000000000E+00 -0.00000000000E+00 -0.17307479090E+03  0.17307479090E+03  0.00000000000E+00 0. -1.
         25    2    1    2    0    0 -0.20476045209E+02 -0.86323521913E+02  0.39581552018E+02  0.15831138083E+03  0.12499910070E+03 0.  0.
         25    2    1    2    0    0  0.20476045209E+02  0.86323521913E+02 -0.62058152586E+02  0.16536160041E+03  0.12498890241E+03 0.  0.
          5    1    3    3  501    0  0.40300025344E+02 -0.62505746503E+02  0.53076397079E+02  0.91489093970E+02  0.47000000000E+01 0.  1.
         -5    1    3    3    0  501 -0.60776070553E+02 -0.23817775409E+02 -0.13494845060E+02  0.66822286855E+02  0.47000000000E+01 0.  1.
          5    1    4    4  502    0 -0.40297360766E+02 -0.74780088497E+01 -0.13458416363E+02  0.43393742315E+02  0.47000000000E+01 0.  1.
         -5    1    4    4    0  502  0.60773405976E+02  0.93801530762E+02 -0.48599736224E+02  0.12196785809E+03  0.47000000000E+01 0.  1.
<mgrwt>
<rscale>  0 0.32289162E+03</rscale>
<asrwt>0</asrwt>
<pdfrwt beam="1">  1       21 0.23168952E-01 0.32289162E+03</pdfrwt>
<pdfrwt beam="2">  1       21 0.26626891E-01 0.32289162E+03</pdfrwt>
<totfact> 0.22754867E+05</totfact>
</mgrwt>
</event>
<event>
 8    1  0.4760912E-006  0.4764661E+03  0.7546771E-02  0.1020111E+00
         21   -1    0    0  504  503  0.00000000000E+00  0.00000000000E+00  0.55537537933E+03  0.55537537933E+03  0.00000000000E+00 0.  1.
         21   -1    0    0  503  504 -0.00000000000E+00 -0.00000000000E+00 -0.10219211213E+03  0.10219211213E+03  0.00000000000E+00 0.  1.
         25    2    1    2    0    0 -0.18550883012E+03  0.14480301518E+02  0.11521783943E+03  0.25204032020E+03  0.12500386914E+03 0.  0.
         25    2    1    2    0    0  0.18550883012E+03 -0.14480301518E+02  0.33796542778E+03  0.40552717126E+03  0.12493378676E+03 0.  0.
          5    1    3    3  501    0 -0.19238363124E+03  0.36773636335E+02  0.11695995735E+03  0.22817862196E+03  0.47000000000E+01 0.  1.
         -5    1    3    3    0  501  0.68748011225E+01 -0.22293334817E+02 -0.17421179214E+01  0.23861698234E+02  0.47000000000E+01 0.  1.
          5    1    4    4  502    0  0.11069472105E+03 -0.69586567008E+02  0.18796904837E+03  0.22901979111E+03  0.47000000000E+01 0. -1.
         -5    1    4    4    0  502  0.74814109066E+02  0.55106265489E+02  0.14999637941E+03  0.17650738015E+03  0.47000000000E+01 0. -1.
<mgrwt>
<rscale>  0 0.47646609E+03</rscale>
<asrwt>0</asrwt>
<pdfrwt beam="1">  1       21 0.85442364E-01 0.47646609E+03</pdfrwt>
<pdfrwt beam="2">  1       21 0.15721864E-01 0.47646609E+03</pdfrwt>
<totfact> 0.38746034E+04</totfact>
</mgrwt>
</event>
<event>
 8    1  0.4760912E-006  0.2790124E+03  0.7546771E-02  0.1096230E+00
         21   -1    0    0  504  503  0.00000000000E+00  0.00000000000E+00  0.89493662281E+02  0.89493662281E+02  0.00000000000E+00 0.  1.
         21   -1    0    0  503  504 -0.00000000000E+00 -0.00000000000E+00 -0.21746768028E+03  0.21746768028E+03  0.00000000000E+00 0.  1.
         25    2    1    2    0    0  0.43832587330E+02 -0.39624257261E+02 -0.84561645274E+02  0.16204474848E+03  0.12496580006E+03 0.  0.
         25    2    1    2    0    0 -0.43832587330E+02  0.39624257261E+02 -0.43412372724E+02  0.14491659408E+03  0.12499923063E+03 0.  0.
          5    1    3    3  501    0  0.36119543946E+02  0.16359112524E+02 -0.96198238277E+02  0.10415581148E+03  0.47000000000E+01 0.  1.
         -5    1    3    3    0  501  0.77130433842E+01 -0.55983369785E+02  0.11636593003E+02  0.57888937004E+02  0.47000000000E+01 0.  1.
          5    1    4    4  502    0  0.61642695864E+01 -0.41784746437E+02 -0.10674532008E+02  0.43817791911E+02  0.47000000000E+01 0.  1.
         -5    1    4    4    0  502 -0.49996856917E+02  0.81409003699E+02 -0.32737840716E+02  0.10109880217E+03  0.47000000000E+01 0.  1.
<mgrwt>
<rscale>  0 0.27901239E+03</rscale>
<asrwt>0</asrwt>
<pdfrwt beam="1">  1       21 0.13768256E-01 0.27901239E+03</pdfrwt>
<pdfrwt beam="2">  1       21 0.33456566E-01 0.27901239E+03</pdfrwt>
<totfact> 0.38710979E+05</totfact>
</mgrwt>
</event>
<event>
 8    1  0.4760912E-006  0.3980888E+03  0.7546771E-02  0.1044443E+00
         21   -1    0    0  504  503  0.00000000000E+00  0.00000000000E+00  0.12300088356E+04  0.12300088356E+04  0.00000000000E+00 0. -1.
         21   -1    0    0  503  504 -0.00000000000E+00 -0.00000000000E+00 -0.32210065131E+02  0.32210065131E+02  0.00000000000E+00 0. -1.
         25    2    1    2    0    0  0.70025980755E+02  0.13441653235E+03  0.70028078186E+03  0.72731668901E+03  0.12499980207E+03 0.  0.
         25    2    1    2    0    0 -0.70025980755E+02 -0.13441653235E+03  0.49751798864E+03  0.53490221175E+03  0.12499913987E+03 0.  0.
          5    1    3    3  501    0  0.10302795634E+03  0.10416002013E+03  0.45786568372E+03  0.48075684489E+03  0.47000000000E+01 0. -1.
         -5    1    3    3    0  501 -0.33001975586E+02  0.30256512219E+02  0.24241509814E+03  0.24655984412E+03  0.47000000000E+01 0. -1.
          5    1    4    4  502    0 -0.13482826372E+02 -0.12468795664E+03  0.23785713134E+03  0.26893675478E+03  0.47000000000E+01 0. -1.
         -5    1    4    4    0  502 -0.56543154383E+02 -0.97285757100E+01  0.25966085729E+03  0.26596545697E+03  0.47000000000E+01 0. -1.
<mgrwt>
<rscale>  0 0.39808876E+03</rscale>
<asrwt>0</asrwt>
<pdfrwt beam="1">  1       21 0.18923209E+00 0.39808876E+03</pdfrwt>
<pdfrwt beam="2">  1       21 0.49553956E-02 0.39808876E+03</pdfrwt>
<totfact> 0.39187572E+04</totfact>
</mgrwt>
</event>
<event>
 8    1  0.4760912E-006  0.2761184E+03  0.7546771E-02  0.1097828E+00
         21   -1    0    0  504  503  0.00000000000E+00  0.00000000000E+00  0.55463661063E+02  0.55463661063E+02  0.00000000000E+00 0.  1.
         21   -1    0    0  503  504 -0.00000000000E+00 -0.00000000000E+00 -0.34365467209E+03  0.34365467209E+03  0.00000000000E+00 0.  1.
         25    2    1    2    0    0 -0.22862378879E+02  0.19589875871E+02 -0.71352776866E+02  0.14702399793E+03  0.12497353958E+03 0.  0.
         25    2    1    2    0    0  0.22862378879E+02 -0.19589875871E+02 -0.21683823416E+03  0.25209433522E+03  0.12500512971E+03 0.  0.
          5    1    3    3  501    0  0.44521845035E+02  0.37687351162E+02 -0.29647201943E+02  0.65601659323E+02  0.47000000000E+01 0.  1.
         -5    1    3    3    0  501 -0.67384223913E+02 -0.18097475292E+02 -0.41705574923E+02  0.81422338606E+02  0.47000000000E+01 0.  1.
          5    1    4    4  502    0  0.20806702026E+02 -0.72410329207E+02 -0.12970916856E+03  0.15007575765E+03  0.47000000000E+01 0. -1.
         -5    1    4    4    0  502  0.20556768524E+01  0.52820453336E+02 -0.87129065599E+02  0.10201857757E+03  0.47000000000E+01 0. -1.
<mgrwt>
<rscale>  0 0.27611843E+03</rscale>
<asrwt>0</asrwt>
<pdfrwt beam="1">  1       21 0.85328709E-02 0.27611843E+03</pdfrwt>
<pdfrwt beam="2">  1       21 0.52869950E-01 0.27611843E+03</pdfrwt>
<totfact> 0.35665722E+05</totfact>
</mgrwt>
</event>
<event>
 8    1  0.4760912E-006  0.3947581E+03  0.7546771E-02  0.1045610E+00
         21   -1    0    0  504  503  0.00000000000E+00  0.00000000000E+00  0.30490879614E+02  0.30490879614E+02  0.00000000000E+00 0.  1.
         21   -1    0    0  503  504 -0.00000000000E+00 -0.00000000000E+00 -0.12777098101E+04  0.12777098101E+04  0.00000000000E+00 0.  1.
         25    2    1    2    0    0 -0.58253779285E+02 -0.13549050853E+03 -0.49181257387E+03  0.52844678087E+03  0.12500084676E+03 0.  0.
         25    2    1    2    0    0  0.58253779285E+02  0.13549050853E+03 -0.75540635666E+03  0.77975390889E+03  0.12500485608E+03 0.  0.
          5    1    3    3  501    0 -0.26588217176E+02  0.92451234010E+01 -0.22684474720E+02  0.36456563094E+02  0.47000000000E+01 0. -1.
         -5    1    3    3    0  501 -0.31665562109E+02 -0.14473563193E+03 -0.46912809915E+03  0.49199021778E+03  0.47000000000E+01 0. -1.
          5    1    4    4  502    0  0.80250141581E+02  0.14728239236E+03 -0.66584852056E+03  0.68666478769E+03  0.47000000000E+01 0. -1.
         -5    1    4    4    0  502 -0.21996362296E+02 -0.11791883830E+02 -0.89557836101E+02  0.93089121199E+02  0.47000000000E+01 0. -1.
<mgrwt>
<rscale>  0 0.39475813E+03</rscale>
<asrwt>0</asrwt>
<pdfrwt beam="1">  1       21 0.46909043E-02 0.39475813E+03</pdfrwt>
<pdfrwt beam="2">  1       21 0.19657075E+00 0.39475813E+03</pdfrwt>
<totfact> 0.38457042E+04</totfact>
</mgrwt>
</event>
<event>
 8    1  0.4760912E-006  0.2800795E+03  0.7546771E-02  0.1095646E+00
         21   -1    0    0  504  503  0.00000000000E+00  0.00000000000E+00  0.11819065562E+03  0.11819065562E+03  0.00000000000E+00 0. -1.
         21   -1    0    0  503  504 -0.00000000000E+00 -0.00000000000E+00 -0.16592796047E+03  0.16592796047E+03  0.00000000000E+00 0. -1.
         25    2    1    2    0    0 -0.16654150907E+02 -0.60840691937E+02 -0.26356845897E+02  0.14247160319E+03  0.12499809539E+03 0.  0.
         25    2    1    2    0    0  0.16654150907E+02  0.60840691937E+02 -0.21380458951E+02  0.14164701290E+03  0.12501120630E+03 0.  0.
          5    1    3    3  501    0  0.54168681589E+02 -0.23621045395E+02 -0.47866491548E+01  0.59474379869E+02  0.47000000000E+01 0.  1.
         -5    1    3    3    0  501 -0.70822832497E+02 -0.37219646542E+02 -0.21570196742E+02  0.82997223322E+02  0.47000000000E+01 0.  1.
          5    1    4    4  502    0 -0.24802103392E+02  0.33511985087E+01  0.40233374514E+02  0.47615011172E+02  0.47000000000E+01 0. -1.
         -5    1    4    4    0  502  0.41456254299E+02  0.57489493428E+02 -0.61613833465E+02  0.94032001730E+02  0.47000000000E+01 0. -1.
<mgrwt>
<rscale>  0 0.28007952E+03</rscale>
<asrwt>0</asrwt>
<pdfrwt beam="1">  1       21 0.18183178E-01 0.28007952E+03</pdfrwt>
<pdfrwt beam="2">  1       21 0.25527379E-01 0.28007952E+03</pdfrwt>
<totfact> 0.39375232E+05</totfact>
</mgrwt>
</event>
<event>
 8    1  0.4760912E-006  0.4777532E+03  0.7546771E-02  0.1019754E+00
         21   -1    0    0  504  503  0.00000000000E+00  0.00000000000E+00  0.99684976691E+03  0.99684976691E+03  0.00000000000E+00 0. -1.
         21   -1    0    0  503  504 -0.00000000000E+00 -0.00000000000E+00 -0.57242358989E+02  0.57242358989E+02  0.00000000000E+00 0. -1.
         25    2    1    2    0    0 -0.12704772344E+03  0.81935312436E+02  0.77056992359E+03  0.79514618852E+03  0.12499973811E+03 0.  0.
         25    2    1    2    0    0  0.12704772344E+03 -0.81935312436E+02  0.16903748433E+03  0.25894593738E+03  0.12499923168E+03 0.  0.
          5    1    3    3  501    0 -0.13294849568E+03  0.47291721795E+02  0.42666494305E+03  0.44941837199E+03  0.47000000000E+01 0.  1.
         -5    1    3    3    0  501  0.59007722365E+01  0.34643590641E+02  0.34390498055E+03  0.34572781654E+03  0.47000000000E+01 0.  1.
          5    1    4    4  502    0  0.14664258986E+03 -0.86842458277E+02  0.12879095447E+03  0.21366998309E+03  0.47000000000E+01 0.  1.
         -5    1    4    4    0  502 -0.19594866422E+02  0.49071458410E+01  0.40246529865E+02  0.45275954287E+02  0.47000000000E+01 0.  1.
<mgrwt>
<rscale>  0 0.47775321E+03</rscale>
<asrwt>0</asrwt>
<pdfrwt beam="1">  1       21 0.15336149E+00 0.47775321E+03</pdfrwt>
<pdfrwt beam="2">  1       21 0.88065175E-02 0.47775321E+03</pdfrwt>
<totfact> 0.25468464E+04</totfact>
</mgrwt>
</event>
<event>
 8    1  0.4760912E-006  0.2675888E+03  0.7546771E-02  0.1102668E+00
         21   -1    0    0  504  503  0.00000000000E+00  0.00000000000E+00  0.48733793828E+03  0.48733793828E+03  0.00000000000E+00 0. -1.
         21   -1    0    0  503  504 -0.00000000000E+00 -0.00000000000E+00 -0.36732082379E+02  0.36732082379E+02  0.00000000000E+00 0. -1.
         25    2    1    2    0    0  0.15765310805E+02  0.19045481088E+02  0.14539108440E+03  0.19332390606E+03  0.12499715940E+03 0.  0.
         25    2    1    2    0    0 -0.15765310805E+02 -0.19045481088E+02  0.30521477150E+03  0.33074611459E+03  0.12500264079E+03 0.  0.
          5    1    3    3  501    0  0.18416115860E+02  0.16774389101E+02 -0.17195581412E+02  0.30631870220E+02  0.47000000000E+01 0. -1.
         -5    1    3    3    0  501 -0.26508050556E+01  0.22710919864E+01  0.16258666582E+03  0.16269203584E+03  0.47000000000E+01 0. -1.
          5    1    4    4  502    0 -0.23604984999E+02 -0.67385026734E+02  0.12598410830E+03  0.14488624051E+03  0.47000000000E+01 0.  1.
         -5    1    4    4    0  502  0.78396741942E+01  0.48339545647E+02  0.17923066319E+03  0.18585987408E+03  0.47000000000E+01 0.  1.
<mgrwt>
<rscale>  0 0.26758877E+03</rscale>
<asrwt>0</asrwt>
<pdfrwt beam="1">  1       21 0.74975063E-01 0.26758877E+03</pdfrwt>
<pdfrwt beam="2">  1       21 0.56510899E-02 0.26758877E+03</pdfrwt>
<totfact> 0.34114429E+05</totfact>
</mgrwt>
</event>
<event>
 8    1  0.4760912E-006  0.2803152E+03  0.7546771E-02  0.1095517E+00
         21   -1    0    0  504  503  0.00000000000E+00  0.00000000000E+00  0.20853763944E+03  0.20853763944E+03  0.00000000000E+00 0. -1.
         21   -1    0    0  503  504 -0.00000000000E+00 -0.00000000000E+00 -0.94199575808E+02  0.94199575808E+02  0.00000000000E+00 0. -1.
         25    2    1    2    0    0  0.20821252813E+02 -0.55256856914E+02  0.82083159171E+02  0.16077740791E+03  0.12499954027E+03 0.  0.
         25    2    1    2    0    0 -0.20821252813E+02  0.55256856914E+02  0.32254904464E+02  0.14195980734E+03  0.12500145293E+03 0.  0.
          5    1    3    3  501    0  0.56807407399E+02 -0.73887106223E+02  0.74212449999E+02  0.11923071641E+03  0.47000000000E+01 0. -1.
         -5    1    3    3    0  501 -0.35986154585E+02  0.18630249309E+02  0.78707091714E+01  0.41546691493E+02  0.47000000000E+01 0. -1.
          5    1    4    4  502    0  0.25363983158E+00  0.33635519829E+02  0.79069506899E+02  0.86055153527E+02  0.47000000000E+01 0.  1.
         -5    1    4    4    0  502 -0.21074892645E+02  0.21621337085E+02 -0.46814602435E+02  0.55904653818E+02  0.47000000000E+01 0.  1.
<mgrwt>
<rscale>  0 0.28031523E+03</rscale>
<asrwt>0</asrwt>
<pdfrwt beam="1">  1       21 0.32082714E-01 0.28031523E+03</pdfrwt>
<pdfrwt beam="2">  1       21 0.14492242E-01 0.28031523E+03</pdfrwt>
<totfact> 0.38302567E+05</totfact>
</mgrwt>
</event>
<event>
 8    1  0.4760912E-006  0.3302413E+03  0.7546771E-02  0.1071030E+00
         21   -1    0    0  504  503  0.00000000000E+00  0.00000000000E+00  0.75303905203E+02  0.75303905203E+02  0.00000000000E+00 0. -1.
         21   -1    0    0  503  504 -0.00000000000E+00 -0.00000000000E+00 -0.36206391509E+03  0.36206391509E+03  0.00000000000E+00 0. -1.
         25    2    1    2    0    0 -0.76187241531E+02 -0.45973215906E+02 -0.22417798274E+03  0.27165763810E+03  0.12499628810E+03 0.  0.
         25    2    1    2    0    0  0.76187241531E+02  0.45973215906E+02 -0.62582027145E+02  0.16571018219E+03  0.12500128802E+03 0.  0.
          5    1    3    3  501    0 -0.22357005993E+02 -0.14923068097E+02 -0.20448735819E+03  0.20630003233E+03  0.47000000000E+01 0. -1.
         -5    1    3    3    0  501 -0.53830235538E+02 -0.31050147810E+02 -0.19690624548E+02  0.65357605771E+02  0.47000000000E+01 0. -1.
          5    1    4    4  502    0  0.14966277082E+02  0.67728840414E+02  0.76234777909E+01  0.69938492171E+02  0.47000000000E+01 0.  1.
         -5    1    4    4    0  502  0.61220964450E+02 -0.21755624508E+02 -0.70205504936E+02  0.95771690019E+02  0.47000000000E+01 0.  1.
<mgrwt>
<rscale>  0 0.33024129E+03</rscale>
<asrwt>0</asrwt>
<pdfrwt beam="1">  1       21 0.11585216E-01 0.33024129E+03</pdfrwt>
<pdfrwt beam="2">  1       21 0.55702141E-01 0.33024129E+03</pdfrwt>
<totfact> 0.18284545E+05</totfact>
</mgrwt>
</event>
<event>
 8    1  0.4760912E-006  0.2576382E+03  0.7546771E-02  0.1108571E+00
         21   -1    0    0  504  503  0.00000000000E+00  0.00000000000E+00  0.34101124969E+03  0.34101124969E+03  0.00000000000E+00 0.  1.
         21   -1    0    0  503  504 -0.00000000000E+00 -0.00000000000E+00 -0.48662210878E+02  0.48662210878E+02  0.00000000000E+00 0.  1.
         25    2    1    2    0    0  0.17860176077E+02  0.21214673176E+02  0.16758532148E+03  0.21090018973E+03  0.12500000722E+03 0.  0.
         25    2    1    2    0    0 -0.17860176077E+02 -0.21214673176E+02  0.12476371733E+03  0.17877327084E+03  0.12499939582E+03 0.  0.
          5    1    3    3  501    0 -0.30666060268E+02  0.38190042972E+02  0.17562790052E+02  0.52243930068E+02  0.47000000000E+01 0.  1.
         -5    1    3    3    0  501  0.48526236345E+02 -0.16975369796E+02  0.15002253143E+03  0.15865625966E+03  0.47000000000E+01 0.  1.
          5    1    4    4  502    0 -0.63615081204E+02 -0.30662318790E+02  0.10757678842E+03  0.12877077213E+03  0.47000000000E+01 0.  1.
         -5    1    4    4    0  502  0.45754905127E+02  0.94476456140E+01  0.17186928913E+02  0.50002498701E+02  0.47000000000E+01 0.  1.
<mgrwt>
<rscale>  0 0.25763821E+03</rscale>
<asrwt>0</asrwt>
<pdfrwt beam="1">  1       21 0.52463268E-01 0.25763821E+03</pdfrwt>
<pdfrwt beam="2">  1       21 0.74864942E-02 0.25763821E+03</pdfrwt>
<totfact> 0.45765214E+05</totfact>
</mgrwt>
</event>
<event>
 8    1  0.4760912E-006  0.2888611E+03  0.7546771E-02  0.1090945E+00
         21   -1    0    0  504  503  0.00000000000E+00  0.00000000000E+00  0.94205986661E+03  0.94205986661E+03  0.00000000000E+00 0.  1.
         21   -1    0    0  503  504 -0.00000000000E+00 -0.00000000000E+00 -0.22143162521E+02  0.22143162521E+02  0.00000000000E+00 0.  1.
         25    2    1    2    0    0  0.54991474199E+02  0.46105074109E+02  0.42972700212E+03  0.45325681074E+03  0.12500679999E+03 0.  0.
         25    2    1    2    0    0 -0.54991474199E+02 -0.46105074109E+02  0.49018970197E+03  0.51094621839E+03  0.12502141446E+03 0.  0.
          5    1    3    3  501    0  0.59236291242E+01 -0.18878205347E+02  0.29544912158E+03  0.29614818835E+03  0.47000000000E+01 0.  1.
         -5    1    3    3    0  501  0.49067845075E+02  0.64983279457E+02  0.13427788053E+03  0.15710862239E+03  0.47000000000E+01 0.  1.
          5    1    4    4  502    0  0.20140845543E+02 -0.73647589468E+01  0.11416530630E+02  0.24745110732E+02  0.47000000000E+01 0. -1.
         -5    1    4    4    0  502 -0.75132319742E+02 -0.38740315163E+02  0.47877317134E+03  0.48620110765E+03  0.47000000000E+01 0. -1.
<mgrwt>
<rscale>  0 0.28886111E+03</rscale>
<asrwt>0</asrwt>
<pdfrwt beam="1">  1       21 0.14493226E+00 0.28886111E+03</pdfrwt>
<pdfrwt beam="2">  1       21 0.34066411E-02 0.28886111E+03</pdfrwt>
<totfact> 0.16175008E+05</totfact>
</mgrwt>
</event>
<event>
 8    1  0.4760912E-006  0.2916935E+03  0.7546771E-02  0.1089468E+00
         21   -1    0    0  504  503  0.00000000000E+00  0.00000000000E+00  0.11137623218E+02  0.11137623218E+02  0.00000000000E+00 0. -1.
         21   -1    0    0  503  504 -0.00000000000E+00 -0.00000000000E+00 -0.19098572903E+04  0.19098572903E+04  0.00000000000E+00 0. -1.
         25    2    1    2    0    0 -0.72963760543E+02 -0.11544738185E+02 -0.85844394424E+03  0.87063542561E+03  0.12499219010E+03 0.  0.
         25    2    1    2    0    0  0.72963760543E+02  0.11544738185E+02 -0.10402757229E+04  0.10503594879E+04  0.12499793190E+03 0.  0.
          5    1    3    3  501    0  0.13065775733E+02  0.29987697592E+02 -0.83343623526E+02  0.89656154751E+02  0.47000000000E+01 0. -1.
         -5    1    3    3    0  501 -0.86029536276E+02 -0.41532435777E+02 -0.77510032072E+03  0.78097927086E+03  0.47000000000E+01 0. -1.
          5    1    4    4  502    0  0.40492492267E+02 -0.42786825552E+02 -0.78833660761E+03  0.79054857617E+03  0.47000000000E+01 0.  1.
         -5    1    4    4    0  502  0.32471268276E+02  0.54331563737E+02 -0.25193911526E+03  0.25981091178E+03  0.47000000000E+01 0.  1.
<mgrwt>
<rscale>  0 0.29169348E+03</rscale>
<asrwt>0</asrwt>
<pdfrwt beam="1">  1       21 0.17134819E-02 0.29169348E+03</pdfrwt>
<pdfrwt beam="2">  1       21 0.29382395E+00 0.29169348E+03</pdfrwt>
<totfact> 0.54601730E+04</totfact>
</mgrwt>
</event>
<event>
 8    1  0.4760912E-006  0.3678648E+03  0.7546771E-02  0.1055512E+00
         21   -1    0    0  504  503  0.00000000000E+00  0.00000000000E+00  0.59546072396E+02  0.59546072396E+02  0.00000000000E+00 0.  1.
         21   -1    0    0  503  504 -0.00000000000E+00 -0.00000000000E+00 -0.56815041473E+03  0.56815041473E+03  0.00000000000E+00 0.  1.
         25    2    1    2    0    0 -0.32912499727E+02 -0.57177636484E+02 -0.53469969798E+02  0.15112089047E+03  0.12500388439E+03 0.  0.
         25    2    1    2    0    0  0.32912499727E+02  0.57177636484E+02 -0.45513437253E+03  0.47657559666E+03  0.12499795004E+03 0.  0.
          5    1    3    3  501    0 -0.15985573066E+02  0.38852206764E+02 -0.64486247268E+01  0.42763387115E+02  0.47000000000E+01 0. -1.
         -5    1    3    3    0  501 -0.16926926661E+02 -0.96029843249E+02 -0.47021345071E+02  0.10835750335E+03  0.47000000000E+01 0. -1.
          5    1    4    4  502    0  0.87032274817E+01 -0.38064645880E+02 -0.86190001942E+02  0.94738956451E+02  0.47000000000E+01 0. -1.
         -5    1    4    4    0  502  0.24209272245E+02  0.95242282364E+02 -0.36894437059E+03  0.38183664021E+03  0.47000000000E+01 0. -1.
<mgrwt>
<rscale>  0 0.36786479E+03</rscale>
<asrwt>0</asrwt>
<pdfrwt beam="1">  1       21 0.91609339E-02 0.36786479E+03</pdfrwt>
<pdfrwt beam="2">  1       21 0.87407759E-01 0.36786479E+03</pdfrwt>
<totfact> 0.10069849E+05</totfact>
</mgrwt>
</event>
<event>
 8    1  0.4760912E-006  0.3286246E+03  0.7546771E-02  0.1071747E+00
         21   -1    0    0  504  503  0.00000000000E+00  0.00000000000E+00  0.24915209670E+03  0.24915209670E+03  0.00000000000E+00 0.  1.
         21   -1    0    0  503  504 -0.00000000000E+00 -0.00000000000E+00 -0.10836167470E+03  0.10836167470E+03  0.00000000000E+00 0.  1.
         25    2    1    2    0    0  0.69470233895E+02 -0.43979090912E+02  0.14428698378E+03  0.20785886205E+03  0.12500519594E+03 0.  0.
         25    2    1    2    0    0 -0.69470233895E+02  0.43979090912E+02 -0.34965617731E+01  0.14965490934E+03  0.12499636839E+03 0.  0.
          5    1    3    3  501    0  0.10586849007E+03 -0.34249116602E+02  0.10189828696E+03  0.15095194621E+03  0.47000000000E+01 0.  1.
         -5    1    3    3    0  501 -0.36398256179E+02 -0.97299743101E+01  0.42388696816E+02  0.56906915843E+02  0.47000000000E+01 0.  1.
          5    1    4    4  502    0 -0.14491510773E+02  0.22146434204E+02 -0.61225073480E+02  0.66866045606E+02  0.47000000000E+01 0. -1.
         -5    1    4    4    0  502 -0.54978723123E+02  0.21832656709E+02  0.57728511707E+02  0.82788863738E+02  0.47000000000E+01 0. -1.
<mgrwt>
<rscale>  0 0.32862464E+03</rscale>
<asrwt>0</asrwt>
<pdfrwt beam="1">  1       21 0.38331092E-01 0.32862464E+03</pdfrwt>
<pdfrwt beam="2">  1       21 0.16671027E-01 0.32862464E+03</pdfrwt>
<totfact> 0.20500903E+05</totfact>
</mgrwt>
</event>
<event>
 8    1  0.4760912E-006  0.2797992E+03  0.7546771E-02  0.1095799E+00
         21   -1    0    0  504  503  0.00000000000E+00  0.00000000000E+00  0.20191206013E+02  0.20191206013E+02  0.00000000000E+00 0.  1.
         21   -1    0    0  503  504 -0.00000000000E+00 -0.00000000000E+00 -0.96932785961E+03  0.96932785961E+03  0.00000000000E+00 0.  1.
         25    2    1    2    0    0 -0.56236395541E+02  0.20200674669E+02 -0.54316601436E+03  0.56055799383E+03  0.12500138343E+03 0.  0.
         25    2    1    2    0    0  0.56236395541E+02 -0.20200674669E+02 -0.40597063924E+03  0.42896107179E+03  0.12499936698E+03 0.  0.
          5    1    3    3  501    0 -0.22846893531E+02 -0.23771155816E+02 -0.45636104039E+03  0.45757462515E+03  0.47000000000E+01 0. -1.
         -5    1    3    3    0  501 -0.33389502010E+02  0.43971830485E+02 -0.86804973966E+02  0.10298336869E+03  0.47000000000E+01 0. -1.
          5    1    4    4  502    0  0.48815423944E+02  0.42740827461E+02 -0.12524231059E+03  0.14112919722E+03  0.47000000000E+01 0.  1.
         -5    1    4    4    0  502  0.74209715966E+01 -0.62941502130E+02 -0.28072832865E+03  0.28783187457E+03  0.47000000000E+01 0.  1.
<mgrwt>
<rscale>  0 0.27979920E+03</rscale>
<asrwt>0</asrwt>
<pdfrwt beam="1">  1       21 0.31063395E-02 0.27979920E+03</pdfrwt>
<pdfrwt beam="2">  1       21 0.14912736E+00 0.27979920E+03</pdfrwt>
<totfact> 0.17549084E+05</totfact>
</mgrwt>
</event>
<event>
 8    1  0.4760912E-006  0.2710906E+03  0.7546771E-02  0.1100657E+00
         21   -1    0    0  504  503  0.00000000000E+00  0.00000000000E+00  0.49345204507E+02  0.49345204507E+02  0.00000000000E+00 0. -1.
         21   -1    0    0  503  504 -0.00000000000E+00 -0.00000000000E+00 -0.37232661046E+03  0.37232661046E+03  0.00000000000E+00 0. -1.
         25    2    1    2    0    0  0.14711571019E+02  0.15749429338E+02 -0.87172289572E+02  0.15391011294E+03  0.12499935979E+03 0.  0.
         25    2    1    2    0    0 -0.14711571019E+02 -0.15749429338E+02 -0.23580911638E+03  0.26776170203E+03  0.12500365939E+03 0.  0.
          5    1    3    3  501    0  0.57442777190E+02  0.30411354910E+02 -0.12268205494E+02  0.66310798704E+02  0.47000000000E+01 0. -1.
         -5    1    3    3    0  501 -0.42731206171E+02 -0.14661925571E+02 -0.74904084078E+02  0.87599314232E+02  0.47000000000E+01 0. -1.
          5    1    4    4  502    0  0.79222429067E+01 -0.12213640149E+02 -0.24285615101E+03  0.24333749201E+03  0.47000000000E+01 0. -1.
         -5    1    4    4    0  502 -0.22633813926E+02 -0.35357891899E+01  0.70470346237E+01  0.24424210018E+02  0.47000000000E+01 0. -1.
<mgrwt>
<rscale>  0 0.27109063E+03</rscale>
<asrwt>0</asrwt>
<pdfrwt beam="1">  1       21 0.75915698E-02 0.27109063E+03</pdfrwt>
<pdfrwt beam="2">  1       21 0.57281018E-01 0.27109063E+03</pdfrwt>
<totfact> 0.36940136E+05</totfact>
</mgrwt>
</event>
<event>
 8    1  0.4760912E-006  0.2768790E+03  0.7546771E-02  0.1097406E+00
         21   -1    0    0  504  503  0.00000000000E+00  0.00000000000E+00  0.43964674515E+03  0.43964674515E+03  0.00000000000E+00 0. -1.
         21   -1    0    0  503  504 -0.00000000000E+00 -0.00000000000E+00 -0.43592949573E+02  0.43592949573E+02  0.00000000000E+00 0. -1.
         25    2    1    2    0    0 -0.18388277891E+02  0.31505974650E+02  0.28006788305E+03  0.30885823422E+03  0.12499853810E+03 0.  0.
         25    2    1    2    0    0  0.18388277891E+02 -0.31505974650E+02  0.11598591253E+03  0.17438146051E+03  0.12500162663E+03 0.  0.
          5    1    3    3  501    0 -0.17332229098E+01  0.56001770458E+02  0.45358814809E+02  0.72240670241E+02  0.47000000000E+01 0. -1.
         -5    1    3    3    0  501 -0.16655054982E+02 -0.24495795808E+02  0.23470906824E+03  0.23661756398E+03  0.47000000000E+01 0. -1.
          5    1    4    4  502    0  0.13122414020E+02 -0.71942496121E+02  0.30159112709E+02  0.79243817281E+02  0.47000000000E+01 0. -1.
         -5    1    4    4    0  502  0.52658638718E+01  0.40436521472E+02  0.85826799823E+02  0.95137643228E+02  0.47000000000E+01 0. -1.
<mgrwt>
<rscale>  0 0.27687902E+03</rscale>
<asrwt>0</asrwt>
<pdfrwt beam="1">  1       21 0.67637958E-01 0.27687902E+03</pdfrwt>
<pdfrwt beam="2">  1       21 0.67066079E-02 0.27687902E+03</pdfrwt>
<totfact> 0.31872551E+05</totfact>
</mgrwt>
</event>
<event>
 8    1  0.4760912E-006  0.3604691E+03  0.7546771E-02  0.1058398E+00
         21   -1    0    0  504  503  0.00000000000E+00  0.00000000000E+00  0.34058000646E+03  0.34058000646E+03  0.00000000000E+00 0.  1.
         21   -1    0    0  503  504 -0.00000000000E+00 -0.00000000000E+00 -0.95379927793E+02  0.95379927793E+02  0.00000000000E+00 0.  1.
         25    2    1    2    0    0  0.53744527782E+02  0.73389188648E+02  0.10535799716E+02  0.15495160559E+03  0.12499819888E+03 0.  0.
         25    2    1    2    0    0 -0.53744527782E+02 -0.73389188648E+02  0.23466427895E+03  0.28100832866E+03  0.12499563866E+03 0.  0.
          5    1    3    3  501    0 -0.32902457393E+02  0.51347174134E+02 -0.12668208665E+02  0.62463409327E+02  0.47000000000E+01 0. -1.
         -5    1    3    3    0  501  0.86646985175E+02  0.22042014514E+02  0.23204008381E+02  0.92488196267E+02  0.47000000000E+01 0. -1.
          5    1    4    4  502    0  0.13481093422E+01 -0.21514799481E+01  0.16989890768E+03  0.16998286707E+03  0.47000000000E+01 0. -1.
         -5    1    4    4    0  502 -0.55092637125E+02 -0.71237708700E+02  0.64765371269E+02  0.11102546159E+03  0.47000000000E+01 0. -1.
<mgrwt>
<rscale>  0 0.36046912E+03</rscale>
<asrwt>0</asrwt>
<pdfrwt beam="1">  1       21 0.52396923E-01 0.36046912E+03</pdfrwt>
<pdfrwt beam="2">  1       21 0.14673835E-01 0.36046912E+03</pdfrwt>
<totfact> 0.13454647E+05</totfact>
</mgrwt>
</event>
<event>
 8    1  0.4760912E-006  0.3364502E+03  0.7546771E-02  0.1068318E+00
         21   -1    0    0  504  503  0.00000000000E+00  0.00000000000E+00  0.82368898477E+03  0.82368898477E+03  0.00000000000E+00 0. -1.
         21   -1    0    0  503  504 -0.00000000000E+00 -0.00000000000E+00 -0.34357243246E+02  0.34357243246E+02  0.00000000000E+00 0. -1.
         25    2    1    2    0    0  0.88740606654E+02  0.40248466377E+01  0.57104264997E+03  0.59127631445E+03  0.12500750894E+03 0.  0.
         25    2    1    2    0    0 -0.88740606654E+02 -0.40248466377E+01  0.21828909156E+03  0.26676991357E+03  0.12499985852E+03 0.  0.
          5    1    3    3  501    0 -0.23205916388E+02 -0.27584796873E+02  0.15901153741E+03  0.16311405397E+03  0.47000000000E+01 0.  1.
         -5    1    3    3    0  501  0.11194652304E+03  0.31609643511E+02  0.41203111256E+03  0.42816226048E+03  0.47000000000E+01 0.  1.
          5    1    4    4  502    0 -0.31666568934E+02 -0.37286302260E+02  0.12672894111E+02  0.50751671592E+02  0.47000000000E+01 0. -1.
         -5    1    4    4    0  502 -0.57074037720E+02  0.33261455622E+02  0.20561619745E+03  0.21601824197E+03  0.47000000000E+01 0. -1.
<mgrwt>
<rscale>  0 0.33645019E+03</rscale>
<asrwt>0</asrwt>
<pdfrwt beam="1">  1       21 0.12672137E+00 0.33645019E+03</pdfrwt>
<pdfrwt beam="2">  1       21 0.52857303E-02 0.33645019E+03</pdfrwt>
<totfact> 0.10721301E+05</totfact>
</mgrwt>
</event>
<event>
 8    1  0.4760912E-006  0.3125991E+03  0.7546771E-02  0.1079107E+00
         21   -1    0    0  504  503  0.00000000000E+00  0.00000000000E+00  0.19512558392E+03  0.19512558392E+03  0.00000000000E+00 0.  1.
         21   -1    0    0  503  504 -0.00000000000E+00 -0.00000000000E+00 -0.12519910435E+03  0.12519910435E+03  0.00000000000E+00 0.  1.
         25    2    1    2    0    0 -0.44483740001E+02 -0.49412253005E+02  0.10282161674E+03  0.17497538834E+03  0.12499491103E+03 0.  0.
         25    2    1    2    0    0  0.44483740001E+02  0.49412253005E+02 -0.32895137175E+02  0.14534929993E+03  0.12499582021E+03 0.  0.
          5    1    3    3  501    0 -0.24020027334E+00  0.40030425473E+02  0.41007844023E+02  0.57499790706E+02  0.47000000000E+01 0.  1.
         -5    1    3    3    0  501 -0.44243539727E+02 -0.89442678478E+02  0.61813772716E+02  0.11747559763E+03  0.47000000000E+01 0.  1.
          5    1    4    4  502    0  0.66092165504E+02 -0.11162838410E+02  0.99535126018E+01  0.67926031206E+02  0.47000000000E+01 0.  1.
         -5    1    4    4    0  502 -0.21608425503E+02  0.60575091415E+02 -0.42848649777E+02  0.77423268727E+02  0.47000000000E+01 0.  1.
<mgrwt>
<rscale>  0 0.31259909E+03</rscale>
<asrwt>0</asrwt>
<pdfrwt beam="1">  1       21 0.30019321E-01 0.31259909E+03</pdfrwt>
<pdfrwt beam="2">  1       21 0.19261401E-01 0.31259909E+03</pdfrwt>
<totfact> 0.25604988E+05</totfact>
</mgrwt>
</event>
<event>
 8    1  0.4760912E-006  0.2539712E+03  0.7546771E-02  0.1110821E+00
         21   -1    0    0  504  503  0.00000000000E+00  0.00000000000E+00  0.12884327200E+02  0.12884327200E+02  0.00000000000E+00 0.  1.
         21   -1    0    0  503  504 -0.00000000000E+00 -0.00000000000E+00 -0.12515470699E+04  0.12515470699E+04  0.00000000000E+00 0.  1.
         25    2    1    2    0    0  0.20830040385E+01 -0.18263865159E+02 -0.68319191464E+03  0.69477448893E+03  0.12498996182E+03 0.  0.
         25    2    1    2    0    0 -0.20830040385E+01  0.18263865159E+02 -0.55547082808E+03  0.56965690819E+03  0.12499297792E+03 0.  0.
          5    1    3    3  501    0 -0.14854097246E+02  0.51597090289E+02 -0.26542586615E+03  0.27084291453E+03  0.47000000000E+01 0. -1.
         -5    1    3    3    0  501  0.16937101284E+02 -0.69860955448E+02 -0.41776604850E+03  0.42393157440E+03  0.47000000000E+01 0. -1.
          5    1    4    4  502    0 -0.91702207530E+00 -0.46874008503E+02 -0.37066507334E+03  0.37364782910E+03  0.47000000000E+01 0.  1.
         -5    1    4    4    0  502 -0.11659819632E+01  0.65137873662E+02 -0.18480575474E+03  0.19600907909E+03  0.47000000000E+01 0.  1.
<mgrwt>
<rscale>  0 0.25397119E+03</rscale>
<asrwt>0</asrwt>
<pdfrwt beam="1">  1       21 0.19822038E-02 0.25397119E+03</pdfrwt>
<pdfrwt beam="2">  1       21 0.19254574E+00 0.25397119E+03</pdfrwt>
<totfact> 0.18228445E+05</totfact>
</mgrwt>
</event>
<event>
 8    1  0.4760912E-006  0.2734731E+03  0.7546771E-02  0.1099308E+00
         21   -1    0    0  504  503  0.00000000000E+00  0.00000000000E+00  0.76936753248E+02  0.76936753248E+02  0.00000000000E+00 0.  1.
         21   -1    0    0  503  504 -0.00000000000E+00 -0.00000000000E+00 -0.24301632787E+03  0.24301632787E+03  0.00000000000E+00 0.  1.
         25    2    1    2    0    0 -0.22113686502E+02 -0.26678661596E+02 -0.32421314863E+02  0.13370386238E+03  0.12499926017E+03 0.  0.
         25    2    1    2    0    0  0.22113686502E+02  0.26678661596E+02 -0.13365825975E+03  0.18624921874E+03  0.12499389971E+03 0.  0.
          5    1    3    3  501    0 -0.27562408364E+02  0.43937544051E+02  0.69383861269E+01  0.52539750038E+02  0.47000000000E+01 0.  1.
         -5    1    3    3    0  501  0.54487218624E+01 -0.70616205647E+02 -0.39359700990E+02  0.81164112340E+02  0.47000000000E+01 0.  1.
          5    1    4    4  502    0  0.49910017807E+00 -0.47996533131E+02 -0.73177146347E+02  0.87640749889E+02  0.47000000000E+01 0.  1.
         -5    1    4    4    0  502  0.21614586323E+02  0.74675194727E+02 -0.60481113407E+02  0.98608468848E+02  0.47000000000E+01 0.  1.
<mgrwt>
<rscale>  0 0.27347312E+03</rscale>
<asrwt>0</asrwt>
<pdfrwt beam="1">  1       21 0.11836424E-01 0.27347312E+03</pdfrwt>
<pdfrwt beam="2">  1       21 0.37387127E-01 0.27347312E+03</pdfrwt>
<totfact> 0.40791892E+05</totfact>
</mgrwt>
</event>
<event>
 8    1  0.4760912E-006  0.2824938E+03  0.7546771E-02  0.1094335E+00
         21   -1    0    0  504  503  0.00000000000E+00  0.00000000000E+00  0.67361294902E+02  0.67361294902E+02  0.00000000000E+00 0. -1.
         21   -1    0    0  503  504 -0.00000000000E+00 -0.00000000000E+00 -0.29617432985E+03  0.29617432985E+03  0.00000000000E+00 0. -1.
         25    2    1    2    0    0  0.59964620263E+02 -0.68929112692E+01 -0.14801121124E+03  0.20292005465E+03  0.12500384800E+03 0.  0.
         25    2    1    2    0    0 -0.59964620263E+02  0.68929112692E+01 -0.80801823711E+02  0.16061557011E+03  0.12500063495E+03 0.  0.
          5    1    3    3  501    0  0.37190854231E+02 -0.65072572460E+02 -0.68117978550E+02  0.10138909373E+03  0.47000000000E+01 0.  1.
         -5    1    3    3    0  501  0.22773766032E+02  0.58179661191E+02 -0.79893232690E+02  0.10153096092E+03  0.47000000000E+01 0.  1.
          5    1    4    4  502    0 -0.58192632831E+02  0.23141590360E+00 -0.11308787850E+03  0.12726898417E+03  0.47000000000E+01 0. -1.
         -5    1    4    4    0  502 -0.17719874322E+01  0.66614953656E+01  0.32286054786E+02  0.33346585936E+02  0.47000000000E+01 0. -1.
<mgrwt>
<rscale>  0 0.28249380E+03</rscale>
<asrwt>0</asrwt>
<pdfrwt beam="1">  1       21 0.10363276E-01 0.28249380E+03</pdfrwt>
<pdfrwt beam="2">  1       21 0.45565282E-01 0.28249380E+03</pdfrwt>
<totfact> 0.34474396E+05</totfact>
</mgrwt>
</event>
<event>
 8    1  0.4760912E-006  0.2534373E+03  0.7546771E-02  0.1111152E+00
         21   -1    0    0  504  503  0.00000000000E+00  0.00000000000E+00  0.16924065751E+03  0.16924065751E+03  0.00000000000E+00 0. -1.
         21   -1    0    0  503  504 -0.00000000000E+00 -0.00000000000E+00 -0.94880387343E+02  0.94880387343E+02  0.00000000000E+00 0. -1.
         25    2    1    2    0    0  0.66219903406E+00 -0.69198104313E+01  0.57635609923E+02  0.13781962851E+03  0.12499625670E+03 0.  0.
         25    2    1    2    0    0 -0.66219903406E+00  0.69198104313E+01  0.16724660244E+02  0.12630141634E+03  0.12499604484E+03 0.  0.
          5    1    3    3  501    0  0.87606644830E+00  0.52867051991E+02 -0.21660816224E+01  0.53126966676E+02  0.47000000000E+01 0.  1.
         -5    1    3    3    0  501 -0.21386741424E+00 -0.59786862422E+02  0.59801691545E+02  0.84692661838E+02  0.47000000000E+01 0.  1.
          5    1    4    4  502    0  0.66504335766E+01  0.39796158407E+02 -0.42007157121E+02  0.58435038633E+02  0.47000000000E+01 0.  1.
         -5    1    4    4    0  502 -0.73126326107E+01 -0.32876347976E+02  0.58731817365E+02  0.67866377706E+02  0.47000000000E+01 0.  1.
<mgrwt>
<rscale>  0 0.25343732E+03</rscale>
<asrwt>0</asrwt>
<pdfrwt beam="1">  1       21 0.26037024E-01 0.25343732E+03</pdfrwt>
<pdfrwt beam="2">  1       21 0.14596983E-01 0.25343732E+03</pdfrwt>
<totfact> 0.57133185E+05</totfact>
</mgrwt>
</event>
<event>
 8    1  0.4760912E-006  0.3893768E+03  0.7546771E-02  0.1047521E+00
         21   -1    0    0  504  503  0.00000000000E+00  0.00000000000E+00  0.48318592625E+02  0.48318592625E+02  0.00000000000E+00 0.  1.
         21   -1    0    0  503  504 -0.00000000000E+00 -0.00000000000E+00 -0.78445117019E+03  0.78445117019E+03  0.00000000000E+00 0.  1.
         25    2    1    2    0    0  0.10368400721E+03 -0.45795868431E+02 -0.57575606725E+03  0.59997197608E+03  0.12499475260E+03 0.  0.
         25    2    1    2    0    0 -0.10368400721E+03  0.45795868431E+02 -0.16037651031E+03  0.23279778674E+03  0.12500619799E+03 0.  0.
          5    1    3    3  501    0 -0.10375354611E+02 -0.52614728402E+02 -0.20735799504E+03  0.21423208381E+03  0.47000000000E+01 0.  1.
         -5    1    3    3    0  501  0.11405936182E+03  0.68188599707E+01 -0.36839807222E+03  0.38573989226E+03  0.47000000000E+01 0.  1.
          5    1    4    4  502    0 -0.64727770488E+02 -0.36520133241E+02 -0.94433575403E+02  0.12026302245E+03  0.47000000000E+01 0.  1.
         -5    1    4    4    0  502 -0.38956236724E+02  0.82316001672E+02 -0.65942934909E+02  0.11253476430E+03  0.47000000000E+01 0.  1.
<mgrwt>
<rscale>  0 0.38937682E+03</rscale>
<asrwt>0</asrwt>
<pdfrwt beam="1">  1       21 0.74336297E-02 0.38937682E+03</pdfrwt>
<pdfrwt beam="2">  1       21 0.12068479E+00 0.38937682E+03</pdfrwt>
<totfact> 0.66146955E+04</totfact>
</mgrwt>
</event>
<event>
 8    1  0.4760912E-006  0.3454244E+03  0.7546771E-02  0.1064509E+00
         21   -1    0    0  504  503  0.00000000000E+00  0.00000000000E+00  0.17338906790E+03  0.17338906790E+03  0.00000000000E+00 0. -1.
         21   -1    0    0  503  504 -0.00000000000E+00 -0.00000000000E+00 -0.17203801808E+03  0.17203801808E+03  0.00000000000E+00 0. -1.
         25    2    1    2    0    0 -0.78814852470E+02  0.88992215751E+02 -0.79794143758E+01  0.17268064766E+03  0.12499415822E+03 0.  0.
         25    2    1    2    0    0  0.78814852470E+02 -0.88992215751E+02  0.93304642010E+01  0.17274643832E+03  0.12499151553E+03 0.  0.
          5    1    3    3  501    0 -0.52476502788E+02  0.21859357888E+02  0.53195832943E+02  0.77996804515E+02  0.47000000000E+01 0.  1.
         -5    1    3    3    0  501 -0.26338349683E+02  0.67132857863E+02 -0.61175247319E+02  0.94683843149E+02  0.47000000000E+01 0.  1.
          5    1    4    4  502    0  0.66974445888E+02 -0.35220463215E+02  0.60834616892E+02  0.97205956832E+02  0.47000000000E+01 0.  1.
         -5    1    4    4    0  502  0.11840406582E+02 -0.53771752535E+02 -0.51504152691E+02  0.75540481486E+02  0.47000000000E+01 0.  1.
<mgrwt>
<rscale>  0 0.34542444E+03</rscale>
<asrwt>0</asrwt>
<pdfrwt beam="1">  1       21 0.26675241E-01 0.34542444E+03</pdfrwt>
<pdfrwt beam="2">  1       21 0.26467387E-01 0.34542444E+03</pdfrwt>
<totfact> 0.17454848E+05</totfact>
</mgrwt>
</event>
<event>
 8    1  0.4760912E-006  0.2608017E+03  0.7546771E-02  0.1106663E+00
         21   -1    0    0  504  503  0.00000000000E+00  0.00000000000E+00  0.93289512376E+03  0.93289512376E+03  0.00000000000E+00 0. -1.
         21   -1    0    0  503  504 -0.00000000000E+00 -0.00000000000E+00 -0.18227537574E+02  0.18227537574E+02  0.00000000000E+00 0. -1.
         25    2    1    2    0    0 -0.23633789035E+02  0.92971215196E+01  0.55653586967E+03  0.57096636494E+03  0.12500169282E+03 0.  0.
         25    2    1    2    0    0  0.23633789035E+02 -0.92971215196E+01  0.35813171652E+03  0.38015629640E+03  0.12496195766E+03 0.  0.
          5    1    3    3  501    0  0.29270135159E+02 -0.35691619140E+01  0.32676397956E+02  0.44264169623E+02  0.47000000000E+01 0. -1.
         -5    1    3    3    0  501 -0.52903924193E+02  0.12866283434E+02  0.52385947171E+03  0.52670219531E+03  0.47000000000E+01 0. -1.
          5    1    4    4  502    0 -0.43063169024E+02  0.27388573878E+02  0.14428770655E+03  0.15311957016E+03  0.47000000000E+01 0. -1.
         -5    1    4    4    0  502  0.66696958058E+02 -0.36685695397E+02  0.21384400997E+03  0.22703672624E+03  0.47000000000E+01 0. -1.
<mgrwt>
<rscale>  0 0.26080169E+03</rscale>
<asrwt>0</asrwt>
<pdfrwt beam="1">  1       21 0.14352229E+00 0.26080169E+03</pdfrwt>
<pdfrwt beam="2">  1       21 0.28042373E-02 0.26080169E+03</pdfrwt>
<totfact> 0.23170109E+05</totfact>
</mgrwt>
</event>
<event>
 8    1  0.4760912E-006  0.2749098E+03  0.7546771E-02  0.1098502E+00
         21   -1    0    0  504  503  0.00000000000E+00  0.00000000000E+00  0.33529573912E+03  0.33529573912E+03  0.00000000000E+00 0.  1.
         21   -1    0    0  503  504 -0.00000000000E+00 -0.00000000000E+00 -0.56349819750E+02  0.56349819750E+02  0.00000000000E+00 0.  1.
         25    2    1    2    0    0  0.55732957680E+02 -0.12092463541E+02  0.13358724308E+03  0.19162906957E+03  0.12499503408E+03 0.  0.
         25    2    1    2    0    0 -0.55732957680E+02  0.12092463541E+02  0.14535867629E+03  0.20001648930E+03  0.12500024389E+03 0.  0.
          5    1    3    3  501    0  0.34722009461E+02 -0.56267944935E+02  0.12535491198E+03  0.14180142286E+03  0.47000000000E+01 0.  1.
         -5    1    3    3    0  501  0.21010948219E+02  0.44175481395E+02  0.82323311024E+01  0.49827646712E+02  0.47000000000E+01 0.  1.
          5    1    4    4  502    0 -0.33212723950E+02  0.67831587668E+02  0.94991968589E+02  0.12144864517E+03  0.47000000000E+01 0.  1.
         -5    1    4    4    0  502 -0.22520233730E+02 -0.55739124128E+02  0.50366707698E+02  0.78567844123E+02  0.47000000000E+01 0.  1.
<mgrwt>
<rscale>  0 0.27490984E+03</rscale>
<asrwt>0</asrwt>
<pdfrwt beam="1">  1       21 0.51583958E-01 0.27490984E+03</pdfrwt>
<pdfrwt beam="2">  1       21 0.86692033E-02 0.27490984E+03</pdfrwt>
<totfact> 0.36548174E+05</totfact>
</mgrwt>
</event>
<event>
 8    1  0.4760912E-006  0.3110528E+03  0.7546771E-02  0.1079842E+00
         21   -1    0    0  504  503  0.00000000000E+00  0.00000000000E+00  0.76086749320E+02  0.76086749320E+02  0.00000000000E+00 0. -1.
         21   -1    0    0  503  504 -0.00000000000E+00 -0.00000000000E+00 -0.31790636837E+03  0.31790636837E+03  0.00000000000E+00 0. -1.
         25    2    1    2    0    0  0.34291726272E+01  0.62119077775E+02 -0.20766517649E+03  0.25023737731E+03  0.12499352155E+03 0.  0.
         25    2    1    2    0    0 -0.34291726272E+01 -0.62119077775E+02 -0.34154442564E+02  0.14375574038E+03  0.12501459074E+03 0.  0.
          5    1    3    3  501    0 -0.35715996416E+02  0.85345250639E+01 -0.16959429709E+03  0.17358797805E+03  0.47000000000E+01 0. -1.
         -5    1    3    3    0  501  0.39145169043E+02  0.53584552711E+02 -0.38070879395E+02  0.76649399257E+02  0.47000000000E+01 0. -1.
          5    1    4    4  502    0 -0.94503179051E+01 -0.15929367895E+02  0.46625683930E+02  0.50389459929E+02  0.47000000000E+01 0.  1.
         -5    1    4    4    0  502  0.60211452779E+01 -0.46189709879E+02 -0.80780126494E+02  0.93366280453E+02  0.47000000000E+01 0.  1.
<mgrwt>
<rscale>  0 0.31105281E+03</rscale>
<asrwt>0</asrwt>
<pdfrwt beam="1">  1       21 0.11705654E-01 0.31105281E+03</pdfrwt>
<pdfrwt beam="2">  1       21 0.48908673E-01 0.31105281E+03</pdfrwt>
<totfact> 0.23754912E+05</totfact>
</mgrwt>
</event>
<event>
 8    1  0.4760912E-006  0.2944336E+03  0.7546771E-02  0.1088057E+00
         21   -1    0    0  504  503  0.00000000000E+00  0.00000000000E+00  0.75889311129E+03  0.75889311129E+03  0.00000000000E+00 0. -1.
         21   -1    0    0  503  504 -0.00000000000E+00 -0.00000000000E+00 -0.28558410025E+02  0.28558410025E+02  0.00000000000E+00 0. -1.
         25    2    1    2    0    0  0.94746318591E+01 -0.71796074800E+02  0.28937985212E+03  0.32343539179E+03  0.12500123538E+03 0.  0.
         25    2    1    2    0    0 -0.94746318591E+01  0.71796074800E+02  0.44095484915E+03  0.46401612952E+03  0.12500137785E+03 0.  0.
          5    1    3    3  501    0 -0.44275462596E+02 -0.50350385298E+02  0.23301551501E+03  0.24251556264E+03  0.47000000000E+01 0. -1.
         -5    1    3    3    0  501  0.53750094455E+02 -0.21445689501E+02  0.56364337108E+02  0.80919829150E+02  0.47000000000E+01 0. -1.
          5    1    4    4  502    0 -0.15383480276E+02  0.13110747960E+02  0.37435221178E+03  0.37492694173E+03  0.47000000000E+01 0. -1.
         -5    1    4    4    0  502  0.59088484166E+01  0.58685326840E+02  0.66602637374E+02  0.89089187790E+02  0.47000000000E+01 0. -1.
<mgrwt>
<rscale>  0 0.29443356E+03</rscale>
<asrwt>0</asrwt>
<pdfrwt beam="1">  1       21 0.11675277E+00 0.29443356E+03</pdfrwt>
<pdfrwt beam="2">  1       21 0.43936021E-02 0.29443356E+03</pdfrwt>
<totfact> 0.18296035E+05</totfact>
</mgrwt>
</event>
<event>
 8    1  0.4760912E-006  0.3223569E+03  0.7546771E-02  0.1074570E+00
         21   -1    0    0  504  503  0.00000000000E+00  0.00000000000E+00  0.12029300465E+04  0.12029300465E+04  0.00000000000E+00 0. -1.
         21   -1    0    0  503  504 -0.00000000000E+00 -0.00000000000E+00 -0.21596007623E+02  0.21596007623E+02  0.00000000000E+00 0. -1.
         25    2    1    2    0    0 -0.64038987671E+02 -0.39994731824E+02  0.33153279828E+03  0.36226858453E+03  0.12499584189E+03 0.  0.
         25    2    1    2    0    0  0.64038987671E+02  0.39994731824E+02  0.84980124063E+03  0.86225746962E+03  0.12500089929E+03 0.  0.
          5    1    3    3  501    0  0.33595458976E+02 -0.12654018727E+02  0.41952881904E+02  0.55415822233E+02  0.47000000000E+01 0. -1.
         -5    1    3    3    0  501 -0.97634446647E+02 -0.27340713097E+02  0.28957991637E+03  0.30685276230E+03  0.47000000000E+01 0. -1.
          5    1    4    4  502    0  0.69850347954E+02 -0.22470683419E+02  0.30045575835E+03  0.30932144356E+03  0.47000000000E+01 0. -1.
         -5    1    4    4    0  502 -0.58113602829E+01  0.62465415243E+02  0.54934548228E+03  0.55293602606E+03  0.47000000000E+01 0. -1.
<mgrwt>
<rscale>  0 0.32235686E+03</rscale>
<asrwt>0</asrwt>
<pdfrwt beam="1">  1       21 0.18506611E+00 0.32235686E+03</pdfrwt>
<pdfrwt beam="2">  1       21 0.33224636E-02 0.32235686E+03</pdfrwt>
<totfact> 0.84719275E+04</totfact>
</mgrwt>
</event>
<event>
 8    1  0.4760912E-006  0.2804257E+03  0.7546771E-02  0.1095457E+00
         21   -1    0    0  504  503  0.00000000000E+00  0.00000000000E+00  0.88425923654E+02  0.88425923654E+02  0.00000000000E+00 0.  1.
         21   -1    0    0  503  504 -0.00000000000E+00 -0.00000000000E+00 -0.22232897308E+03  0.22232897308E+03  0.00000000000E+00 0.  1.
         25    2    1    2    0    0 -0.47363429259E+02 -0.41816780941E+02 -0.59980121667E+02  0.15238245950E+03  0.12502344328E+03 0.  0.
         25    2    1    2    0    0  0.47363429259E+02  0.41816780941E+02 -0.73922927761E+02  0.15837243724E+03  0.12500116811E+03 0.  0.
          5    1    3    3  501    0 -0.42452598641E+02  0.28655901705E+02 -0.63230542653E+02  0.81508130626E+02  0.47000000000E+01 0. -1.
         -5    1    3    3    0  501 -0.49108306183E+01 -0.70472682646E+02  0.32504209861E+01  0.70874328874E+02  0.47000000000E+01 0. -1.
          5    1    4    4  502    0 -0.28708759570E+02  0.24710725932E+02  0.14097394742E+02  0.40689548912E+02  0.47000000000E+01 0.  1.
         -5    1    4    4    0  502  0.76072188829E+02  0.17106055009E+02 -0.88020322503E+02  0.11768288833E+03  0.47000000000E+01 0.  1.
<mgrwt>
<rscale>  0 0.28042571E+03</rscale>
<asrwt>0</asrwt>
<pdfrwt beam="1">  1       21 0.13603988E-01 0.28042571E+03</pdfrwt>
<pdfrwt beam="2">  1       21 0.34204457E-01 0.28042571E+03</pdfrwt>
<totfact> 0.37850982E+05</totfact>
</mgrwt>
</event>
<event>
 8    1  0.4760912E-006  0.3914310E+03  0.7546771E-02  0.1046788E+00
         21   -1    0    0  504  503  0.00000000000E+00  0.00000000000E+00  0.89010378032E+02  0.89010378032E+02  0.00000000000E+00 0. -1.
         21   -1    0    0  503  504 -0.00000000000E+00 -0.00000000000E+00 -0.43033814391E+03  0.43033814391E+03  0.00000000000E+00 0. -1.
         25    2    1    2    0    0  0.11000239481E+03 -0.45240125050E+02 -0.48070822907E+02  0.17910202407E+03  0.12497813903E+03 0.  0.
         25    2    1    2    0    0 -0.11000239481E+03  0.45240125050E+02 -0.29325694297E+03  0.34024649786E+03  0.12498339462E+03 0.  0.
          5    1    3    3  501    0  0.10179891520E+03 -0.63142394348E+02  0.73404225336E+01  0.12010808841E+03  0.47000000000E+01 0.  1.
         -5    1    3    3    0  501  0.82034796110E+01  0.17902269298E+02 -0.55411245440E+02  0.58993935663E+02  0.47000000000E+01 0.  1.
          5    1    4    4  502    0 -0.52712027531E+02  0.73810530006E+02 -0.24076378306E+03  0.25732438948E+03  0.47000000000E+01 0. -1.
         -5    1    4    4    0  502 -0.57290367276E+02 -0.28570404956E+02 -0.52493159904E+02  0.82922108383E+02  0.47000000000E+01 0. -1.
<mgrwt>
<rscale>  0 0.39143102E+03</rscale>
<asrwt>0</asrwt>
<pdfrwt beam="1">  1       21 0.13693904E-01 0.39143102E+03</pdfrwt>
<pdfrwt beam="2">  1       21 0.66205868E-01 0.39143102E+03</pdfrwt>
<totfact> 0.91226793E+04</totfact>
</mgrwt>
</event>
<event>
 8    1  0.4760912E-006  0.3065849E+03  0.7546771E-02  0.1081994E+00
         21   -1    0    0  504  503  0.00000000000E+00  0.00000000000E+00  0.62282843108E+02  0.62282843108E+02  0.00000000000E+00 0.  1.
         21   -1    0    0  503  504 -0.00000000000E+00 -0.00000000000E+00 -0.37728818680E+03  0.37728818680E+03  0.00000000000E+00 0.  1.
         25    2    1    2    0    0  0.83359326754E+02 -0.26408947439E+02 -0.13583345228E+03  0.20425253720E+03  0.12498864881E+03 0.  0.
         25    2    1    2    0    0 -0.83359326754E+02  0.26408947439E+02 -0.17917189142E+03  0.23531849272E+03  0.12500406585E+03 0.  0.
          5    1    3    3  501    0 -0.33121541285E+02 -0.84612567726E+01 -0.33618497181E+02  0.48175955787E+02  0.47000000000E+01 0. -1.
         -5    1    3    3    0  501  0.11648086804E+03 -0.17947690666E+02 -0.10221495510E+03  0.15607658141E+03  0.47000000000E+01 0. -1.
          5    1    4    4  502    0 -0.82854612269E+02 -0.10305155020E+02 -0.17980025309E+03  0.19829600098E+03  0.47000000000E+01 0.  1.
         -5    1    4    4    0  502 -0.50471448446E+00  0.36714102459E+02  0.62836166730E+00  0.37022491737E+02  0.47000000000E+01 0.  1.
<mgrwt>
<rscale>  0 0.30658494E+03</rscale>
<asrwt>0</asrwt>
<pdfrwt beam="1">  1       21 0.95819758E-02 0.30658494E+03</pdfrwt>
<pdfrwt beam="2">  1       21 0.58044337E-01 0.30658494E+03</pdfrwt>
<totfact> 0.23635178E+05</totfact>
</mgrwt>
</event>
<event>
 8    1  0.4760912E-006  0.3349035E+03  0.7546771E-02  0.1068988E+00
         21   -1    0    0  504  503  0.00000000000E+00  0.00000000000E+00  0.26661083380E+03  0.26661083380E+03  0.00000000000E+00 0.  1.
         21   -1    0    0  503  504 -0.00000000000E+00 -0.00000000000E+00 -0.10517234467E+03  0.10517234467E+03  0.00000000000E+00 0.  1.
         25    2    1    2    0    0 -0.58616675991E+02 -0.57055361745E+02 -0.32682648162E+01  0.14942232848E+03  0.12500048674E+03 0.  0.
         25    2    1    2    0    0  0.58616675991E+02  0.57055361745E+02  0.16470675395E+03  0.22236084999E+03  0.12499921522E+03 0.  0.
          5    1    3    3  501    0 -0.76011405182E+01 -0.85984813920E+02  0.15162854608E+02  0.87767691788E+02  0.47000000000E+01 0.  1.
         -5    1    3    3    0  501 -0.51015535473E+02  0.28929452175E+02 -0.18431119424E+02  0.61654636695E+02  0.47000000000E+01 0.  1.
          5    1    4    4  502    0  0.96932163813E+02  0.28396076683E+02  0.11682326232E+03  0.15450548913E+03  0.47000000000E+01 0.  1.
         -5    1    4    4    0  502 -0.38315487822E+02  0.28659285061E+02  0.47883491629E+02  0.67855360863E+02  0.47000000000E+01 0.  1.
<mgrwt>
<rscale>  0 0.33490349E+03</rscale>
<asrwt>0</asrwt>
<pdfrwt beam="1">  1       21 0.41017051E-01 0.33490349E+03</pdfrwt>
<pdfrwt beam="2">  1       21 0.16180361E-01 0.33490349E+03</pdfrwt>
<totfact> 0.18844942E+05</totfact>
</mgrwt>
</event>
<event>
 8    1  0.4760912E-006  0.2720934E+03  0.7546771E-02  0.1100087E+00
         21   -1    0    0  504  503  0.00000000000E+00  0.00000000000E+00  0.55835078276E+03  0.55835078276E+03  0.00000000000E+00 0.  1.
         21   -1    0    0  503  504 -0.00000000000E+00 -0.00000000000E+00 -0.33148885002E+02  0.33148885002E+02  0.00000000000E+00 0.  1.
         25    2    1    2    0    0 -0.31443583413E+02  0.42164867691E+02  0.23892350561E+03  0.27472432408E+03  0.12498975040E+03 0.  0.
         25    2    1    2    0    0  0.31443583413E+02 -0.42164867691E+02  0.28627839215E+03  0.31677534368E+03  0.12499890218E+03 0.  0.
          5    1    3    3  501    0  0.15705355583E+02 -0.18823179005E+02  0.16807674733E+03  0.16992013787E+03  0.47000000000E+01 0.  1.
         -5    1    3    3    0  501 -0.47148938995E+02  0.60988046697E+02  0.70846758277E+02  0.10480418621E+03  0.47000000000E+01 0.  1.
          5    1    4    4  502    0  0.19924831059E+02 -0.24832498848E+02  0.25912755673E+01  0.32287096507E+02  0.47000000000E+01 0. -1.
         -5    1    4    4    0  502  0.11518752354E+02 -0.17332368844E+02  0.28368711659E+03  0.28448824718E+03  0.47000000000E+01 0. -1.
<mgrwt>
<rscale>  0 0.27209341E+03</rscale>
<asrwt>0</asrwt>
<pdfrwt beam="1">  1       21 0.85900113E-01 0.27209341E+03</pdfrwt>
<pdfrwt beam="2">  1       21 0.50998289E-02 0.27209341E+03</pdfrwt>
<totfact> 0.29789136E+05</totfact>
</mgrwt>
</event>
<event>
 8    1  0.4760912E-006  0.3144503E+03  0.7546771E-02  0.1078232E+00
         21   -1    0    0  504  503  0.00000000000E+00  0.00000000000E+00  0.10539176942E+03  0.10539176942E+03  0.00000000000E+00 0. -1.
         21   -1    0    0  503  504 -0.00000000000E+00 -0.00000000000E+00 -0.23455105819E+03  0.23455105819E+03  0.00000000000E+00 0. -1.
         25    2    1    2    0    0 -0.54887187606E+01  0.89966299345E+02 -0.98285803548E+02  0.18277962969E+03  0.12499693116E+03 0.  0.
         25    2    1    2    0    0  0.54887187606E+01 -0.89966299345E+02 -0.30873485216E+02  0.15716319792E+03  0.12499215031E+03 0.  0.
          5    1    3    3  501    0 -0.28797474750E+02 -0.11009481256E+01  0.17129126628E+02  0.33852675194E+02  0.47000000000E+01 0.  1.
         -5    1    3    3    0  501  0.23308755990E+02  0.91067247470E+02 -0.11541493018E+03  0.14892695449E+03  0.47000000000E+01 0.  1.
          5    1    4    4  502    0  0.88808538941E+01 -0.98286924231E+02 -0.67174423166E+02  0.11947251637E+03  0.47000000000E+01 0. -1.
         -5    1    4    4    0  502 -0.33921351335E+01  0.83206248867E+01  0.36300937951E+02  0.37690681545E+02  0.47000000000E+01 0. -1.
<mgrwt>
<rscale>  0 0.31445032E+03</rscale>
<asrwt>0</asrwt>
<pdfrwt beam="1">  1       21 0.16214119E-01 0.31445032E+03</pdfrwt>
<pdfrwt beam="2">  1       21 0.36084778E-01 0.31445032E+03</pdfrwt>
<totfact> 0.24462666E+05</totfact>
</mgrwt>
</event>
<event>
 8    1  0.4760912E-006  0.3549471E+03  0.7546771E-02  0.1060603E+00
         21   -1    0    0  504  503  0.00000000000E+00  0.00000000000E+00  0.81817408472E+03  0.81817408472E+03  0.00000000000E+00 0.  1.
         21   -1    0    0  503  504 -0.00000000000E+00 -0.00000000000E+00 -0.38496529283E+02  0.38496529283E+02  0.00000000000E+00 0.  1.
         25    2    1    2    0    0  0.11848116816E+03  0.40596247463E+02  0.42280342169E+03  0.45833738752E+03  0.12499833957E+03 0.  0.
         25    2    1    2    0    0 -0.11848116816E+03 -0.40596247463E+02  0.35687413375E+03  0.39833322648E+03  0.12499747782E+03 0.  0.
          5    1    3    3  501    0  0.56612602914E+02  0.15027863150E+02  0.43416743727E+02  0.73061119041E+02  0.47000000000E+01 0.  1.
         -5    1    3    3    0  501  0.61868565246E+02  0.25568384313E+02  0.37938667796E+03  0.38527626848E+03  0.47000000000E+01 0.  1.
          5    1    4    4  502    0 -0.11788626578E+03 -0.64880705874E+02  0.21046747945E+03  0.24985061049E+03  0.47000000000E+01 0.  1.
         -5    1    4    4    0  502 -0.59490237922E+00  0.24284458410E+02  0.14640665430E+03  0.14848261600E+03  0.47000000000E+01 0.  1.
<mgrwt>
<rscale>  0 0.35494711E+03</rscale>
<asrwt>0</asrwt>
<pdfrwt beam="1">  1       21 0.12587292E+00 0.35494711E+03</pdfrwt>
<pdfrwt beam="2">  1       21 0.59225436E-02 0.35494711E+03</pdfrwt>
<totfact> 0.89171504E+04</totfact>
</mgrwt>
</event>
<event>
 8    1  0.4760912E-006  0.3249236E+03  0.7546771E-02  0.1073405E+00
         21   -1    0    0  504  503  0.00000000000E+00  0.00000000000E+00  0.10745914304E+03  0.10745914304E+03  0.00000000000E+00 0.  1.
         21   -1    0    0  503  504 -0.00000000000E+00 -0.00000000000E+00 -0.24561736686E+03  0.24561736686E+03  0.00000000000E+00 0.  1.
         25    2    1    2    0    0  0.64104177369E+02  0.52706683760E+01 -0.15757138315E+03  0.21116527749E+03  0.12499963251E+03 0.  0.
         25    2    1    2    0    0 -0.64104177369E+02 -0.52706683760E+01  0.19413159331E+02  0.14191123241E+03  0.12499920651E+03 0.  0.
          5    1    3    3  501    0  0.29373892825E+02  0.63664300744E+02 -0.61366817093E+02  0.93294935603E+02  0.47000000000E+01 0. -1.
         -5    1    3    3    0  501  0.34730284544E+02 -0.58393632368E+02 -0.96204566057E+02  0.11787034188E+03  0.47000000000E+01 0. -1.
          5    1    4    4  502    0 -0.34626794257E+02  0.50788328247E+02  0.41897068114E+02  0.74538067343E+02  0.47000000000E+01 0.  1.
         -5    1    4    4    0  502 -0.29477383113E+02 -0.56058996623E+02 -0.22483908783E+02  0.67373165071E+02  0.47000000000E+01 0.  1.
<mgrwt>
<rscale>  0 0.32492357E+03</rscale>
<asrwt>0</asrwt>
<pdfrwt beam="1">  1       21 0.16532176E-01 0.32492357E+03</pdfrwt>
<pdfrwt beam="2">  1       21 0.37787287E-01 0.32492357E+03</pdfrwt>
<totfact> 0.21451207E+05</totfact>
</mgrwt>
</event>
<event>
 8    1  0.4760912E-006  0.2896834E+03  0.7546771E-02  0.1090515E+00
         21   -1    0    0  504  503  0.00000000000E+00  0.00000000000E+00  0.46133217187E+03  0.46133217187E+03  0.00000000000E+00 0. -1.
         21   -1    0    0  503  504 -0.00000000000E+00 -0.00000000000E+00 -0.45475085963E+02  0.45475085963E+02  0.00000000000E+00 0. -1.
         25    2    1    2    0    0 -0.65764166861E+02  0.30002561953E+02  0.22778847315E+03  0.26970007534E+03  0.12500185109E+03 0.  0.
         25    2    1    2    0    0  0.65764166861E+02 -0.30002561953E+02  0.18806861276E+03  0.23710718249E+03  0.12499973406E+03 0.  0.
          5    1    3    3  501    0  0.12707478523E+02 -0.36908635467E+02  0.44843840946E+02  0.59638808282E+02  0.47000000000E+01 0.  1.
         -5    1    3    3    0  501 -0.78471645384E+02  0.66911197420E+02  0.18294463220E+03  0.21006126706E+03  0.47000000000E+01 0.  1.
          5    1    4    4  502    0  0.52215642857E+02 -0.34969459153E+01  0.63718801023E+01  0.52928185740E+02  0.47000000000E+01 0.  1.
         -5    1    4    4    0  502  0.13548524005E+02 -0.26505616038E+02  0.18169673266E+03  0.18417899675E+03  0.47000000000E+01 0.  1.
<mgrwt>
<rscale>  0 0.28968341E+03</rscale>
<asrwt>0</asrwt>
<pdfrwt beam="1">  1       21 0.70974177E-01 0.28968341E+03</pdfrwt>
<pdfrwt beam="2">  1       21 0.69961674E-02 0.28968341E+03</pdfrwt>
<totfact> 0.26533547E+05</totfact>
</mgrwt>
</event>
<event>
 8    1  0.4760912E-006  0.2785642E+03  0.7546771E-02  0.1096476E+00
         21   -1    0    0  504  503  0.00000000000E+00  0.00000000000E+00  0.17927721485E+03  0.17927721485E+03  0.00000000000E+00 0. -1.
         21   -1    0    0  503  504 -0.00000000000E+00 -0.00000000000E+00 -0.10820949665E+03  0.10820949665E+03  0.00000000000E+00 0. -1.
         25    2    1    2    0    0 -0.18136597351E+02 -0.50193268740E+02  0.40954951166E+01  0.13597005121E+03  0.12499112510E+03 0.  0.
         25    2    1    2    0    0  0.18136597351E+02  0.50193268740E+02  0.66972223083E+02  0.15151666030E+03  0.12499487707E+03 0.  0.
          5    1    3    3  501    0 -0.63044287970E+02 -0.71238049387E+01  0.27522252721E+02  0.69317351632E+02  0.47000000000E+01 0.  1.
         -5    1    3    3    0  501  0.44907690619E+02 -0.43069463801E+02 -0.23426757604E+02  0.66652699576E+02  0.47000000000E+01 0.  1.
          5    1    4    4  502    0  0.34656410855E+01  0.65164237951E+02  0.95527049730E+02  0.11578383223E+03  0.47000000000E+01 0. -1.
         -5    1    4    4    0  502  0.14670956265E+02 -0.14970969211E+02 -0.28554826648E+02  0.35732828068E+02  0.47000000000E+01 0. -1.
<mgrwt>
<rscale>  0 0.27856416E+03</rscale>
<asrwt>0</asrwt>
<pdfrwt beam="1">  1       21 0.27581110E-01 0.27856416E+03</pdfrwt>
<pdfrwt beam="2">  1       21 0.16647615E-01 0.27856416E+03</pdfrwt>
<totfact> 0.39943794E+05</totfact>
</mgrwt>
</event>
<event>
 8    1  0.4760912E-006  0.2816543E+03  0.7546771E-02  0.1094789E+00
         21   -1    0    0  504  503  0.00000000000E+00  0.00000000000E+00  0.17637675756E+03  0.17637675756E+03  0.00000000000E+00 0.  1.
         21   -1    0    0  503  504 -0.00000000000E+00 -0.00000000000E+00 -0.11244271608E+03  0.11244271608E+03  0.00000000000E+00 0.  1.
         25    2    1    2    0    0  0.46430596245E+02  0.42921768307E+02  0.17181062084E+02  0.14113886934E+03  0.12500765209E+03 0.  0.
         25    2    1    2    0    0 -0.46430596245E+02 -0.42921768307E+02  0.46752979396E+02  0.14768060431E+03  0.12500256535E+03 0.  0.
          5    1    3    3  501    0  0.85147170092E+02  0.58866018783E+01  0.30691661530E+01  0.85534802491E+02  0.47000000000E+01 0.  1.
         -5    1    3    3    0  501 -0.38716573847E+02  0.37035166429E+02  0.14111895931E+02  0.55604066844E+02  0.47000000000E+01 0.  1.
          5    1    4    4  502    0 -0.23524246419E+02  0.11661028767E+02  0.76678590468E+02  0.81185380443E+02  0.47000000000E+01 0.  1.
         -5    1    4    4    0  502 -0.22906349826E+02 -0.54582797074E+02 -0.29925611072E+02  0.66495223864E+02  0.47000000000E+01 0.  1.
<mgrwt>
<rscale>  0 0.28165427E+03</rscale>
<asrwt>0</asrwt>
<pdfrwt beam="1">  1       21 0.27134886E-01 0.28165427E+03</pdfrwt>
<pdfrwt beam="2">  1       21 0.17298879E-01 0.28165427E+03</pdfrwt>
<totfact> 0.38376712E+05</totfact>
</mgrwt>
</event>
<event>
 8    1  0.4760912E-006  0.7633548E+03  0.7546771E-02  0.9614629E-01
         21   -1    0    0  504  503  0.00000000000E+00  0.00000000000E+00  0.11999561984E+03  0.11999561984E+03  0.00000000000E+00 0.  1.
         21   -1    0    0  503  504 -0.00000000000E+00 -0.00000000000E+00 -0.12140247191E+04  0.12140247191E+04  0.00000000000E+00 0.  1.
         25    2    1    2    0    0  0.90221321374E+02 -0.32998355790E+03 -0.74644622663E+03  0.83056451129E+03  0.12500561126E+03 0.  0.
         25    2    1    2    0    0 -0.90221321374E+02  0.32998355790E+03 -0.34758287259E+03  0.50345582762E+03  0.12499952693E+03 0.  0.
          5    1    3    3  501    0  0.44893796240E+02 -0.10794241115E+03 -0.39831995235E+03  0.41514803566E+03  0.47000000000E+01 0. -1.
         -5    1    3    3    0  501  0.45327525134E+02 -0.22204114675E+03 -0.34812627428E+03  0.41541647563E+03  0.47000000000E+01 0. -1.
          5    1    4    4  502    0 -0.94540141586E+02  0.14609258230E+03 -0.12313459299E+03  0.21322546509E+03  0.47000000000E+01 0.  1.
         -5    1    4    4    0  502  0.43188202128E+01  0.18389097560E+03 -0.22444827960E+03  0.29023036252E+03  0.47000000000E+01 0.  1.
<mgrwt>
<rscale>  0 0.76335483E+03</rscale>
<asrwt>0</asrwt>
<pdfrwt beam="1">  1       21 0.18460865E-01 0.76335483E+03</pdfrwt>
<pdfrwt beam="2">  1       21 0.18677303E+00 0.76335483E+03</pdfrwt>
<totfact> 0.34415565E+03</totfact>
</mgrwt>
</event>
<event>
 8    1  0.4760912E-006  0.3268893E+03  0.7546771E-02  0.1072522E+00
         21   -1    0    0  504  503  0.00000000000E+00  0.00000000000E+00  0.15081046361E+03  0.15081046361E+03  0.00000000000E+00 0. -1.
         21   -1    0    0  503  504 -0.00000000000E+00 -0.00000000000E+00 -0.17713723113E+03  0.17713723113E+03  0.00000000000E+00 0. -1.
         25    2    1    2    0    0  0.87871861085E+02 -0.52144308646E+02  0.12379969138E+02  0.16192764684E+03  0.12500722491E+03 0.  0.
         25    2    1    2    0    0 -0.87871861085E+02  0.52144308646E+02 -0.38706736654E+02  0.16602004790E+03  0.12499580773E+03 0.  0.
          5    1    3    3  501    0  0.67972380000E+01 -0.26742200453E+02  0.58710536056E+02  0.65041254397E+02  0.47000000000E+01 0.  1.
         -5    1    3    3    0  501  0.81074623085E+02 -0.25402108193E+02 -0.46330566918E+02  0.96886392440E+02  0.47000000000E+01 0.  1.
          5    1    4    4  502    0 -0.48565665958E+02  0.82809409680E+01  0.42745274211E+02  0.65394543814E+02  0.47000000000E+01 0. -1.
         -5    1    4    4    0  502 -0.39306195127E+02  0.43863367678E+02 -0.81452010865E+02  0.10062550409E+03  0.47000000000E+01 0. -1.
<mgrwt>
<rscale>  0 0.32688927E+03</rscale>
<asrwt>0</asrwt>
<pdfrwt beam="1">  1       21 0.23201610E-01 0.32688927E+03</pdfrwt>
<pdfrwt beam="2">  1       21 0.27251882E-01 0.32688927E+03</pdfrwt>
<totfact> 0.21673569E+05</totfact>
</mgrwt>
</event>
<event>
 8    1  0.4760912E-006  0.2883991E+03  0.7546771E-02  0.1091188E+00
         21   -1    0    0  504  503  0.00000000000E+00  0.00000000000E+00  0.54327426165E+03  0.54327426165E+03  0.00000000000E+00 0. -1.
         21   -1    0    0  503  504 -0.00000000000E+00 -0.00000000000E+00 -0.38274421866E+02  0.38274421866E+02  0.00000000000E+00 0. -1.
         25    2    1    2    0    0  0.66984050016E+02 -0.80134867183E+01  0.20219236007E+03  0.24708142254E+03  0.12496559513E+03 0.  0.
         25    2    1    2    0    0 -0.66984050016E+02  0.80134867183E+01  0.30280747971E+03  0.33446726098E+03  0.12499959988E+03 0.  0.
          5    1    3    3  501    0  0.62266305107E+02 -0.61510007885E+02  0.13460679541E+03  0.16062893012E+03  0.47000000000E+01 0. -1.
         -5    1    3    3    0  501  0.47177449089E+01  0.53496521167E+02  0.67585564666E+02  0.86452492418E+02  0.47000000000E+01 0. -1.
          5    1    4    4  502    0 -0.78824447201E+02  0.53087082673E+02  0.19860817407E+03  0.22022449598E+03  0.47000000000E+01 0. -1.
         -5    1    4    4    0  502  0.11840397185E+02 -0.45073595955E+02  0.10419930564E+03  0.11424276500E+03  0.47000000000E+01 0. -1.
<mgrwt>
<rscale>  0 0.28839909E+03</rscale>
<asrwt>0</asrwt>
<pdfrwt beam="1">  1       21 0.83580650E-01 0.28839909E+03</pdfrwt>
<pdfrwt beam="2">  1       21 0.58883730E-02 0.28839909E+03</pdfrwt>
<totfact> 0.24697450E+05</totfact>
</mgrwt>
</event>
<event>
 8    1  0.4760912E-006  0.2972636E+03  0.7546771E-02  0.1086617E+00
         21   -1    0    0  504  503  0.00000000000E+00  0.00000000000E+00  0.15623129926E+04  0.15623129926E+04  0.00000000000E+00 0. -1.
         21   -1    0    0  503  504 -0.00000000000E+00 -0.00000000000E+00 -0.14140191973E+02  0.14140191973E+02  0.00000000000E+00 0. -1.
         25    2    1    2    0    0 -0.14317367438E+02 -0.78113643818E+02  0.70662394539E+03  0.72197413277E+03  0.12499007894E+03 0.  0.
         25    2    1    2    0    0  0.14317367438E+02  0.78113643818E+02  0.84154885524E+03  0.85447905181E+03  0.12499298321E+03 0.  0.
          5    1    3    3  501    0  0.26972372404E+01  0.26435120011E+02  0.49742705859E+02  0.56590789400E+02  0.47000000000E+01 0.  1.
         -5    1    3    3    0  501 -0.17014604678E+02 -0.10454876383E+03  0.65688123953E+03  0.66538334337E+03  0.47000000000E+01 0.  1.
          5    1    4    4  502    0  0.42659080798E+02  0.57650294739E+02  0.21023326939E+03  0.22217891713E+03  0.47000000000E+01 0.  1.
         -5    1    4    4    0  502 -0.28341713360E+02  0.20463349080E+02  0.63131558585E+03  0.63230013468E+03  0.47000000000E+01 0.  1.
<mgrwt>
<rscale>  0 0.29726356E+03</rscale>
<asrwt>0</asrwt>
<pdfrwt beam="1">  1       21 0.24035571E+00 0.29726356E+03</pdfrwt>
<pdfrwt beam="2">  1       21 0.21754154E-02 0.29726356E+03</pdfrwt>
<totfact> 0.76606589E+04</totfact>
</mgrwt>
</event>
<event>
 8    1  0.4760912E-006  0.2547736E+03  0.7546771E-02  0.1110325E+00
         21   -1    0    0  504  503  0.00000000000E+00  0.00000000000E+00  0.15821907061E+02  0.15821907061E+02  0.00000000000E+00 0.  1.
         21   -1    0    0  503  504 -0.00000000000E+00 -0.00000000000E+00 -0.10256282961E+04  0.10256282961E+04  0.00000000000E+00 0.  1.
         25    2    1    2    0    0  0.19864023413E+02 -0.10124174386E+02 -0.54676715747E+03  0.56131672263E+03  0.12500024111E+03 0.  0.
         25    2    1    2    0    0 -0.19864023413E+02  0.10124174386E+02 -0.46303923160E+03  0.48013348057E+03  0.12500300327E+03 0.  0.
          5    1    3    3  501    0  0.67602479291E+02 -0.38457672954E+01 -0.42334533784E+03  0.42875196817E+03  0.47000000000E+01 0. -1.
         -5    1    3    3    0  501 -0.47738455878E+02 -0.62784070909E+01 -0.12342181963E+03  0.13256475446E+03  0.47000000000E+01 0. -1.
          5    1    4    4  502    0 -0.39756873261E+02 -0.45172623641E+02 -0.15180006840E+03  0.16336011038E+03  0.47000000000E+01 0. -1.
         -5    1    4    4    0  502  0.19892849848E+02  0.55296798027E+02 -0.31123916321E+03  0.31677337019E+03  0.47000000000E+01 0. -1.
<mgrwt>
<rscale>  0 0.25477359E+03</rscale>
<asrwt>0</asrwt>
<pdfrwt beam="1">  1       21 0.24341391E-02 0.25477359E+03</pdfrwt>
<pdfrwt beam="2">  1       21 0.15778900E+00 0.25477359E+03</pdfrwt>
<totfact> 0.22789907E+05</totfact>
</mgrwt>
</event>
<event>
 8    1  0.4760912E-006  0.2683564E+03  0.7546771E-02  0.1102224E+00
         21   -1    0    0  504  503  0.00000000000E+00  0.00000000000E+00  0.52127460347E+02  0.52127460347E+02  0.00000000000E+00 0. -1.
         21   -1    0    0  503  504 -0.00000000000E+00 -0.00000000000E+00 -0.34538004476E+03  0.34538004476E+03  0.00000000000E+00 0. -1.
         25    2    1    2    0    0  0.20699857269E+02 -0.36537258410E+02 -0.18332698493E+03  0.22583106927E+03  0.12500973203E+03 0.  0.
         25    2    1    2    0    0 -0.20699857269E+02  0.36537258410E+02 -0.10992559949E+03  0.17167643584E+03  0.12500282339E+03 0.  0.
          5    1    3    3  501    0  0.28235769765E+02 -0.65110672675E+02 -0.18253083514E+03  0.19589858133E+03  0.47000000000E+01 0.  1.
         -5    1    3    3    0  501 -0.75359124954E+01  0.28573414265E+02 -0.79614978822E+00  0.29932487942E+02  0.47000000000E+01 0.  1.
          5    1    4    4  502    0 -0.36717102348E+02  0.21110189217E+02  0.14637145144E+02  0.45056871969E+02  0.47000000000E+01 0.  1.
         -5    1    4    4    0  502  0.16017245079E+02  0.15427069193E+02 -0.12456274463E+03  0.12661956387E+03  0.47000000000E+01 0.  1.
<mgrwt>
<rscale>  0 0.26835636E+03</rscale>
<asrwt>0</asrwt>
<pdfrwt beam="1">  1       21 0.80196094E-02 0.26835636E+03</pdfrwt>
<pdfrwt beam="2">  1       21 0.53135390E-01 0.26835636E+03</pdfrwt>
<totfact> 0.39414731E+05</totfact>
</mgrwt>
</event>
<event>
 8    1  0.4760912E-006  0.2973204E+03  0.7546771E-02  0.1086588E+00
         21   -1    0    0  504  503  0.00000000000E+00  0.00000000000E+00  0.85477133197E+02  0.85477133197E+02  0.00000000000E+00 0. -1.
         21   -1    0    0  503  504 -0.00000000000E+00 -0.00000000000E+00 -0.25854692199E+03  0.25854692199E+03  0.00000000000E+00 0. -1.
         25    2    1    2    0    0  0.58367926066E+02  0.20295409986E+02 -0.26847046328E+02  0.14198415446E+03  0.12498006946E+03 0.  0.
         25    2    1    2    0    0 -0.58367926066E+02 -0.20295409986E+02 -0.14622274247E+03  0.20203990073E+03  0.12498124904E+03 0.  0.
          5    1    3    3  501    0  0.71945115622E+02  0.43097330000E+02  0.21435089769E+02  0.86689287622E+02  0.47000000000E+01 0. -1.
         -5    1    3    3    0  501 -0.13577189556E+02 -0.22801920013E+02 -0.48282136097E+02  0.55294866838E+02  0.47000000000E+01 0. -1.
          5    1    4    4  502    0  0.77113540131E+01  0.16067802593E+02  0.15143493180E+02  0.23854866308E+02  0.47000000000E+01 0.  1.
         -5    1    4    4    0  502 -0.66079280079E+02 -0.36363212579E+02 -0.16136623565E+03  0.17818503442E+03  0.47000000000E+01 0.  1.
<mgrwt>
<rscale>  0 0.29732036E+03</rscale>
<asrwt>0</asrwt>
<pdfrwt beam="1">  1       21 0.13150329E-01 0.29732036E+03</pdfrwt>
<pdfrwt beam="2">  1       21 0.39776448E-01 0.29732036E+03</pdfrwt>
<totfact> 0.29597343E+05</totfact>
</mgrwt>
</event>
<event>
 8    1  0.4760912E-006  0.2650700E+03  0.7546771E-02  0.1104135E+00
         21   -1    0    0  504  503  0.00000000000E+00  0.00000000000E+00  0.62651066371E+02  0.62651066371E+02  0.00000000000E+00 0.  1.
         21   -1    0    0  503  504 -0.00000000000E+00 -0.00000000000E+00 -0.28037081897E+03  0.28037081897E+03  0.00000000000E+00 0.  1.
         25    2    1    2    0    0  0.14715783622E+02 -0.70178801033E+01 -0.16180691110E+03  0.20511890352E+03  0.12500593255E+03 0.  0.
         25    2    1    2    0    0 -0.14715783622E+02  0.70178801033E+01 -0.55912841498E+02  0.13790298182E+03  0.12500072648E+03 0.  0.
          5    1    3    3  501    0 -0.35260159954E+02 -0.45697414925E+02 -0.49573850200E+02  0.76231156586E+02  0.47000000000E+01 0. -1.
         -5    1    3    3    0  501  0.49975943576E+02  0.38679534822E+02 -0.11223306090E+03  0.12888774693E+03  0.47000000000E+01 0. -1.
          5    1    4    4  502    0 -0.25926893890E+02  0.42942920850E+02  0.19072907303E+02  0.53871737218E+02  0.47000000000E+01 0. -1.
         -5    1    4    4    0  502  0.11211110267E+02 -0.35925040746E+02 -0.74985748801E+02  0.84031244602E+02  0.47000000000E+01 0. -1.
<mgrwt>
<rscale>  0 0.26507003E+03</rscale>
<asrwt>0</asrwt>
<pdfrwt beam="1">  1       21 0.96386256E-02 0.26507003E+03</pdfrwt>
<pdfrwt beam="2">  1       21 0.43133972E-01 0.26507003E+03</pdfrwt>
<totfact> 0.44077133E+05</totfact>
</mgrwt>
</event>
<event>
 8    1  0.4760912E-006  0.2989564E+03  0.7546771E-02  0.1085763E+00
         21   -1    0    0  504  503  0.00000000000E+00  0.00000000000E+00  0.75117800656E+03  0.75117800656E+03  0.00000000000E+00 0.  1.
         21   -1    0    0  503  504 -0.00000000000E+00 -0.00000000000E+00 -0.29744930797E+02  0.29744930797E+02  0.00000000000E+00 0.  1.
         25    2    1    2    0    0  0.58180809981E+02  0.91655727502E+01  0.21179075313E+03  0.25288116336E+03  0.12499818118E+03 0.  0.
         25    2    1    2    0    0 -0.58180809981E+02 -0.91655727502E+01  0.50964232263E+03  0.52804177399E+03  0.12499521468E+03 0.  0.
          5    1    3    3  501    0  0.27389047749E+02 -0.24807099086E+02  0.11627665739E+01  0.37269211526E+02  0.47000000000E+01 0. -1.
         -5    1    3    3    0  501  0.30791762232E+02  0.33972671836E+02  0.21062798656E+03  0.21561195184E+03  0.47000000000E+01 0. -1.
          5    1    4    4  502    0  0.32945195175E+02  0.67252808924E+01  0.25160191379E+03  0.25388231193E+03  0.47000000000E+01 0.  1.
         -5    1    4    4    0  502 -0.91126005156E+02 -0.15890853643E+02  0.25804040883E+03  0.27415946206E+03  0.47000000000E+01 0.  1.
<mgrwt>
<rscale>  0 0.29895644E+03</rscale>
<asrwt>0</asrwt>
<pdfrwt beam="1">  1       21 0.11556583E+00 0.29895644E+03</pdfrwt>
<pdfrwt beam="2">  1       21 0.45761438E-02 0.29895644E+03</pdfrwt>
<totfact> 0.17487569E+05</totfact>
</mgrwt>
</event>
<event>
 8    1  0.4760912E-006  0.2754919E+03  0.7546771E-02  0.1098177E+00
         21   -1    0    0  504  503  0.00000000000E+00  0.00000000000E+00  0.59809606651E+03  0.59809606651E+03  0.00000000000E+00 0. -1.
         21   -1    0    0  503  504 -0.00000000000E+00 -0.00000000000E+00 -0.31723907415E+02  0.31723907415E+02  0.00000000000E+00 0. -1.
         25    2    1    2    0    0  0.56437710091E+02 -0.12562178936E+02  0.28836594997E+03  0.31956580284E+03  0.12499743111E+03 0.  0.
         25    2    1    2    0    0 -0.56437710091E+02  0.12562178936E+02  0.27800620913E+03  0.31025417109E+03  0.12500869930E+03 0.  0.
          5    1    3    3  501    0  0.92752919535E+02 -0.65946111353E+01  0.15205400649E+03  0.17829499115E+03  0.47000000000E+01 0.  1.
         -5    1    3    3    0  501 -0.36315209444E+02 -0.59675678003E+01  0.13631194348E+03  0.14127081169E+03  0.47000000000E+01 0.  1.
          5    1    4    4  502    0 -0.40392925079E+02 -0.48032303980E+02  0.75898151960E+02  0.98596704270E+02  0.47000000000E+01 0.  1.
         -5    1    4    4    0  502 -0.16044785012E+02  0.60594482915E+02  0.20210805717E+03  0.21165746682E+03  0.47000000000E+01 0.  1.
<mgrwt>
<rscale>  0 0.27549188E+03</rscale>
<asrwt>0</asrwt>
<pdfrwt beam="1">  1       21 0.92014771E-01 0.27549188E+03</pdfrwt>
<pdfrwt beam="2">  1       21 0.48806016E-02 0.27549188E+03</pdfrwt>
<totfact> 0.27332062E+05</totfact>
</mgrwt>
</event>
<event>
 8    1  0.4760912E-006  0.2913672E+03  0.7546771E-02  0.1089637E+00
         21   -1    0    0  504  503  0.00000000000E+00  0.00000000000E+00  0.81916613002E+02  0.81916613002E+02  0.00000000000E+00 0.  1.
         21   -1    0    0  503  504 -0.00000000000E+00 -0.00000000000E+00 -0.25908929132E+03  0.25908929132E+03  0.00000000000E+00 0.  1.
         25    2    1    2    0    0 -0.12746578885E+02  0.24145365377E+02 -0.70581797734E+01  0.12814449725E+03  0.12500288129E+03 0.  0.
         25    2    1    2    0    0  0.12746578885E+02 -0.24145365377E+02 -0.17011449855E+03  0.21286140707E+03  0.12500224823E+03 0.  0.
          5    1    3    3  501    0 -0.63530820469E+02 -0.11239050291E+02  0.51073358432E+01  0.64889569888E+02  0.47000000000E+01 0.  1.
         -5    1    3    3    0  501  0.50784241583E+02  0.35384415668E+02 -0.12165515617E+02  0.63254927362E+02  0.47000000000E+01 0.  1.
          5    1    4    4  502    0  0.94703237046E+01 -0.74061591773E+02 -0.12310608688E+03  0.14405556231E+03  0.47000000000E+01 0. -1.
         -5    1    4    4    0  502  0.32762551808E+01  0.49916226396E+02 -0.47008411672E+02  0.68805844763E+02  0.47000000000E+01 0. -1.
<mgrwt>
<rscale>  0 0.29136724E+03</rscale>
<asrwt>0</asrwt>
<pdfrwt beam="1">  1       21 0.12602556E-01 0.29136724E+03</pdfrwt>
<pdfrwt beam="2">  1       21 0.39859890E-01 0.29136724E+03</pdfrwt>
<totfact> 0.31875804E+05</totfact>
</mgrwt>
</event>
<event>
 8    1  0.4760912E-006  0.3086171E+03  0.7546771E-02  0.1081011E+00
         21   -1    0    0  504  503  0.00000000000E+00  0.00000000000E+00  0.38028594933E+02  0.38028594933E+02  0.00000000000E+00 0. -1.
         21   -1    0    0  503  504 -0.00000000000E+00 -0.00000000000E+00 -0.62613754951E+03  0.62613754951E+03  0.00000000000E+00 0. -1.
         25    2    1    2    0    0 -0.47146237379E+01 -0.18751314110E+01 -0.99654770118E+02  0.15994398111E+03  0.12500104037E+03 0.  0.
         25    2    1    2    0    0  0.47146237379E+01  0.18751314110E+01 -0.48845418446E+03  0.50422216333E+03  0.12500702333E+03 0.  0.
          5    1    3    3  501    0  0.54579870454E+02  0.15470917362E+02 -0.72807298561E+02  0.92419176942E+02  0.47000000000E+01 0.  1.
         -5    1    3    3    0  501 -0.59294494192E+02 -0.17346048773E+02 -0.26847471557E+02  0.67524804172E+02  0.47000000000E+01 0.  1.
          5    1    4    4  502    0 -0.35939352735E+01 -0.56743517683E+02 -0.33216731046E+03  0.33703108953E+03  0.47000000000E+01 0.  1.
         -5    1    4    4    0  502  0.83085590113E+01  0.58618649094E+02 -0.15628687400E+03  0.16719107380E+03  0.47000000000E+01 0.  1.
<mgrwt>
<rscale>  0 0.30861712E+03</rscale>
<asrwt>0</asrwt>
<pdfrwt beam="1">  1       21 0.58505528E-02 0.30861712E+03</pdfrwt>
<pdfrwt beam="2">  1       21 0.96328859E-01 0.30861712E+03</pdfrwt>
<totfact> 0.17823780E+05</totfact>
</mgrwt>
</event>
<event>
 8    1  0.4760912E-006  0.3535573E+03  0.7546771E-02  0.1061164E+00
         21   -1    0    0  504  503  0.00000000000E+00  0.00000000000E+00  0.39682377333E+03  0.39682377333E+03  0.00000000000E+00 0.  1.
         21   -1    0    0  503  504 -0.00000000000E+00 -0.00000000000E+00 -0.78752058503E+02  0.78752058503E+02  0.00000000000E+00 0.  1.
         25    2    1    2    0    0  0.52451602953E+01 -0.34523616597E-01 -0.89469252544E+01  0.12543058353E+03  0.12500108366E+03 0.  0.
         25    2    1    2    0    0 -0.52451602953E+01  0.34523616597E-01  0.32701864008E+03  0.35014524830E+03  0.12503196011E+03 0.  0.
          5    1    3    3  501    0 -0.13176105659E+02 -0.24809333428E+02 -0.59525210184E+02  0.65988282543E+02  0.47000000000E+01 0.  1.
         -5    1    3    3    0  501  0.18421265954E+02  0.24774809812E+02  0.50578284929E+02  0.59442300990E+02  0.47000000000E+01 0.  1.
          5    1    4    4  502    0  0.22824878017E+02 -0.56847343094E+02  0.16763267583E+03  0.17853682948E+03  0.47000000000E+01 0. -1.
         -5    1    4    4    0  502 -0.28070038312E+02  0.56881866711E+02  0.15938596424E+03  0.17160841882E+03  0.47000000000E+01 0. -1.
<mgrwt>
<rscale>  0 0.35355729E+03</rscale>
<asrwt>0</asrwt>
<pdfrwt beam="1">  1       21 0.61049810E-01 0.35355729E+03</pdfrwt>
<pdfrwt beam="2">  1       21 0.12115702E-01 0.35355729E+03</pdfrwt>
<totfact> 0.13753549E+05</totfact>
</mgrwt>
</event>
<event>
 8    1  0.4760912E-006  0.2608744E+03  0.7546771E-02  0.1106619E+00
         21   -1    0    0  504  503  0.00000000000E+00  0.00000000000E+00  0.99922970015E+02  0.99922970015E+02  0.00000000000E+00 0.  1.
         21   -1    0    0  503  504 -0.00000000000E+00 -0.00000000000E+00 -0.17026977648E+03  0.17026977648E+03  0.00000000000E+00 0.  1.
         25    2    1    2    0    0  0.24138873401E+02 -0.28310287576E+02 -0.33082520834E+02  0.13454882100E+03  0.12499909782E+03 0.  0.
         25    2    1    2    0    0 -0.24138873401E+02  0.28310287576E+02 -0.37264285631E+02  0.13564392549E+03  0.12500595965E+03 0.  0.
          5    1    3    3  501    0  0.35105548779E+02  0.25647939208E+00  0.41045901310E+02  0.54215508400E+02  0.47000000000E+01 0. -1.
         -5    1    3    3    0  501 -0.10966675379E+02 -0.28566766968E+02 -0.74128422144E+02  0.80333312601E+02  0.47000000000E+01 0. -1.
          5    1    4    4  502    0 -0.20350825547E+02  0.96934074916E+01  0.45286831693E+02  0.50804580246E+02  0.47000000000E+01 0. -1.
         -5    1    4    4    0  502 -0.37880478533E+01  0.18616880085E+02 -0.82551117323E+02  0.84839345247E+02  0.47000000000E+01 0. -1.
<mgrwt>
<rscale>  0 0.26087439E+03</rscale>
<asrwt>0</asrwt>
<pdfrwt beam="1">  1       21 0.15372765E-01 0.26087439E+03</pdfrwt>
<pdfrwt beam="2">  1       21 0.26195350E-01 0.26087439E+03</pdfrwt>
<totfact> 0.51291225E+05</totfact>
</mgrwt>
</event>
<event>
 8    1  0.4760912E-006  0.3531576E+03  0.7546771E-02  0.1061326E+00
         21   -1    0    0  504  503  0.00000000000E+00  0.00000000000E+00  0.26739433564E+03  0.26739433564E+03  0.00000000000E+00 0. -1.
         21   -1    0    0  503  504 -0.00000000000E+00 -0.00000000000E+00 -0.11660705860E+03  0.11660705860E+03  0.00000000000E+00 0. -1.
         25    2    1    2    0    0  0.13955624940E+02  0.98919067519E+02 -0.57910300077E+01  0.16011426851E+03  0.12499320608E+03 0.  0.
         25    2    1    2    0    0 -0.13955624940E+02 -0.98919067519E+02  0.15657830705E+03  0.22388712573E+03  0.12501574879E+03 0.  0.
          5    1    3    3  501    0 -0.43536782360E+01  0.11930461484E+02  0.52163436150E+02  0.53892527278E+02  0.47000000000E+01 0. -1.
         -5    1    3    3    0  501  0.18309303176E+02  0.86988606035E+02 -0.57954466158E+02  0.10622174123E+03  0.47000000000E+01 0. -1.
          5    1    4    4  502    0 -0.47408115390E+02 -0.11266139989E+03  0.10823777181E+03  0.16333286772E+03  0.47000000000E+01 0. -1.
         -5    1    4    4    0  502  0.33452490450E+02  0.13742332376E+02  0.48340535235E+02  0.60554258011E+02  0.47000000000E+01 0. -1.
<mgrwt>
<rscale>  0 0.35315757E+03</rscale>
<asrwt>0</asrwt>
<pdfrwt beam="1">  1       21 0.41137590E-01 0.35315757E+03</pdfrwt>
<pdfrwt beam="2">  1       21 0.17939548E-01 0.35315757E+03</pdfrwt>
<totfact> 0.15394482E+05</totfact>
</mgrwt>
</event>
<event>
 8    1  0.4760912E-006  0.3007741E+03  0.7546771E-02  0.1084854E+00
         21   -1    0    0  504  503  0.00000000000E+00  0.00000000000E+00  0.19830194093E+02  0.19830194093E+02  0.00000000000E+00 0. -1.
         21   -1    0    0  503  504 -0.00000000000E+00 -0.00000000000E+00 -0.11404961913E+04  0.11404961913E+04  0.00000000000E+00 0. -1.
         25    2    1    2    0    0  0.16402477382E+02 -0.75382764609E+02 -0.68475305212E+03  0.70032748160E+03  0.12498094510E+03 0.  0.
         25    2    1    2    0    0 -0.16402477382E+02  0.75382764609E+02 -0.43591294507E+03  0.45999890377E+03  0.12500917297E+03 0.  0.
          5    1    3    3  501    0 -0.16713283961E+02 -0.49247803928E+02 -0.62418928186E+03  0.62636972280E+03  0.47000000000E+01 0. -1.
         -5    1    3    3    0  501  0.33115761343E+02 -0.26134960681E+02 -0.60563770258E+02  0.73957758802E+02  0.47000000000E+01 0. -1.
          5    1    4    4  502    0 -0.13658054791E+02 -0.24220073165E+02 -0.22416148141E+03  0.22592833853E+03  0.47000000000E+01 0.  1.
         -5    1    4    4    0  502 -0.27444225909E+01  0.99602837774E+02 -0.21175146366E+03  0.23407056523E+03  0.47000000000E+01 0.  1.
<mgrwt>
<rscale>  0 0.30077407E+03</rscale>
<asrwt>0</asrwt>
<pdfrwt beam="1">  1       21 0.30507991E-02 0.30077407E+03</pdfrwt>
<pdfrwt beam="2">  1       21 0.17546095E+00 0.30077407E+03</pdfrwt>
<totfact> 0.11483697E+05</totfact>
</mgrwt>
</event>
<event>
 8    1  0.4760912E-006  0.3015665E+03  0.7546771E-02  0.1084460E+00
         21   -1    0    0  504  503  0.00000000000E+00  0.00000000000E+00  0.71888880310E+02  0.71888880310E+02  0.00000000000E+00 0. -1.
         21   -1    0    0  503  504 -0.00000000000E+00 -0.00000000000E+00 -0.31626015388E+03  0.31626015388E+03  0.00000000000E+00 0. -1.
         25    2    1    2    0    0  0.23544483554E+02  0.41293520014E+02 -0.32634135493E+02  0.13767125496E+03  0.12501555960E+03 0.  0.
         25    2    1    2    0    0 -0.23544483554E+02 -0.41293520014E+02 -0.21173713808E+03  0.25047777923E+03  0.12508798802E+03 0.  0.
          5    1    3    3  501    0  0.71144690910E+02  0.38723685123E+02 -0.26903455380E+01  0.81181394378E+02  0.47000000000E+01 0. -1.
         -5    1    3    3    0  501 -0.47600207356E+02  0.25698348916E+01 -0.29943789955E+02  0.56489860582E+02  0.47000000000E+01 0. -1.
          5    1    4    4  502    0  0.20247376006E+02  0.14687380527E+02  0.16613021845E+01  0.25505397602E+02  0.47000000000E+01 0. -1.
         -5    1    4    4    0  502 -0.43791859560E+02 -0.55980900542E+02 -0.21339844026E+03  0.22497238163E+03  0.47000000000E+01 0. -1.
<mgrwt>
<rscale>  0 0.30156650E+03</rscale>
<asrwt>0</asrwt>
<pdfrwt beam="1">  1       21 0.11059828E-01 0.30156650E+03</pdfrwt>
<pdfrwt beam="2">  1       21 0.48655409E-01 0.30156650E+03</pdfrwt>
<totfact> 0.26651580E+05</totfact>
</mgrwt>
</event>
<event>
 8    1  0.4760912E-006  0.2909396E+03  0.7546771E-02  0.1089860E+00
         21   -1    0    0  504  503  0.00000000000E+00  0.00000000000E+00  0.25203599985E+03  0.25203599985E+03  0.00000000000E+00 0. -1.
         21   -1    0    0  503  504 -0.00000000000E+00 -0.00000000000E+00 -0.83962092425E+02  0.83962092425E+02  0.00000000000E+00 0. -1.
         25    2    1    2    0    0 -0.59081497861E+02 -0.29849696050E+02  0.12310389375E+03  0.18751279624E+03  0.12499940941E+03 0.  0.
         25    2    1    2    0    0  0.59081497861E+02  0.29849696050E+02  0.44970013683E+02  0.14848529604E+03  0.12507579009E+03 0.  0.
          5    1    3    3  501    0  0.30934160715E+02 -0.25310721862E+02  0.76442430747E+01  0.40964367351E+02  0.47000000000E+01 0.  1.
         -5    1    3    3    0  501 -0.90015658576E+02 -0.45389741878E+01  0.11545965067E+03  0.14654842889E+03  0.47000000000E+01 0.  1.
          5    1    4    4  502    0 -0.45554139941E+01 -0.40614976349E+02 -0.43875859770E+01  0.41372321800E+02  0.47000000000E+01 0.  1.
         -5    1    4    4    0  502  0.63636911855E+02  0.70464672398E+02  0.49357599660E+02  0.10711297424E+03  0.47000000000E+01 0.  1.
<mgrwt>
<rscale>  0 0.29093965E+03</rscale>
<asrwt>0</asrwt>
<pdfrwt beam="1">  1       21 0.38774769E-01 0.29093965E+03</pdfrwt>
<pdfrwt beam="2">  1       21 0.12917245E-01 0.29093965E+03</pdfrwt>
<totfact> 0.32244938E+05</totfact>
</mgrwt>
</event>
<event>
 8    1  0.4760912E-006  0.8274636E+03  0.7546771E-02  0.9521094E-01
         21   -1    0    0  504  503  0.00000000000E+00  0.00000000000E+00  0.13786275688E+04  0.13786275688E+04  0.00000000000E+00 0. -1.
         21   -1    0    0  503  504 -0.00000000000E+00 -0.00000000000E+00 -0.12416260241E+03  0.12416260241E+03  0.00000000000E+00 0. -1.
         25    2    1    2    0    0  0.17262110134E+03 -0.10961182415E+03  0.12397229748E+04  0.12626769574E+04  0.12500899131E+03 0.  0.
         25    2    1    2    0    0 -0.17262110134E+03  0.10961182415E+03  0.14741991606E+02  0.24011321382E+03  0.12499693001E+03 0.  0.
          5    1    3    3  501    0  0.26928613935E+02  0.79250104330E+01  0.45629019428E+03  0.45717697606E+03  0.47000000000E+01 0.  1.
         -5    1    3    3    0  501  0.14569248740E+03 -0.11753683459E+03  0.78343278053E+03  0.80549998136E+03  0.47000000000E+01 0.  1.
          5    1    4    4  502    0 -0.15976486892E+02  0.12468277732E+02  0.48403002863E+02  0.52684407268E+02  0.47000000000E+01 0.  1.
         -5    1    4    4    0  502 -0.15664461444E+03  0.97143546422E+02 -0.33661011257E+02  0.18742880655E+03  0.47000000000E+01 0.  1.
<mgrwt>
<rscale>  0 0.82746356E+03</rscale>
<asrwt>0</asrwt>
<pdfrwt beam="1">  1       21 0.21209654E+00 0.82746356E+03</pdfrwt>
<pdfrwt beam="2">  1       21 0.19101940E-01 0.82746356E+03</pdfrwt>
<totfact> 0.21334768E+03</totfact>
</mgrwt>
</event>
<event>
 8    1  0.4760912E-006  0.3635050E+03  0.7546771E-02  0.1057205E+00
         21   -1    0    0  504  503  0.00000000000E+00  0.00000000000E+00  0.17140972221E+03  0.17140972221E+03  0.00000000000E+00 0. -1.
         21   -1    0    0  503  504 -0.00000000000E+00 -0.00000000000E+00 -0.19271933332E+03  0.19271933332E+03  0.00000000000E+00 0. -1.
         25    2    1    2    0    0 -0.89354618871E+02 -0.75571624257E+02 -0.71692267449E+02  0.18563863814E+03  0.12500641764E+03 0.  0.
         25    2    1    2    0    0  0.89354618871E+02  0.75571624257E+02  0.50382656345E+02  0.17849041739E+03  0.12500039493E+03 0.  0.
          5    1    3    3  501    0 -0.11538608105E+03 -0.39827601443E+02 -0.32602822772E+02  0.12643266821E+03  0.47000000000E+01 0. -1.
         -5    1    3    3    0  501  0.26031462183E+02 -0.35744022814E+02 -0.39089444677E+02  0.59205969931E+02  0.47000000000E+01 0. -1.
          5    1    4    4  502    0  0.78148573627E+02  0.71827003729E+02 -0.19017049494E+02  0.10793542605E+03  0.47000000000E+01 0. -1.
         -5    1    4    4    0  502  0.11206045244E+02  0.37446205281E+01  0.69399705839E+02  0.70554991343E+02  0.47000000000E+01 0. -1.
<mgrwt>
<rscale>  0 0.36350498E+03</rscale>
<asrwt>0</asrwt>
<pdfrwt beam="1">  1       21 0.26370727E-01 0.36350498E+03</pdfrwt>
<pdfrwt beam="2">  1       21 0.29649128E-01 0.36350498E+03</pdfrwt>
<totfact> 0.14234251E+05</totfact>
</mgrwt>
</event>
<event>
 8    1  0.4760912E-006  0.2723950E+03  0.7546771E-02  0.1099917E+00
         21   -1    0    0  504  503  0.00000000000E+00  0.00000000000E+00  0.65359025033E+03  0.65359025033E+03  0.00000000000E+00 0. -1.
         21   -1    0    0  503  504 -0.00000000000E+00 -0.00000000000E+00 -0.28381329158E+02  0.28381329158E+02  0.00000000000E+00 0. -1.
         25    2    1    2    0    0  0.86402465259E+01 -0.53243205692E+02  0.30292956619E+03  0.33211629670E+03  0.12500167858E+03 0.  0.
         25    2    1    2    0    0 -0.86402465259E+01  0.53243205692E+02  0.32227935499E+03  0.34985528279E+03  0.12500097374E+03 0.  0.
          5    1    3    3  501    0  0.46077842555E+02 -0.16667453541E+02  0.25896280974E+03  0.26359969350E+03  0.47000000000E+01 0. -1.
         -5    1    3    3    0  501 -0.37437596029E+02 -0.36575752151E+02  0.43966756449E+02  0.68516603203E+02  0.47000000000E+01 0. -1.
          5    1    4    4  502    0 -0.48006563498E+01 -0.39386556564E+02  0.64518501453E+02  0.75888564153E+02  0.47000000000E+01 0.  1.
         -5    1    4    4    0  502 -0.38395901760E+01  0.92629762257E+02  0.25776085353E+03  0.27396671864E+03  0.47000000000E+01 0.  1.
<mgrwt>
<rscale>  0 0.27239501E+03</rscale>
<asrwt>0</asrwt>
<pdfrwt beam="1">  1       21 0.10055233E+00 0.27239501E+03</pdfrwt>
<pdfrwt beam="2">  1       21 0.43663588E-02 0.27239501E+03</pdfrwt>
<totfact> 0.26783118E+05</totfact>
</mgrwt>
</event>
<event>
 8    1  0.4760912E-006  0.3439426E+03  0.7546771E-02  0.1065129E+00
         21   -1    0    0  504  503  0.00000000000E+00  0.00000000000E+00  0.72906981641E+03  0.72906981641E+03  0.00000000000E+00 0.  1.
         21   -1    0    0  503  504 -0.00000000000E+00 -0.00000000000E+00 -0.40564181523E+02  0.40564181523E+02  0.00000000000E+00 0.  1.
         25    2    1    2    0    0 -0.46248144860E+02  0.56375485441E+02  0.13634934510E+03  0.19882871005E+03  0.12499850306E+03 0.  0.
         25    2    1    2    0    0  0.46248144860E+02 -0.56375485441E+02  0.55215628978E+03  0.57080528788E+03  0.12500008828E+03 0.  0.
          5    1    3    3  501    0 -0.20523139329E+02  0.60938604771E+02  0.15399918223E+03  0.16695074402E+03  0.47000000000E+01 0.  1.
         -5    1    3    3    0  501 -0.25725005531E+02 -0.45631193302E+01 -0.17649837129E+02  0.31877966031E+02  0.47000000000E+01 0.  1.
          5    1    4    4  502    0 -0.21633552256E+02 -0.21000238725E+02  0.39250814905E+03  0.39369246587E+03  0.47000000000E+01 0.  1.
         -5    1    4    4    0  502  0.67881697116E+02 -0.35375246716E+02  0.15964814072E+03  0.17711282201E+03  0.47000000000E+01 0.  1.
<mgrwt>
<rscale>  0 0.34394256E+03</rscale>
<asrwt>0</asrwt>
<pdfrwt beam="1">  1       21 0.11216458E+00 0.34394256E+03</pdfrwt>
<pdfrwt beam="2">  1       21 0.62406438E-02 0.34394256E+03</pdfrwt>
<totfact> 0.10911977E+05</totfact>
</mgrwt>
</event>
<event>
 8    1  0.4760912E-006  0.2787685E+03  0.7546771E-02  0.1096363E+00
         21   -1    0    0  504  503  0.00000000000E+00  0.00000000000E+00  0.12865782560E+03  0.12865782560E+03  0.00000000000E+00 0. -1.
         21   -1    0    0  503  504 -0.00000000000E+00 -0.00000000000E+00 -0.15100496828E+03  0.15100496828E+03  0.00000000000E+00 0. -1.
         25    2    1    2    0    0 -0.23794289467E+01 -0.57832299398E+02  0.10335982552E+02  0.13807588612E+03  0.12493150626E+03 0.  0.
         25    2    1    2    0    0  0.23794289467E+01  0.57832299398E+02 -0.32683125234E+02  0.14158690775E+03  0.12501371619E+03 0.  0.
          5    1    3    3  501    0 -0.31340705311E+02 -0.27501978395E+02  0.59802549582E+02  0.73055003672E+02  0.47000000000E+01 0.  1.
         -5    1    3    3    0  501  0.28961276365E+02 -0.30330321003E+02 -0.49466567030E+02  0.65020882450E+02  0.47000000000E+01 0.  1.
          5    1    4    4  502    0  0.12578438433E+02  0.96534813750E+02 -0.23081521563E+02  0.10016004202E+03  0.47000000000E+01 0.  1.
         -5    1    4    4    0  502 -0.10199009487E+02 -0.38702514352E+02 -0.96016036706E+01  0.41426865736E+02  0.47000000000E+01 0.  1.
<mgrwt>
<rscale>  0 0.27876851E+03</rscale>
<asrwt>0</asrwt>
<pdfrwt beam="1">  1       21 0.19793512E-01 0.27876851E+03</pdfrwt>
<pdfrwt beam="2">  1       21 0.23231533E-01 0.27876851E+03</pdfrwt>
<totfact> 0.40258192E+05</totfact>
</mgrwt>
</event>
<event>
 8    1  0.4760912E-006  0.3619017E+03  0.7546771E-02  0.1057833E+00
         21   -1    0    0  504  503  0.00000000000E+00  0.00000000000E+00  0.15915824023E+04  0.15915824023E+04  0.00000000000E+00 0.  1.
         21   -1    0    0  503  504 -0.00000000000E+00 -0.00000000000E+00 -0.20572734104E+02  0.20572734104E+02  0.00000000000E+00 0.  1.
         25    2    1    2    0    0 -0.36573228138E+02 -0.81422567618E+02  0.35936169508E+03  0.39081020376E+03  0.12499820776E+03 0.  0.
         25    2    1    2    0    0  0.36573228138E+02  0.81422567618E+02  0.12116479731E+04  0.12213449326E+04  0.12500159274E+03 0.  0.
          5    1    3    3  501    0  0.31891643073E+02 -0.34293548421E+02  0.43250658326E+02  0.63920527273E+02  0.47000000000E+01 0. -1.
         -5    1    3    3    0  501 -0.68464871211E+02 -0.47129019197E+02  0.31611103675E+03  0.32688967649E+03  0.47000000000E+01 0. -1.
          5    1    4    4  502    0 -0.25551944998E+02  0.21189463467E+01  0.66254487393E+03  0.66305745739E+03  0.47000000000E+01 0. -1.
         -5    1    4    4    0  502  0.62125173136E+02  0.79303621271E+02  0.54910309915E+03  0.55828747522E+03  0.47000000000E+01 0. -1.
<mgrwt>
<rscale>  0 0.36190165E+03</rscale>
<asrwt>0</asrwt>
<pdfrwt beam="1">  1       21 0.24485873E+00 0.36190165E+03</pdfrwt>
<pdfrwt beam="2">  1       21 0.31650373E-02 0.36190165E+03</pdfrwt>
<totfact> 0.37448148E+04</totfact>
</mgrwt>
</event>
<event>
 8    1  0.4760912E-006  0.3203696E+03  0.7546771E-02  0.1075479E+00
         21   -1    0    0  504  503  0.00000000000E+00  0.00000000000E+00  0.10325659543E+03  0.10325659543E+03  0.00000000000E+00 0. -1.
         21   -1    0    0  503  504 -0.00000000000E+00 -0.00000000000E+00 -0.24849906319E+03  0.24849906319E+03  0.00000000000E+00 0. -1.
         25    2    1    2    0    0 -0.64976580668E+02 -0.63234270562E+02 -0.25843451725E+02  0.15655805511E+03  0.12498804588E+03 0.  0.
         25    2    1    2    0    0  0.64976580668E+02  0.63234270562E+02 -0.11939901603E+03  0.19519760351E+03  0.12500180150E+03 0.  0.
          5    1    3    3  501    0 -0.29252146413E+02 -0.15391237112E+02  0.49873010078E+02  0.60016542585E+02  0.47000000000E+01 0.  1.
         -5    1    3    3    0  501 -0.35724434255E+02 -0.47843033449E+02 -0.75716461803E+02  0.96541512524E+02  0.47000000000E+01 0.  1.
          5    1    4    4  502    0  0.49964429658E+02 -0.21051625870E+02 -0.85987276436E+01  0.55096672313E+02  0.47000000000E+01 0.  1.
         -5    1    4    4    0  502  0.15012151009E+02  0.84285896432E+02 -0.11080028839E+03  0.14010093120E+03  0.47000000000E+01 0.  1.
<mgrwt>
<rscale>  0 0.32036958E+03</rscale>
<asrwt>0</asrwt>
<pdfrwt beam="1">  1       21 0.15885630E-01 0.32036958E+03</pdfrwt>
<pdfrwt beam="2">  1       21 0.38230625E-01 0.32036958E+03</pdfrwt>
<totfact> 0.22578117E+05</totfact>
</mgrwt>
</event>
<event>
 8    1  0.4760912E-006  0.2888747E+03  0.7546771E-02  0.1090938E+00
         21   -1    0    0  504  503  0.00000000000E+00  0.00000000000E+00  0.41841167042E+03  0.41841167042E+03  0.00000000000E+00 0. -1.
         21   -1    0    0  503  504 -0.00000000000E+00 -0.00000000000E+00 -0.49860348004E+02  0.49860348004E+02  0.00000000000E+00 0. -1.
         25    2    1    2    0    0 -0.59996050356E+02 -0.17547617007E+02  0.12517016962E+03  0.18762313168E+03  0.12500969266E+03 0.  0.
         25    2    1    2    0    0  0.59996050356E+02  0.17547617007E+02  0.24338115279E+03  0.28064888674E+03  0.12498786810E+03 0.  0.
          5    1    3    3  501    0 -0.95509947633E+02 -0.76655065847E+01  0.61658742448E+02  0.11403859263E+03  0.47000000000E+01 0.  1.
         -5    1    3    3    0  501  0.35513897277E+02 -0.98821104223E+01  0.63511427176E+02  0.73584539056E+02  0.47000000000E+01 0.  1.
          5    1    4    4  502    0 -0.88056408087E+01  0.39962900176E+02  0.17900304397E+03  0.18368111620E+03  0.47000000000E+01 0.  1.
         -5    1    4    4    0  502  0.68801691165E+02 -0.22415283169E+02  0.64378108821E+02  0.96967770533E+02  0.47000000000E+01 0.  1.
<mgrwt>
<rscale>  0 0.28887472E+03</rscale>
<asrwt>0</asrwt>
<pdfrwt beam="1">  1       21 0.64371024E-01 0.28887472E+03</pdfrwt>
<pdfrwt beam="2">  1       21 0.76708230E-02 0.28887472E+03</pdfrwt>
<totfact> 0.28049285E+05</totfact>
</mgrwt>
</event>
<event>
 8    1  0.4760912E-006  0.2517960E+03  0.7546771E-02  0.1112175E+00
         21   -1    0    0  504  503  0.00000000000E+00  0.00000000000E+00  0.29701147865E+02  0.29701147865E+02  0.00000000000E+00 0.  1.
         21   -1    0    0  503  504 -0.00000000000E+00 -0.00000000000E+00 -0.53365964177E+03  0.53365964177E+03  0.00000000000E+00 0.  1.
         25    2    1    2    0    0  0.17004549285E+01 -0.12903401351E+02 -0.23518427768E+03  0.26665655893E+03  0.12499874655E+03 0.  0.
         25    2    1    2    0    0 -0.17004549285E+01  0.12903401351E+02 -0.26877421622E+03  0.29670423070E+03  0.12499772757E+03 0.  0.
          5    1    3    3  501    0  0.14086739090E+02  0.10421878264E+02  0.95186475522E+01  0.20487713781E+02  0.47000000000E+01 0. -1.
         -5    1    3    3    0  501 -0.12386284162E+02 -0.23325279615E+02 -0.24470292524E+03  0.24616884515E+03  0.47000000000E+01 0. -1.
          5    1    4    4  502    0 -0.30341636061E+02 -0.47739235293E+02 -0.99230248037E+02  0.11431702231E+03  0.47000000000E+01 0.  1.
         -5    1    4    4    0  502  0.28641181133E+02  0.60642636645E+02 -0.16954396818E+03  0.18238720838E+03  0.47000000000E+01 0.  1.
<mgrwt>
<rscale>  0 0.25179598E+03</rscale>
<asrwt>0</asrwt>
<pdfrwt beam="1">  1       21 0.45694072E-02 0.25179598E+03</pdfrwt>
<pdfrwt beam="2">  1       21 0.82101486E-01 0.25179598E+03</pdfrwt>
<totfact> 0.40042632E+05</totfact>
</mgrwt>
</event>
<event>
 8    1  0.4760912E-006  0.2748064E+03  0.7546771E-02  0.1098560E+00
         21   -1    0    0  504  503  0.00000000000E+00  0.00000000000E+00  0.33069141848E+02  0.33069141848E+02  0.00000000000E+00 0. -1.
         21   -1    0    0  503  504 -0.00000000000E+00 -0.00000000000E+00 -0.57091412843E+03  0.57091412843E+03  0.00000000000E+00 0. -1.
         25    2    1    2    0    0  0.37550797047E+02  0.12064795192E+02 -0.35954346740E+03  0.38268735101E+03  0.12498992773E+03 0.  0.
         25    2    1    2    0    0 -0.37550797047E+02 -0.12064795192E+02 -0.17830151919E+03  0.22129591927E+03  0.12499932199E+03 0.  0.
          5    1    3    3  501    0  0.17809365971E+02 -0.45940033131E+02 -0.64444957643E+02  0.81258247126E+02  0.47000000000E+01 0.  1.
         -5    1    3    3    0  501  0.19741431076E+02  0.58004828323E+02 -0.29509850975E+03  0.30142910388E+03  0.47000000000E+01 0.  1.
          5    1    4    4  502    0 -0.73373941018E+02 -0.27571757040E+02 -0.66895075633E+02  0.10315511694E+03  0.47000000000E+01 0. -1.
         -5    1    4    4    0  502  0.35823143970E+02  0.15506961848E+02 -0.11140644355E+03  0.11814080233E+03  0.47000000000E+01 0. -1.
<mgrwt>
<rscale>  0 0.27480641E+03</rscale>
<asrwt>0</asrwt>
<pdfrwt beam="1">  1       21 0.50875612E-02 0.27480641E+03</pdfrwt>
<pdfrwt beam="2">  1       21 0.87832927E-01 0.27480641E+03</pdfrwt>
<totfact> 0.28388942E+05</totfact>
</mgrwt>
</event>
<event>
 8    1  0.4760912E-006  0.2769631E+03  0.7546771E-02  0.1097359E+00
         21   -1    0    0  504  503  0.00000000000E+00  0.00000000000E+00  0.95731381508E+02  0.95731381508E+02  0.00000000000E+00 0.  1.
         21   -1    0    0  503  504 -0.00000000000E+00 -0.00000000000E+00 -0.20032238350E+03  0.20032238350E+03  0.00000000000E+00 0.  1.
         25    2    1    2    0    0  0.60182097990E+01 -0.59164042699E+02 -0.47867555144E+02  0.14645601980E+03  0.12498583961E+03 0.  0.
         25    2    1    2    0    0 -0.60182097990E+01  0.59164042699E+02 -0.56723446846E+02  0.14959774520E+03  0.12500133259E+03 0.  0.
          5    1    3    3  501    0 -0.18195889411E+02  0.50505566204E+01  0.34214113254E+02  0.39361072894E+02  0.47000000000E+01 0.  1.
         -5    1    3    3    0  501  0.24214099210E+02 -0.64214599319E+02 -0.82081668398E+02  0.10709494691E+03  0.47000000000E+01 0.  1.
          5    1    4    4  502    0  0.39464669505E+02  0.78185486548E+02 -0.26687034269E+02  0.91677250417E+02  0.47000000000E+01 0.  1.
         -5    1    4    4    0  502 -0.45482879304E+02 -0.19021443849E+02 -0.30036412577E+02  0.57920494787E+02  0.47000000000E+01 0.  1.
<mgrwt>
<rscale>  0 0.27696309E+03</rscale>
<asrwt>0</asrwt>
<pdfrwt beam="1">  1       21 0.14727905E-01 0.27696309E+03</pdfrwt>
<pdfrwt beam="2">  1       21 0.30818828E-01 0.27696309E+03</pdfrwt>
<totfact> 0.40286742E+05</totfact>
</mgrwt>
</event>
<event>
 8    1  0.4760912E-006  0.2914486E+03  0.7546771E-02  0.1089595E+00
         21   -1    0    0  504  503  0.00000000000E+00  0.00000000000E+00  0.14155985668E+03  0.14155985668E+03  0.00000000000E+00 0. -1.
         21   -1    0    0  503  504 -0.00000000000E+00 -0.00000000000E+00 -0.15001128899E+03  0.15001128899E+03  0.00000000000E+00 0. -1.
         25    2    1    2    0    0 -0.68470077018E+02 -0.52724933800E+01 -0.34133879213E+02  0.14665065841E+03  0.12500137307E+03 0.  0.
         25    2    1    2    0    0  0.68470077018E+02  0.52724933800E+01  0.25682446907E+02  0.14492048726E+03  0.12500563553E+03 0.  0.
          5    1    3    3  501    0 -0.95619343369E+02  0.35554316985E+00 -0.56104351388E+02  0.11096383862E+03  0.47000000000E+01 0.  1.
         -5    1    3    3    0  501  0.27149266351E+02 -0.56280365499E+01  0.21970472175E+02  0.35686819786E+02  0.47000000000E+01 0.  1.
          5    1    4    4  502    0  0.60963732470E+02  0.55834071990E+02 -0.85189216270E+01  0.83238706725E+02  0.47000000000E+01 0.  1.
         -5    1    4    4    0  502  0.75063445484E+01 -0.50561578610E+02  0.34201368534E+02  0.61681780532E+02  0.47000000000E+01 0.  1.
<mgrwt>
<rscale>  0 0.29144863E+03</rscale>
<asrwt>0</asrwt>
<pdfrwt beam="1">  1       21 0.21778440E-01 0.29144863E+03</pdfrwt>
<pdfrwt beam="2">  1       21 0.23078660E-01 0.29144863E+03</pdfrwt>
<totfact> 0.33947109E+05</totfact>
</mgrwt>
</event>
<event>
 8    1  0.4760912E-006  0.2722016E+03  0.7546771E-02  0.1100026E+00
         21   -1    0    0  504  503  0.00000000000E+00  0.00000000000E+00  0.10799674000E+03  0.10799674000E+03  0.00000000000E+00 0.  1.
         21   -1    0    0  503  504 -0.00000000000E+00 -0.00000000000E+00 -0.17151833692E+03  0.17151833692E+03  0.00000000000E+00 0.  1.
         25    2    1    2    0    0 -0.10835620905E+02  0.21195765548E+02  0.17833598007E+02  0.12848687738E+03  0.12499667709E+03 0.  0.
         25    2    1    2    0    0  0.10835620905E+02 -0.21195765548E+02 -0.81355194929E+02  0.15102819954E+03  0.12499671258E+03 0.  0.
          5    1    3    3  501    0 -0.33822824576E+02 -0.42772914575E+02 -0.85992190146E+01  0.55403449813E+02  0.47000000000E+01 0. -1.
         -5    1    3    3    0  501  0.22987203671E+02  0.63968680123E+02  0.26432817022E+02  0.73083427567E+02  0.47000000000E+01 0. -1.
          5    1    4    4  502    0  0.56012925960E+02 -0.11078029979E+02  0.15632370781E-01  0.57291019080E+02  0.47000000000E+01 0.  1.
         -5    1    4    4    0  502 -0.45177305055E+02 -0.10117735569E+02 -0.81370827300E+02  0.93737180460E+02  0.47000000000E+01 0.  1.
<mgrwt>
<rscale>  0 0.27220155E+03</rscale>
<asrwt>0</asrwt>
<pdfrwt beam="1">  1       21 0.16614883E-01 0.27220155E+03</pdfrwt>
<pdfrwt beam="2">  1       21 0.26387436E-01 0.27220155E+03</pdfrwt>
<totfact> 0.43734640E+05</totfact>
</mgrwt>
</event>
<event>
 8    1  0.4760912E-006  0.3659679E+03  0.7546771E-02  0.1056246E+00
         21   -1    0    0  504  503  0.00000000000E+00  0.00000000000E+00  0.14964982844E+03  0.14964982844E+03  0.00000000000E+00 0. -1.
         21   -1    0    0  503  504 -0.00000000000E+00 -0.00000000000E+00 -0.22374316039E+03  0.22374316039E+03  0.00000000000E+00 0. -1.
         25    2    1    2    0    0 -0.13117663541E+03  0.10754454911E+02 -0.60683936457E+02  0.19138681601E+03  0.12499362073E+03 0.  0.
         25    2    1    2    0    0  0.13117663541E+03 -0.10754454911E+02 -0.13409395492E+02  0.18200617282E+03  0.12499386816E+03 0.  0.
          5    1    3    3  501    0 -0.11345373622E+03  0.50631409447E+02 -0.10578969291E+02  0.12477697895E+03  0.47000000000E+01 0.  1.
         -5    1    3    3    0  501 -0.17722899189E+02 -0.39876954536E+02 -0.50104967166E+02  0.66609837062E+02  0.47000000000E+01 0.  1.
          5    1    4    4  502    0  0.85058077000E+02 -0.18202245040E+02  0.52029420901E+02  0.10146599838E+03  0.47000000000E+01 0.  1.
         -5    1    4    4    0  502  0.46118558410E+02  0.74477901292E+01 -0.65438816393E+02  0.80540174438E+02  0.47000000000E+01 0.  1.
<mgrwt>
<rscale>  0 0.36596790E+03</rscale>
<asrwt>0</asrwt>
<pdfrwt beam="1">  1       21 0.23023051E-01 0.36596790E+03</pdfrwt>
<pdfrwt beam="2">  1       21 0.34422024E-01 0.36596790E+03</pdfrwt>
<totfact> 0.13740110E+05</totfact>
</mgrwt>
</event>
<event>
 8    1  0.4760912E-006  0.3251140E+03  0.7546771E-02  0.1073319E+00
         21   -1    0    0  504  503  0.00000000000E+00  0.00000000000E+00  0.43578042110E+03  0.43578042110E+03  0.00000000000E+00 0. -1.
         21   -1    0    0  503  504 -0.00000000000E+00 -0.00000000000E+00 -0.60637822187E+02  0.60637822187E+02  0.00000000000E+00 0. -1.
         25    2    1    2    0    0 -0.77599952830E+02 -0.63642396583E+02  0.22873991951E+03  0.27932086279E+03  0.12500434508E+03 0.  0.
         25    2    1    2    0    0  0.77599952830E+02  0.63642396583E+02  0.14640267940E+03  0.21709738050E+03  0.12500168303E+03 0.  0.
          5    1    3    3  501    0 -0.40453423807E+02 -0.89703732382E+02  0.90596149383E+02  0.13383942388E+03  0.47000000000E+01 0. -1.
         -5    1    3    3    0  501 -0.37146529023E+02  0.26061335800E+02  0.13814377013E+03  0.14548143891E+03  0.47000000000E+01 0. -1.
          5    1    4    4  502    0  0.14965640132E+02 -0.23997447644E+02  0.91926973801E+02  0.96293854374E+02  0.47000000000E+01 0. -1.
         -5    1    4    4    0  502  0.62634312698E+02  0.87639844226E+02  0.54475705598E+02  0.12080352612E+03  0.47000000000E+01 0. -1.
<mgrwt>
<rscale>  0 0.32511398E+03</rscale>
<asrwt>0</asrwt>
<pdfrwt beam="1">  1       21 0.67043140E-01 0.32511398E+03</pdfrwt>
<pdfrwt beam="2">  1       21 0.93288960E-02 0.32511398E+03</pdfrwt>
<totfact> 0.18010120E+05</totfact>
</mgrwt>
</event>
<event>
 8    1  0.4760912E-006  0.3755229E+03  0.7546771E-02  0.1052601E+00
         21   -1    0    0  504  503  0.00000000000E+00  0.00000000000E+00  0.25532271081E+03  0.25532271081E+03  0.00000000000E+00 0. -1.
         21   -1    0    0  503  504 -0.00000000000E+00 -0.00000000000E+00 -0.13807765006E+03  0.13807765006E+03  0.00000000000E+00 0. -1.
         25    2    1    2    0    0 -0.79412953904E+01 -0.10986004921E+03 -0.32093383887E+02  0.16966876567E+03  0.12500084068E+03 0.  0.
         25    2    1    2    0    0  0.79412953904E+01  0.10986004921E+03  0.14933844463E+03  0.22373159519E+03  0.12498624347E+03 0.  0.
          5    1    3    3  501    0  0.15852357740E+02 -0.12500984472E+02 -0.61674374876E+02  0.65064509336E+02  0.47000000000E+01 0. -1.
         -5    1    3    3    0  501 -0.23793653131E+02 -0.97359064740E+02  0.29580990989E+02  0.10460425634E+03  0.47000000000E+01 0. -1.
          5    1    4    4  502    0 -0.26955955227E+02  0.12505962600E+03  0.10991586001E+03  0.16873090961E+03  0.47000000000E+01 0.  1.
         -5    1    4    4    0  502  0.34897250618E+02 -0.15199576791E+02  0.39422584629E+02  0.55000685579E+02  0.47000000000E+01 0.  1.
<mgrwt>
<rscale>  0 0.37552289E+03</rscale>
<asrwt>0</asrwt>
<pdfrwt beam="1">  1       21 0.39280417E-01 0.37552289E+03</pdfrwt>
<pdfrwt beam="2">  1       21 0.21242715E-01 0.37552289E+03</pdfrwt>
<totfact> 0.12239238E+05</totfact>
</mgrwt>
</event>
<event>
 8    1  0.4760912E-006  0.3296540E+03  0.7546771E-02  0.1071290E+00
         21   -1    0    0  504  503  0.00000000000E+00  0.00000000000E+00  0.99392321751E+03  0.99392321751E+03  0.00000000000E+00 0.  1.
         21   -1    0    0  503  504 -0.00000000000E+00 -0.00000000000E+00 -0.27334041278E+02  0.27334041278E+02  0.00000000000E+00 0.  1.
         25    2    1    2    0    0 -0.98670181187E+02  0.39609984960E+02  0.53105269296E+03  0.55583028035E+03  0.12500232916E+03 0.  0.
         25    2    1    2    0    0  0.98670181187E+02 -0.39609984960E+02  0.43553648328E+03  0.46542697844E+03  0.12500195370E+03 0.  0.
          5    1    3    3  501    0 -0.10941582959E+03  0.20055960345E+02  0.51742148892E+03  0.52926472819E+03  0.47000000000E+01 0.  1.
         -5    1    3    3    0  501  0.10745648401E+02  0.19554024616E+02  0.13631204038E+02  0.26565552164E+02  0.47000000000E+01 0.  1.
          5    1    4    4  502    0  0.40188874075E+02 -0.58623616782E+02  0.91764954627E+02  0.11616699592E+03  0.47000000000E+01 0.  1.
         -5    1    4    4    0  502  0.58481307112E+02  0.19013631822E+02  0.34377152865E+03  0.34925998252E+03  0.47000000000E+01 0.  1.
<mgrwt>
<rscale>  0 0.32965399E+03</rscale>
<asrwt>0</asrwt>
<pdfrwt beam="1">  1       21 0.15291124E+00 0.32965399E+03</pdfrwt>
<pdfrwt beam="2">  1       21 0.42052379E-02 0.32965399E+03</pdfrwt>
<totfact> 0.96979424E+04</totfact>
</mgrwt>
</event>
<event>
 8    1  0.4760912E-006  0.3538981E+03  0.7546771E-02  0.1061026E+00
         21   -1    0    0  504  503  0.00000000000E+00  0.00000000000E+00  0.14389742037E+04  0.14389742037E+04  0.00000000000E+00 0. -1.
         21   -1    0    0  503  504 -0.00000000000E+00 -0.00000000000E+00 -0.21759229583E+02  0.21759229583E+02  0.00000000000E+00 0. -1.
         25    2    1    2    0    0 -0.33619487705E+02 -0.29289354757E+02  0.22548637571E+03  0.26163703077E+03  0.12498677523E+03 0.  0.
         25    2    1    2    0    0  0.33619487705E+02  0.29289354757E+02  0.11917285984E+04  0.11990964025E+04  0.12500797578E+03 0.  0.
          5    1    3    3  501    0  0.43803436138E+02 -0.21792497225E+02  0.12611778301E+03  0.13535671075E+03  0.47000000000E+01 0.  1.
         -5    1    3    3    0  501 -0.77422923843E+02 -0.74968575315E+01  0.99368592703E+02  0.12628032002E+03  0.47000000000E+01 0.  1.
          5    1    4    4  502    0  0.49654514847E+02 -0.25369054750E+02  0.27765456232E+03  0.28323718993E+03  0.47000000000E+01 0. -1.
         -5    1    4    4    0  502 -0.16035027142E+02  0.54658409507E+02  0.91407403612E+03  0.91585921262E+03  0.47000000000E+01 0. -1.
<mgrwt>
<rscale>  0 0.35389812E+03</rscale>
<asrwt>0</asrwt>
<pdfrwt beam="1">  1       21 0.22138057E+00 0.35389812E+03</pdfrwt>
<pdfrwt beam="2">  1       21 0.33475749E-02 0.35389812E+03</pdfrwt>
<totfact> 0.47802817E+04</totfact>
</mgrwt>
</event>
<event>
 8    1  0.4760912E-006  0.5205823E+03  0.7546771E-02  0.1008542E+00
         21   -1    0    0  504  503  0.00000000000E+00  0.00000000000E+00  0.48398040562E+03  0.48398040562E+03  0.00000000000E+00 0.  1.
         21   -1    0    0  503  504 -0.00000000000E+00 -0.00000000000E+00 -0.13998804535E+03  0.13998804535E+03  0.00000000000E+00 0.  1.
         25    2    1    2    0    0  0.21114990396E+03  0.14929165589E+02  0.27454034590E+03  0.36851807992E+03  0.12500404701E+03 0.  0.
         25    2    1    2    0    0 -0.21114990396E+03 -0.14929165589E+02  0.69452014372E+02  0.25545037105E+03  0.12499659130E+03 0.  0.
          5    1    3    3  501    0  0.18974434118E+03  0.12511962757E+02  0.28614722481E+03  0.34360120560E+03  0.47000000000E+01 0. -1.
         -5    1    3    3    0  501  0.21405562785E+02  0.24172028318E+01 -0.11606878913E+02  0.24916874318E+02  0.47000000000E+01 0. -1.
          5    1    4    4  502    0 -0.18222011393E+03  0.32139545901E+02  0.75031836647E+02  0.19972227428E+03  0.47000000000E+01 0. -1.
         -5    1    4    4    0  502 -0.28929790032E+02 -0.47068711491E+02 -0.55798222749E+01  0.55728096767E+02  0.47000000000E+01 0. -1.
<mgrwt>
<rscale>  0 0.52058225E+03</rscale>
<asrwt>0</asrwt>
<pdfrwt beam="1">  1       21 0.74458523E-01 0.52058225E+03</pdfrwt>
<pdfrwt beam="2">  1       21 0.21536623E-01 0.52058225E+03</pdfrwt>
<totfact> 0.29091440E+04</totfact>
</mgrwt>
</event>
<event>
 8    1  0.4760912E-006  0.3354187E+03  0.7546771E-02  0.1068764E+00
         21   -1    0    0  504  503  0.00000000000E+00  0.00000000000E+00  0.32301344925E+02  0.32301344925E+02  0.00000000000E+00 0. -1.
         21   -1    0    0  503  504 -0.00000000000E+00 -0.00000000000E+00 -0.87075092689E+03  0.87075092689E+03  0.00000000000E+00 0. -1.
         25    2    1    2    0    0  0.25938149393E+02  0.10872592384E+03 -0.41093938090E+03  0.44383477079E+03  0.12499605945E+03 0.  0.
         25    2    1    2    0    0 -0.25938149393E+02 -0.10872592384E+03 -0.42751020107E+03  0.45921750103E+03  0.12498650778E+03 0.  0.
          5    1    3    3  501    0  0.59032041384E+02  0.92481838748E+01 -0.11230925172E+03  0.12730188072E+03  0.47000000000E+01 0.  1.
         -5    1    3    3    0  501 -0.33093891991E+02  0.99477739965E+02 -0.29863012918E+03  0.31653289006E+03  0.47000000000E+01 0.  1.
          5    1    4    4  502    0 -0.72022409347E+02 -0.34257224985E+02 -0.19655775255E+03  0.21217404412E+03  0.47000000000E+01 0. -1.
         -5    1    4    4    0  502  0.46084259955E+02 -0.74468698855E+02 -0.23095244852E+03  0.24704345691E+03  0.47000000000E+01 0. -1.
<mgrwt>
<rscale>  0 0.33541870E+03</rscale>
<asrwt>0</asrwt>
<pdfrwt beam="1">  1       21 0.49694383E-02 0.33541870E+03</pdfrwt>
<pdfrwt beam="2">  1       21 0.13396166E+00 0.33541870E+03</pdfrwt>
<totfact> 0.10335578E+05</totfact>
</mgrwt>
</event>
<event>
 8    1  0.4760912E-006  0.3095110E+03  0.7546771E-02  0.1080580E+00
         21   -1    0    0  504  503  0.00000000000E+00  0.00000000000E+00  0.69038179777E+02  0.69038179777E+02  0.00000000000E+00 0. -1.
         21   -1    0    0  503  504 -0.00000000000E+00 -0.00000000000E+00 -0.34689887425E+03  0.34689887425E+03  0.00000000000E+00 0. -1.
         25    2    1    2    0    0  0.91106925586E+01 -0.38788111772E+02 -0.28637153104E+02  0.13428406246E+03  0.12499840223E+03 0.  0.
         25    2    1    2    0    0 -0.91106925586E+01  0.38788111772E+02 -0.24922354136E+03  0.28165299156E+03  0.12501404621E+03 0.  0.
          5    1    3    3  501    0  0.55211382558E+02 -0.58377429032E+02 -0.12523213245E+02  0.81456380071E+02  0.47000000000E+01 0. -1.
         -5    1    3    3    0  501 -0.46100690000E+02  0.19589317260E+02 -0.16113939859E+02  0.52827682392E+02  0.47000000000E+01 0. -1.
          5    1    4    4  502    0 -0.64391932120E+02  0.23551206319E+01 -0.11460192430E+03  0.13155819460E+03  0.47000000000E+01 0.  1.
         -5    1    4    4    0  502  0.55281239561E+02  0.36432991140E+02 -0.13462161707E+03  0.15009479695E+03  0.47000000000E+01 0.  1.
<mgrwt>
<rscale>  0 0.30951101E+03</rscale>
<asrwt>0</asrwt>
<pdfrwt beam="1">  1       21 0.10621258E-01 0.30951101E+03</pdfrwt>
<pdfrwt beam="2">  1       21 0.53369058E-01 0.30951101E+03</pdfrwt>
<totfact> 0.23529970E+05</totfact>
</mgrwt>
</event>
<event>
 8    1  0.4760912E-006  0.2641970E+03  0.7546771E-02  0.1104648E+00
         21   -1    0    0  504  503  0.00000000000E+00  0.00000000000E+00  0.15045595341E+03  0.15045595341E+03  0.00000000000E+00 0. -1.
         21   -1    0    0  503  504 -0.00000000000E+00 -0.00000000000E+00 -0.11598086953E+03  0.11598086953E+03  0.00000000000E+00 0. -1.
         25    2    1    2    0    0 -0.15875095069E+02  0.32672533189E+02 -0.54055085970E+01  0.13029419443E+03  0.12501137752E+03 0.  0.
         25    2    1    2    0    0  0.15875095069E+02 -0.32672533189E+02  0.39880592470E+02  0.13614262851E+03  0.12499936230E+03 0.  0.
          5    1    3    3  501    0 -0.12769520334E+02 -0.47579669167E+02 -0.59431659694E+01  0.49842720525E+02  0.47000000000E+01 0. -1.
         -5    1    3    3    0  501 -0.31055747357E+01  0.80252202356E+02  0.53765737234E+00  0.80451473901E+02  0.47000000000E+01 0. -1.
          5    1    4    4  502    0 -0.32661677763E+02  0.33954971095E+02  0.18669853356E+02  0.50895762895E+02  0.47000000000E+01 0.  1.
         -5    1    4    4    0  502  0.48536772832E+02 -0.66627504284E+02  0.21210739114E+02  0.85246865619E+02  0.47000000000E+01 0.  1.
<mgrwt>
<rscale>  0 0.26419699E+03</rscale>
<asrwt>0</asrwt>
<pdfrwt beam="1">  1       21 0.23147070E-01 0.26419699E+03</pdfrwt>
<pdfrwt beam="2">  1       21 0.17843211E-01 0.26419699E+03</pdfrwt>
<totfact> 0.49350921E+05</totfact>
</mgrwt>
</event>
<event>
 8    1  0.4760912E-006  0.3879882E+03  0.7546771E-02  0.1048020E+00
         21   -1    0    0  504  503  0.00000000000E+00  0.00000000000E+00  0.89578661175E+03  0.89578661175E+03  0.00000000000E+00 0.  1.
         21   -1    0    0  503  504 -0.00000000000E+00 -0.00000000000E+00 -0.42011911239E+02  0.42011911239E+02  0.00000000000E+00 0.  1.
         25    2    1    2    0    0 -0.10254333068E+03  0.37142020174E+02  0.18376950477E+03  0.24756383204E+03  0.12498782228E+03 0.  0.
         25    2    1    2    0    0  0.10254333068E+03 -0.37142020174E+02  0.67000519574E+03  0.69023469095E+03  0.12498920732E+03 0.  0.
          5    1    3    3  501    0 -0.12484868658E+03  0.52284742302E+02  0.16864409778E+03  0.21629565537E+03  0.47000000000E+01 0. -1.
         -5    1    3    3    0  501  0.22305355899E+02 -0.15142722129E+02  0.15125406998E+02  0.31268176667E+02  0.47000000000E+01 0. -1.
          5    1    4    4  502    0  0.97337565207E+02  0.14806077649E+02  0.28255276210E+03  0.29925235990E+03  0.47000000000E+01 0. -1.
         -5    1    4    4    0  502  0.52057654737E+01 -0.51948097823E+02  0.38745243363E+03  0.39098233105E+03  0.47000000000E+01 0. -1.
<mgrwt>
<rscale>  0 0.38798818E+03</rscale>
<asrwt>0</asrwt>
<pdfrwt beam="1">  1       21 0.13781331E+00 0.38798818E+03</pdfrwt>
<pdfrwt beam="2">  1       21 0.64633716E-02 0.38798818E+03</pdfrwt>
<totfact> 0.60037208E+04</totfact>
</mgrwt>
</event>
<event>
 8    1  0.4760912E-006  0.2703710E+03  0.7546771E-02  0.1101067E+00
         21   -1    0    0  504  503  0.00000000000E+00  0.00000000000E+00  0.11910079521E+04  0.11910079521E+04  0.00000000000E+00 0. -1.
         21   -1    0    0  503  504 -0.00000000000E+00 -0.00000000000E+00 -0.15344243096E+02  0.15344243096E+02  0.00000000000E+00 0. -1.
         25    2    1    2    0    0 -0.36992917871E+01  0.29742386318E+02  0.77458112924E+03  0.78517367968E+03  0.12499394859E+03 0.  0.
         25    2    1    2    0    0  0.36992917871E+01 -0.29742386318E+02  0.40108257973E+03  0.42117851548E+03  0.12500324730E+03 0.  0.
          5    1    3    3  501    0 -0.23709728534E+01  0.68336518227E+02  0.25224056025E+03  0.26138647912E+03  0.47000000000E+01 0.  1.
         -5    1    3    3    0  501 -0.13283189338E+01 -0.38594131909E+02  0.52234056900E+03  0.52378720056E+03  0.47000000000E+01 0.  1.
          5    1    4    4  502    0 -0.10043813542E+02 -0.56249995154E+01 -0.55186057879E+01  0.13603816371E+02  0.47000000000E+01 0.  1.
         -5    1    4    4    0  502  0.13743105329E+02 -0.24117386803E+02  0.40660118552E+03  0.40757469911E+03  0.47000000000E+01 0.  1.
<mgrwt>
<rscale>  0 0.27037097E+03</rscale>
<asrwt>0</asrwt>
<pdfrwt beam="1">  1       21 0.18323192E+00 0.27037097E+03</pdfrwt>
<pdfrwt beam="2">  1       21 0.23606537E-02 0.27037097E+03</pdfrwt>
<totfact> 0.15700011E+05</totfact>
</mgrwt>
</event>
<event>
 8    1  0.4760912E-006  0.2827278E+03  0.7546771E-02  0.1094208E+00
         21   -1    0    0  504  503  0.00000000000E+00  0.00000000000E+00  0.74315956082E+01  0.74315956082E+01  0.00000000000E+00 0.  1.
         21   -1    0    0  503  504 -0.00000000000E+00 -0.00000000000E+00 -0.26890264320E+04  0.26890264320E+04  0.00000000000E+00 0.  1.
         25    2    1    2    0    0 -0.46560476783E+02  0.68329628176E+01 -0.17823887123E+04  0.17873859614E+04  0.12499794455E+03 0.  0.
         25    2    1    2    0    0  0.46560476783E+02 -0.68329628176E+01 -0.89920612414E+03  0.90907206619E+03  0.12500320177E+03 0.  0.
          5    1    3    3  501    0 -0.18778368610E+02  0.47633689154E+01 -0.39287608583E+02  0.44055907655E+02  0.47000000000E+01 0.  1.
         -5    1    3    3    0  501 -0.27782108172E+02  0.20695939022E+01 -0.17431011037E+04  0.17433300538E+04  0.47000000000E+01 0.  1.
          5    1    4    4  502    0  0.28889758333E+01 -0.19068280008E+02 -0.79594220097E+03  0.79618969019E+03  0.47000000000E+01 0.  1.
         -5    1    4    4    0  502  0.43671500949E+02  0.12235317190E+02 -0.10326392318E+03  0.11288237600E+03  0.47000000000E+01 0.  1.
<mgrwt>
<rscale>  0 0.28272783E+03</rscale>
<asrwt>0</asrwt>
<pdfrwt beam="1">  1       21 0.11433241E-02 0.28272783E+03</pdfrwt>
<pdfrwt beam="2">  1       21 0.41369576E+00 0.28272783E+03</pdfrwt>
<totfact> 0.19785439E+04</totfact>
</mgrwt>
</event>
<event>
 8    1  0.4760912E-006  0.4507892E+03  0.7546771E-02  0.1027487E+00
         21   -1    0    0  504  503  0.00000000000E+00  0.00000000000E+00  0.88524522822E+02  0.88524522822E+02  0.00000000000E+00 0.  1.
         21   -1    0    0  503  504 -0.00000000000E+00 -0.00000000000E+00 -0.57388300711E+03  0.57388300711E+03  0.00000000000E+00 0.  1.
         25    2    1    2    0    0  0.11789211138E+03 -0.92506361882E+02 -0.40841715065E+03  0.45264327746E+03  0.12500156307E+03 0.  0.
         25    2    1    2    0    0 -0.11789211138E+03  0.92506361882E+02 -0.76941333637E+02  0.20976425247E+03  0.12500038351E+03 0.  0.
          5    1    3    3  501    0  0.78043672383E+02  0.92312189286E+01 -0.23285313870E+03  0.24580216517E+03  0.47000000000E+01 0. -1.
         -5    1    3    3    0  501  0.39848439001E+02 -0.10173758081E+03 -0.17556401195E+03  0.20684111229E+03  0.47000000000E+01 0. -1.
          5    1    4    4  502    0 -0.11368503698E+00 -0.22873801215E+02 -0.30488848187E+02  0.38404212921E+02  0.47000000000E+01 0. -1.
         -5    1    4    4    0  502 -0.11777842635E+03  0.11538016310E+03 -0.46452485451E+02  0.17136003955E+03  0.47000000000E+01 0. -1.
<mgrwt>
<rscale>  0 0.45078917E+03</rscale>
<asrwt>0</asrwt>
<pdfrwt beam="1">  1       21 0.13619157E-01 0.45078917E+03</pdfrwt>
<pdfrwt beam="2">  1       21 0.88289695E-01 0.45078917E+03</pdfrwt>
<totfact> 0.47071610E+04</totfact>
</mgrwt>
</event>
<event>
 8    1  0.4760912E-006  0.3066389E+03  0.7546771E-02  0.1081968E+00
         21   -1    0    0  504  503  0.00000000000E+00  0.00000000000E+00  0.35289062306E+02  0.35289062306E+02  0.00000000000E+00 0.  1.
         21   -1    0    0  503  504 -0.00000000000E+00 -0.00000000000E+00 -0.66612280823E+03  0.66612280823E+03  0.00000000000E+00 0.  1.
         25    2    1    2    0    0 -0.85797469748E+02 -0.11186568504E+02 -0.36087838932E+03  0.39159545507E+03  0.12500977331E+03 0.  0.
         25    2    1    2    0    0  0.85797469748E+02  0.11186568504E+02 -0.26995535660E+03  0.30981641546E+03  0.12499588634E+03 0.  0.
          5    1    3    3  501    0  0.23184729688E+02  0.12952533554E+02 -0.22093145703E+02  0.34863977157E+02  0.47000000000E+01 0.  1.
         -5    1    3    3    0  501 -0.10898219944E+03 -0.24139102058E+02 -0.33878524362E+03  0.35673147791E+03  0.47000000000E+01 0.  1.
          5    1    4    4  502    0 -0.28516608387E+01  0.29869859384E+02 -0.17825916179E+03  0.18082798244E+03  0.47000000000E+01 0.  1.
         -5    1    4    4    0  502  0.88649130587E+02 -0.18683290879E+02 -0.91696194810E+02  0.12898843303E+03  0.47000000000E+01 0.  1.
<mgrwt>
<rscale>  0 0.30663887E+03</rscale>
<asrwt>0</asrwt>
<pdfrwt beam="1">  1       21 0.54290866E-02 0.30663887E+03</pdfrwt>
<pdfrwt beam="2">  1       21 0.10248043E+00 0.30663887E+03</pdfrwt>
<totfact> 0.17483041E+05</totfact>
</mgrwt>
</event>
<event>
 8    1  0.4760912E-006  0.2610985E+03  0.7546771E-02  0.1106485E+00
         21   -1    0    0  504  503  0.00000000000E+00  0.00000000000E+00  0.24187369235E+02  0.24187369235E+02  0.00000000000E+00 0. -1.
         21   -1    0    0  503  504 -0.00000000000E+00 -0.00000000000E+00 -0.70462837373E+03  0.70462837373E+03  0.00000000000E+00 0. -1.
         25    2    1    2    0    0 -0.17153933627E+02  0.33242321448E+02 -0.32793676335E+03  0.35293914237E+03  0.12499683229E+03 0.  0.
         25    2    1    2    0    0  0.17153933627E+02 -0.33242321448E+02 -0.35250424114E+03  0.37587660060E+03  0.12499867791E+03 0.  0.
          5    1    3    3  501    0 -0.38214300243E+02  0.27052538690E+02 -0.32710790920E+03  0.33047518342E+03  0.47000000000E+01 0.  1.
         -5    1    3    3    0  501  0.21060366616E+02  0.61897827583E+01 -0.82885415481E+00  0.22463958952E+02  0.47000000000E+01 0.  1.
          5    1    4    4  502    0 -0.11843796194E+02 -0.45353334156E+02 -0.33743858042E+03  0.34071114743E+03  0.47000000000E+01 0. -1.
         -5    1    4    4    0  502  0.28997729821E+02  0.12111012708E+02 -0.15065660723E+02  0.35165453169E+02  0.47000000000E+01 0. -1.
<mgrwt>
<rscale>  0 0.26109850E+03</rscale>
<asrwt>0</asrwt>
<pdfrwt beam="1">  1       21 0.37211341E-02 0.26109850E+03</pdfrwt>
<pdfrwt beam="2">  1       21 0.10840435E+00 0.26109850E+03</pdfrwt>
<totfact> 0.29329540E+05</totfact>
</mgrwt>
</event>
<event>
 8    1  0.4760912E-006  0.2584224E+03  0.7546771E-02  0.1108095E+00
         21   -1    0    0  504  503  0.00000000000E+00  0.00000000000E+00  0.72066253290E+02  0.72066253290E+02  0.00000000000E+00 0.  1.
         21   -1    0    0  503  504 -0.00000000000E+00 -0.00000000000E+00 -0.23166917637E+03  0.23166917637E+03  0.00000000000E+00 0.  1.
         25    2    1    2    0    0 -0.11338708269E+02  0.30729041358E+02 -0.79550723754E+02  0.15173618247E+03  0.12499084419E+03 0.  0.
         25    2    1    2    0    0  0.11338708269E+02 -0.30729041358E+02 -0.80052199328E+02  0.15199924719E+03  0.12499030459E+03 0.  0.
          5    1    3    3  501    0 -0.47692357497E+01 -0.26583506667E+02  0.21798645760E+02  0.35024268633E+02  0.47000000000E+01 0. -1.
         -5    1    3    3    0  501 -0.65694725192E+01  0.57312548024E+02 -0.10134936951E+03  0.11671191384E+03  0.47000000000E+01 0. -1.
          5    1    4    4  502    0 -0.25069381539E+02 -0.37775135923E+02  0.16491518686E+02  0.48471589342E+02  0.47000000000E+01 0. -1.
         -5    1    4    4    0  502  0.36408089808E+02  0.70460945657E+01 -0.96543718014E+02  0.10352765785E+03  0.47000000000E+01 0. -1.
<mgrwt>
<rscale>  0 0.25842236E+03</rscale>
<asrwt>0</asrwt>
<pdfrwt beam="1">  1       21 0.11087116E-01 0.25842236E+03</pdfrwt>
<pdfrwt beam="2">  1       21 0.35641412E-01 0.25842236E+03</pdfrwt>
<totfact> 0.50643249E+05</totfact>
</mgrwt>
</event>
<event>
 8    1  0.4760912E-006  0.3843709E+03  0.7546771E-02  0.1049330E+00
         21   -1    0    0  504  503  0.00000000000E+00  0.00000000000E+00  0.82105000556E+03  0.82105000556E+03  0.00000000000E+00 0. -1.
         21   -1    0    0  503  504 -0.00000000000E+00 -0.00000000000E+00 -0.44985382002E+02  0.44985382002E+02  0.00000000000E+00 0. -1.
         25    2    1    2    0    0  0.13424946792E+03 -0.42323310792E+02  0.47517792555E+03  0.51111026780E+03  0.12500185059E+03 0.  0.
         25    2    1    2    0    0 -0.13424946792E+03  0.42323310792E+02  0.30088669801E+03  0.35492511977E+03  0.12499941330E+03 0.  0.
          5    1    3    3  501    0  0.57638679075E+02  0.42789123078E+02  0.21764990742E+03  0.22923066675E+03  0.47000000000E+01 0.  1.
         -5    1    3    3    0  501  0.76610788843E+02 -0.85112433870E+02  0.25752801813E+03  0.28187960105E+03  0.47000000000E+01 0.  1.
          5    1    4    4  502    0 -0.11701107090E+03 -0.22455518348E+02  0.16800085765E+03  0.20601509456E+03  0.47000000000E+01 0.  1.
         -5    1    4    4    0  502 -0.17238397022E+02  0.64778829140E+02  0.13288584036E+03  0.14891002520E+03  0.47000000000E+01 0.  1.
<mgrwt>
<rscale>  0 0.38437090E+03</rscale>
<asrwt>0</asrwt>
<pdfrwt beam="1">  1       21 0.12631537E+00 0.38437090E+03</pdfrwt>
<pdfrwt beam="2">  1       21 0.69208286E-02 0.38437090E+03</pdfrwt>
<totfact> 0.66838288E+04</totfact>
</mgrwt>
</event>
<event>
 8    1  0.4760912E-006  0.5535711E+03  0.7546771E-02  0.1000671E+00
         21   -1    0    0  504  503  0.00000000000E+00  0.00000000000E+00  0.76392221801E+03  0.76392221801E+03  0.00000000000E+00 0. -1.
         21   -1    0    0  503  504 -0.00000000000E+00 -0.00000000000E+00 -0.10028538568E+03  0.10028538568E+03  0.00000000000E+00 0. -1.
         25    2    1    2    0    0  0.19016650553E+03 -0.10966309600E+03  0.50841219259E+03  0.56771359288E+03  0.12500588590E+03 0.  0.
         25    2    1    2    0    0 -0.19016650553E+03  0.10966309600E+03  0.15522463974E+03  0.29649401082E+03  0.12499886087E+03 0.  0.
          5    1    3    3  501    0  0.10109801292E+03 -0.99020039328E+02  0.19050877428E+03  0.23736355972E+03  0.47000000000E+01 0. -1.
         -5    1    3    3    0  501  0.89068492609E+02 -0.10643056668E+02  0.31790341831E+03  0.33035003316E+03  0.47000000000E+01 0. -1.
          5    1    4    4  502    0 -0.13526871192E+03  0.53966723880E+02  0.29981049315E+02  0.14876486490E+03  0.47000000000E+01 0. -1.
         -5    1    4    4    0  502 -0.54897793608E+02  0.55696372115E+02  0.12524359042E+03  0.14772914591E+03  0.47000000000E+01 0. -1.
<mgrwt>
<rscale>  0 0.55357108E+03</rscale>
<asrwt>0</asrwt>
<pdfrwt beam="1">  1       21 0.11752649E+00 0.55357108E+03</pdfrwt>
<pdfrwt beam="2">  1       21 0.15428521E-01 0.55357108E+03</pdfrwt>
<totfact> 0.18131615E+04</totfact>
</mgrwt>
</event>
<event>
 8    1  0.4760912E-006  0.3107930E+03  0.7546771E-02  0.1079966E+00
         21   -1    0    0  504  503  0.00000000000E+00  0.00000000000E+00  0.47140619786E+02  0.47140619786E+02  0.00000000000E+00 0.  1.
         21   -1    0    0  503  504 -0.00000000000E+00 -0.00000000000E+00 -0.51225609101E+03  0.51225609101E+03  0.00000000000E+00 0.  1.
         25    2    1    2    0    0 -0.36729314794E+02  0.22608456183E+01 -0.38497136122E+03  0.40642636809E+03  0.12500115893E+03 0.  0.
         25    2    1    2    0    0  0.36729314794E+02 -0.22608456183E+01 -0.80144110009E+02  0.15297034271E+03  0.12499077322E+03 0.  0.
          5    1    3    3  501    0 -0.54668446146E+02 -0.57843997001E+01 -0.62690625968E+02  0.83512291719E+02  0.47000000000E+01 0. -1.
         -5    1    3    3    0  501  0.17939131351E+02  0.80452453184E+01 -0.32228073525E+03  0.32291407637E+03  0.47000000000E+01 0. -1.
          5    1    4    4  502    0  0.49712965140E+02  0.50374586058E+02 -0.24247158697E+02  0.74959939490E+02  0.47000000000E+01 0. -1.
         -5    1    4    4    0  502 -0.12983650346E+02 -0.52635431676E+02 -0.55896951312E+02  0.78010403217E+02  0.47000000000E+01 0. -1.
<mgrwt>
<rscale>  0 0.31079298E+03</rscale>
<asrwt>0</asrwt>
<pdfrwt beam="1">  1       21 0.72524035E-02 0.31079298E+03</pdfrwt>
<pdfrwt beam="2">  1       21 0.78808624E-01 0.31079298E+03</pdfrwt>
<totfact> 0.19579263E+05</totfact>
</mgrwt>
</event>
<event>
 8    1  0.4760912E-006  0.3520955E+03  0.7546771E-02  0.1061758E+00
         21   -1    0    0  504  503  0.00000000000E+00  0.00000000000E+00  0.52776878163E+03  0.52776878163E+03  0.00000000000E+00 0. -1.
         21   -1    0    0  503  504 -0.00000000000E+00 -0.00000000000E+00 -0.58724207312E+02  0.58724207312E+02  0.00000000000E+00 0. -1.
         25    2    1    2    0    0  0.15000574728E+02  0.10933531946E+03  0.32855872856E+03  0.36845713007E+03  0.12502235506E+03 0.  0.
         25    2    1    2    0    0 -0.15000574728E+02 -0.10933531946E+03  0.14048584576E+03  0.21803585887E+03  0.12499653423E+03 0.  0.
          5    1    3    3  501    0 -0.64321995910E+01  0.88552844217E+02  0.32624893235E+03  0.33814706160E+03  0.47000000000E+01 0. -1.
         -5    1    3    3    0  501  0.21432774319E+02  0.20782475245E+02  0.23097962113E+01  0.30310068474E+02  0.47000000000E+01 0. -1.
          5    1    4    4  502    0  0.56113203341E+01  0.72336012372E+01 -0.17658353499E+02  0.20438183654E+02  0.47000000000E+01 0.  1.
         -5    1    4    4    0  502 -0.20611895062E+02 -0.11656892070E+03  0.15814419926E+03  0.19759767521E+03  0.47000000000E+01 0.  1.
<mgrwt>
<rscale>  0 0.35209546E+03</rscale>
<asrwt>0</asrwt>
<pdfrwt beam="1">  1       21 0.81195194E-01 0.35209546E+03</pdfrwt>
<pdfrwt beam="2">  1       21 0.90344938E-02 0.35209546E+03</pdfrwt>
<totfact> 0.12294906E+05</totfact>
</mgrwt>
</event>
<event>
 8    1  0.4760912E-006  0.2890939E+03  0.7546771E-02  0.1090823E+00
         21   -1    0    0  504  503  0.00000000000E+00  0.00000000000E+00  0.43497936051E+02  0.43497936051E+02  0.00000000000E+00 0.  1.
         21   -1    0    0  503  504 -0.00000000000E+00 -0.00000000000E+00 -0.48034035372E+03  0.48034035372E+03  0.00000000000E+00 0.  1.
         25    2    1    2    0    0 -0.21892474404E+02 -0.87548426890E+01 -0.94037154616E+02  0.15819278433E+03  0.12500417137E+03 0.  0.
         25    2    1    2    0    0  0.21892474404E+02  0.87548426890E+01 -0.34280526305E+03  0.36564550544E+03  0.12500103827E+03 0.  0.
          5    1    3    3  501    0 -0.33752248544E+02  0.47653815279E+01  0.21891695715E+02  0.40783078405E+02  0.47000000000E+01 0.  1.
         -5    1    3    3    0  501  0.11859774140E+02 -0.13520224217E+02 -0.11592885033E+03  0.11740970592E+03  0.47000000000E+01 0.  1.
          5    1    4    4  502    0  0.22158919970E+02  0.65915628153E+02 -0.17913025749E+03  0.19221245256E+03  0.47000000000E+01 0.  1.
         -5    1    4    4    0  502 -0.26644556625E+00 -0.57160785464E+02 -0.16367500556E+03  0.17343305289E+03  0.47000000000E+01 0.  1.
<mgrwt>
<rscale>  0 0.28909385E+03</rscale>
<asrwt>0</asrwt>
<pdfrwt beam="1">  1       21 0.66919896E-02 0.28909385E+03</pdfrwt>
<pdfrwt beam="2">  1       21 0.73898522E-01 0.28909385E+03</pdfrwt>
<totfact> 0.26189949E+05</totfact>
</mgrwt>
</event>
<event>
 8    1  0.4760912E-006  0.4097005E+03  0.7546771E-02  0.1040472E+00
         21   -1    0    0  504  503  0.00000000000E+00  0.00000000000E+00  0.44924271528E+03  0.44924271528E+03  0.00000000000E+00 0.  1.
         21   -1    0    0  503  504 -0.00000000000E+00 -0.00000000000E+00 -0.93409702476E+02  0.93409702476E+02  0.00000000000E+00 0.  1.
         25    2    1    2    0    0 -0.84305807623E+02  0.47784932106E+01 -0.56524204201E+01  0.15095618787E+03  0.12500207040E+03 0.  0.
         25    2    1    2    0    0  0.84305807623E+02 -0.47784932106E+01  0.36148543323E+03  0.39169622989E+03  0.12499565943E+03 0.  0.
          5    1    3    3  501    0  0.66886207978E+01 -0.12498575918E+02 -0.47074463441E+02  0.49386710322E+02  0.47000000000E+01 0.  1.
         -5    1    3    3    0  501 -0.90994428421E+02  0.17277069129E+02  0.41422043021E+02  0.10156947755E+03  0.47000000000E+01 0.  1.
          5    1    4    4  502    0  0.23682566635E+02 -0.62220818214E+02  0.14541879437E+03  0.16000315602E+03  0.47000000000E+01 0. -1.
         -5    1    4    4    0  502  0.60623240988E+02  0.57442325003E+02  0.21606663886E+03  0.23169307387E+03  0.47000000000E+01 0. -1.
<mgrwt>
<rscale>  0 0.40970052E+03</rscale>
<asrwt>0</asrwt>
<pdfrwt beam="1">  1       21 0.69114263E-01 0.40970052E+03</pdfrwt>
<pdfrwt beam="2">  1       21 0.14370724E-01 0.40970052E+03</pdfrwt>
<totfact> 0.75530348E+04</totfact>
</mgrwt>
</event>
<event>
 8    1  0.4760912E-006  0.2732460E+03  0.7546771E-02  0.1099436E+00
         21   -1    0    0  504  503  0.00000000000E+00  0.00000000000E+00  0.49943827358E+02  0.49943827358E+02  0.00000000000E+00 0.  1.
         21   -1    0    0  503  504 -0.00000000000E+00 -0.00000000000E+00 -0.37373681874E+03  0.37373681874E+03  0.00000000000E+00 0.  1.
         25    2    1    2    0    0  0.74263423807E+01 -0.51009669517E+02 -0.19231552643E+03  0.23508382121E+03  0.12498801681E+03 0.  0.
         25    2    1    2    0    0 -0.74263423807E+01  0.51009669517E+02 -0.13147746495E+03  0.18859682488E+03  0.12500120647E+03 0.  0.
          5    1    3    3  501    0  0.24523605483E+02 -0.28399565537E+02  0.27478805763E+01  0.37915477002E+02  0.47000000000E+01 0.  1.
         -5    1    3    3    0  501 -0.17097263102E+02 -0.22610103979E+02 -0.19506340700E+03  0.19716834421E+03  0.47000000000E+01 0.  1.
          5    1    4    4  502    0  0.56995266480E+02  0.38311188199E+02 -0.75673988285E+02  0.10229784966E+03  0.47000000000E+01 0.  1.
         -5    1    4    4    0  502 -0.64421608861E+02  0.12698481318E+02 -0.55803476669E+02  0.86298975222E+02  0.47000000000E+01 0.  1.
<mgrwt>
<rscale>  0 0.27324602E+03</rscale>
<asrwt>0</asrwt>
<pdfrwt beam="1">  1       21 0.76836660E-02 0.27324602E+03</pdfrwt>
<pdfrwt beam="2">  1       21 0.57497970E-01 0.27324602E+03</pdfrwt>
<totfact> 0.35860728E+05</totfact>
</mgrwt>
</event>
<event>
 8    1  0.4760912E-006  0.2869443E+03  0.7546771E-02  0.1091955E+00
         21   -1    0    0  504  503  0.00000000000E+00  0.00000000000E+00  0.12763545181E+03  0.12763545181E+03  0.00000000000E+00 0. -1.
         21   -1    0    0  503  504 -0.00000000000E+00 -0.00000000000E+00 -0.16127386726E+03  0.16127386726E+03  0.00000000000E+00 0. -1.
         25    2    1    2    0    0  0.26261765217E+02 -0.62850836079E+02  0.11498010377E+01  0.14235809429E+03  0.12499838822E+03 0.  0.
         25    2    1    2    0    0 -0.26261765217E+02  0.62850836079E+02 -0.34788216490E+02  0.14655122479E+03  0.12500853399E+03 0.  0.
          5    1    3    3  501    0  0.85541559151E+01  0.38232955845E+02 -0.27372641035E+01  0.39553951899E+02  0.47000000000E+01 0. -1.
         -5    1    3    3    0  501  0.17707609302E+02 -0.10108379192E+03  0.38870651412E+01  0.10280414239E+03  0.47000000000E+01 0. -1.
          5    1    4    4  502    0 -0.65760029214E+02  0.48250136242E+02  0.12953237391E+02  0.82718398488E+02  0.47000000000E+01 0. -1.
         -5    1    4    4    0  502  0.39498263996E+02  0.14600699837E+02 -0.47741453881E+02  0.63832826297E+02  0.47000000000E+01 0. -1.
<mgrwt>
<rscale>  0 0.28694434E+03</rscale>
<asrwt>0</asrwt>
<pdfrwt beam="1">  1       21 0.19636223E-01 0.28694434E+03</pdfrwt>
<pdfrwt beam="2">  1       21 0.24811364E-01 0.28694434E+03</pdfrwt>
<totfact> 0.35967254E+05</totfact>
</mgrwt>
</event>
<event>
 8    1  0.4760912E-006  0.4013703E+03  0.7546771E-02  0.1043306E+00
         21   -1    0    0  504  503  0.00000000000E+00  0.00000000000E+00  0.17467015648E+03  0.17467015648E+03  0.00000000000E+00 0.  1.
         21   -1    0    0  503  504 -0.00000000000E+00 -0.00000000000E+00 -0.23057479925E+03  0.23057479925E+03  0.00000000000E+00 0.  1.
         25    2    1    2    0    0 -0.14800024616E+03 -0.51379840083E+02 -0.38694433199E+02  0.20412488659E+03  0.12500299730E+03 0.  0.
         25    2    1    2    0    0  0.14800024616E+03  0.51379840083E+02 -0.17210209565E+02  0.20112006914E+03  0.12493650414E+03 0.  0.
          5    1    3    3  501    0 -0.13198340743E+03  0.13230283123E+02 -0.16245783433E+02  0.13371864383E+03  0.47000000000E+01 0.  1.
         -5    1    3    3    0  501 -0.16016838737E+02 -0.64610123206E+02 -0.22448649766E+02  0.70406242764E+02  0.47000000000E+01 0.  1.
          5    1    4    4  502    0  0.11694097527E+03  0.85163553837E+01  0.39105584958E+02  0.12368935597E+03  0.47000000000E+01 0.  1.
         -5    1    4    4    0  502  0.31059270892E+02  0.42863484699E+02 -0.56315794524E+02  0.77430713168E+02  0.47000000000E+01 0.  1.
<mgrwt>
<rscale>  0 0.40137033E+03</rscale>
<asrwt>0</asrwt>
<pdfrwt beam="1">  1       21 0.26872332E-01 0.40137033E+03</pdfrwt>
<pdfrwt beam="2">  1       21 0.35473046E-01 0.40137033E+03</pdfrwt>
<totfact> 0.95128503E+04</totfact>
</mgrwt>
</event>
<event>
 8    1  0.4760912E-006  0.2933847E+03  0.7546771E-02  0.1088595E+00
         21   -1    0    0  504  503  0.00000000000E+00  0.00000000000E+00  0.58543230739E+02  0.58543230739E+02  0.00000000000E+00 0. -1.
         21   -1    0    0  503  504 -0.00000000000E+00 -0.00000000000E+00 -0.36756841760E+03  0.36756841760E+03  0.00000000000E+00 0. -1.
         25    2    1    2    0    0  0.29107428183E+02  0.53913932432E+02 -0.87335847540E+02  0.16433871414E+03  0.12500283282E+03 0.  0.
         25    2    1    2    0    0 -0.29107428183E+02 -0.53913932432E+02 -0.22168933932E+03  0.26177293420E+03  0.12499980570E+03 0.  0.
          5    1    3    3  501    0  0.58630880984E+02  0.18695516311E+02  0.41427332854E+01  0.61857536114E+02  0.47000000000E+01 0. -1.
         -5    1    3    3    0  501 -0.29523452800E+02  0.35218416121E+02 -0.91478580825E+02  0.10248117802E+03  0.47000000000E+01 0. -1.
          5    1    4    4  502    0  0.78266473364E+01  0.18052672167E+02 -0.15643250950E+03  0.15773514323E+03  0.47000000000E+01 0. -1.
         -5    1    4    4    0  502 -0.36934075520E+02 -0.71966604599E+02 -0.65256829817E+02  0.10403779097E+03  0.47000000000E+01 0. -1.
<mgrwt>
<rscale>  0 0.29338468E+03</rscale>
<asrwt>0</asrwt>
<pdfrwt beam="1">  1       21 0.90066508E-02 0.29338468E+03</pdfrwt>
<pdfrwt beam="2">  1       21 0.56548988E-01 0.29338468E+03</pdfrwt>
<totfact> 0.27984793E+05</totfact>
</mgrwt>
</event>
<event>
 8    1  0.4760912E-006  0.3765677E+03  0.7546771E-02  0.1052210E+00
         21   -1    0    0  504  503  0.00000000000E+00  0.00000000000E+00  0.14638176289E+03  0.14638176289E+03  0.00000000000E+00 0. -1.
         21   -1    0    0  503  504 -0.00000000000E+00 -0.00000000000E+00 -0.24218045870E+03  0.24218045870E+03  0.00000000000E+00 0. -1.
         25    2    1    2    0    0 -0.13369182399E+03  0.29247460423E+02 -0.13769901652E+02  0.18587544092E+03  0.12502460398E+03 0.  0.
         25    2    1    2    0    0  0.13369182399E+03 -0.29247460423E+02 -0.82028794153E+02  0.20268678067E+03  0.12499716095E+03 0.  0.
          5    1    3    3  501    0 -0.69542429030E+02  0.59459195665E+02 -0.51830333569E+02  0.10526166853E+03  0.47000000000E+01 0.  1.
         -5    1    3    3    0  501 -0.64149394960E+02 -0.30211735242E+02  0.38060431917E+02  0.80613772383E+02  0.47000000000E+01 0.  1.
          5    1    4    4  502    0  0.34575283580E+02  0.47514992905E+02 -0.35895249217E+02  0.69019444374E+02  0.47000000000E+01 0.  1.
         -5    1    4    4    0  502  0.99116540410E+02 -0.76762453328E+02 -0.46133544936E+02  0.13366733629E+03  0.47000000000E+01 0.  1.
<mgrwt>
<rscale>  0 0.37656767E+03</rscale>
<asrwt>0</asrwt>
<pdfrwt beam="1">  1       21 0.22520271E-01 0.37656767E+03</pdfrwt>
<pdfrwt beam="2">  1       21 0.37258532E-01 0.37656767E+03</pdfrwt>
<totfact> 0.12188148E+05</totfact>
</mgrwt>
</event>
<event>
 8    1  0.4760912E-006  0.3205155E+03  0.7546771E-02  0.1075412E+00
         21   -1    0    0  504  503  0.00000000000E+00  0.00000000000E+00  0.12605340296E+02  0.12605340296E+02  0.00000000000E+00 0.  1.
         21   -1    0    0  503  504 -0.00000000000E+00 -0.00000000000E+00 -0.20374337883E+04  0.20374337883E+04  0.00000000000E+00 0.  1.
         25    2    1    2    0    0  0.55817287594E+02  0.14497036174E+02 -0.48762318553E+03  0.50668238440E+03  0.12499973578E+03 0.  0.
         25    2    1    2    0    0 -0.55817287594E+02 -0.14497036174E+02 -0.15372052625E+04  0.15433567442E+04  0.12499714883E+03 0.  0.
          5    1    3    3  501    0 -0.11107036992E+01  0.47651023465E+02 -0.35813369832E+03  0.36132214100E+03  0.47000000000E+01 0. -1.
         -5    1    3    3    0  501  0.56927991294E+02 -0.33153987291E+02 -0.12948948721E+03  0.14536024341E+03  0.47000000000E+01 0. -1.
          5    1    4    4  502    0 -0.32498299597E+02 -0.31319202045E+02 -0.14620162696E+04  0.14627203063E+04  0.47000000000E+01 0. -1.
         -5    1    4    4    0  502 -0.23318987997E+02  0.16822165871E+02 -0.75188992828E+02  0.80636437845E+02  0.47000000000E+01 0. -1.
<mgrwt>
<rscale>  0 0.32051550E+03</rscale>
<asrwt>0</asrwt>
<pdfrwt beam="1">  1       21 0.19392852E-02 0.32051550E+03</pdfrwt>
<pdfrwt beam="2">  1       21 0.31345102E+00 0.32051550E+03</pdfrwt>
<totfact> 0.33578049E+04</totfact>
</mgrwt>
</event>
<event>
 8    1  0.4760912E-006  0.3678565E+03  0.7546771E-02  0.1055516E+00
         21   -1    0    0  504  503  0.00000000000E+00  0.00000000000E+00  0.26399696085E+03  0.26399696085E+03  0.00000000000E+00 0. -1.
         21   -1    0    0  503  504 -0.00000000000E+00 -0.00000000000E+00 -0.12814388126E+03  0.12814388126E+03  0.00000000000E+00 0. -1.
         25    2    1    2    0    0  0.66854128549E+02 -0.68244444209E+02 -0.33624943467E+02  0.16087325339E+03  0.12499115235E+03 0.  0.
         25    2    1    2    0    0 -0.66854128549E+02  0.68244444209E+02  0.16947802305E+03  0.23126758872E+03  0.12504046795E+03 0.  0.
          5    1    3    3  501    0 -0.24685373485E+02 -0.59373716963E+02 -0.21645582899E+02  0.68009022851E+02  0.47000000000E+01 0.  1.
         -5    1    3    3    0  501  0.91539502035E+02 -0.88707272462E+01 -0.11979360568E+02  0.92864230542E+02  0.47000000000E+01 0.  1.
          5    1    4    4  502    0  0.10872319983E+02 -0.29733657830E+02  0.39344525613E+02  0.50718630162E+02  0.47000000000E+01 0. -1.
         -5    1    4    4    0  502 -0.77726448533E+02  0.97978102039E+02  0.13013349744E+03  0.18054895856E+03  0.47000000000E+01 0. -1.
<mgrwt>
<rscale>  0 0.36785647E+03</rscale>
<asrwt>0</asrwt>
<pdfrwt beam="1">  1       21 0.40614917E-01 0.36785647E+03</pdfrwt>
<pdfrwt beam="2">  1       21 0.19714443E-01 0.36785647E+03</pdfrwt>
<totfact> 0.13191433E+05</totfact>
</mgrwt>
</event>
<event>
 8    1  0.4760912E-006  0.2824780E+03  0.7546771E-02  0.1094343E+00
         21   -1    0    0  504  503  0.00000000000E+00  0.00000000000E+00  0.35812009094E+02  0.35812009094E+02  0.00000000000E+00 0.  1.
         21   -1    0    0  503  504 -0.00000000000E+00 -0.00000000000E+00 -0.55703253976E+03  0.55703253976E+03  0.00000000000E+00 0.  1.
         25    2    1    2    0    0 -0.90840322020E+00 -0.62811161897E+02 -0.21981500941E+03  0.26055876443E+03  0.12500465634E+03 0.  0.
         25    2    1    2    0    0  0.90840322020E+00  0.62811161897E+02 -0.30140552126E+03  0.33228578442E+03  0.12498994771E+03 0.  0.
          5    1    3    3  501    0 -0.47898577012E+01  0.37513373301E+02 -0.45582749500E+02  0.59414417149E+02  0.47000000000E+01 0.  1.
         -5    1    3    3    0  501  0.38814544810E+01 -0.10032453520E+03 -0.17423225991E+03  0.20114434728E+03  0.47000000000E+01 0.  1.
          5    1    4    4  502    0 -0.30541936071E+01  0.36536217487E+02 -0.82271461317E+01  0.37868182163E+02  0.47000000000E+01 0. -1.
         -5    1    4    4    0  502  0.39625968273E+01  0.26274944409E+02 -0.29317837513E+03  0.29441760226E+03  0.47000000000E+01 0. -1.
<mgrwt>
<rscale>  0 0.28247799E+03</rscale>
<asrwt>0</asrwt>
<pdfrwt beam="1">  1       21 0.55095406E-02 0.28247799E+03</pdfrwt>
<pdfrwt beam="2">  1       21 0.85697302E-01 0.28247799E+03</pdfrwt>
<totfact> 0.26173761E+05</totfact>
</mgrwt>
</event>
<event>
 8    1  0.4760912E-006  0.2774628E+03  0.7546771E-02  0.1097083E+00
         21   -1    0    0  504  503  0.00000000000E+00  0.00000000000E+00  0.78017456458E+02  0.78017456458E+02  0.00000000000E+00 0.  1.
         21   -1    0    0  503  504 -0.00000000000E+00 -0.00000000000E+00 -0.24669346825E+03  0.24669346825E+03  0.00000000000E+00 0.  1.
         25    2    1    2    0    0 -0.42385374530E+02 -0.15747061840E+02 -0.13081273679E+03  0.18649953898E+03  0.12500246399E+03 0.  0.
         25    2    1    2    0    0  0.42385374530E+02  0.15747061840E+02 -0.37863275009E+02  0.13821138573E+03  0.12499707845E+03 0.  0.
          5    1    3    3  501    0 -0.60529595428E+02 -0.10308321010E+02 -0.14812221218E+03  0.16041313271E+03  0.47000000000E+01 0.  1.
         -5    1    3    3    0  501  0.18144220898E+02 -0.54387408294E+01  0.17309475394E+02  0.26086406272E+02  0.47000000000E+01 0.  1.
          5    1    4    4  502    0  0.72791068934E+01  0.23528427803E+02 -0.79286829862E+02  0.83156862024E+02  0.47000000000E+01 0. -1.
         -5    1    4    4    0  502  0.35106267637E+02 -0.77813659634E+01  0.41423554854E+02  0.55054523705E+02  0.47000000000E+01 0. -1.
<mgrwt>
<rscale>  0 0.27746277E+03</rscale>
<asrwt>0</asrwt>
<pdfrwt beam="1">  1       21 0.12002686E-01 0.27746277E+03</pdfrwt>
<pdfrwt beam="2">  1       21 0.37952841E-01 0.27746277E+03</pdfrwt>
<totfact> 0.38561580E+05</totfact>
</mgrwt>
</event>
<event>
 8    1  0.4760912E-006  0.3679719E+03  0.7546771E-02  0.1055471E+00
         21   -1    0    0  504  503  0.00000000000E+00  0.00000000000E+00  0.41271093527E+02  0.41271093527E+02  0.00000000000E+00 0.  1.
         21   -1    0    0  503  504 -0.00000000000E+00 -0.00000000000E+00 -0.82020658325E+03  0.82020658325E+03  0.00000000000E+00 0.  1.
         25    2    1    2    0    0 -0.10440042879E+03  0.16585669185E+02 -0.58606304617E+03  0.60849833751E+03  0.12500319481E+03 0.  0.
         25    2    1    2    0    0  0.10440042879E+03 -0.16585669185E+02 -0.19287244356E+03  0.25297933927E+03  0.12499693061E+03 0.  0.
          5    1    3    3  501    0 -0.70869859924E+02 -0.14912143342E+02 -0.53381061421E+03  0.53872142235E+03  0.47000000000E+01 0.  1.
         -5    1    3    3    0  501 -0.33530568863E+02  0.31497812527E+02 -0.52252431963E+02  0.69776915153E+02  0.47000000000E+01 0.  1.
          5    1    4    4  502    0 -0.41182405782E+01 -0.18106149294E+01  0.15898707103E+02  0.17178391061E+02  0.47000000000E+01 0. -1.
         -5    1    4    4    0  502  0.10851866937E+03 -0.14775054255E+02 -0.20877115066E+03  0.23580094821E+03  0.47000000000E+01 0. -1.
<mgrwt>
<rscale>  0 0.36797186E+03</rscale>
<asrwt>0</asrwt>
<pdfrwt beam="1">  1       21 0.63493992E-02 0.36797186E+03</pdfrwt>
<pdfrwt beam="2">  1       21 0.12618562E+00 0.36797186E+03</pdfrwt>
<totfact> 0.78242629E+04</totfact>
</mgrwt>
</event>
<event>
 8    1  0.4760912E-006  0.2588099E+03  0.7546771E-02  0.1107860E+00
         21   -1    0    0  504  503  0.00000000000E+00  0.00000000000E+00  0.95477532928E+02  0.95477532928E+02  0.00000000000E+00 0. -1.
         21   -1    0    0  503  504 -0.00000000000E+00 -0.00000000000E+00 -0.17538826372E+03  0.17538826372E+03  0.00000000000E+00 0. -1.
         25    2    1    2    0    0  0.38164460829E+01  0.29516521125E+02 -0.23898177355E+02  0.13069414628E+03  0.12499618678E+03 0.  0.
         25    2    1    2    0    0 -0.38164460829E+01 -0.29516521125E+02 -0.56012553440E+02  0.14017165037E+03  0.12499958058E+03 0.  0.
          5    1    3    3  501    0 -0.35013219797E+02  0.57111525603E+02 -0.42350112489E+02  0.79393160569E+02  0.47000000000E+01 0. -1.
         -5    1    3    3    0  501  0.38829665880E+02 -0.27595004477E+02  0.18451935134E+02  0.51300985708E+02  0.47000000000E+01 0. -1.
          5    1    4    4  502    0  0.26380694394E+02 -0.10502815726E+02 -0.87647813856E+02  0.92252259857E+02  0.47000000000E+01 0.  1.
         -5    1    4    4    0  502 -0.30197140477E+02 -0.19013705399E+02  0.31635260417E+02  0.47919390518E+02  0.47000000000E+01 0.  1.
<mgrwt>
<rscale>  0 0.25880988E+03</rscale>
<asrwt>0</asrwt>
<pdfrwt beam="1">  1       21 0.14688851E-01 0.25880988E+03</pdfrwt>
<pdfrwt beam="2">  1       21 0.26982810E-01 0.25880988E+03</pdfrwt>
<totfact> 0.52667966E+05</totfact>
</mgrwt>
</event>
<event>
 8    1  0.4760912E-006  0.3088627E+03  0.7546771E-02  0.1080892E+00
         21   -1    0    0  504  503  0.00000000000E+00  0.00000000000E+00  0.78560890227E+02  0.78560890227E+02  0.00000000000E+00 0. -1.
         21   -1    0    0  503  504 -0.00000000000E+00 -0.00000000000E+00 -0.30357405963E+03  0.30357405963E+03  0.00000000000E+00 0. -1.
         25    2    1    2    0    0  0.84096239002E+02 -0.32856490211E+02 -0.10144304682E+03  0.18455440363E+03  0.12497163594E+03 0.  0.
         25    2    1    2    0    0 -0.84096239002E+02  0.32856490211E+02 -0.12357012259E+03  0.19758054623E+03  0.12496707842E+03 0.  0.
          5    1    3    3  501    0 -0.14120981625E+02  0.16535173035E+02 -0.64901149128E+02  0.68608040545E+02  0.47000000000E+01 0. -1.
         -5    1    3    3    0  501  0.98217220627E+02 -0.49391663246E+02 -0.36541897690E+02  0.11594636309E+03  0.47000000000E+01 0. -1.
          5    1    4    4  502    0 -0.10074396789E+03  0.59160456151E+02 -0.11702025555E+03  0.16542411204E+03  0.47000000000E+01 0.  1.
         -5    1    4    4    0  502  0.16647728886E+02 -0.26303965940E+02 -0.65498670427E+01  0.32156434185E+02  0.47000000000E+01 0.  1.
<mgrwt>
<rscale>  0 0.30886274E+03</rscale>
<asrwt>0</asrwt>
<pdfrwt beam="1">  1       21 0.12086291E-01 0.30886274E+03</pdfrwt>
<pdfrwt beam="2">  1       21 0.46703702E-01 0.30886274E+03</pdfrwt>
<totfact> 0.24706779E+05</totfact>
</mgrwt>
</event>
<event>
 8    1  0.4760912E-006  0.3906883E+03  0.7546771E-02  0.1047053E+00
         21   -1    0    0  504  503  0.00000000000E+00  0.00000000000E+00  0.58648454838E+02  0.58648454838E+02  0.00000000000E+00 0.  1.
         21   -1    0    0  503  504 -0.00000000000E+00 -0.00000000000E+00 -0.65064520758E+03  0.65064520758E+03  0.00000000000E+00 0.  1.
         25    2    1    2    0    0  0.15202397302E+02  0.11120661952E+03 -0.47696407945E+03  0.50568550600E+03  0.12500029116E+03 0.  0.
         25    2    1    2    0    0 -0.15202397302E+02 -0.11120661952E+03 -0.11503267329E+03  0.20360815641E+03  0.12500296126E+03 0.  0.
          5    1    3    3  501    0 -0.35919549598E+02  0.97460369362E+02 -0.22066369231E+03  0.24393296773E+03  0.47000000000E+01 0. -1.
         -5    1    3    3    0  501  0.51121946899E+02  0.13746250159E+02 -0.25630038713E+03  0.26175253827E+03  0.47000000000E+01 0. -1.
          5    1    4    4  502    0  0.89562922036E+01 -0.84540235094E+02 -0.22949103649E+01  0.85174075477E+02  0.47000000000E+01 0. -1.
         -5    1    4    4    0  502 -0.24158689505E+02 -0.26666384428E+02 -0.11273776293E+03  0.11843408094E+03  0.47000000000E+01 0. -1.
<mgrwt>
<rscale>  0 0.39068830E+03</rscale>
<asrwt>0</asrwt>
<pdfrwt beam="1">  1       21 0.90228397E-02 0.39068830E+03</pdfrwt>
<pdfrwt beam="2">  1       21 0.10009926E+00 0.39068830E+03</pdfrwt>
<totfact> 0.74534459E+04</totfact>
</mgrwt>
</event>
<event>
 8    1  0.4760912E-006  0.2866438E+03  0.7546771E-02  0.1092115E+00
         21   -1    0    0  504  503  0.00000000000E+00  0.00000000000E+00  0.40975837368E+03  0.40975837368E+03  0.00000000000E+00 0. -1.
         21   -1    0    0  503  504 -0.00000000000E+00 -0.00000000000E+00 -0.50129934447E+02  0.50129934447E+02  0.00000000000E+00 0. -1.
         25    2    1    2    0    0  0.15665878900E+02  0.15701339259E+02  0.28653000201E+03  0.31339622384E+03  0.12500319695E+03 0.  0.
         25    2    1    2    0    0 -0.15665878900E+02 -0.15701339259E+02  0.73098437224E+02  0.14649208429E+03  0.12499838966E+03 0.  0.
          5    1    3    3  501    0 -0.71034361722E+01 -0.32045968250E+01 -0.11047845476E+02  0.14313390092E+02  0.47000000000E+01 0. -1.
         -5    1    3    3    0  501  0.22769315072E+02  0.18905936084E+02  0.29757784748E+03  0.29908283374E+03  0.47000000000E+01 0. -1.
          5    1    4    4  502    0  0.13643076144E+02 -0.59611368325E+01 -0.32668617621E+02  0.36207696092E+02  0.47000000000E+01 0.  1.
         -5    1    4    4    0  502 -0.29308955044E+02 -0.97402024268E+01  0.10576705484E+03  0.11028438819E+03  0.47000000000E+01 0.  1.
<mgrwt>
<rscale>  0 0.28664375E+03</rscale>
<asrwt>0</asrwt>
<pdfrwt beam="1">  1       21 0.63039748E-01 0.28664375E+03</pdfrwt>
<pdfrwt beam="2">  1       21 0.77122979E-02 0.28664375E+03</pdfrwt>
<totfact> 0.29101265E+05</totfact>
</mgrwt>
</event>
<event>
 8    1  0.4760912E-006  0.4239997E+03  0.7546771E-02  0.1035772E+00
         21   -1    0    0  504  503  0.00000000000E+00  0.00000000000E+00  0.11457379583E+03  0.11457379583E+03  0.00000000000E+00 0. -1.
         21   -1    0    0  503  504 -0.00000000000E+00 -0.00000000000E+00 -0.39227071193E+03  0.39227071193E+03  0.00000000000E+00 0. -1.
         25    2    1    2    0    0 -0.13891673273E+03 -0.94628310954E+02 -0.17786487684E+03  0.27480133267E+03  0.12500992822E+03 0.  0.
         25    2    1    2    0    0  0.13891673273E+03  0.94628310954E+02 -0.99832039253E+02  0.23204317509E+03  0.12500089272E+03 0.  0.
          5    1    3    3  501    0 -0.98927068379E+02 -0.12364221403E+03 -0.14849284335E+03  0.21713170307E+03  0.47000000000E+01 0.  1.
         -5    1    3    3    0  501 -0.39989664350E+02  0.29013903081E+02 -0.29372033492E+02  0.57669629600E+02  0.47000000000E+01 0.  1.
          5    1    4    4  502    0  0.14762076961E+03  0.39093144925E+02 -0.78163980105E+02  0.17161545206E+03  0.47000000000E+01 0.  1.
         -5    1    4    4    0  502 -0.87040368785E+01  0.55535166029E+02 -0.21668059149E+02  0.60427723034E+02  0.47000000000E+01 0.  1.
<mgrwt>
<rscale>  0 0.42399974E+03</rscale>
<asrwt>0</asrwt>
<pdfrwt beam="1">  1       21 0.17626738E-01 0.42399974E+03</pdfrwt>
<pdfrwt beam="2">  1       21 0.60349339E-01 0.42399974E+03</pdfrwt>
<totfact> 0.69533808E+04</totfact>
</mgrwt>
</event>
<event>
 8    1  0.4760912E-006  0.3438144E+03  0.7546771E-02  0.1065183E+00
         21   -1    0    0  504  503  0.00000000000E+00  0.00000000000E+00  0.44880668994E+03  0.44880668994E+03  0.00000000000E+00 0. -1.
         21   -1    0    0  503  504 -0.00000000000E+00 -0.00000000000E+00 -0.65845925611E+02  0.65845925611E+02  0.00000000000E+00 0. -1.
         25    2    1    2    0    0  0.24773399617E+02  0.10989943119E+03  0.24409617214E+03  0.29647863237E+03  0.12500012759E+03 0.  0.
         25    2    1    2    0    0 -0.24773399617E+02 -0.10989943119E+03  0.13886459219E+03  0.21817398318E+03  0.12499962267E+03 0.  0.
          5    1    3    3  501    0 -0.34952561210E+02 -0.45809694839E+01  0.30542760434E+02  0.46878748186E+02  0.47000000000E+01 0. -1.
         -5    1    3    3    0  501  0.59725960827E+02  0.11448040067E+03  0.21355341171E+03  0.24959988419E+03  0.47000000000E+01 0. -1.
          5    1    4    4  502    0 -0.73281280558E+02 -0.41811716852E+02  0.67314589198E+02  0.10803568700E+03  0.47000000000E+01 0. -1.
         -5    1    4    4    0  502  0.48507880941E+02 -0.68087714339E+02  0.71550002996E+02  0.11013829618E+03  0.47000000000E+01 0. -1.
<mgrwt>
<rscale>  0 0.34381444E+03</rscale>
<asrwt>0</asrwt>
<pdfrwt beam="1">  1       21 0.69047181E-01 0.34381444E+03</pdfrwt>
<pdfrwt beam="2">  1       21 0.10130143E-01 0.34381444E+03</pdfrwt>
<totfact> 0.14500342E+05</totfact>
</mgrwt>
</event>
<event>
 8    1  0.4760912E-006  0.3095352E+03  0.7546771E-02  0.1080569E+00
         21   -1    0    0  504  503  0.00000000000E+00  0.00000000000E+00  0.15104541212E+03  0.15104541212E+03  0.00000000000E+00 0.  1.
         21   -1    0    0  503  504 -0.00000000000E+00 -0.00000000000E+00 -0.15858150188E+03  0.15858150188E+03  0.00000000000E+00 0.  1.
         25    2    1    2    0    0 -0.25550213399E+02  0.64726963294E+02  0.55307193308E+02  0.15338453482E+03  0.12500214682E+03 0.  0.
         25    2    1    2    0    0  0.25550213399E+02 -0.64726963294E+02 -0.62843283065E+02  0.15624237918E+03  0.12498003698E+03 0.  0.
          5    1    3    3  501    0 -0.46934448264E+02 -0.22643944709E+02  0.27546422324E+02  0.59131092064E+02  0.47000000000E+01 0.  1.
         -5    1    3    3    0  501  0.21384234865E+02  0.87370908003E+02  0.27760770984E+02  0.94253442758E+02  0.47000000000E+01 0.  1.
          5    1    4    4  502    0  0.48637071579E+02 -0.87206221062E+02 -0.19201392913E+02  0.10179033949E+03  0.47000000000E+01 0. -1.
         -5    1    4    4    0  502 -0.23086858180E+02  0.22479257768E+02 -0.43641890153E+02  0.54452039691E+02  0.47000000000E+01 0. -1.
<mgrwt>
<rscale>  0 0.30953519E+03</rscale>
<asrwt>0</asrwt>
<pdfrwt beam="1">  1       21 0.23237756E-01 0.30953519E+03</pdfrwt>
<pdfrwt beam="2">  1       21 0.24397154E-01 0.30953519E+03</pdfrwt>
<totfact> 0.26868375E+05</totfact>
</mgrwt>
</event>
<event>
 8    1  0.4760912E-006  0.3044495E+03  0.7546771E-02  0.1083037E+00
         21   -1    0    0  504  503  0.00000000000E+00  0.00000000000E+00  0.19720014861E+02  0.19720014861E+02  0.00000000000E+00 0. -1.
         21   -1    0    0  503  504 -0.00000000000E+00 -0.00000000000E+00 -0.11750684427E+04  0.11750684427E+04  0.00000000000E+00 0. -1.
         25    2    1    2    0    0 -0.80087242263E+02  0.28628555185E+02 -0.64721751660E+03  0.66464094394E+03  0.12499403995E+03 0.  0.
         25    2    1    2    0    0  0.80087242263E+02 -0.28628555185E+02 -0.50813091125E+03  0.53014751363E+03  0.12500321075E+03 0.  0.
          5    1    3    3  501    0 -0.24845496518E+02  0.62187297798E+02 -0.49019447898E+03  0.49476992222E+03  0.47000000000E+01 0. -1.
         -5    1    3    3    0  501 -0.55241745746E+02 -0.33558742613E+02 -0.15702303761E+03  0.16987102172E+03  0.47000000000E+01 0. -1.
          5    1    4    4  502    0 -0.47316454284E-02  0.13954781937E+02 -0.79670199642E+00  0.14746548592E+02  0.47000000000E+01 0.  1.
         -5    1    4    4    0  502  0.80091973909E+02 -0.42583337122E+02 -0.50733420925E+03  0.51540096504E+03  0.47000000000E+01 0.  1.
<mgrwt>
<rscale>  0 0.30444945E+03</rscale>
<asrwt>0</asrwt>
<pdfrwt beam="1">  1       21 0.30338484E-02 0.30444945E+03</pdfrwt>
<pdfrwt beam="2">  1       21 0.18077976E+00 0.30444945E+03</pdfrwt>
<totfact> 0.10627163E+05</totfact>
</mgrwt>
</event>
<event>
 8    1  0.4760912E-006  0.3613150E+03  0.7546771E-02  0.1058064E+00
         21   -1    0    0  504  503  0.00000000000E+00  0.00000000000E+00  0.26666148803E+03  0.26666148803E+03  0.00000000000E+00 0. -1.
         21   -1    0    0  503  504 -0.00000000000E+00 -0.00000000000E+00 -0.12239163017E+03  0.12239163017E+03  0.00000000000E+00 0. -1.
         25    2    1    2    0    0 -0.11517541726E+03 -0.54832158875E+02  0.10140725282E+03  0.20538319482E+03  0.12500753339E+03 0.  0.
         25    2    1    2    0    0  0.11517541726E+03  0.54832158875E+02  0.42862605034E+02  0.18366992338E+03  0.12500198180E+03 0.  0.
          5    1    3    3  501    0 -0.28710932910E+02  0.95051695928E+01  0.92161228439E+02  0.97110493485E+02  0.47000000000E+01 0.  1.
         -5    1    3    3    0  501 -0.86464484351E+02 -0.64337328467E+02  0.92460243832E+01  0.10827270134E+03  0.47000000000E+01 0.  1.
          5    1    4    4  502    0  0.82799190208E+01  0.69470457390E+02  0.10301067201E+02  0.70872445241E+02  0.47000000000E+01 0. -1.
         -5    1    4    4    0  502  0.10689549824E+03 -0.14638298515E+02  0.32561537833E+02  0.11279747813E+03  0.47000000000E+01 0. -1.
<mgrwt>
<rscale>  0 0.36131501E+03</rscale>
<asrwt>0</asrwt>
<pdfrwt beam="1">  1       21 0.41024844E-01 0.36131501E+03</pdfrwt>
<pdfrwt beam="2">  1       21 0.18829482E-01 0.36131501E+03</pdfrwt>
<totfact> 0.14111827E+05</totfact>
</mgrwt>
</event>
<event>
 8    1  0.4760912E-006  0.2979263E+03  0.7546771E-02  0.1086282E+00
         21   -1    0    0  504  503  0.00000000000E+00  0.00000000000E+00  0.24761739276E+03  0.24761739276E+03  0.00000000000E+00 0. -1.
         21   -1    0    0  503  504 -0.00000000000E+00 -0.00000000000E+00 -0.89614154258E+02  0.89614154258E+02  0.00000000000E+00 0. -1.
         25    2    1    2    0    0 -0.32420515945E+02 -0.49750320392E+02  0.14140687167E+03  0.19785490532E+03  0.12499790386E+03 0.  0.
         25    2    1    2    0    0  0.32420515945E+02  0.49750320392E+02  0.16596366833E+02  0.13937664170E+03  0.12499689847E+03 0.  0.
          5    1    3    3  501    0 -0.61863632612E+02  0.13524620739E+02  0.93691592833E+02  0.11318228207E+03  0.47000000000E+01 0.  1.
         -5    1    3    3    0  501  0.29443116667E+02 -0.63274941131E+02  0.47715278837E+02  0.84672623254E+02  0.47000000000E+01 0.  1.
          5    1    4    4  502    0 -0.21540565443E+02  0.57612640827E+02 -0.28977180155E+02  0.68154085075E+02  0.47000000000E+01 0. -1.
         -5    1    4    4    0  502  0.53961081387E+02 -0.78623204350E+01  0.45573546988E+02  0.71222556625E+02  0.47000000000E+01 0. -1.
<mgrwt>
<rscale>  0 0.29792632E+03</rscale>
<asrwt>0</asrwt>
<pdfrwt beam="1">  1       21 0.38094983E-01 0.29792632E+03</pdfrwt>
<pdfrwt beam="2">  1       21 0.13786793E-01 0.29792632E+03</pdfrwt>
<totfact> 0.29642105E+05</totfact>
</mgrwt>
</event>
<event>
 8    1  0.4760912E-006  0.3749527E+03  0.7546771E-02  0.1052815E+00
         21   -1    0    0  504  503  0.00000000000E+00  0.00000000000E+00  0.97843303132E+02  0.97843303132E+02  0.00000000000E+00 0. -1.
         21   -1    0    0  503  504 -0.00000000000E+00 -0.00000000000E+00 -0.35922120773E+03  0.35922120773E+03  0.00000000000E+00 0. -1.
         25    2    1    2    0    0 -0.11519218767E+03 -0.77790967637E+02 -0.14799968996E+03  0.23843151833E+03  0.12500002384E+03 0.  0.
         25    2    1    2    0    0  0.11519218767E+03  0.77790967637E+02 -0.11337821464E+03  0.21863299253E+03  0.12500036448E+03 0.  0.
          5    1    3    3  501    0  0.68494543473E+01 -0.49137944804E+02 -0.80400809972E+01  0.50479555732E+02  0.47000000000E+01 0.  1.
         -5    1    3    3    0  501 -0.12204164202E+03 -0.28653022832E+02 -0.13995960896E+03  0.18795196260E+03  0.47000000000E+01 0.  1.
          5    1    4    4  502    0  0.11284251661E+03  0.33771705065E+02 -0.12599366622E+03  0.17254117058E+03  0.47000000000E+01 0. -1.
         -5    1    4    4    0  502  0.23496710635E+01  0.44019262572E+02  0.12615451586E+02  0.46091821945E+02  0.47000000000E+01 0. -1.
<mgrwt>
<rscale>  0 0.37495274E+03</rscale>
<asrwt>0</asrwt>
<pdfrwt beam="1">  1       21 0.15052815E-01 0.37495274E+03</pdfrwt>
<pdfrwt beam="2">  1       21 0.55264803E-01 0.37495274E+03</pdfrwt>
<totfact> 0.11416108E+05</totfact>
</mgrwt>
</event>
<event>
 8    1  0.4760912E-006  0.3237478E+03  0.7546771E-02  0.1073937E+00
         21   -1    0    0  504  503  0.00000000000E+00  0.00000000000E+00  0.87246430664E+02  0.87246430664E+02  0.00000000000E+00 0.  1.
         21   -1    0    0  503  504 -0.00000000000E+00 -0.00000000000E+00 -0.30033511579E+03  0.30033511579E+03  0.00000000000E+00 0.  1.
         25    2    1    2    0    0  0.69662131099E+02 -0.77290354213E+01 -0.19666205200E+03  0.24334016519E+03  0.12500369116E+03 0.  0.
         25    2    1    2    0    0 -0.69662131099E+02  0.77290354213E+01 -0.16426633125E+02  0.14424138126E+03  0.12499276496E+03 0.  0.
          5    1    3    3  501    0  0.52083763682E+02  0.78500621507E+01 -0.20956360196E+03  0.21613267958E+03  0.47000000000E+01 0. -1.
         -5    1    3    3    0  501  0.17578367417E+02 -0.15579097572E+02  0.12901549962E+02  0.27207485618E+02  0.47000000000E+01 0. -1.
          5    1    4    4  502    0 -0.83829647380E+02 -0.34919310052E+00 -0.56174985557E+02  0.10102104097E+03  0.47000000000E+01 0. -1.
         -5    1    4    4    0  502  0.14167516280E+02  0.80782285219E+01  0.39748352432E+02  0.43220340289E+02  0.47000000000E+01 0. -1.
<mgrwt>
<rscale>  0 0.32374785E+03</rscale>
<asrwt>0</asrwt>
<pdfrwt beam="1">  1       21 0.13422528E-01 0.32374785E+03</pdfrwt>
<pdfrwt beam="2">  1       21 0.46205401E-01 0.32374785E+03</pdfrwt>
<totfact> 0.20818394E+05</totfact>
</mgrwt>
</event>
<event>
 8    1  0.4760912E-006  0.2909686E+03  0.7546771E-02  0.1089845E+00
         21   -1    0    0  504  503  0.00000000000E+00  0.00000000000E+00  0.59629562283E+03  0.59629562283E+03  0.00000000000E+00 0. -1.
         21   -1    0    0  503  504 -0.00000000000E+00 -0.00000000000E+00 -0.35495279848E+02  0.35495279848E+02  0.00000000000E+00 0. -1.
         25    2    1    2    0    0 -0.68420186987E+02 -0.28106631814E+02  0.29853004802E+03  0.33198905378E+03  0.12500095008E+03 0.  0.
         25    2    1    2    0    0  0.68420186987E+02  0.28106631814E+02  0.26227029495E+03  0.29980184889E+03  0.12499654493E+03 0.  0.
          5    1    3    3  501    0  0.33569912421E+02 -0.23948623819E+02  0.10961915001E+03  0.11721315478E+03  0.47000000000E+01 0. -1.
         -5    1    3    3    0  501 -0.10199009941E+03 -0.41580079942E+01  0.18891089801E+03  0.21477589901E+03  0.47000000000E+01 0. -1.
          5    1    4    4  502    0  0.16283298263E+02  0.40560749867E+01  0.23573032054E+03  0.23637358475E+03  0.47000000000E+01 0. -1.
         -5    1    4    4    0  502  0.52136888724E+02  0.24050556827E+02  0.26539974412E+02  0.63428264136E+02  0.47000000000E+01 0. -1.
<mgrwt>
<rscale>  0 0.29096859E+03</rscale>
<asrwt>0</asrwt>
<pdfrwt beam="1">  1       21 0.91737781E-01 0.29096859E+03</pdfrwt>
<pdfrwt beam="2">  1       21 0.54608127E-02 0.29096859E+03</pdfrwt>
<totfact> 0.22625708E+05</totfact>
</mgrwt>
</event>
<event>
 8    1  0.4760912E-006  0.3162615E+03  0.7546771E-02  0.1077383E+00
         21   -1    0    0  504  503  0.00000000000E+00  0.00000000000E+00  0.78828675883E+02  0.78828675883E+02  0.00000000000E+00 0.  1.
         21   -1    0    0  503  504 -0.00000000000E+00 -0.00000000000E+00 -0.31721104571E+03  0.31721104571E+03  0.00000000000E+00 0.  1.
         25    2    1    2    0    0  0.90797551806E+02  0.14189419664E+02 -0.80787395540E+02  0.17488930928E+03  0.12495652114E+03 0.  0.
         25    2    1    2    0    0 -0.90797551806E+02 -0.14189419664E+02 -0.15759497429E+03  0.22115041232E+03  0.12500317557E+03 0.  0.
          5    1    3    3  501    0  0.35746358504E+02 -0.38198133515E+02 -0.83562031891E+02  0.98699557872E+02  0.47000000000E+01 0. -1.
         -5    1    3    3    0  501  0.55051193302E+02  0.52387553179E+02  0.27746363507E+01  0.76189751403E+02  0.47000000000E+01 0. -1.
          5    1    4    4  502    0  0.28694772277E+02  0.23384050732E+01 -0.10834632994E+02  0.31118119583E+02  0.47000000000E+01 0. -1.
         -5    1    4    4    0  502 -0.11949232408E+03 -0.16527824737E+02 -0.14676034129E+03  0.19003229273E+03  0.47000000000E+01 0. -1.
<mgrwt>
<rscale>  0 0.31626145E+03</rscale>
<asrwt>0</asrwt>
<pdfrwt beam="1">  1       21 0.12127489E-01 0.31626145E+03</pdfrwt>
<pdfrwt beam="2">  1       21 0.48801700E-01 0.31626145E+03</pdfrwt>
<totfact> 0.22361016E+05</totfact>
</mgrwt>
</event>
<event>
 8    1  0.4760912E-006  0.3206701E+03  0.7546771E-02  0.1075341E+00
         21   -1    0    0  504  503  0.00000000000E+00  0.00000000000E+00  0.49024883551E+02  0.49024883551E+02  0.00000000000E+00 0.  1.
         21   -1    0    0  503  504 -0.00000000000E+00 -0.00000000000E+00 -0.52437319152E+03  0.52437319152E+03  0.00000000000E+00 0.  1.
         25    2    1    2    0    0 -0.10777210203E+02  0.67131665877E+02 -0.10554928204E+03  0.17716567427E+03  0.12499686547E+03 0.  0.
         25    2    1    2    0    0  0.10777210203E+02 -0.67131665877E+02 -0.36979902592E+03  0.39623240079E+03  0.12500394810E+03 0.  0.
          5    1    3    3  501    0 -0.63057966036E+01  0.74261253673E+02 -0.36016425920E+01  0.74763351298E+02  0.47000000000E+01 0. -1.
         -5    1    3    3    0  501 -0.44714135995E+01 -0.71295877965E+01 -0.10194763945E+03  0.10240232298E+03  0.47000000000E+01 0. -1.
          5    1    4    4  502    0  0.65337188804E+01 -0.10063764312E+03 -0.32242986649E+03  0.33786644329E+03  0.47000000000E+01 0. -1.
         -5    1    4    4    0  502  0.42434913227E+01  0.33505977247E+02 -0.47369159438E+02  0.58365957507E+02  0.47000000000E+01 0. -1.
<mgrwt>
<rscale>  0 0.32067014E+03</rscale>
<asrwt>0</asrwt>
<pdfrwt beam="1">  1       21 0.75422896E-02 0.32067014E+03</pdfrwt>
<pdfrwt beam="2">  1       21 0.80672801E-01 0.32067014E+03</pdfrwt>
<totfact> 0.17288517E+05</totfact>
</mgrwt>
</event>
<event>
 8    1  0.4760912E-006  0.2685671E+03  0.7546771E-02  0.1102103E+00
         21   -1    0    0  504  503  0.00000000000E+00  0.00000000000E+00  0.81012728409E+02  0.81012728409E+02  0.00000000000E+00 0.  1.
         21   -1    0    0  503  504 -0.00000000000E+00 -0.00000000000E+00 -0.22258312866E+03  0.22258312866E+03  0.00000000000E+00 0.  1.
         25    2    1    2    0    0  0.47971768292E+02 -0.78931115239E+01 -0.78346814299E+02  0.15531673905E+03  0.12498589663E+03 0.  0.
         25    2    1    2    0    0 -0.47971768292E+02  0.78931115239E+01 -0.63223585955E+02  0.14827911802E+03  0.12500353298E+03 0.  0.
          5    1    3    3  501    0  0.20191951208E+02  0.52415211039E+02 -0.67390961680E+02  0.87856137850E+02  0.47000000000E+01 0.  1.
         -5    1    3    3    0  501  0.27779817084E+02 -0.60308322562E+02 -0.10955852618E+02  0.67460601199E+02  0.47000000000E+01 0.  1.
          5    1    4    4  502    0 -0.33320180175E+02  0.57425232626E+02 -0.69266076471E+02  0.96061288242E+02  0.47000000000E+01 0. -1.
         -5    1    4    4    0  502 -0.14651588117E+02 -0.49532121102E+02  0.60424905161E+01  0.52217829779E+02  0.47000000000E+01 0. -1.
<mgrwt>
<rscale>  0 0.26856706E+03</rscale>
<asrwt>0</asrwt>
<pdfrwt beam="1">  1       21 0.12463496E-01 0.26856706E+03</pdfrwt>
<pdfrwt beam="2">  1       21 0.34243559E-01 0.26856706E+03</pdfrwt>
<totfact> 0.44365442E+05</totfact>
</mgrwt>
</event>
<event>
 8    1  0.4760912E-006  0.2745700E+03  0.7546771E-02  0.1098692E+00
         21   -1    0    0  504  503  0.00000000000E+00  0.00000000000E+00  0.34662921036E+02  0.34662921036E+02  0.00000000000E+00 0.  1.
         21   -1    0    0  503  504 -0.00000000000E+00 -0.00000000000E+00 -0.54372709275E+03  0.54372709275E+03  0.00000000000E+00 0.  1.
         25    2    1    2    0    0 -0.37656870452E+02  0.33693319010E+02 -0.20007328866E+03  0.24126156694E+03  0.12499817282E+03 0.  0.
         25    2    1    2    0    0  0.37656870452E+02 -0.33693319010E+02 -0.30899088305E+03  0.33712844685E+03  0.12500777666E+03 0.  0.
          5    1    3    3  501    0  0.21767427755E+02  0.37945862295E+02 -0.16753560676E+03  0.17321656650E+03  0.47000000000E+01 0. -1.
         -5    1    3    3    0  501 -0.59424298207E+02 -0.42525432852E+01 -0.32537681899E+02  0.68045000442E+02  0.47000000000E+01 0. -1.
          5    1    4    4  502    0  0.31676586117E+02 -0.17588264963E+01 -0.63273663550E+01  0.32689832421E+02  0.47000000000E+01 0.  1.
         -5    1    4    4    0  502  0.59802843347E+01 -0.31934492513E+02 -0.30266351670E+03  0.30443861443E+03  0.47000000000E+01 0.  1.
<mgrwt>
<rscale>  0 0.27456999E+03</rscale>
<asrwt>0</asrwt>
<pdfrwt beam="1">  1       21 0.53327571E-02 0.27456999E+03</pdfrwt>
<pdfrwt beam="2">  1       21 0.83650322E-01 0.27456999E+03</pdfrwt>
<totfact> 0.29323397E+05</totfact>
</mgrwt>
</event>
<event>
 8    1  0.4760912E-006  0.2892719E+03  0.7546771E-02  0.1090730E+00
         21   -1    0    0  504  503  0.00000000000E+00  0.00000000000E+00  0.10059598204E+03  0.10059598204E+03  0.00000000000E+00 0.  1.
         21   -1    0    0  503  504 -0.00000000000E+00 -0.00000000000E+00 -0.20795626855E+03  0.20795626855E+03  0.00000000000E+00 0.  1.
         25    2    1    2    0    0  0.16848275988E+02 -0.62255629781E+02 -0.17736556615E+02  0.14177022032E+03  0.12499832833E+03 0.  0.
         25    2    1    2    0    0 -0.16848275988E+02  0.62255629781E+02 -0.89623729897E+02  0.16678203027E+03  0.12499681923E+03 0.  0.
          5    1    3    3  501    0  0.51020418504E+02 -0.11904754822E+02  0.33261378096E+02  0.62235163409E+02  0.47000000000E+01 0. -1.
         -5    1    3    3    0  501 -0.34172142515E+02 -0.50350874958E+02 -0.50997934712E+02  0.79535056912E+02  0.47000000000E+01 0. -1.
          5    1    4    4  502    0 -0.25034670341E+02  0.95955517183E+02 -0.86447161163E+02  0.13164117012E+03  0.47000000000E+01 0.  1.
         -5    1    4    4    0  502  0.81863943526E+01 -0.33699887402E+02 -0.31765687341E+01  0.35140860153E+02  0.47000000000E+01 0.  1.
<mgrwt>
<rscale>  0 0.28927195E+03</rscale>
<asrwt>0</asrwt>
<pdfrwt beam="1">  1       21 0.15476305E-01 0.28927195E+03</pdfrwt>
<pdfrwt beam="2">  1       21 0.31993272E-01 0.28927195E+03</pdfrwt>
<totfact> 0.34078715E+05</totfact>
</mgrwt>
</event>
<event>
 8    1  0.4760912E-006  0.3840170E+03  0.7546771E-02  0.1049459E+00
         21   -1    0    0  504  503  0.00000000000E+00  0.00000000000E+00  0.92590823704E+03  0.92590823704E+03  0.00000000000E+00 0. -1.
         21   -1    0    0  503  504 -0.00000000000E+00 -0.00000000000E+00 -0.39817409799E+02  0.39817409799E+02  0.00000000000E+00 0. -1.
         25    2    1    2    0    0  0.52959733147E+02 -0.49230090662E+02  0.12480917161E+03  0.19086472003E+03  0.12499470738E+03 0.  0.
         25    2    1    2    0    0 -0.52959733147E+02  0.49230090662E+02  0.76128165562E+03  0.77486092680E+03  0.12502544355E+03 0.  0.
          5    1    3    3  501    0  0.35836440075E+02 -0.65506413775E+02  0.14252191236E+03  0.16096560559E+03  0.47000000000E+01 0.  1.
         -5    1    3    3    0  501  0.17123293072E+02  0.16276323114E+02 -0.17712740741E+02  0.29899114440E+02  0.47000000000E+01 0.  1.
          5    1    4    4  502    0  0.61225882566E+01  0.33465274889E+02  0.48405206869E+02  0.59351198492E+02  0.47000000000E+01 0. -1.
         -5    1    4    4    0  502 -0.59082321403E+02  0.15764815772E+02  0.71287644875E+03  0.71550972831E+03  0.47000000000E+01 0. -1.
<mgrwt>
<rscale>  0 0.38401702E+03</rscale>
<asrwt>0</asrwt>
<pdfrwt beam="1">  1       21 0.14244740E+00 0.38401702E+03</pdfrwt>
<pdfrwt beam="2">  1       21 0.61257560E-02 0.38401702E+03</pdfrwt>
<totfact> 0.60456644E+04</totfact>
</mgrwt>
</event>
<event>
 8    1  0.4760912E-006  0.3401157E+03  0.7546771E-02  0.1066747E+00
         21   -1    0    0  504  503  0.00000000000E+00  0.00000000000E+00  0.57429764152E+02  0.57429764152E+02  0.00000000000E+00 0.  1.
         21   -1    0    0  503  504 -0.00000000000E+00 -0.00000000000E+00 -0.50356586619E+03  0.50356586619E+03  0.00000000000E+00 0.  1.
         25    2    1    2    0    0 -0.86785825991E+00 -0.89024476767E+02 -0.34389049594E+03  0.37658092929E+03  0.12500564974E+03 0.  0.
         25    2    1    2    0    0  0.86785825991E+00  0.89024476767E+02 -0.10224560609E+03  0.18441470104E+03  0.12501402863E+03 0.  0.
          5    1    3    3  501    0 -0.35153437887E+02  0.14389445348E+02 -0.14262012381E+03  0.14766655020E+03  0.47000000000E+01 0. -1.
         -5    1    3    3    0  501  0.34285579627E+02 -0.10341392211E+03 -0.20127037213E+03  0.22891437909E+03  0.47000000000E+01 0. -1.
          5    1    4    4  502    0  0.14572456512E+02  0.11642490252E+03 -0.59575683480E+02  0.13167561079E+03  0.47000000000E+01 0. -1.
         -5    1    4    4    0  502 -0.13704598252E+02 -0.27400425754E+02 -0.42669922612E+02  0.52739090251E+02  0.47000000000E+01 0. -1.
<mgrwt>
<rscale>  0 0.34011568E+03</rscale>
<asrwt>0</asrwt>
<pdfrwt beam="1">  1       21 0.88353484E-02 0.34011568E+03</pdfrwt>
<pdfrwt beam="2">  1       21 0.77471671E-01 0.34011568E+03</pdfrwt>
<totfact> 0.14283349E+05</totfact>
</mgrwt>
</event>
<event>
 8    1  0.4760912E-006  0.3213436E+03  0.7546771E-02  0.1075033E+00
         21   -1    0    0  504  503  0.00000000000E+00  0.00000000000E+00  0.53412404708E+02  0.53412404708E+02  0.00000000000E+00 0. -1.
         21   -1    0    0  503  504 -0.00000000000E+00 -0.00000000000E+00 -0.48332268240E+03  0.48332268240E+03  0.00000000000E+00 0. -1.
         25    2    1    2    0    0  0.76986266748E+02 -0.48950565549E+01 -0.10620335663E+03  0.18125974707E+03  0.12500038441E+03 0.  0.
         25    2    1    2    0    0 -0.76986266748E+02  0.48950565549E+01 -0.32370692107E+03  0.35547534004E+03  0.12500279911E+03 0.  0.
          5    1    3    3  501    0  0.11025077556E+02  0.37461521737E+02 -0.93856272589E+02  0.10176447244E+03  0.47000000000E+01 0. -1.
         -5    1    3    3    0  501  0.65961189192E+02 -0.42356578292E+02 -0.12347084036E+02  0.79495274629E+02  0.47000000000E+01 0. -1.
          5    1    4    4  502    0 -0.10117183210E+03  0.17670164389E+02 -0.16536337264E+03  0.19471802519E+03  0.47000000000E+01 0. -1.
         -5    1    4    4    0  502  0.24185565357E+02 -0.12775107834E+02 -0.15834354843E+03  0.16075731486E+03  0.47000000000E+01 0. -1.
<mgrwt>
<rscale>  0 0.32134360E+03</rscale>
<asrwt>0</asrwt>
<pdfrwt beam="1">  1       21 0.82172927E-02 0.32134360E+03</pdfrwt>
<pdfrwt beam="2">  1       21 0.74357339E-01 0.32134360E+03</pdfrwt>
<totfact> 0.17898840E+05</totfact>
</mgrwt>
</event>
<event>
 8    1  0.4760912E-006  0.3445629E+03  0.7546771E-02  0.1064869E+00
         21   -1    0    0  504  503  0.00000000000E+00  0.00000000000E+00  0.26367113121E+03  0.26367113121E+03  0.00000000000E+00 0. -1.
         21   -1    0    0  503  504 -0.00000000000E+00 -0.00000000000E+00 -0.11256788275E+03  0.11256788275E+03  0.00000000000E+00 0. -1.
         25    2    1    2    0    0 -0.78940427562E+02  0.81490350586E+02  0.38006179857E+02  0.17303574954E+03  0.12499853027E+03 0.  0.
         25    2    1    2    0    0  0.78940427562E+02 -0.81490350586E+02  0.11309706860E+03  0.20320326441E+03  0.12501340488E+03 0.  0.
          5    1    3    3  501    0 -0.30113054218E+01  0.91438471700E+02  0.27164594620E+02  0.95551385485E+02  0.47000000000E+01 0.  1.
         -5    1    3    3    0  501 -0.75929122141E+02 -0.99481211142E+01  0.10841585237E+02  0.77484364056E+02  0.47000000000E+01 0.  1.
          5    1    4    4  502    0  0.47091164416E+02 -0.98784209706E+02  0.12362690835E+03  0.16517142707E+03  0.47000000000E+01 0.  1.
         -5    1    4    4    0  502  0.31849263147E+02  0.17293859121E+02 -0.10529839751E+02  0.38031837340E+02  0.47000000000E+01 0.  1.
<mgrwt>
<rscale>  0 0.34456292E+03</rscale>
<asrwt>0</asrwt>
<pdfrwt beam="1">  1       21 0.40564789E-01 0.34456292E+03</pdfrwt>
<pdfrwt beam="2">  1       21 0.17318136E-01 0.34456292E+03</pdfrwt>
<totfact> 0.16954753E+05</totfact>
</mgrwt>
</event>
<event>
 8    1  0.4760912E-006  0.4668919E+03  0.7546771E-02  0.1022801E+00
         21   -1    0    0  504  503  0.00000000000E+00  0.00000000000E+00  0.63005435685E+02  0.63005435685E+02  0.00000000000E+00 0. -1.
         21   -1    0    0  503  504 -0.00000000000E+00 -0.00000000000E+00 -0.86495731140E+03  0.86495731140E+03  0.00000000000E+00 0. -1.
         25    2    1    2    0    0 -0.93064432036E+02  0.11911144735E+03 -0.65256755546E+03  0.68140899395E+03  0.12500110879E+03 0.  0.
         25    2    1    2    0    0  0.93064432036E+02 -0.11911144735E+03 -0.14938432025E+03  0.24655375313E+03  0.12499821057E+03 0.  0.
          5    1    3    3  501    0 -0.12212518611E+03  0.89016621573E+02 -0.55322841536E+03  0.57351747102E+03  0.47000000000E+01 0. -1.
         -5    1    3    3    0  501  0.29060754069E+02  0.30094825779E+02 -0.99339140096E+02  0.10789152293E+03  0.47000000000E+01 0. -1.
          5    1    4    4  502    0 -0.30478974252E+02 -0.33176503461E+02 -0.40261693729E+02  0.60603153675E+02  0.47000000000E+01 0.  1.
         -5    1    4    4    0  502  0.12354340629E+03 -0.85934943890E+02 -0.10912262652E+03  0.18595059946E+03  0.47000000000E+01 0.  1.
<mgrwt>
<rscale>  0 0.46689190E+03</rscale>
<asrwt>0</asrwt>
<pdfrwt beam="1">  1       21 0.96931438E-02 0.46689190E+03</pdfrwt>
<pdfrwt beam="2">  1       21 0.13307036E+00 0.46689190E+03</pdfrwt>
<totfact> 0.31456747E+04</totfact>
</mgrwt>
</event>
<event>
 8    1  0.4760912E-006  0.3136482E+03  0.7546771E-02  0.1078610E+00
         21   -1    0    0  504  503  0.00000000000E+00  0.00000000000E+00  0.61103304420E+02  0.61103304420E+02  0.00000000000E+00 0.  1.
         21   -1    0    0  503  504 -0.00000000000E+00 -0.00000000000E+00 -0.40249546887E+03  0.40249546887E+03  0.00000000000E+00 0.  1.
         25    2    1    2    0    0  0.74968732773E+02 -0.18321657436E+02 -0.89566796418E+02  0.17205690515E+03  0.12500149425E+03 0.  0.
         25    2    1    2    0    0 -0.74968732773E+02  0.18321657436E+02 -0.25182536803E+03  0.29154186814E+03  0.12499860346E+03 0.  0.
          5    1    3    3  501    0  0.26171690543E+02 -0.68801524238E+02 -0.29151155971E+02  0.79312590538E+02  0.47000000000E+01 0. -1.
         -5    1    3    3    0  501  0.48797042230E+02  0.50479866802E+02 -0.60415640447E+02  0.92744314615E+02  0.47000000000E+01 0. -1.
          5    1    4    4  502    0  0.31638199122E+02  0.49955237777E+01 -0.26376392391E+02  0.41758052841E+02  0.47000000000E+01 0.  1.
         -5    1    4    4    0  502 -0.10660693190E+03  0.13326133658E+02 -0.22544897564E+03  0.24978381529E+03  0.47000000000E+01 0.  1.
<mgrwt>
<rscale>  0 0.31364823E+03</rscale>
<asrwt>0</asrwt>
<pdfrwt beam="1">  1       21 0.94005085E-02 0.31364823E+03</pdfrwt>
<pdfrwt beam="2">  1       21 0.61922379E-01 0.31364823E+03</pdfrwt>
<totfact> 0.21215363E+05</totfact>
</mgrwt>
</event>
<event>
 8    1  0.4760912E-006  0.2865438E+03  0.7546771E-02  0.1092168E+00
         21   -1    0    0  504  503  0.00000000000E+00  0.00000000000E+00  0.80359567681E+03  0.80359567681E+03  0.00000000000E+00 0.  1.
         21   -1    0    0  503  504 -0.00000000000E+00 -0.00000000000E+00 -0.25543732941E+02  0.25543732941E+02  0.00000000000E+00 0.  1.
         25    2    1    2    0    0  0.21518687642E+02 -0.22468140642E+02  0.57053203850E+03  0.58489311914E+03  0.12500113039E+03 0.  0.
         25    2    1    2    0    0 -0.21518687642E+02  0.22468140642E+02  0.20751990537E+03  0.24424629061E+03  0.12499547229E+03 0.  0.
          5    1    3    3  501    0 -0.33346002980E+02  0.30283272468E+02  0.31457197717E+03  0.31781543595E+03  0.47000000000E+01 0.  1.
         -5    1    3    3    0  501  0.54864690623E+02 -0.52751413110E+02  0.25596006133E+03  0.26707768319E+03  0.47000000000E+01 0.  1.
          5    1    4    4  502    0  0.33830567724E+02  0.20548307046E+02  0.17577542750E+03  0.18023826217E+03  0.47000000000E+01 0. -1.
         -5    1    4    4    0  502 -0.55349255366E+02  0.19198335965E+01  0.31744477867E+02  0.64008028447E+02  0.47000000000E+01 0. -1.
<mgrwt>
<rscale>  0 0.28654377E+03</rscale>
<asrwt>0</asrwt>
<pdfrwt beam="1">  1       21 0.12363008E+00 0.28654377E+03</pdfrwt>
<pdfrwt beam="2">  1       21 0.39298057E-02 0.28654377E+03</pdfrwt>
<totfact> 0.19187226E+05</totfact>
</mgrwt>
</event>
<event>
 8    1  0.4760912E-006  0.3802570E+03  0.7546771E-02  0.1050839E+00
         21   -1    0    0  504  503  0.00000000000E+00  0.00000000000E+00  0.45734801475E+03  0.45734801475E+03  0.00000000000E+00 0.  1.
         21   -1    0    0  503  504 -0.00000000000E+00 -0.00000000000E+00 -0.79040126855E+02  0.79040126855E+02  0.00000000000E+00 0.  1.
         25    2    1    2    0    0 -0.23984658795E+01 -0.12477247704E+03  0.89924529895E+02  0.19820364568E+03  0.12499736166E+03 0.  0.
         25    2    1    2    0    0  0.23984658795E+01  0.12477247704E+03  0.28838335800E+03  0.33818449592E+03  0.12501947227E+03 0.  0.
          5    1    3    3  501    0 -0.42184335192E+02 -0.34994452672E+02 -0.12307501469E+02  0.56371042618E+02  0.47000000000E+01 0. -1.
         -5    1    3    3    0  501  0.39785869313E+02 -0.89778024364E+02  0.10223203136E+03  0.14183260307E+03  0.47000000000E+01 0. -1.
          5    1    4    4  502    0  0.59015698747E+02  0.53465551867E+02  0.92657452825E+02  0.12226574131E+03  0.47000000000E+01 0. -1.
         -5    1    4    4    0  502 -0.56617232867E+02  0.71306925169E+02  0.19572590517E+03  0.21591875460E+03  0.47000000000E+01 0. -1.
<mgrwt>
<rscale>  0 0.38025699E+03</rscale>
<asrwt>0</asrwt>
<pdfrwt beam="1">  1       21 0.70361231E-01 0.38025699E+03</pdfrwt>
<pdfrwt beam="2">  1       21 0.12160020E-01 0.38025699E+03</pdfrwt>
<totfact> 0.99177216E+04</totfact>
</mgrwt>
</event>
<event>
 8    1  0.4760912E-006  0.2715872E+03  0.7546771E-02  0.1100375E+00
         21   -1    0    0  504  503  0.00000000000E+00  0.00000000000E+00  0.66684260532E+03  0.66684260532E+03  0.00000000000E+00 0. -1.
         21   -1    0    0  503  504 -0.00000000000E+00 -0.00000000000E+00 -0.27652556088E+02  0.27652556088E+02  0.00000000000E+00 0. -1.
         25    2    1    2    0    0 -0.71735181934E+01 -0.52417674113E+02  0.32562316152E+03  0.35280744036E+03  0.12507427686E+03 0.  0.
         25    2    1    2    0    0  0.71735181934E+01  0.52417674113E+02  0.31356688771E+03  0.34168772105E+03  0.12500893457E+03 0.  0.
          5    1    3    3  501    0 -0.51707973306E+02  0.41911697121E+00  0.22323046671E+03  0.22918948804E+03  0.47000000000E+01 0. -1.
         -5    1    3    3    0  501  0.44534455112E+02 -0.52836791084E+02  0.10239269481E+03  0.12361795231E+03  0.47000000000E+01 0. -1.
          5    1    4    4  502    0  0.21294161610E+02  0.25768063062E+02  0.30898349547E+03  0.31082201477E+03  0.47000000000E+01 0. -1.
         -5    1    4    4    0  502 -0.14120643417E+02  0.26649611051E+02  0.45833922426E+01  0.30865706279E+02  0.47000000000E+01 0. -1.
<mgrwt>
<rscale>  0 0.27158721E+03</rscale>
<asrwt>0</asrwt>
<pdfrwt beam="1">  1       21 0.10259116E+00 0.27158721E+03</pdfrwt>
<pdfrwt beam="2">  1       21 0.42542399E-02 0.27158721E+03</pdfrwt>
<totfact> 0.26674063E+05</totfact>
</mgrwt>
</event>
<event>
 8    1  0.4760912E-006  0.3771895E+03  0.7546771E-02  0.1051977E+00
         21   -1    0    0  504  503  0.00000000000E+00  0.00000000000E+00  0.29191301881E+03  0.29191301881E+03  0.00000000000E+00 0. -1.
         21   -1    0    0  503  504 -0.00000000000E+00 -0.00000000000E+00 -0.12184446681E+03  0.12184446681E+03  0.00000000000E+00 0. -1.
         25    2    1    2    0    0  0.12278732788E+03 -0.65634215338E+02  0.58948876326E+02  0.19617761195E+03  0.12500442911E+03 0.  0.
         25    2    1    2    0    0 -0.12278732788E+03  0.65634215338E+02  0.11111967567E+03  0.21757987367E+03  0.12493534726E+03 0.  0.
          5    1    3    3  501    0  0.43258849993E+02  0.34327500546E+02  0.21577305461E-01  0.55423784263E+02  0.47000000000E+01 0.  1.
         -5    1    3    3    0  501  0.79528477885E+02 -0.99961715884E+02  0.58927299021E+02  0.14075382768E+03  0.47000000000E+01 0.  1.
          5    1    4    4  502    0 -0.60465661474E+02  0.37037500439E+02  0.12836179944E+03  0.14671984941E+03  0.47000000000E+01 0. -1.
         -5    1    4    4    0  502 -0.62321666403E+02  0.28596714899E+02 -0.17242123766E+02  0.70860024261E+02  0.47000000000E+01 0. -1.
<mgrwt>
<rscale>  0 0.37718953E+03</rscale>
<asrwt>0</asrwt>
<pdfrwt beam="1">  1       21 0.44909695E-01 0.37718953E+03</pdfrwt>
<pdfrwt beam="2">  1       21 0.18745303E-01 0.37718953E+03</pdfrwt>
<totfact> 0.11759646E+05</totfact>
</mgrwt>
</event>
<event>
 8    1  0.4760912E-006  0.3257734E+03  0.7546771E-02  0.1073022E+00
         21   -1    0    0  504  503  0.00000000000E+00  0.00000000000E+00  0.31406473056E+02  0.31406473056E+02  0.00000000000E+00 0. -1.
         21   -1    0    0  503  504 -0.00000000000E+00 -0.00000000000E+00 -0.84479650686E+03  0.84479650686E+03  0.00000000000E+00 0. -1.
         25    2    1    2    0    0 -0.10558475566E+02 -0.10357719087E+03 -0.42843719004E+03  0.45828046026E+03  0.12499135397E+03 0.  0.
         25    2    1    2    0    0  0.10558475566E+02  0.10357719087E+03 -0.38495284376E+03  0.41792251965E+03  0.12502329641E+03 0.  0.
          5    1    3    3  501    0  0.28546815013E+02  0.33698037226E+01 -0.20892473720E+03  0.21094528210E+03  0.47000000000E+01 0.  1.
         -5    1    3    3    0  501 -0.39105290580E+02 -0.10694699459E+03 -0.21951245284E+03  0.24733517816E+03  0.47000000000E+01 0.  1.
          5    1    4    4  502    0  0.38400229057E+02  0.10345539268E+03 -0.18110914141E+03  0.21213252219E+03  0.47000000000E+01 0. -1.
         -5    1    4    4    0  502 -0.27841753491E+02  0.12179818399E+00 -0.20384370234E+03  0.20578999747E+03  0.47000000000E+01 0. -1.
<mgrwt>
<rscale>  0 0.32577341E+03</rscale>
<asrwt>0</asrwt>
<pdfrwt beam="1">  1       21 0.48317645E-02 0.32577341E+03</pdfrwt>
<pdfrwt beam="2">  1       21 0.12996871E+00 0.32577341E+03</pdfrwt>
<totfact> 0.11757479E+05</totfact>
</mgrwt>
</event>
<event>
 8    1  0.4760912E-006  0.2793004E+03  0.7546771E-02  0.1096072E+00
         21   -1    0    0  504  503  0.00000000000E+00  0.00000000000E+00  0.22452440500E+03  0.22452440500E+03  0.00000000000E+00 0. -1.
         21   -1    0    0  503  504 -0.00000000000E+00 -0.00000000000E+00 -0.86859968774E+02  0.86859968774E+02  0.00000000000E+00 0. -1.
         25    2    1    2    0    0 -0.55393657014E+02  0.15834753493E+02  0.42380639916E+02  0.14399912618E+03  0.12498173085E+03 0.  0.
         25    2    1    2    0    0  0.55393657014E+02 -0.15834753493E+02  0.95283796309E+02  0.16738524759E+03  0.12497848861E+03 0.  0.
          5    1    3    3  501    0  0.13547377412E+01 -0.65548109297E+01 -0.40310754822E+02  0.41132077688E+02  0.47000000000E+01 0. -1.
         -5    1    3    3    0  501 -0.56748394755E+02  0.22389564422E+02  0.82691394738E+02  0.10286704849E+03  0.47000000000E+01 0. -1.
          5    1    4    4  502    0 -0.68333074181E+00 -0.12153013320E+02 -0.28508636088E+02  0.31352751160E+02  0.47000000000E+01 0. -1.
         -5    1    4    4    0  502  0.56076987756E+02 -0.36817401726E+01  0.12379243240E+03  0.13603249643E+03  0.47000000000E+01 0. -1.
<mgrwt>
<rscale>  0 0.27930043E+03</rscale>
<asrwt>0</asrwt>
<pdfrwt beam="1">  1       21 0.34542216E-01 0.27930043E+03</pdfrwt>
<pdfrwt beam="2">  1       21 0.13363072E-01 0.27930043E+03</pdfrwt>
<totfact> 0.38350593E+05</totfact>
</mgrwt>
</event>
<event>
 8    1  0.4760912E-006  0.5105448E+03  0.7546771E-02  0.1011063E+00
         21   -1    0    0  504  503  0.00000000000E+00  0.00000000000E+00  0.27924407034E+03  0.27924407034E+03  0.00000000000E+00 0. -1.
         21   -1    0    0  503  504 -0.00000000000E+00 -0.00000000000E+00 -0.23335857266E+03  0.23335857266E+03  0.00000000000E+00 0. -1.
         25    2    1    2    0    0  0.20785838432E+03  0.17673463549E+02  0.10087403980E+03  0.26327355553E+03  0.12497973391E+03 0.  0.
         25    2    1    2    0    0 -0.20785838432E+03 -0.17673463549E+02 -0.54988542122E+02  0.24932908747E+03  0.12499517929E+03 0.  0.
          5    1    3    3  501    0  0.19184956612E+03 -0.23322909603E+02  0.58445635449E+02  0.20196087848E+03  0.47000000000E+01 0. -1.
         -5    1    3    3    0  501  0.16008818208E+02  0.40996373153E+02  0.42428404354E+02  0.61312677059E+02  0.47000000000E+01 0. -1.
          5    1    4    4  502    0 -0.47070882532E+02 -0.46777488478E+02 -0.54276935967E+02  0.85859636551E+02  0.47000000000E+01 0.  1.
         -5    1    4    4    0  502 -0.16078750179E+03  0.29104024929E+02 -0.71160615418E+00  0.16346945092E+03  0.47000000000E+01 0.  1.
<mgrwt>
<rscale>  0 0.51054480E+03</rscale>
<asrwt>0</asrwt>
<pdfrwt beam="1">  1       21 0.42960626E-01 0.51054480E+03</pdfrwt>
<pdfrwt beam="2">  1       21 0.35901319E-01 0.51054480E+03</pdfrwt>
<totfact> 0.35206552E+04</totfact>
</mgrwt>
</event>
<event>
 8    1  0.4760912E-006  0.2718663E+03  0.7546771E-02  0.1100216E+00
         21   -1    0    0  504  503  0.00000000000E+00  0.00000000000E+00  0.26374136252E+03  0.26374136252E+03  0.00000000000E+00 0. -1.
         21   -1    0    0  503  504 -0.00000000000E+00 -0.00000000000E+00 -0.70060370452E+02  0.70060370452E+02  0.00000000000E+00 0. -1.
         25    2    1    2    0    0 -0.28603210335E+02  0.45145222244E+02  0.97392542400E+02  0.16721629362E+03  0.12497898545E+03 0.  0.
         25    2    1    2    0    0  0.28603210335E+02 -0.45145222244E+02  0.96288449670E+02  0.16658543936E+03  0.12499203308E+03 0.  0.
          5    1    3    3  501    0 -0.41216380924E+02 -0.31764014853E+02  0.63142762169E+02  0.81956336610E+02  0.47000000000E+01 0.  1.
         -5    1    3    3    0  501  0.12613170589E+02  0.76909237097E+02  0.34249780230E+02  0.85259957008E+02  0.47000000000E+01 0.  1.
          5    1    4    4  502    0  0.25152940587E+02 -0.71984241078E+02  0.11248810639E+02  0.77220639240E+02  0.47000000000E+01 0. -1.
         -5    1    4    4    0  502  0.34502697483E+01  0.26839018835E+02  0.85039639031E+02  0.89364800117E+02  0.47000000000E+01 0. -1.
<mgrwt>
<rscale>  0 0.27186627E+03</rscale>
<asrwt>0</asrwt>
<pdfrwt beam="1">  1       21 0.40575594E-01 0.27186627E+03</pdfrwt>
<pdfrwt beam="2">  1       21 0.10778519E-01 0.27186627E+03</pdfrwt>
<totfact> 0.40886057E+05</totfact>
</mgrwt>
</event>
<event>
 8    1  0.4760912E-006  0.3153998E+03  0.7546771E-02  0.1077786E+00
         21   -1    0    0  504  503  0.00000000000E+00  0.00000000000E+00  0.94781255813E+02  0.94781255813E+02  0.00000000000E+00 0. -1.
         21   -1    0    0  503  504 -0.00000000000E+00 -0.00000000000E+00 -0.26238576921E+03  0.26238576921E+03  0.00000000000E+00 0. -1.
         25    2    1    2    0    0 -0.83224289244E+01  0.19817909101E+01 -0.19225745573E+03  0.22947297929E+03  0.12498691380E+03 0.  0.
         25    2    1    2    0    0  0.83224289244E+01 -0.19817909101E+01  0.24652942333E+02  0.12769404573E+03  0.12499924573E+03 0.  0.
          5    1    3    3  501    0 -0.93576115118E+01  0.16400031859E+02 -0.20722733722E+03  0.20813886045E+03  0.47000000000E+01 0.  1.
         -5    1    3    3    0  501  0.10351825874E+01 -0.14418240949E+02  0.14969881487E+02  0.21334118842E+02  0.47000000000E+01 0.  1.
          5    1    4    4  502    0 -0.16055292339E+02  0.44669060282E+02 -0.26143518511E+02  0.54393666164E+02  0.47000000000E+01 0.  1.
         -5    1    4    4    0  502  0.24377721263E+02 -0.46650851192E+02  0.50796460844E+02  0.73300379571E+02  0.47000000000E+01 0.  1.
<mgrwt>
<rscale>  0 0.31539976E+03</rscale>
<asrwt>0</asrwt>
<pdfrwt beam="1">  1       21 0.14581732E-01 0.31539976E+03</pdfrwt>
<pdfrwt beam="2">  1       21 0.40367041E-01 0.31539976E+03</pdfrwt>
<totfact> 0.23689304E+05</totfact>
</mgrwt>
</event>
<event>
 8    1  0.4760912E-006  0.2609125E+03  0.7546771E-02  0.1106596E+00
         21   -1    0    0  504  503  0.00000000000E+00  0.00000000000E+00  0.17222519415E+03  0.17222519415E+03  0.00000000000E+00 0.  1.
         21   -1    0    0  503  504 -0.00000000000E+00 -0.00000000000E+00 -0.98817334463E+02  0.98817334463E+02  0.00000000000E+00 0.  1.
         25    2    1    2    0    0  0.11979961964E+02 -0.17044783315E+01  0.11636532293E-01  0.12558451847E+03  0.12500018563E+03 0.  0.
         25    2    1    2    0    0 -0.11979961964E+02  0.17044783315E+01  0.73396223159E+02  0.14545801015E+03  0.12499840962E+03 0.  0.
          5    1    3    3  501    0  0.33761216062E+02 -0.19634068195E+02  0.52623640470E+02  0.65701247173E+02  0.47000000000E+01 0.  1.
         -5    1    3    3    0  501 -0.21781254098E+02  0.17929589864E+02 -0.52612003937E+02  0.59883271296E+02  0.47000000000E+01 0.  1.
          5    1    4    4  502    0 -0.33091150687E+02 -0.48295256665E+02  0.69280349891E+02  0.90825728465E+02  0.47000000000E+01 0.  1.
         -5    1    4    4    0  502  0.21111188723E+02  0.49999734997E+02  0.41158732681E+01  0.54632281682E+02  0.47000000000E+01 0.  1.
<mgrwt>
<rscale>  0 0.26091251E+03</rscale>
<asrwt>0</asrwt>
<pdfrwt beam="1">  1       21 0.26496184E-01 0.26091251E+03</pdfrwt>
<pdfrwt beam="2">  1       21 0.15202667E-01 0.26091251E+03</pdfrwt>
<totfact> 0.51206655E+05</totfact>
</mgrwt>
</event>
<event>
 8    1  0.4760912E-006  0.2773620E+03  0.7546771E-02  0.1097139E+00
         21   -1    0    0  504  503  0.00000000000E+00  0.00000000000E+00  0.60272167198E+03  0.60272167198E+03  0.00000000000E+00 0. -1.
         21   -1    0    0  503  504 -0.00000000000E+00 -0.00000000000E+00 -0.31909292374E+02  0.31909292374E+02  0.00000000000E+00 0. -1.
         25    2    1    2    0    0 -0.49970874009E+02 -0.25905180531E+02  0.33339008138E+03  0.36047440989E+03  0.12499874876E+03 0.  0.
         25    2    1    2    0    0  0.49970874009E+02  0.25905180531E+02  0.23742229822E+03  0.27415655446E+03  0.12499720811E+03 0.  0.
          5    1    3    3  501    0 -0.43213089772E+02 -0.75309352424E+02  0.21610541810E+03  0.23294315062E+03  0.47000000000E+01 0.  1.
         -5    1    3    3    0  501 -0.67577842370E+01  0.49404171893E+02  0.11728466329E+03  0.12753125927E+03  0.47000000000E+01 0.  1.
          5    1    4    4  502    0  0.53539153416E+02 -0.24490838864E+02  0.42566533625E+02  0.72802760398E+02  0.47000000000E+01 0. -1.
         -5    1    4    4    0  502 -0.35682794063E+01  0.50396019395E+02  0.19485576460E+03  0.20135379407E+03  0.47000000000E+01 0. -1.
<mgrwt>
<rscale>  0 0.27736202E+03</rscale>
<asrwt>0</asrwt>
<pdfrwt beam="1">  1       21 0.92726403E-01 0.27736202E+03</pdfrwt>
<pdfrwt beam="2">  1       21 0.49091223E-02 0.27736202E+03</pdfrwt>
<totfact> 0.26563835E+05</totfact>
</mgrwt>
</event>
<event>
 8    1  0.4760912E-006  0.3180436E+03  0.7546771E-02  0.1076553E+00
         21   -1    0    0  504  503  0.00000000000E+00  0.00000000000E+00  0.14645961733E+03  0.14645961733E+03  0.00000000000E+00 0.  1.
         21   -1    0    0  503  504 -0.00000000000E+00 -0.00000000000E+00 -0.17266151545E+03  0.17266151545E+03  0.00000000000E+00 0.  1.
         25    2    1    2    0    0 -0.86732055112E+02  0.16358462450E+02 -0.56545029206E+02  0.16311992442E+03  0.12498288178E+03 0.  0.
         25    2    1    2    0    0  0.86732055112E+02 -0.16358462450E+02  0.30343131090E+02  0.15600120836E+03  0.12500249089E+03 0.  0.
          5    1    3    3  501    0  0.15715054991E+02 -0.44629774560E+01 -0.55945416075E+02  0.58471024457E+02  0.47000000000E+01 0.  1.
         -5    1    3    3    0  501 -0.10244711010E+03  0.20821439906E+02 -0.59961313030E+00  0.10464889997E+03  0.47000000000E+01 0.  1.
          5    1    4    4  502    0  0.60078754125E+02 -0.63127171715E+01 -0.44896830533E+02  0.75413012718E+02  0.47000000000E+01 0.  1.
         -5    1    4    4    0  502  0.26653300986E+02 -0.10045745279E+02  0.75239961623E+02  0.80588195641E+02  0.47000000000E+01 0.  1.
<mgrwt>
<rscale>  0 0.31804364E+03</rscale>
<asrwt>0</asrwt>
<pdfrwt beam="1">  1       21 0.22532249E-01 0.31804364E+03</pdfrwt>
<pdfrwt beam="2">  1       21 0.26563310E-01 0.31804364E+03</pdfrwt>
<totfact> 0.24136507E+05</totfact>
</mgrwt>
</event>
<event>
 8    1  0.4760912E-006  0.2696769E+03  0.7546771E-02  0.1101465E+00
         21   -1    0    0  504  503  0.00000000000E+00  0.00000000000E+00  0.23343427346E+02  0.23343427346E+02  0.00000000000E+00 0.  1.
         21   -1    0    0  503  504 -0.00000000000E+00 -0.00000000000E+00 -0.77886638253E+03  0.77886638253E+03  0.00000000000E+00 0.  1.
         25    2    1    2    0    0 -0.47283449003E+02  0.46142647317E+01 -0.42920428600E+03  0.44955353114E+03  0.12500016899E+03 0.  0.
         25    2    1    2    0    0  0.47283449003E+02 -0.46142647317E+01 -0.32631866918E+03  0.35265627874E+03  0.12500224433E+03 0.  0.
          5    1    3    3  501    0 -0.70436431764E+02  0.17738423078E+02 -0.12886498143E+03  0.14800072977E+03  0.47000000000E+01 0. -1.
         -5    1    3    3    0  501  0.23152982761E+02 -0.13124158347E+02 -0.30033930457E+03  0.30155280137E+03  0.47000000000E+01 0. -1.
          5    1    4    4  502    0 -0.39982509524E+02  0.14716981608E+02 -0.13031482781E+03  0.13718321677E+03  0.47000000000E+01 0.  1.
         -5    1    4    4    0  502  0.87265958527E+02 -0.19331246339E+02 -0.19600384137E+03  0.21547306197E+03  0.47000000000E+01 0.  1.
<mgrwt>
<rscale>  0 0.26967692E+03</rscale>
<asrwt>0</asrwt>
<pdfrwt beam="1">  1       21 0.35912966E-02 0.26967692E+03</pdfrwt>
<pdfrwt beam="2">  1       21 0.11982559E+00 0.26967692E+03</pdfrwt>
<totfact> 0.24273593E+05</totfact>
</mgrwt>
</event>
<event>
 8    1  0.4760912E-006  0.2886808E+03  0.7546771E-02  0.1091040E+00
         21   -1    0    0  504  503  0.00000000000E+00  0.00000000000E+00  0.73497106927E+02  0.73497106927E+02  0.00000000000E+00 0. -1.
         21   -1    0    0  503  504 -0.00000000000E+00 -0.00000000000E+00 -0.28346894850E+03  0.28346894850E+03  0.00000000000E+00 0. -1.
         25    2    1    2    0    0 -0.51511801887E+02 -0.13236377084E+02 -0.16532888248E+03  0.21398066889E+03  0.12500167946E+03 0.  0.
         25    2    1    2    0    0  0.51511801887E+02  0.13236377084E+02 -0.44642959094E+02  0.14298538653E+03  0.12499263800E+03 0.  0.
          5    1    3    3  501    0 -0.83214785545E+02 -0.15173269181E+02 -0.16053443177E+03  0.18151672764E+03  0.47000000000E+01 0. -1.
         -5    1    3    3    0  501  0.31702983658E+02  0.19368920967E+01 -0.47944507070E+01  0.32463941249E+02  0.47000000000E+01 0. -1.
          5    1    4    4  502    0  0.23914435977E+02  0.68549266971E+02 -0.33089058525E+02  0.79924201869E+02  0.47000000000E+01 0. -1.
         -5    1    4    4    0  502  0.27597365910E+02 -0.55312889887E+02 -0.11553900569E+02  0.63061184663E+02  0.47000000000E+01 0. -1.
<mgrwt>
<rscale>  0 0.28868078E+03</rscale>
<asrwt>0</asrwt>
<pdfrwt beam="1">  1       21 0.11307247E-01 0.28868078E+03</pdfrwt>
<pdfrwt beam="2">  1       21 0.43610607E-01 0.28868078E+03</pdfrwt>
<totfact> 0.32251776E+05</totfact>
</mgrwt>
</event>
<event>
 8    1  0.4760912E-006  0.3814129E+03  0.7546771E-02  0.1050413E+00
         21   -1    0    0  504  503  0.00000000000E+00  0.00000000000E+00  0.63326496478E+02  0.63326496478E+02  0.00000000000E+00 0.  1.
         21   -1    0    0  503  504 -0.00000000000E+00 -0.00000000000E+00 -0.57430850723E+03  0.57430850723E+03  0.00000000000E+00 0.  1.
         25    2    1    2    0    0  0.11767928765E+03  0.54515145117E+02 -0.15076042277E+03  0.23488827432E+03  0.12499392205E+03 0.  0.
         25    2    1    2    0    0 -0.11767928765E+03 -0.54515145117E+02 -0.36022158799E+03  0.40274672939E+03  0.12500007917E+03 0.  0.
          5    1    3    3  501    0  0.25119053154E+02 -0.17333881950E+02 -0.10426109487E+03  0.10873774045E+03  0.47000000000E+01 0.  1.
         -5    1    3    3    0  501  0.92560234497E+02  0.71849027067E+02 -0.46499327898E+02  0.12615053387E+03  0.47000000000E+01 0.  1.
          5    1    4    4  502    0  0.13226848394E+02  0.23439711174E+02 -0.45955775737E+02  0.53463940202E+02  0.47000000000E+01 0.  1.
         -5    1    4    4    0  502 -0.13090613605E+03 -0.77954856291E+02 -0.31426581225E+03  0.34928278919E+03  0.47000000000E+01 0.  1.
<mgrwt>
<rscale>  0 0.38141288E+03</rscale>
<asrwt>0</asrwt>
<pdfrwt beam="1">  1       21 0.97425383E-02 0.38141288E+03</pdfrwt>
<pdfrwt beam="2">  1       21 0.88355151E-01 0.38141288E+03</pdfrwt>
<totfact> 0.87683831E+04</totfact>
</mgrwt>
</event>
<event>
 8    1  0.4760912E-006  0.2868380E+03  0.7546771E-02  0.1092012E+00
         21   -1    0    0  504  503  0.00000000000E+00  0.00000000000E+00  0.28225046929E+03  0.28225046929E+03  0.00000000000E+00 0. -1.
         21   -1    0    0  503  504 -0.00000000000E+00 -0.00000000000E+00 -0.72875045706E+02  0.72875045706E+02  0.00000000000E+00 0. -1.
         25    2    1    2    0    0  0.60246576414E+02 -0.35814783574E+02  0.97597953202E+02  0.17338523614E+03  0.12499892380E+03 0.  0.
         25    2    1    2    0    0 -0.60246576414E+02  0.35814783574E+02  0.11177747038E+03  0.18174027885E+03  0.12499190926E+03 0.  0.
          5    1    3    3  501    0 -0.23845752090E+02  0.27349548060E+02  0.36410079628E+02  0.51617841589E+02  0.47000000000E+01 0. -1.
         -5    1    3    3    0  501  0.84092328504E+02 -0.63164331633E+02  0.61187873574E+02  0.12176739455E+03  0.47000000000E+01 0. -1.
          5    1    4    4  502    0 -0.39318312261E+02 -0.44233793278E+02  0.35905940965E+02  0.69382164447E+02  0.47000000000E+01 0. -1.
         -5    1    4    4    0  502 -0.20928264153E+02  0.80048576851E+02  0.75871529412E+02  0.11235811440E+03  0.47000000000E+01 0. -1.
<mgrwt>
<rscale>  0 0.28683804E+03</rscale>
<asrwt>0</asrwt>
<pdfrwt beam="1">  1       21 0.43423148E-01 0.28683804E+03</pdfrwt>
<pdfrwt beam="2">  1       21 0.11211546E-01 0.28683804E+03</pdfrwt>
<totfact> 0.33052687E+05</totfact>
</mgrwt>
</event>
<event>
 8    1  0.4760912E-006  0.5910777E+03  0.7546771E-02  0.9924092E-01
         21   -1    0    0  504  503  0.00000000000E+00  0.00000000000E+00  0.27895827454E+03  0.27895827454E+03  0.00000000000E+00 0.  1.
         21   -1    0    0  503  504 -0.00000000000E+00 -0.00000000000E+00 -0.31310493530E+03  0.31310493530E+03  0.00000000000E+00 0.  1.
         25    2    1    2    0    0 -0.16660065494E+03  0.70260176818E+02 -0.21494355581E+03  0.30744713316E+03  0.12502294522E+03 0.  0.
         25    2    1    2    0    0  0.16660065494E+03 -0.70260176818E+02  0.18079689505E+03  0.28461607667E+03  0.12500609253E+03 0.  0.
          5    1    3    3  501    0 -0.12504214405E+03  0.99953649152E+02 -0.12213681985E+03  0.20140944002E+03  0.47000000000E+01 0.  1.
         -5    1    3    3    0  501 -0.41558510892E+02 -0.29693472334E+02 -0.92806735962E+02  0.10603769314E+03  0.47000000000E+01 0.  1.
          5    1    4    4  502    0  0.71996796696E+02 -0.85074798853E+02  0.14347132539E+03  0.18173434277E+03  0.47000000000E+01 0.  1.
         -5    1    4    4    0  502  0.94603858241E+02  0.14814622035E+02  0.37325569660E+02  0.10288173390E+03  0.47000000000E+01 0.  1.
<mgrwt>
<rscale>  0 0.59107770E+03</rscale>
<asrwt>0</asrwt>
<pdfrwt beam="1">  1       21 0.42916657E-01 0.59107770E+03</pdfrwt>
<pdfrwt beam="2">  1       21 0.48169990E-01 0.59107770E+03</pdfrwt>
<totfact> 0.18832301E+04</totfact>
</mgrwt>
</event>
<event>
 8    1  0.4760912E-006  0.5595280E+03  0.7546771E-02  0.9993123E-01
         21   -1    0    0  504  503  0.00000000000E+00  0.00000000000E+00  0.71971923199E+02  0.71971923199E+02  0.00000000000E+00 0. -1.
         21   -1    0    0  503  504 -0.00000000000E+00 -0.00000000000E+00 -0.10874783410E+04  0.10874783410E+04  0.00000000000E+00 0. -1.
         25    2    1    2    0    0  0.52053250774E+01 -0.44066176621E+02 -0.10181345374E+04  0.10267390366E+04  0.12500475883E+03 0.  0.
         25    2    1    2    0    0 -0.52053250774E+01  0.44066176621E+02  0.26281196512E+01  0.13271122753E+03  0.12504574990E+03 0.  0.
          5    1    3    3  501    0 -0.40106761127E+02  0.25478587290E+02 -0.29467107116E+03  0.29851438973E+03  0.47000000000E+01 0.  1.
         -5    1    3    3    0  501  0.45312086204E+02 -0.69544763912E+02 -0.72346346626E+03  0.72822464690E+03  0.47000000000E+01 0.  1.
          5    1    4    4  502    0  0.31921697573E+02 -0.75761711036E+01  0.45186825539E+02  0.56038668318E+02  0.47000000000E+01 0.  1.
         -5    1    4    4    0  502 -0.37127022651E+02  0.51642347725E+02 -0.42558705888E+02  0.76672559213E+02  0.47000000000E+01 0.  1.
<mgrwt>
<rscale>  0 0.55952804E+03</rscale>
<asrwt>0</asrwt>
<pdfrwt beam="1">  1       21 0.11072604E-01 0.55952804E+03</pdfrwt>
<pdfrwt beam="2">  1       21 0.16730436E+00 0.55952804E+03</pdfrwt>
<totfact> 0.12932907E+04</totfact>
</mgrwt>
</event>
<event>
 8    1  0.4760912E-006  0.2778836E+03  0.7546771E-02  0.1096850E+00
         21   -1    0    0  504  503  0.00000000000E+00  0.00000000000E+00  0.15036132694E+03  0.15036132694E+03  0.00000000000E+00 0. -1.
         21   -1    0    0  503  504 -0.00000000000E+00 -0.00000000000E+00 -0.12838960025E+03  0.12838960025E+03  0.00000000000E+00 0. -1.
         25    2    1    2    0    0 -0.22296383606E+01 -0.59159798143E+02  0.24371220710E+02  0.14044201864E+03  0.12500060478E+03 0.  0.
         25    2    1    2    0    0  0.22296383606E+01  0.59159798143E+02 -0.23994940261E+01  0.13830890855E+03  0.12497497193E+03 0.  0.
          5    1    3    3  501    0 -0.41890304550E+02 -0.41382837571E+01 -0.31220787777E+02  0.52618918624E+02  0.47000000000E+01 0. -1.
         -5    1    3    3    0  501  0.39660666190E+02 -0.55021514386E+02  0.55592008487E+02  0.87823100011E+02  0.47000000000E+01 0. -1.
          5    1    4    4  502    0 -0.21868274994E+02  0.15299122915E+01  0.51182096861E+02  0.55877178901E+02  0.47000000000E+01 0.  1.
         -5    1    4    4    0  502  0.24097913354E+02  0.57629885852E+02 -0.53581590887E+02  0.82431729652E+02  0.47000000000E+01 0.  1.
<mgrwt>
<rscale>  0 0.27788365E+03</rscale>
<asrwt>0</asrwt>
<pdfrwt beam="1">  1       21 0.23132512E-01 0.27788365E+03</pdfrwt>
<pdfrwt beam="2">  1       21 0.19752246E-01 0.27788365E+03</pdfrwt>
<totfact> 0.40754319E+05</totfact>
</mgrwt>
</event>
<event>
 8    1  0.4760912E-006  0.3084257E+03  0.7546771E-02  0.1081103E+00
         21   -1    0    0  504  503  0.00000000000E+00  0.00000000000E+00  0.36249051381E+03  0.36249051381E+03  0.00000000000E+00 0. -1.
         21   -1    0    0  503  504 -0.00000000000E+00 -0.00000000000E+00 -0.65606151646E+02  0.65606151646E+02  0.00000000000E+00 0. -1.
         25    2    1    2    0    0  0.36326186672E+02  0.82560453453E+02  0.15460869232E+03  0.21832322123E+03  0.12500144349E+03 0.  0.
         25    2    1    2    0    0 -0.36326186672E+02 -0.82560453453E+02  0.14227566984E+03  0.20977344422E+03  0.12500684525E+03 0.  0.
          5    1    3    3  501    0 -0.27154966276E+01  0.96429216304E+02  0.56918252554E+02  0.11210595503E+03  0.47000000000E+01 0.  1.
         -5    1    3    3    0  501  0.39041683300E+02 -0.13868762851E+02  0.97690439768E+02  0.10621726620E+03  0.47000000000E+01 0.  1.
          5    1    4    4  502    0 -0.15349564174E+02 -0.32767677027E+02 -0.17916044400E+02  0.40649777675E+02  0.47000000000E+01 0. -1.
         -5    1    4    4    0  502 -0.20976622499E+02 -0.49792776426E+02  0.16019171424E+03  0.16912366655E+03  0.47000000000E+01 0. -1.
<mgrwt>
<rscale>  0 0.30842573E+03</rscale>
<asrwt>0</asrwt>
<pdfrwt beam="1">  1       21 0.55767770E-01 0.30842573E+03</pdfrwt>
<pdfrwt beam="2">  1       21 0.10093254E-01 0.30842573E+03</pdfrwt>
<totfact> 0.23471141E+05</totfact>
</mgrwt>
</event>
<event>
 8    1  0.4760912E-006  0.2954223E+03  0.7546771E-02  0.1087552E+00
         21   -1    0    0  504  503  0.00000000000E+00  0.00000000000E+00  0.11035780593E+03  0.11035780593E+03  0.00000000000E+00 0.  1.
         21   -1    0    0  503  504 -0.00000000000E+00 -0.00000000000E+00 -0.19770760216E+03  0.19770760216E+03  0.00000000000E+00 0.  1.
         25    2    1    2    0    0  0.11215180309E+02  0.41452374727E+02  0.25109104688E+02  0.13452540973E+03  0.12499015596E+03 0.  0.
         25    2    1    2    0    0 -0.11215180309E+02 -0.41452374727E+02 -0.11245890092E+03  0.17353999835E+03  0.12500018798E+03 0.  0.
          5    1    3    3  501    0  0.63733467880E+02  0.38770232846E+02  0.31946627114E+02  0.81288147149E+02  0.47000000000E+01 0.  1.
         -5    1    3    3    0  501 -0.52518287572E+02  0.26821418803E+01 -0.68375224262E+01  0.53237262584E+02  0.47000000000E+01 0.  1.
          5    1    4    4  502    0 -0.46969987876E+02  0.27220812239E+02 -0.49967926804E+02  0.73932645625E+02  0.47000000000E+01 0.  1.
         -5    1    4    4    0  502  0.35754807568E+02 -0.68673186966E+02 -0.62490974112E+02  0.99607352729E+02  0.47000000000E+01 0.  1.
<mgrwt>
<rscale>  0 0.29542226E+03</rscale>
<asrwt>0</asrwt>
<pdfrwt beam="1">  1       21 0.16978124E-01 0.29542226E+03</pdfrwt>
<pdfrwt beam="2">  1       21 0.30416554E-01 0.29542226E+03</pdfrwt>
<totfact> 0.31692474E+05</totfact>
</mgrwt>
</event>
<event>
 8    1  0.4760912E-006  0.6043300E+03  0.7546771E-02  0.9896463E-01
         21   -1    0    0  504  503  0.00000000000E+00  0.00000000000E+00  0.83451022289E+03  0.83451022289E+03  0.00000000000E+00 0. -1.
         21   -1    0    0  503  504 -0.00000000000E+00 -0.00000000000E+00 -0.10940989102E+03  0.10940989102E+03  0.00000000000E+00 0. -1.
         25    2    1    2    0    0  0.90846776938E+02  0.14014876474E+03  0.21123057442E+02  0.20967972616E+03  0.12499836347E+03 0.  0.
         25    2    1    2    0    0 -0.90846776938E+02 -0.14014876474E+03  0.70397727444E+03  0.73424038775E+03  0.12502052207E+03 0.  0.
          5    1    3    3  501    0  0.83836896694E+02  0.10281321788E+03 -0.39044711092E+02  0.13836821341E+03  0.47000000000E+01 0.  1.
         -5    1    3    3    0  501  0.70098802435E+01  0.37335546857E+02  0.60167768534E+02  0.71311512749E+02  0.47000000000E+01 0.  1.
          5    1    4    4  502    0 -0.68243737643E+02 -0.49327958300E+02  0.52965338624E+03  0.53632569839E+03  0.47000000000E+01 0.  1.
         -5    1    4    4    0  502 -0.22603039295E+02 -0.90820806440E+02  0.17432388819E+03  0.19791468936E+03  0.47000000000E+01 0.  1.
<mgrwt>
<rscale>  0 0.60432995E+03</rscale>
<asrwt>0</asrwt>
<pdfrwt beam="1">  1       21 0.12838618E+00 0.60432995E+03</pdfrwt>
<pdfrwt beam="2">  1       21 0.16832291E-01 0.60432995E+03</pdfrwt>
<totfact> 0.12122667E+04</totfact>
</mgrwt>
</event>
<event>
 8    1  0.4760912E-006  0.4313135E+03  0.7546771E-02  0.1033446E+00
         21   -1    0    0  504  503  0.00000000000E+00  0.00000000000E+00  0.91538551270E+03  0.91538551270E+03  0.00000000000E+00 0. -1.
         21   -1    0    0  503  504 -0.00000000000E+00 -0.00000000000E+00 -0.50806834681E+02  0.50806834681E+02  0.00000000000E+00 0. -1.
         25    2    1    2    0    0  0.13789340174E+02  0.71766856023E+02  0.74262459267E+02  0.16272202006E+03  0.12499166144E+03 0.  0.
         25    2    1    2    0    0 -0.13789340174E+02 -0.71766856023E+02  0.79031621875E+03  0.80347032732E+03  0.12499685491E+03 0.  0.
          5    1    3    3  501    0  0.18762213156E+02  0.27986550622E+01 -0.31027126408E+02  0.36669138056E+02  0.47000000000E+01 0. -1.
         -5    1    3    3    0  501 -0.49728729818E+01  0.68968200961E+02  0.10528958568E+03  0.12605288200E+03  0.47000000000E+01 0. -1.
          5    1    4    4  502    0 -0.51159763105E+02  0.55954227001E+01  0.42640375450E+03  0.42952401792E+03  0.47000000000E+01 0. -1.
         -5    1    4    4    0  502  0.37370422930E+02 -0.77362278723E+02  0.36391246425E+03  0.37394630940E+03  0.47000000000E+01 0. -1.
<mgrwt>
<rscale>  0 0.43131353E+03</rscale>
<asrwt>0</asrwt>
<pdfrwt beam="1">  1       21 0.14082853E+00 0.43131353E+03</pdfrwt>
<pdfrwt beam="2">  1       21 0.78164368E-02 0.43131353E+03</pdfrwt>
<totfact> 0.40122517E+04</totfact>
</mgrwt>
</event>
<event>
 8    1  0.4760912E-006  0.3343977E+03  0.7546771E-02  0.1069207E+00
         21   -1    0    0  504  503  0.00000000000E+00  0.00000000000E+00  0.54701993502E+02  0.54701993502E+02  0.00000000000E+00 0. -1.
         21   -1    0    0  503  504 -0.00000000000E+00 -0.00000000000E+00 -0.51105016437E+03  0.51105016437E+03  0.00000000000E+00 0. -1.
         25    2    1    2    0    0  0.89211967880E+02 -0.35115254065E+02 -0.32295649264E+03  0.35932998708E+03  0.12500114877E+03 0.  0.
         25    2    1    2    0    0 -0.89211967880E+02  0.35115254065E+02 -0.13339167823E+03  0.20642217080E+03  0.12499966598E+03 0.  0.
          5    1    3    3  501    0  0.11307634646E+03  0.16678360630E+01 -0.24129039295E+03  0.26651864012E+03  0.47000000000E+01 0.  1.
         -5    1    3    3    0  501 -0.23864378577E+02 -0.36783090128E+02 -0.81666099693E+02  0.92811346953E+02  0.47000000000E+01 0.  1.
          5    1    4    4  502    0 -0.83191033647E+02  0.19981560502E+02 -0.15203446476E+02  0.87024396718E+02  0.47000000000E+01 0.  1.
         -5    1    4    4    0  502 -0.60209342326E+01  0.15133693563E+02 -0.11818823176E+03  0.11939777408E+03  0.47000000000E+01 0.  1.
<mgrwt>
<rscale>  0 0.33439774E+03</rscale>
<asrwt>0</asrwt>
<pdfrwt beam="1">  1       21 0.84156914E-02 0.33439774E+03</pdfrwt>
<pdfrwt beam="2">  1       21 0.78623101E-01 0.33439774E+03</pdfrwt>
<totfact> 0.15072678E+05</totfact>
</mgrwt>
</event>
<event>
 8    1  0.4760912E-006  0.2567038E+03  0.7546771E-02  0.1109140E+00
         21   -1    0    0  504  503  0.00000000000E+00  0.00000000000E+00  0.21204297337E+02  0.21204297337E+02  0.00000000000E+00 0.  1.
         21   -1    0    0  503  504 -0.00000000000E+00 -0.00000000000E+00 -0.77692819306E+03  0.77692819306E+03  0.00000000000E+00 0.  1.
         25    2    1    2    0    0  0.25647764939E+01  0.89845953456E+00 -0.46802941843E+03  0.48444213212E+03  0.12500103019E+03 0.  0.
         25    2    1    2    0    0 -0.25647764939E+01 -0.89845953456E+00 -0.28769447729E+03  0.31369035828E+03  0.12500457313E+03 0.  0.
          5    1    3    3  501    0  0.33784886429E+02 -0.44728586555E+02 -0.34398379837E+03  0.34855273424E+03  0.47000000000E+01 0. -1.
         -5    1    3    3    0  501 -0.31220109935E+02  0.45627046090E+02 -0.12404562006E+03  0.13588939787E+03  0.47000000000E+01 0. -1.
          5    1    4    4  502    0 -0.63379263624E+01  0.36520064595E+02 -0.18228916471E+02  0.41572440683E+02  0.47000000000E+01 0.  1.
         -5    1    4    4    0  502  0.37731498685E+01 -0.37418524130E+02 -0.26946556082E+03  0.27211791759E+03  0.47000000000E+01 0.  1.
<mgrwt>
<rscale>  0 0.25670385E+03</rscale>
<asrwt>0</asrwt>
<pdfrwt beam="1">  1       21 0.32622003E-02 0.25670385E+03</pdfrwt>
<pdfrwt beam="2">  1       21 0.11952739E+00 0.25670385E+03</pdfrwt>
<totfact> 0.28796145E+05</totfact>
</mgrwt>
</event>
<event>
 8    1  0.4760912E-006  0.3018065E+03  0.7546771E-02  0.1084341E+00
         21   -1    0    0  504  503  0.00000000000E+00  0.00000000000E+00  0.13688103779E+03  0.13688103779E+03  0.00000000000E+00 0. -1.
         21   -1    0    0  503  504 -0.00000000000E+00 -0.00000000000E+00 -0.16636187141E+03  0.16636187141E+03  0.00000000000E+00 0. -1.
         25    2    1    2    0    0  0.25244080883E+01  0.49453436481E+02  0.54103853337E+02  0.14493078089E+03  0.12500275712E+03 0.  0.
         25    2    1    2    0    0 -0.25244080883E+01 -0.49453436481E+02 -0.83584686952E+02  0.15831212830E+03  0.12499726020E+03 0.  0.
          5    1    3    3  501    0 -0.16546311646E+02  0.72465180148E+02 -0.89302118056E+01  0.75012141990E+02  0.47000000000E+01 0. -1.
         -5    1    3    3    0  501  0.19070719735E+02 -0.23011743667E+02  0.63034065143E+02  0.69918638904E+02  0.47000000000E+01 0. -1.
          5    1    4    4  502    0  0.17651619305E+02  0.37990024365E+02 -0.41239037492E+02  0.58970923587E+02  0.47000000000E+01 0. -1.
         -5    1    4    4    0  502 -0.20176027394E+02 -0.87443460846E+02 -0.42345649459E+02  0.99341204715E+02  0.47000000000E+01 0. -1.
<mgrwt>
<rscale>  0 0.30180647E+03</rscale>
<asrwt>0</asrwt>
<pdfrwt beam="1">  1       21 0.21058621E-01 0.30180647E+03</pdfrwt>
<pdfrwt beam="2">  1       21 0.25594134E-01 0.30180647E+03</pdfrwt>
<totfact> 0.29598476E+05</totfact>
</mgrwt>
</event>
<event>
 8    1  0.4760912E-006  0.2635755E+03  0.7546771E-02  0.1105014E+00
         21   -1    0    0  504  503  0.00000000000E+00  0.00000000000E+00  0.35167011346E+02  0.35167011346E+02  0.00000000000E+00 0.  1.
         21   -1    0    0  503  504 -0.00000000000E+00 -0.00000000000E+00 -0.49387227619E+03  0.49387227619E+03  0.00000000000E+00 0.  1.
         25    2    1    2    0    0  0.30949331905E+02  0.19464989952E+02 -0.18872147304E+03  0.22928436971E+03  0.12497512084E+03 0.  0.
         25    2    1    2    0    0 -0.30949331905E+02 -0.19464989952E+02 -0.26998379181E+03  0.29975491783E+03  0.12500006378E+03 0.  0.
          5    1    3    3  501    0  0.72558331187E+02  0.63130345113E+01 -0.16255092616E+03  0.17818377992E+03  0.47000000000E+01 0.  1.
         -5    1    3    3    0  501 -0.41608999282E+02  0.13151955441E+02 -0.26170546873E+02  0.51100589789E+02  0.47000000000E+01 0.  1.
          5    1    4    4  502    0  0.43444166159E+02 -0.18640367572E+02 -0.57575541383E+02  0.74645105948E+02  0.47000000000E+01 0. -1.
         -5    1    4    4    0  502 -0.74393498064E+02 -0.82462238058E+00 -0.21240825042E+03  0.22510981188E+03  0.47000000000E+01 0. -1.
<mgrwt>
<rscale>  0 0.26357551E+03</rscale>
<asrwt>0</asrwt>
<pdfrwt beam="1">  1       21 0.54103095E-02 0.26357551E+03</pdfrwt>
<pdfrwt beam="2">  1       21 0.75980350E-01 0.26357551E+03</pdfrwt>
<totfact> 0.35705045E+05</totfact>
</mgrwt>
</event>
<event>
 8    1  0.4760912E-006  0.4985972E+03  0.7546771E-02  0.1014146E+00
         21   -1    0    0  504  503  0.00000000000E+00  0.00000000000E+00  0.10109605587E+03  0.10109605587E+03  0.00000000000E+00 0. -1.
         21   -1    0    0  503  504 -0.00000000000E+00 -0.00000000000E+00 -0.61475991299E+03  0.61475991299E+03  0.00000000000E+00 0. -1.
         25    2    1    2    0    0 -0.64755348816E+02 -0.16703386373E+03 -0.42929715311E+03  0.48168050677E+03  0.12500599227E+03 0.  0.
         25    2    1    2    0    0  0.64755348816E+02  0.16703386373E+03 -0.84366704010E+02  0.23417546210E+03  0.12500735766E+03 0.  0.
          5    1    3    3  501    0 -0.19463639433E+02 -0.17145451183E+03 -0.33394420255E+03  0.37592060771E+03  0.47000000000E+01 0. -1.
         -5    1    3    3    0  501 -0.45291709382E+02  0.44206480995E+01 -0.95352950562E+02  0.10575989906E+03  0.47000000000E+01 0. -1.
          5    1    4    4  502    0  0.80879174920E+02  0.63302461269E+02 -0.58147715716E+01  0.10297836718E+03  0.47000000000E+01 0.  1.
         -5    1    4    4    0  502 -0.16123826104E+02  0.10373140246E+03 -0.78551932438E+02  0.13119709492E+03  0.47000000000E+01 0.  1.
<mgrwt>
<rscale>  0 0.49859724E+03</rscale>
<asrwt>0</asrwt>
<pdfrwt beam="1">  1       21 0.15553240E-01 0.49859724E+03</pdfrwt>
<pdfrwt beam="2">  1       21 0.94578446E-01 0.49859724E+03</pdfrwt>
<totfact> 0.30911710E+04</totfact>
</mgrwt>
</event>
<event>
 8    1  0.4760912E-006  0.3229855E+03  0.7546771E-02  0.1074283E+00
         21   -1    0    0  504  503  0.00000000000E+00  0.00000000000E+00  0.13849404129E+03  0.13849404129E+03  0.00000000000E+00 0.  1.
         21   -1    0    0  503  504 -0.00000000000E+00 -0.00000000000E+00 -0.18831071593E+03  0.18831071593E+03  0.00000000000E+00 0.  1.
         25    2    1    2    0    0 -0.78757629079E+02 -0.10542680842E+02  0.40196637452E+02  0.15347787528E+03  0.12500310508E+03 0.  0.
         25    2    1    2    0    0  0.78757629079E+02  0.10542680842E+02 -0.90013312097E+02  0.17332688194E+03  0.12500359751E+03 0.  0.
          5    1    3    3  501    0 -0.99302079571E+02  0.53876253325E+01 -0.65587593808E+01  0.99774930912E+02  0.47000000000E+01 0. -1.
         -5    1    3    3    0  501  0.20544450492E+02 -0.15930306174E+02  0.46755396833E+02  0.53702944368E+02  0.47000000000E+01 0. -1.
          5    1    4    4  502    0  0.23915262985E+02 -0.47596623526E+02 -0.83255912649E+00  0.53480478021E+02  0.47000000000E+01 0. -1.
         -5    1    4    4    0  502  0.54842366094E+02  0.58139304368E+02 -0.89180752971E+02  0.11984640392E+03  0.47000000000E+01 0. -1.
<mgrwt>
<rscale>  0 0.32298552E+03</rscale>
<asrwt>0</asrwt>
<pdfrwt beam="1">  1       21 0.21306776E-01 0.32298552E+03</pdfrwt>
<pdfrwt beam="2">  1       21 0.28970879E-01 0.32298552E+03</pdfrwt>
<totfact> 0.22641314E+05</totfact>
</mgrwt>
</event>
<event>
 8    1  0.4760912E-006  0.2803957E+03  0.7546771E-02  0.1095473E+00
         21   -1    0    0  504  503  0.00000000000E+00  0.00000000000E+00  0.53100338800E+01  0.53100338800E+01  0.00000000000E+00 0.  1.
         21   -1    0    0  503  504 -0.00000000000E+00 -0.00000000000E+00 -0.37015644675E+04  0.37015644675E+04  0.00000000000E+00 0.  1.
         25    2    1    2    0    0  0.37268119151E+02 -0.39335668813E+02 -0.22856240608E+04  0.22896809644E+04  0.12500145672E+03 0.  0.
         25    2    1    2    0    0 -0.37268119151E+02  0.39335668813E+02 -0.14106303729E+04  0.14171935369E+04  0.12499305902E+03 0.  0.
          5    1    3    3  501    0  0.80448842241E+02 -0.45212721589E+02 -0.15398433249E+04  0.15426132898E+04  0.47000000000E+01 0.  1.
         -5    1    3    3    0  501 -0.43180723089E+02  0.58770527757E+01 -0.74578073584E+03  0.74706767467E+03  0.47000000000E+01 0.  1.
          5    1    4    4  502    0  0.18567831857E+02 -0.36762736034E+02 -0.47287520598E+03  0.47468864908E+03  0.47000000000E+01 0. -1.
         -5    1    4    4    0  502 -0.55835951008E+02  0.76098404847E+02 -0.93775516688E+03  0.94250488786E+03  0.47000000000E+01 0. -1.
<mgrwt>
<rscale>  0 0.28039567E+03</rscale>
<asrwt>0</asrwt>
<pdfrwt beam="1">  1       21 0.81692506E-03 0.28039567E+03</pdfrwt>
<pdfrwt beam="2">  1       21 0.56947370E+00 0.28039567E+03</pdfrwt>
<totfact> 0.27346410E+03</totfact>
</mgrwt>
</event>
<event>
 8    1  0.4760912E-006  0.4033873E+03  0.7546771E-02  0.1042613E+00
         21   -1    0    0  504  503  0.00000000000E+00  0.00000000000E+00  0.98935909156E+02  0.98935909156E+02  0.00000000000E+00 0. -1.
         21   -1    0    0  503  504 -0.00000000000E+00 -0.00000000000E+00 -0.41117854260E+03  0.41117854260E+03  0.00000000000E+00 0. -1.
         25    2    1    2    0    0  0.95666332219E+02 -0.11485378823E+03 -0.90184097662E+02  0.21468530598E+03  0.12495266841E+03 0.  0.
         25    2    1    2    0    0 -0.95666332219E+02  0.11485378823E+03 -0.22205853578E+03  0.29542914577E+03  0.12499978826E+03 0.  0.
          5    1    3    3  501    0  0.11671896880E+03 -0.57137255035E+02 -0.78727609440E+02  0.15201351940E+03  0.47000000000E+01 0.  1.
         -5    1    3    3    0  501 -0.21052636583E+02 -0.57716533200E+02 -0.11456488222E+02  0.62671786588E+02  0.47000000000E+01 0.  1.
          5    1    4    4  502    0 -0.64765530037E+02  0.39329866155E+02 -0.19511884427E+03  0.20936777604E+03  0.47000000000E+01 0. -1.
         -5    1    4    4    0  502 -0.30900802183E+02  0.75523922080E+02 -0.26939691511E+02  0.86061369734E+02  0.47000000000E+01 0. -1.
<mgrwt>
<rscale>  0 0.40338727E+03</rscale>
<asrwt>0</asrwt>
<pdfrwt beam="1">  1       21 0.15220909E-01 0.40338727E+03</pdfrwt>
<pdfrwt beam="2">  1       21 0.63258237E-01 0.40338727E+03</pdfrwt>
<totfact> 0.82808528E+04</totfact>
</mgrwt>
</event>
<event>
 8    1  0.4760912E-006  0.2889914E+03  0.7546771E-02  0.1090877E+00
         21   -1    0    0  504  503  0.00000000000E+00  0.00000000000E+00  0.13635060094E+03  0.13635060094E+03  0.00000000000E+00 0. -1.
         21   -1    0    0  503  504 -0.00000000000E+00 -0.00000000000E+00 -0.15312731536E+03  0.15312731536E+03  0.00000000000E+00 0. -1.
         25    2    1    2    0    0 -0.12498192432E+02 -0.31813713204E+02 -0.72416816223E+02  0.14845074102E+03  0.12500044030E+03 0.  0.
         25    2    1    2    0    0  0.12498192432E+02  0.31813713204E+02  0.55640101812E+02  0.14102717528E+03  0.12499810429E+03 0.  0.
          5    1    3    3  501    0 -0.54291299706E+02  0.21839281275E+02 -0.48679206326E+02  0.76264372802E+02  0.47000000000E+01 0.  1.
         -5    1    3    3    0  501  0.41793107274E+02 -0.53652994479E+02 -0.23737609898E+02  0.72186368214E+02  0.47000000000E+01 0.  1.
          5    1    4    4  502    0  0.66096566455E+02  0.34470417024E+02  0.40989423203E+02  0.85200871835E+02  0.47000000000E+01 0. -1.
         -5    1    4    4    0  502 -0.53598374023E+02 -0.26567038200E+01  0.14650678609E+02  0.55826303449E+02  0.47000000000E+01 0. -1.
<mgrwt>
<rscale>  0 0.28899136E+03</rscale>
<asrwt>0</asrwt>
<pdfrwt beam="1">  1       21 0.20977016E-01 0.28899136E+03</pdfrwt>
<pdfrwt beam="2">  1       21 0.23558048E-01 0.28899136E+03</pdfrwt>
<totfact> 0.35060245E+05</totfact>
</mgrwt>
</event>
<event>
 8    1  0.4760912E-006  0.4141580E+03  0.7546771E-02  0.1038985E+00
         21   -1    0    0  504  503  0.00000000000E+00  0.00000000000E+00  0.57477135284E+03  0.57477135284E+03  0.00000000000E+00 0.  1.
         21   -1    0    0  503  504 -0.00000000000E+00 -0.00000000000E+00 -0.74606560113E+02  0.74606560113E+02  0.00000000000E+00 0.  1.
         25    2    1    2    0    0  0.97876405259E+02 -0.34273726120E+02  0.45150215724E+03  0.47982658919E+03  0.12499951476E+03 0.  0.
         25    2    1    2    0    0 -0.97876405259E+02  0.34273726120E+02  0.48662635483E+02  0.16955132376E+03  0.12500048115E+03 0.  0.
          5    1    3    3  501    0  0.95566588133E+02  0.21588616596E+02  0.35395451570E+03  0.36729406518E+03  0.47000000000E+01 0.  1.
         -5    1    3    3    0  501  0.23098171267E+01 -0.55862342716E+02  0.97547641543E+02  0.11253252401E+03  0.47000000000E+01 0.  1.
          5    1    4    4  502    0 -0.60228194848E+02  0.91172987443E+01 -0.37795303624E+02  0.71841043750E+02  0.47000000000E+01 0.  1.
         -5    1    4    4    0  502 -0.37648210412E+02  0.25156427376E+02  0.86457939107E+02  0.97710280013E+02  0.47000000000E+01 0.  1.
<mgrwt>
<rscale>  0 0.41415801E+03</rscale>
<asrwt>0</asrwt>
<pdfrwt beam="1">  1       21 0.88426359E-01 0.41415801E+03</pdfrwt>
<pdfrwt beam="2">  1       21 0.11477933E-01 0.41415801E+03</pdfrwt>
<totfact> 0.64641256E+04</totfact>
</mgrwt>
</event>
<event>
 8    1  0.4760912E-006  0.4488806E+03  0.7546771E-02  0.1028056E+00
         21   -1    0    0  504  503  0.00000000000E+00  0.00000000000E+00  0.10730877434E+04  0.10730877434E+04  0.00000000000E+00 0. -1.
         21   -1    0    0  503  504 -0.00000000000E+00 -0.00000000000E+00 -0.46942521346E+02  0.46942521346E+02  0.00000000000E+00 0. -1.
         25    2    1    2    0    0 -0.16340662609E+03  0.33953764912E+01  0.73672749813E+03  0.76492420535E+03  0.12501351686E+03 0.  0.
         25    2    1    2    0    0  0.16340662609E+03 -0.33953764912E+01  0.28941772389E+03  0.35510605936E+03  0.12499776183E+03 0.  0.
          5    1    3    3  501    0 -0.13326274582E+02  0.28420034156E+02  0.36627692647E+02  0.48466130486E+02  0.47000000000E+01 0. -1.
         -5    1    3    3    0  501 -0.15008035151E+03 -0.25024657665E+02  0.70009980548E+03  0.71645807486E+03  0.47000000000E+01 0. -1.
          5    1    4    4  502    0  0.10468158059E+02  0.24449114302E+02  0.52781677427E+00  0.27013147056E+02  0.47000000000E+01 0.  1.
         -5    1    4    4    0  502  0.15293846803E+03 -0.27844490794E+02  0.28888990712E+03  0.32809291231E+03  0.47000000000E+01 0.  1.
<mgrwt>
<rscale>  0 0.44888058E+03</rscale>
<asrwt>0</asrwt>
<pdfrwt beam="1">  1       21 0.16509040E+00 0.44888058E+03</pdfrwt>
<pdfrwt beam="2">  1       21 0.72219272E-02 0.44888058E+03</pdfrwt>
<totfact> 0.29728323E+04</totfact>
</mgrwt>
</event>
<event>
 8    1  0.4760912E-006  0.2973909E+03  0.7546771E-02  0.1086552E+00
         21   -1    0    0  504  503  0.00000000000E+00  0.00000000000E+00  0.10923935919E+04  0.10923935919E+04  0.00000000000E+00 0. -1.
         21   -1    0    0  503  504 -0.00000000000E+00 -0.00000000000E+00 -0.20240262071E+02  0.20240262071E+02  0.00000000000E+00 0. -1.
         25    2    1    2    0    0  0.16782387302E+01 -0.80504624130E+02  0.53144818359E+03  0.55185750605E+03  0.12500289659E+03 0.  0.
         25    2    1    2    0    0 -0.16782387302E+01  0.80504624130E+02  0.54070514623E+03  0.56077634790E+03  0.12499698485E+03 0.  0.
          5    1    3    3  501    0 -0.40497434612E+02 -0.77168958880E+02  0.20725718048E+03  0.22488379062E+03  0.47000000000E+01 0. -1.
         -5    1    3    3    0  501  0.42175673342E+02 -0.33356652500E+01  0.32419100311E+03  0.32697371543E+03  0.47000000000E+01 0. -1.
          5    1    4    4  502    0  0.59146495020E+02  0.28377132082E+02  0.29719985004E+03  0.30439022711E+03  0.47000000000E+01 0. -1.
         -5    1    4    4    0  502 -0.60824733750E+02  0.52127492048E+02  0.24350529619E+03  0.25638612079E+03  0.47000000000E+01 0. -1.
<mgrwt>
<rscale>  0 0.29739087E+03</rscale>
<asrwt>0</asrwt>
<pdfrwt beam="1">  1       21 0.16806051E+00 0.29739087E+03</pdfrwt>
<pdfrwt beam="2">  1       21 0.31138873E-02 0.29739087E+03</pdfrwt>
<totfact> 0.12543234E+05</totfact>
</mgrwt>
</event>
<event>
 8    1  0.4760912E-006  0.3171320E+03  0.7546771E-02  0.1076977E+00
         21   -1    0    0  504  503  0.00000000000E+00  0.00000000000E+00  0.62655971889E+03  0.62655971889E+03  0.00000000000E+00 0. -1.
         21   -1    0    0  503  504 -0.00000000000E+00 -0.00000000000E+00 -0.40128937036E+02  0.40128937036E+02  0.00000000000E+00 0. -1.
         25    2    1    2    0    0  0.19970199853E+02 -0.94529417890E+02  0.32162773002E+03  0.35833603027E+03  0.12500277656E+03 0.  0.
         25    2    1    2    0    0 -0.19970199853E+02  0.94529417890E+02  0.26480305183E+03  0.30835262565E+03  0.12500426295E+03 0.  0.
          5    1    3    3  501    0  0.47178093841E+01  0.28645723419E+02  0.33501595407E+02  0.44578942230E+02  0.47000000000E+01 0. -1.
         -5    1    3    3    0  501  0.15252390469E+02 -0.12317514131E+03  0.28812613461E+03  0.31375708804E+03  0.47000000000E+01 0. -1.
          5    1    4    4  502    0  0.13969835405E+02  0.46399807354E+02  0.13960765675E+02  0.50646731405E+02  0.47000000000E+01 0.  1.
         -5    1    4    4    0  502 -0.33940035258E+02  0.48129610536E+02  0.25084228616E+03  0.25770589424E+03  0.47000000000E+01 0.  1.
<mgrwt>
<rscale>  0 0.31713199E+03</rscale>
<asrwt>0</asrwt>
<pdfrwt beam="1">  1       21 0.96393796E-01 0.31713199E+03</pdfrwt>
<pdfrwt beam="2">  1       21 0.61736831E-02 0.31713199E+03</pdfrwt>
<totfact> 0.16180981E+05</totfact>
</mgrwt>
</event>
<event>
 8    1  0.4760912E-006  0.3011010E+03  0.7546771E-02  0.1084692E+00
         21   -1    0    0  504  503  0.00000000000E+00  0.00000000000E+00  0.71564140151E+03  0.71564140151E+03  0.00000000000E+00 0. -1.
         21   -1    0    0  503  504 -0.00000000000E+00 -0.00000000000E+00 -0.31671526068E+02  0.31671526068E+02  0.00000000000E+00 0. -1.
         25    2    1    2    0    0  0.64336891303E+02  0.52799032190E+02  0.36844380551E+03  0.39787526324E+03  0.12500765534E+03 0.  0.
         25    2    1    2    0    0 -0.64336891303E+02 -0.52799032190E+02  0.31552606993E+03  0.34943766434E+03  0.12499202803E+03 0.  0.
          5    1    3    3  501    0 -0.20660118494E+02  0.45036651781E+02  0.60785462635E+02  0.78562732689E+02  0.47000000000E+01 0.  1.
         -5    1    3    3    0  501  0.84997009797E+02  0.77623804094E+01  0.30765834288E+03  0.31931253055E+03  0.47000000000E+01 0.  1.
          5    1    4    4  502    0 -0.61188806231E+02 -0.86499589759E+02  0.28316113660E+03  0.30237157326E+03  0.47000000000E+01 0. -1.
         -5    1    4    4    0  502 -0.31480850721E+01  0.33700557568E+02  0.32364933336E+02  0.47066091083E+02  0.47000000000E+01 0. -1.
<mgrwt>
<rscale>  0 0.30110101E+03</rscale>
<asrwt>0</asrwt>
<pdfrwt beam="1">  1       21 0.11009866E+00 0.30110101E+03</pdfrwt>
<pdfrwt beam="2">  1       21 0.48725430E-02 0.30110101E+03</pdfrwt>
<totfact> 0.17693582E+05</totfact>
</mgrwt>
</event>
<event>
 8    1  0.4760912E-006  0.2774395E+03  0.7546771E-02  0.1097096E+00
         21   -1    0    0  504  503  0.00000000000E+00  0.00000000000E+00  0.14248534786E+04  0.14248534786E+04  0.00000000000E+00 0.  1.
         21   -1    0    0  503  504 -0.00000000000E+00 -0.00000000000E+00 -0.13505369867E+02  0.13505369867E+02  0.00000000000E+00 0.  1.
         25    2    1    2    0    0  0.12321861314E+02 -0.38086131042E+02  0.93834317949E+03  0.94747846621E+03  0.12500055917E+03 0.  0.
         25    2    1    2    0    0 -0.12321861314E+02  0.38086131042E+02  0.47300492923E+03  0.49088038224E+03  0.12501001940E+03 0.  0.
          5    1    3    3  501    0  0.63101516159E+02 -0.14886358277E+02  0.68164331366E+03  0.68473578997E+03  0.47000000000E+01 0.  1.
         -5    1    3    3    0  501 -0.50779654845E+02 -0.23199772765E+02  0.25669986582E+03  0.26274267624E+03  0.47000000000E+01 0.  1.
          5    1    4    4  502    0 -0.63216629572E+02  0.47597713990E+00  0.29948903915E+03  0.30612471867E+03  0.47000000000E+01 0. -1.
         -5    1    4    4    0  502  0.50894768258E+02  0.37610153903E+02  0.17351589008E+03  0.18475566358E+03  0.47000000000E+01 0. -1.
<mgrwt>
<rscale>  0 0.27743953E+03</rscale>
<asrwt>0</asrwt>
<pdfrwt beam="1">  1       21 0.21920811E+00 0.27743953E+03</pdfrwt>
<pdfrwt beam="2">  1       21 0.20777503E-02 0.27743953E+03</pdfrwt>
<totfact> 0.11254679E+05</totfact>
</mgrwt>
</event>
<event>
 8    1  0.4760912E-006  0.2618436E+03  0.7546771E-02  0.1106041E+00
         21   -1    0    0  504  503  0.00000000000E+00  0.00000000000E+00  0.21092921197E+04  0.21092921197E+04  0.00000000000E+00 0. -1.
         21   -1    0    0  503  504 -0.00000000000E+00 -0.00000000000E+00 -0.81261944606E+01  0.81261944606E+01  0.00000000000E+00 0. -1.
         25    2    1    2    0    0  0.98178086195E+00 -0.25393185112E+02  0.81202343636E+03  0.82198100051E+03  0.12499970503E+03 0.  0.
         25    2    1    2    0    0 -0.98178086195E+00  0.25393185112E+02  0.12891424888E+04  0.12954373136E+04  0.12499479677E+03 0.  0.
          5    1    3    3  501    0 -0.18034414653E+02  0.52028682473E+00  0.14046606819E+02  0.23343263983E+02  0.47000000000E+01 0. -1.
         -5    1    3    3    0  501  0.19016195515E+02 -0.25913471937E+02  0.79797682955E+03  0.79863773653E+03  0.47000000000E+01 0. -1.
          5    1    4    4  502    0 -0.61173680936E+01  0.56652232303E+02  0.27954736296E+03  0.28533439287E+03  0.47000000000E+01 0.  1.
         -5    1    4    4    0  502  0.51355872316E+01 -0.31259047190E+02  0.10095951259E+04  0.10101029207E+04  0.47000000000E+01 0.  1.
<mgrwt>
<rscale>  0 0.26184360E+03</rscale>
<asrwt>0</asrwt>
<pdfrwt beam="1">  1       21 0.32450605E+00 0.26184360E+03</pdfrwt>
<pdfrwt beam="2">  1       21 0.12501854E-02 0.26184360E+03</pdfrwt>
<totfact> 0.61229948E+04</totfact>
</mgrwt>
</event>
<event>
 8    1  0.4760912E-006  0.2652368E+03  0.7546771E-02  0.1104037E+00
         21   -1    0    0  504  503  0.00000000000E+00  0.00000000000E+00  0.61180478292E+03  0.61180478292E+03  0.00000000000E+00 0. -1.
         21   -1    0    0  503  504 -0.00000000000E+00 -0.00000000000E+00 -0.28747136580E+02  0.28747136580E+02  0.00000000000E+00 0. -1.
         25    2    1    2    0    0 -0.14460820058E+02  0.41051339715E+02  0.31152792873E+03  0.33848000037E+03  0.12499892983E+03 0.  0.
         25    2    1    2    0    0  0.14460820058E+02 -0.41051339715E+02  0.27152971761E+03  0.30207191913E+03  0.12499891590E+03 0.  0.
          5    1    3    3  501    0  0.19197566134E+02  0.62415342967E+01  0.27942724942E+03  0.28019489827E+03  0.47000000000E+01 0. -1.
         -5    1    3    3    0  501 -0.33658386192E+02  0.34809805418E+02  0.32100679308E+02  0.58285102096E+02  0.47000000000E+01 0. -1.
          5    1    4    4  502    0  0.33666345714E+02 -0.60249838033E+02  0.26482140703E+03  0.27370775187E+03  0.47000000000E+01 0.  1.
         -5    1    4    4    0  502 -0.19205525656E+02  0.19198498318E+02  0.67083105795E+01  0.28364167258E+02  0.47000000000E+01 0.  1.
<mgrwt>
<rscale>  0 0.26523677E+03</rscale>
<asrwt>0</asrwt>
<pdfrwt beam="1">  1       21 0.94123803E-01 0.26523677E+03</pdfrwt>
<pdfrwt beam="2">  1       21 0.44226368E-02 0.26523677E+03</pdfrwt>
<totfact> 0.30718130E+05</totfact>
</mgrwt>
</event>
<event>
 8    1  0.4760912E-006  0.2637910E+03  0.7546771E-02  0.1104887E+00
         21   -1    0    0  504  503  0.00000000000E+00  0.00000000000E+00  0.30174720718E+03  0.30174720718E+03  0.00000000000E+00 0. -1.
         21   -1    0    0  503  504 -0.00000000000E+00 -0.00000000000E+00 -0.57652329490E+02  0.57652329490E+02  0.00000000000E+00 0. -1.
         25    2    1    2    0    0  0.77733743524E+01  0.13114805735E+02  0.68596145293E+02  0.14339878724E+03  0.12500143021E+03 0.  0.
         25    2    1    2    0    0 -0.77733743524E+01 -0.13114805735E+02  0.17549873240E+03  0.21600074943E+03  0.12499638076E+03 0.  0.
          5    1    3    3  501    0  0.21533654449E+02 -0.52363567403E+02  0.18734808653E+02  0.59822441612E+02  0.47000000000E+01 0. -1.
         -5    1    3    3    0  501 -0.13760280096E+02  0.65478373138E+02  0.49861336640E+02  0.83576345629E+02  0.47000000000E+01 0. -1.
          5    1    4    4  502    0 -0.16157263442E+02  0.23928391944E+02  0.17530659291E+03  0.17773046059E+03  0.47000000000E+01 0. -1.
         -5    1    4    4    0  502  0.83838890897E+01 -0.37043197679E+02  0.19213948764E+00  0.38270288843E+02  0.47000000000E+01 0. -1.
<mgrwt>
<rscale>  0 0.26379105E+03</rscale>
<asrwt>0</asrwt>
<pdfrwt beam="1">  1       21 0.46422647E-01 0.26379105E+03</pdfrwt>
<pdfrwt beam="2">  1       21 0.88695893E-02 0.26379105E+03</pdfrwt>
<totfact> 0.43877781E+05</totfact>
</mgrwt>
</event>
<event>
 8    1  0.4760912E-006  0.2612287E+03  0.7546771E-02  0.1106407E+00
         21   -1    0    0  504  503  0.00000000000E+00  0.00000000000E+00  0.12433631772E+03  0.12433631772E+03  0.00000000000E+00 0. -1.
         21   -1    0    0  503  504 -0.00000000000E+00 -0.00000000000E+00 -0.13720932304E+03  0.13720932304E+03  0.00000000000E+00 0. -1.
         25    2    1    2    0    0  0.24405205371E+02  0.28709666021E+02 -0.10426099392E+02  0.13096996845E+03  0.12499828045E+03 0.  0.
         25    2    1    2    0    0 -0.24405205371E+02 -0.28709666021E+02 -0.24469059296E+01  0.13057567231E+03  0.12499663947E+03 0.  0.
          5    1    3    3  501    0 -0.42929223787E+02  0.13738336075E+02 -0.35351121675E+02  0.57475663865E+02  0.47000000000E+01 0. -1.
         -5    1    3    3    0  501  0.67334429158E+02  0.14971329946E+02  0.24925022282E+02  0.73494304583E+02  0.47000000000E+01 0. -1.
          5    1    4    4  502    0 -0.69204769219E+02  0.11001260094E+02  0.28744608672E+01  0.70289973194E+02  0.47000000000E+01 0.  1.
         -5    1    4    4    0  502  0.44799563848E+02 -0.39710926115E+02 -0.53213667968E+01  0.60285699121E+02  0.47000000000E+01 0.  1.
<mgrwt>
<rscale>  0 0.26122865E+03</rscale>
<asrwt>0</asrwt>
<pdfrwt beam="1">  1       21 0.19128664E-01 0.26122865E+03</pdfrwt>
<pdfrwt beam="2">  1       21 0.21109127E-01 0.26122865E+03</pdfrwt>
<totfact> 0.51658579E+05</totfact>
</mgrwt>
</event>
<event>
 8    1  0.4760912E-006  0.3086808E+03  0.7546771E-02  0.1080980E+00
         21   -1    0    0  504  503  0.00000000000E+00  0.00000000000E+00  0.13843653048E+04  0.13843653048E+04  0.00000000000E+00 0.  1.
         21   -1    0    0  503  504 -0.00000000000E+00 -0.00000000000E+00 -0.17207131207E+02  0.17207131207E+02  0.00000000000E+00 0.  1.
         25    2    1    2    0    0  0.78094241805E+02  0.37913462429E+02  0.80018082854E+03  0.81452510377E+03  0.12500258026E+03 0.  0.
         25    2    1    2    0    0 -0.78094241805E+02 -0.37913462429E+02  0.56697734501E+03  0.58704733219E+03  0.12500047699E+03 0.  0.
          5    1    3    3  501    0 -0.31360283767E+02 -0.80901005338E+01  0.14390480468E+03  0.14757913110E+03  0.47000000000E+01 0.  1.
         -5    1    3    3    0  501  0.10945452557E+03  0.46003562963E+02  0.65627602386E+03  0.66694597268E+03  0.47000000000E+01 0.  1.
          5    1    4    4  502    0  0.26710542426E+02 -0.35936613819E+02  0.12743970728E+03  0.13515865596E+03  0.47000000000E+01 0. -1.
         -5    1    4    4    0  502 -0.10480478423E+03 -0.19768486102E+01  0.43953763772E+03  0.45188867623E+03  0.47000000000E+01 0. -1.
<mgrwt>
<rscale>  0 0.30868078E+03</rscale>
<asrwt>0</asrwt>
<pdfrwt beam="1">  1       21 0.21297919E+00 0.30868078E+03</pdfrwt>
<pdfrwt beam="2">  1       21 0.26472521E-02 0.30868078E+03</pdfrwt>
<totfact> 0.81500335E+04</totfact>
</mgrwt>
</event>
<event>
 8    1  0.4760912E-006  0.3414087E+03  0.7546771E-02  0.1066198E+00
         21   -1    0    0  504  503  0.00000000000E+00  0.00000000000E+00  0.11015530184E+03  0.11015530184E+03  0.00000000000E+00 0.  1.
         21   -1    0    0  503  504 -0.00000000000E+00 -0.00000000000E+00 -0.26453542821E+03  0.26453542821E+03  0.00000000000E+00 0.  1.
         25    2    1    2    0    0 -0.99470242740E+02 -0.51979308284E+02 -0.43937030869E+02  0.17364557570E+03  0.12500458230E+03 0.  0.
         25    2    1    2    0    0  0.99470242740E+02  0.51979308284E+02 -0.11044309551E+03  0.20104515435E+03  0.12500119624E+03 0.  0.
          5    1    3    3  501    0 -0.12708653803E+03 -0.28926739216E+02 -0.25275967092E+02  0.13284844336E+03  0.47000000000E+01 0.  1.
         -5    1    3    3    0  501  0.27616295287E+02 -0.23052569068E+02 -0.18661063777E+02  0.40797132342E+02  0.47000000000E+01 0.  1.
          5    1    4    4  502    0  0.59824895991E+02 -0.11181748194E+02 -0.11059711811E+03  0.12632443234E+03  0.47000000000E+01 0. -1.
         -5    1    4    4    0  502  0.39645346749E+02  0.63161056478E+02  0.15402260220E+00  0.74720722007E+02  0.47000000000E+01 0. -1.
<mgrwt>
<rscale>  0 0.34140873E+03</rscale>
<asrwt>0</asrwt>
<pdfrwt beam="1">  1       21 0.16946970E-01 0.34140873E+03</pdfrwt>
<pdfrwt beam="2">  1       21 0.40697758E-01 0.34140873E+03</pdfrwt>
<totfact> 0.17547145E+05</totfact>
</mgrwt>
</event>
<event>
 8    1  0.4760912E-006  0.3374114E+03  0.7546771E-02  0.1067904E+00
         21   -1    0    0  504  503  0.00000000000E+00  0.00000000000E+00  0.31838656127E+02  0.31838656127E+02  0.00000000000E+00 0.  1.
         21   -1    0    0  503  504 -0.00000000000E+00 -0.00000000000E+00 -0.89393244667E+03  0.89393244667E+03  0.00000000000E+00 0.  1.
         25    2    1    2    0    0  0.83454530209E+02 -0.65100314204E+01 -0.22158964850E+03  0.26783459184E+03  0.12500542845E+03 0.  0.
         25    2    1    2    0    0 -0.83454530209E+02  0.65100314204E+01 -0.64050414204E+03  0.65793651095E+03  0.12501142890E+03 0.  0.
          5    1    3    3  501    0  0.72679856379E+02 -0.23039169485E+02 -0.42137910706E+02  0.87240233680E+02  0.47000000000E+01 0.  1.
         -5    1    3    3    0  501  0.10774673830E+02  0.16529138065E+02 -0.17945173780E+03  0.18059435816E+03  0.47000000000E+01 0.  1.
          5    1    4    4  502    0 -0.80843546198E+02 -0.85535741230E+00 -0.18042189340E+03  0.19776390018E+03  0.47000000000E+01 0.  1.
         -5    1    4    4    0  502 -0.26109840112E+01  0.73653888327E+01 -0.46008224864E+03  0.46017261077E+03  0.47000000000E+01 0.  1.
<mgrwt>
<rscale>  0 0.33741137E+03</rscale>
<asrwt>0</asrwt>
<pdfrwt beam="1">  1       21 0.48982560E-02 0.33741137E+03</pdfrwt>
<pdfrwt beam="2">  1       21 0.13752803E+00 0.33741137E+03</pdfrwt>
<totfact> 0.98889103E+04</totfact>
</mgrwt>
</event>
<event>
 8    1  0.4760912E-006  0.2929161E+03  0.7546771E-02  0.1088836E+00
         21   -1    0    0  504  503  0.00000000000E+00  0.00000000000E+00  0.21616582390E+02  0.21616582390E+02  0.00000000000E+00 0. -1.
         21   -1    0    0  503  504 -0.00000000000E+00 -0.00000000000E+00 -0.99229200487E+03  0.99229200487E+03  0.00000000000E+00 0. -1.
         25    2    1    2    0    0  0.42992137784E+02 -0.24478483763E+02 -0.68651193041E+03  0.69955056664E+03  0.12499937843E+03 0.  0.
         25    2    1    2    0    0 -0.42992137784E+02  0.24478483763E+02 -0.28416349207E+03  0.31435802062E+03  0.12499821929E+03 0.  0.
          5    1    3    3  501    0 -0.24965147127E+02 -0.26959126077E+02 -0.69236159769E+02  0.78522537335E+02  0.47000000000E+01 0.  1.
         -5    1    3    3    0  501  0.67957284911E+02  0.24806423139E+01 -0.61727577065E+03  0.62102802931E+03  0.47000000000E+01 0.  1.
          5    1    4    4  502    0  0.35078104836E+02 -0.88476673683E+01 -0.15845770081E+03  0.16260285238E+03  0.47000000000E+01 0.  1.
         -5    1    4    4    0  502 -0.78070242619E+02  0.33326151131E+02 -0.12570579126E+03  0.15175516824E+03  0.47000000000E+01 0.  1.
<mgrwt>
<rscale>  0 0.29291611E+03</rscale>
<asrwt>0</asrwt>
<pdfrwt beam="1">  1       21 0.33256274E-02 0.29291611E+03</pdfrwt>
<pdfrwt beam="2">  1       21 0.15266034E+00 0.29291611E+03</pdfrwt>
<totfact> 0.14643968E+05</totfact>
</mgrwt>
</event>
<event>
 8    1  0.4760912E-006  0.2851077E+03  0.7546771E-02  0.1092931E+00
         21   -1    0    0  504  503  0.00000000000E+00  0.00000000000E+00  0.36851529050E+03  0.36851529050E+03  0.00000000000E+00 0.  1.
         21   -1    0    0  503  504 -0.00000000000E+00 -0.00000000000E+00 -0.55144519340E+02  0.55144519340E+02  0.00000000000E+00 0.  1.
         25    2    1    2    0    0  0.55282919582E+02 -0.23539336725E+02  0.20563847788E+03  0.24803858151E+03  0.12500261102E+03 0.  0.
         25    2    1    2    0    0 -0.55282919582E+02  0.23539336725E+02  0.10773229329E+03  0.17562122834E+03  0.12500506891E+03 0.  0.
          5    1    3    3  501    0  0.70531275769E+02 -0.52323873310E+02  0.82526029067E+02  0.12060300184E+03  0.47000000000E+01 0.  1.
         -5    1    3    3    0  501 -0.15248356188E+02  0.28784536585E+02  0.12311244881E+03  0.12743557967E+03  0.47000000000E+01 0.  1.
          5    1    4    4  502    0  0.11944517030E+02 -0.19200711053E+02 -0.16205246992E+02  0.28214159957E+02  0.47000000000E+01 0.  1.
         -5    1    4    4    0  502 -0.67227436612E+02  0.42740047778E+02  0.12393754028E+03  0.14740706838E+03  0.47000000000E+01 0.  1.
<mgrwt>
<rscale>  0 0.28510769E+03</rscale>
<asrwt>0</asrwt>
<pdfrwt beam="1">  1       21 0.56694658E-01 0.28510769E+03</pdfrwt>
<pdfrwt beam="2">  1       21 0.84837724E-02 0.28510769E+03</pdfrwt>
<totfact> 0.30984746E+05</totfact>
</mgrwt>
</event>
<event>
 8    1  0.4760912E-006  0.3261647E+03  0.7546771E-02  0.1072847E+00
         21   -1    0    0  504  503  0.00000000000E+00  0.00000000000E+00  0.19162529564E+03  0.19162529564E+03  0.00000000000E+00 0.  1.
         21   -1    0    0  503  504 -0.00000000000E+00 -0.00000000000E+00 -0.13879093660E+03  0.13879093660E+03  0.00000000000E+00 0.  1.
         25    2    1    2    0    0 -0.29124996856E+02  0.73256122664E+02 -0.43448312874E+02  0.15403779228E+03  0.12500064244E+03 0.  0.
         25    2    1    2    0    0  0.29124996856E+02 -0.73256122664E+02  0.96282671915E+02  0.17637843996E+03  0.12499710485E+03 0.  0.
          5    1    3    3  501    0  0.17437774192E+02  0.63928972653E+01  0.35593733524E+02  0.40422134659E+02  0.47000000000E+01 0. -1.
         -5    1    3    3    0  501 -0.46562771048E+02  0.66863225399E+02 -0.79042046398E+02  0.11361565762E+03  0.47000000000E+01 0. -1.
          5    1    4    4  502    0 -0.66346004085E+01  0.27570312339E+02  0.54147017916E+02  0.61303585493E+02  0.47000000000E+01 0. -1.
         -5    1    4    4    0  502  0.35759597265E+02 -0.10082643500E+03  0.42135653999E+02  0.11507485446E+03  0.47000000000E+01 0. -1.
<mgrwt>
<rscale>  0 0.32616471E+03</rscale>
<asrwt>0</asrwt>
<pdfrwt beam="1">  1       21 0.29480815E-01 0.32616471E+03</pdfrwt>
<pdfrwt beam="2">  1       21 0.21352452E-01 0.32616471E+03</pdfrwt>
<totfact> 0.21774706E+05</totfact>
</mgrwt>
</event>
<event>
 8    1  0.4760912E-006  0.2606572E+03  0.7546771E-02  0.1106749E+00
         21   -1    0    0  504  503  0.00000000000E+00  0.00000000000E+00  0.14346145275E+03  0.14346145275E+03  0.00000000000E+00 0.  1.
         21   -1    0    0  503  504 -0.00000000000E+00 -0.00000000000E+00 -0.11839795564E+03  0.11839795564E+03  0.00000000000E+00 0.  1.
         25    2    1    2    0    0  0.29379348173E+01 -0.35674618414E+02  0.21508516780E+02  0.13178525889E+03  0.12499371307E+03 0.  0.
         25    2    1    2    0    0 -0.29379348173E+01  0.35674618414E+02  0.35549803327E+01  0.13007414950E+03  0.12500134648E+03 0.  0.
          5    1    3    3  501    0  0.28096273242E+02  0.30815896554E+02  0.40215592743E+02  0.58124039349E+02  0.47000000000E+01 0. -1.
         -5    1    3    3    0  501 -0.25158338425E+02 -0.66490514968E+02 -0.18707075963E+02  0.73661219540E+02  0.47000000000E+01 0. -1.
          5    1    4    4  502    0  0.20054761657E+02 -0.36552062903E+02 -0.25115069675E+02  0.48898910953E+02  0.47000000000E+01 0.  1.
         -5    1    4    4    0  502 -0.22992696474E+02  0.72226681317E+02  0.28670050007E+02  0.81175238544E+02  0.47000000000E+01 0.  1.
<mgrwt>
<rscale>  0 0.26065719E+03</rscale>
<asrwt>0</asrwt>
<pdfrwt beam="1">  1       21 0.22070993E-01 0.26065719E+03</pdfrwt>
<pdfrwt beam="2">  1       21 0.18215070E-01 0.26065719E+03</pdfrwt>
<totfact> 0.52027017E+05</totfact>
</mgrwt>
</event>
<event>
 8    1  0.4760912E-006  0.3220803E+03  0.7546771E-02  0.1074696E+00
         21   -1    0    0  504  503  0.00000000000E+00  0.00000000000E+00  0.15254783882E+02  0.15254783882E+02  0.00000000000E+00 0. -1.
         21   -1    0    0  503  504 -0.00000000000E+00 -0.00000000000E+00 -0.17000519011E+04  0.17000519011E+04  0.00000000000E+00 0. -1.
         25    2    1    2    0    0 -0.37970489350E+02 -0.56795304820E+02 -0.12425639692E+04  0.12506957460E+04  0.12492864726E+03 0.  0.
         25    2    1    2    0    0  0.37970489350E+02  0.56795304820E+02 -0.44223314806E+03  0.46461093898E+03  0.12500281063E+03 0.  0.
          5    1    3    3  501    0 -0.99434610710E+01  0.22838879525E+02 -0.60292199573E+02  0.65404328338E+02  0.47000000000E+01 0. -1.
         -5    1    3    3    0  501 -0.28027028279E+02 -0.79634184344E+02 -0.11822717696E+04  0.11852914177E+04  0.47000000000E+01 0. -1.
          5    1    4    4  502    0  0.15387479657E+02  0.85331014864E+02 -0.39690488045E+03  0.40629266638E+03  0.47000000000E+01 0. -1.
         -5    1    4    4    0  502  0.22583009693E+02 -0.28535710044E+02 -0.45328267602E+02  0.58318272593E+02  0.47000000000E+01 0. -1.
<mgrwt>
<rscale>  0 0.32208027E+03</rscale>
<asrwt>0</asrwt>
<pdfrwt beam="1">  1       21 0.23468913E-02 0.32208027E+03</pdfrwt>
<pdfrwt beam="2">  1       21 0.26154629E+00 0.32208027E+03</pdfrwt>
<totfact> 0.49770061E+04</totfact>
</mgrwt>
</event>
<event>
 8    1  0.4760912E-006  0.2658688E+03  0.7546771E-02  0.1103668E+00
         21   -1    0    0  504  503  0.00000000000E+00  0.00000000000E+00  0.83072229307E+02  0.83072229307E+02  0.00000000000E+00 0. -1.
         21   -1    0    0  503  504 -0.00000000000E+00 -0.00000000000E+00 -0.21272516383E+03  0.21272516383E+03  0.00000000000E+00 0. -1.
         25    2    1    2    0    0 -0.15513969052E+02 -0.40980301230E+02 -0.77291221504E+02  0.15336193910E+03  0.12500353242E+03 0.  0.
         25    2    1    2    0    0  0.15513969052E+02  0.40980301230E+02 -0.52361713017E+02  0.14243545403E+03  0.12500416494E+03 0.  0.
          5    1    3    3  501    0 -0.51252638500E+02 -0.44427352237E+02  0.20173587806E-01  0.67990536010E+02  0.47000000000E+01 0.  1.
         -5    1    3    3    0  501  0.35738669447E+02  0.34470510070E+01 -0.77311395091E+02  0.85371403090E+02  0.47000000000E+01 0.  1.
          5    1    4    4  502    0  0.70032625270E+02  0.20991219867E+02 -0.37551001640E+02  0.82324769285E+02  0.47000000000E+01 0.  1.
         -5    1    4    4    0  502 -0.54518656218E+02  0.19989081363E+02 -0.14810711377E+02  0.60110684749E+02  0.47000000000E+01 0.  1.
<mgrwt>
<rscale>  0 0.26586879E+03</rscale>
<asrwt>0</asrwt>
<pdfrwt beam="1">  1       21 0.12780343E-01 0.26586879E+03</pdfrwt>
<pdfrwt beam="2">  1       21 0.32726948E-01 0.26586879E+03</pdfrwt>
<totfact> 0.46416634E+05</totfact>
</mgrwt>
</event>
<event>
 8    1  0.4760912E-006  0.3288258E+03  0.7546771E-02  0.1071658E+00
         21   -1    0    0  504  503  0.00000000000E+00  0.00000000000E+00  0.19554503130E+02  0.19554503130E+02  0.00000000000E+00 0. -1.
         21   -1    0    0  503  504 -0.00000000000E+00 -0.00000000000E+00 -0.13823722672E+04  0.13823722672E+04  0.00000000000E+00 0. -1.
         25    2    1    2    0    0 -0.10396106100E+03  0.18230498834E+02 -0.61233714951E+03  0.63382048372E+03  0.12502546790E+03 0.  0.
         25    2    1    2    0    0  0.10396106100E+03 -0.18230498834E+02 -0.75048061452E+03  0.76810628657E+03  0.12500344555E+03 0.  0.
          5    1    3    3  501    0  0.13138000305E+02  0.29845570718E+02 -0.26546576152E+03  0.26750238444E+03  0.47000000000E+01 0.  1.
         -5    1    3    3    0  501 -0.11709906131E+03 -0.11615071883E+02 -0.34687138799E+03  0.36631809928E+03  0.47000000000E+01 0.  1.
          5    1    4    4  502    0  0.16435451891E+02  0.35149806564E+02 -0.72156857426E+02  0.82062994424E+02  0.47000000000E+01 0. -1.
         -5    1    4    4    0  502  0.87525609111E+02 -0.53380305398E+02 -0.67832375710E+03  0.68604329214E+03  0.47000000000E+01 0. -1.
<mgrwt>
<rscale>  0 0.32882581E+03</rscale>
<asrwt>0</asrwt>
<pdfrwt beam="1">  1       21 0.30083851E-02 0.32882581E+03</pdfrwt>
<pdfrwt beam="2">  1       21 0.21267265E+00 0.32882581E+03</pdfrwt>
<totfact> 0.65607721E+04</totfact>
</mgrwt>
</event>
<event>
 8    1  0.4760912E-006  0.2956878E+03  0.7546771E-02  0.1087416E+00
         21   -1    0    0  504  503  0.00000000000E+00  0.00000000000E+00  0.57139316598E+02  0.57139316598E+02  0.00000000000E+00 0. -1.
         21   -1    0    0  503  504 -0.00000000000E+00 -0.00000000000E+00 -0.38253545029E+03  0.38253545029E+03  0.00000000000E+00 0. -1.
         25    2    1    2    0    0 -0.54363044852E+02  0.71798696849E+01 -0.78237505015E+02  0.15732966593E+03  0.12499850166E+03 0.  0.
         25    2    1    2    0    0  0.54363044852E+02 -0.71798696849E+01 -0.24715862868E+03  0.28234510096E+03  0.12499790850E+03 0.  0.
          5    1    3    3  501    0 -0.13148662360E+02  0.35548908452E+02  0.22802422512E+02  0.44482049036E+02  0.47000000000E+01 0.  1.
         -5    1    3    3    0  501 -0.41214382492E+02 -0.28369038767E+02 -0.10103992753E+03  0.11284761690E+03  0.47000000000E+01 0.  1.
          5    1    4    4  502    0  0.31909215311E+02  0.30955575410E+02 -0.16848461401E+02  0.47774536338E+02  0.47000000000E+01 0.  1.
         -5    1    4    4    0  502  0.22453829541E+02 -0.38135445095E+02 -0.23031016728E+03  0.23457056462E+03  0.47000000000E+01 0.  1.
<mgrwt>
<rscale>  0 0.29568777E+03</rscale>
<asrwt>0</asrwt>
<pdfrwt beam="1">  1       21 0.87906638E-02 0.29568777E+03</pdfrwt>
<pdfrwt beam="2">  1       21 0.58851610E-01 0.29568777E+03</pdfrwt>
<totfact> 0.26791620E+05</totfact>
</mgrwt>
</event>
<event>
 8    1  0.4760912E-006  0.3191726E+03  0.7546771E-02  0.1076031E+00
         21   -1    0    0  504  503  0.00000000000E+00  0.00000000000E+00  0.59326589779E+02  0.59326589779E+02  0.00000000000E+00 0. -1.
         21   -1    0    0  503  504 -0.00000000000E+00 -0.00000000000E+00 -0.42928108441E+03  0.42928108441E+03  0.00000000000E+00 0. -1.
         25    2    1    2    0    0 -0.33354168833E+02 -0.67445740248E+02 -0.85959564647E+02  0.16933646897E+03  0.12499745802E+03 0.  0.
         25    2    1    2    0    0  0.33354168833E+02  0.67445740248E+02 -0.28399492998E+03  0.31927120522E+03  0.12497821318E+03 0.  0.
          5    1    3    3  501    0  0.30210284462E+02 -0.29271412895E+01  0.14526333545E+02  0.33975488366E+02  0.47000000000E+01 0.  1.
         -5    1    3    3    0  501 -0.63564453295E+02 -0.64518598959E+02 -0.10048589819E+03  0.13536098060E+03  0.47000000000E+01 0.  1.
          5    1    4    4  502    0  0.50912730437E+02  0.71367370616E+01 -0.23176477738E+03  0.23744481710E+03  0.47000000000E+01 0.  1.
         -5    1    4    4    0  502 -0.17558561605E+02  0.60309003187E+02 -0.52230152604E+02  0.81826388116E+02  0.47000000000E+01 0.  1.
<mgrwt>
<rscale>  0 0.31917257E+03</rscale>
<asrwt>0</asrwt>
<pdfrwt beam="1">  1       21 0.91271675E-02 0.31917257E+03</pdfrwt>
<pdfrwt beam="2">  1       21 0.66043245E-01 0.31917257E+03</pdfrwt>
<totfact> 0.19382436E+05</totfact>
</mgrwt>
</event>
<event>
 8    1  0.4760912E-006  0.3122207E+03  0.7546771E-02  0.1079286E+00
         21   -1    0    0  504  503  0.00000000000E+00  0.00000000000E+00  0.55616603174E+02  0.55616603174E+02  0.00000000000E+00 0.  1.
         21   -1    0    0  503  504 -0.00000000000E+00 -0.00000000000E+00 -0.43818640097E+03  0.43818640097E+03  0.00000000000E+00 0.  1.
         25    2    1    2    0    0  0.81860375590E+02 -0.31030030523E+02 -0.13929529830E+03  0.20662144813E+03  0.12500103525E+03 0.  0.
         25    2    1    2    0    0 -0.81860375590E+02  0.31030030523E+02 -0.24327449950E+03  0.28718155602E+03  0.12500712029E+03 0.  0.
          5    1    3    3  501    0  0.32262653992E+02 -0.34581879326E+02  0.10538686877E+02  0.48682020720E+02  0.47000000000E+01 0.  1.
         -5    1    3    3    0  501  0.49597721598E+02  0.35518488022E+01 -0.14983398517E+03  0.15793942741E+03  0.47000000000E+01 0.  1.
          5    1    4    4  502    0 -0.89993033847E+02  0.21890623277E+02 -0.25390244996E+03  0.27030813828E+03  0.47000000000E+01 0. -1.
         -5    1    4    4    0  502  0.81326582571E+01  0.91394072465E+01  0.10627950454E+02  0.16873417733E+02  0.47000000000E+01 0. -1.
<mgrwt>
<rscale>  0 0.31222069E+03</rscale>
<asrwt>0</asrwt>
<pdfrwt beam="1">  1       21 0.85564001E-02 0.31222069E+03</pdfrwt>
<pdfrwt beam="2">  1       21 0.67413295E-01 0.31222069E+03</pdfrwt>
<totfact> 0.20796935E+05</totfact>
</mgrwt>
</event>
<event>
 8    1  0.4760912E-006  0.2831348E+03  0.7546771E-02  0.1093989E+00
         21   -1    0    0  504  503  0.00000000000E+00  0.00000000000E+00  0.26664850251E+03  0.26664850251E+03  0.00000000000E+00 0.  1.
         21   -1    0    0  503  504 -0.00000000000E+00 -0.00000000000E+00 -0.75160095281E+02  0.75160095281E+02  0.00000000000E+00 0.  1.
         25    2    1    2    0    0  0.50698066073E+02 -0.41744678360E+02  0.10790488195E+03  0.17772683265E+03  0.12502180379E+03 0.  0.
         25    2    1    2    0    0 -0.50698066073E+02  0.41744678360E+02  0.83583525278E+02  0.16408176513E+03  0.12499483140E+03 0.  0.
          5    1    3    3  501    0  0.12042849749E+02 -0.81959040537E+02  0.79679074849E+02  0.11503547072E+03  0.47000000000E+01 0.  1.
         -5    1    3    3    0  501  0.38655216324E+02  0.40214362177E+02  0.28225807098E+02  0.62691361930E+02  0.47000000000E+01 0.  1.
          5    1    4    4  502    0 -0.67792160173E+02  0.64982571659E+02  0.94095143693E+02  0.13302066632E+03  0.47000000000E+01 0. -1.
         -5    1    4    4    0  502  0.17094094100E+02 -0.23237893298E+02 -0.10511618416E+02  0.31061098818E+02  0.47000000000E+01 0. -1.
<mgrwt>
<rscale>  0 0.28313479E+03</rscale>
<asrwt>0</asrwt>
<pdfrwt beam="1">  1       21 0.41022846E-01 0.28313479E+03</pdfrwt>
<pdfrwt beam="2">  1       21 0.11563092E-01 0.28313479E+03</pdfrwt>
<totfact> 0.35168710E+05</totfact>
</mgrwt>
</event>
<event>
 8    1  0.4760912E-006  0.3505679E+03  0.7546771E-02  0.1062382E+00
         21   -1    0    0  504  503  0.00000000000E+00  0.00000000000E+00  0.47162783841E+02  0.47162783841E+02  0.00000000000E+00 0.  1.
         21   -1    0    0  503  504 -0.00000000000E+00 -0.00000000000E+00 -0.65145572550E+03  0.65145572550E+03  0.00000000000E+00 0.  1.
         25    2    1    2    0    0 -0.86981891993E+02  0.49055590991E+02 -0.44484293070E+03  0.47273926323E+03  0.12499950983E+03 0.  0.
         25    2    1    2    0    0  0.86981891993E+02 -0.49055590991E+02 -0.15945001096E+03  0.22587924611E+03  0.12499930915E+03 0.  0.
          5    1    3    3  501    0 -0.87306801026E+02 -0.48075391888E+01 -0.37114316111E+03  0.38133309059E+03  0.47000000000E+01 0. -1.
         -5    1    3    3    0  501  0.32490903278E+00  0.53863130180E+02 -0.73699769590E+02  0.91406172638E+02  0.47000000000E+01 0. -1.
          5    1    4    4  502    0  0.10445444521E+03 -0.44549490167E+02 -0.16997130789E+03  0.20446937106E+03  0.47000000000E+01 0.  1.
         -5    1    4    4    0  502 -0.17472553212E+02 -0.45061008236E+01  0.10521296935E+02  0.21409875048E+02  0.47000000000E+01 0.  1.
<mgrwt>
<rscale>  0 0.35056791E+03</rscale>
<asrwt>0</asrwt>
<pdfrwt beam="1">  1       21 0.72558131E-02 0.35056791E+03</pdfrwt>
<pdfrwt beam="2">  1       21 0.10022396E+00 0.35056791E+03</pdfrwt>
<totfact> 0.11029769E+05</totfact>
</mgrwt>
</event>
<event>
 8    1  0.4760912E-006  0.3122592E+03  0.7546771E-02  0.1079268E+00
         21   -1    0    0  504  503  0.00000000000E+00  0.00000000000E+00  0.10466585773E+04  0.10466585773E+04  0.00000000000E+00 0. -1.
         21   -1    0    0  503  504 -0.00000000000E+00 -0.00000000000E+00 -0.23289779815E+02  0.23289779815E+02  0.00000000000E+00 0. -1.
         25    2    1    2    0    0 -0.80109152309E+02  0.32059754018E+02  0.38766447210E+03  0.41635953028E+03  0.12500484557E+03 0.  0.
         25    2    1    2    0    0  0.80109152309E+02 -0.32059754018E+02  0.63570432543E+03  0.65358882688E+03  0.12495223543E+03 0.  0.
          5    1    3    3  501    0 -0.60806025977E+02  0.73043338836E+01  0.55812836194E+02  0.82993305589E+02  0.47000000000E+01 0.  1.
         -5    1    3    3    0  501 -0.19303126332E+02  0.24755420134E+02  0.33185163591E+03  0.33336622470E+03  0.47000000000E+01 0.  1.
          5    1    4    4  502    0  0.11252546503E+03 -0.16314313227E+02  0.52019459420E+03  0.53249661307E+03  0.47000000000E+01 0. -1.
         -5    1    4    4    0  502 -0.32416312722E+02 -0.15745440791E+02  0.11550973123E+03  0.12109221381E+03  0.47000000000E+01 0. -1.
<mgrwt>
<rscale>  0 0.31225917E+03</rscale>
<asrwt>0</asrwt>
<pdfrwt beam="1">  1       21 0.16102436E+00 0.31225917E+03</pdfrwt>
<pdfrwt beam="2">  1       21 0.35830439E-02 0.31225917E+03</pdfrwt>
<totfact> 0.11103026E+05</totfact>
</mgrwt>
</event>
<event>
 8    1  0.4760912E-006  0.4062127E+03  0.7546771E-02  0.1041649E+00
         21   -1    0    0  504  503  0.00000000000E+00  0.00000000000E+00  0.36577020325E+03  0.36577020325E+03  0.00000000000E+00 0.  1.
         21   -1    0    0  503  504 -0.00000000000E+00 -0.00000000000E+00 -0.11278173091E+03  0.11278173091E+03  0.00000000000E+00 0.  1.
         25    2    1    2    0    0  0.14170967503E+03  0.60987411967E+02  0.76141638267E+02  0.21265424516E+03  0.12499272976E+03 0.  0.
         25    2    1    2    0    0 -0.14170967503E+03 -0.60987411967E+02  0.17684683407E+03  0.26589768900E+03  0.12500272748E+03 0.  0.
          5    1    3    3  501    0 -0.65401633463E+01 -0.42397787504E+01  0.47184245697E+02  0.48054058127E+02  0.47000000000E+01 0.  1.
         -5    1    3    3    0  501  0.14824983838E+03  0.65227190717E+02  0.28957392570E+02  0.16460018704E+03  0.47000000000E+01 0.  1.
          5    1    4    4  502    0 -0.35276556023E+02 -0.76150419319E+02  0.11278474557E+03  0.14066204393E+03  0.47000000000E+01 0. -1.
         -5    1    4    4    0  502 -0.10643311901E+03  0.15163007352E+02  0.64062088500E+02  0.12523564507E+03  0.47000000000E+01 0. -1.
<mgrwt>
<rscale>  0 0.40621274E+03</rscale>
<asrwt>0</asrwt>
<pdfrwt beam="1">  1       21 0.56272338E-01 0.40621274E+03</pdfrwt>
<pdfrwt beam="2">  1       21 0.17351036E-01 0.40621274E+03</pdfrwt>
<totfact> 0.83719178E+04</totfact>
</mgrwt>
</event>
<event>
 8    1  0.4760912E-006  0.3495588E+03  0.7546771E-02  0.1062796E+00
         21   -1    0    0  504  503  0.00000000000E+00  0.00000000000E+00  0.17247709651E+03  0.17247709651E+03  0.00000000000E+00 0.  1.
         21   -1    0    0  503  504 -0.00000000000E+00 -0.00000000000E+00 -0.17711243208E+03  0.17711243208E+03  0.00000000000E+00 0.  1.
         25    2    1    2    0    0 -0.11166060511E+03 -0.43209267310E+02  0.21944473297E+02  0.17447388600E+03  0.12499778187E+03 0.  0.
         25    2    1    2    0    0  0.11166060511E+03  0.43209267310E+02 -0.26579808864E+02  0.17511564259E+03  0.12499548202E+03 0.  0.
          5    1    3    3  501    0 -0.11213892440E+03 -0.55873353503E+02  0.56388544232E+02  0.13747264425E+03  0.47000000000E+01 0. -1.
         -5    1    3    3    0  501  0.47831928987E+00  0.12664086193E+02 -0.34444070934E+02  0.37001241749E+02  0.47000000000E+01 0. -1.
          5    1    4    4  502    0 -0.20271342794E+02 -0.15153606970E+02  0.74873928496E+01  0.26808770851E+02  0.47000000000E+01 0. -1.
         -5    1    4    4    0  502  0.13193194790E+03  0.58362874280E+02 -0.34067201714E+02  0.14830687174E+03  0.47000000000E+01 0. -1.
<mgrwt>
<rscale>  0 0.34955880E+03</rscale>
<asrwt>0</asrwt>
<pdfrwt beam="1">  1       21 0.26534938E-01 0.34955880E+03</pdfrwt>
<pdfrwt beam="2">  1       21 0.27248066E-01 0.34955880E+03</pdfrwt>
<totfact> 0.16649188E+05</totfact>
</mgrwt>
</event>
<event>
 8    1  0.4760912E-006  0.3058000E+03  0.7546771E-02  0.1082377E+00
         21   -1    0    0  504  503  0.00000000000E+00  0.00000000000E+00  0.83286848956E+03  0.83286848956E+03  0.00000000000E+00 0. -1.
         21   -1    0    0  503  504 -0.00000000000E+00 -0.00000000000E+00 -0.28069757724E+02  0.28069757724E+02  0.00000000000E+00 0. -1.
         25    2    1    2    0    0  0.52412619266E+02 -0.41260823173E+02  0.24050430669E+03  0.27912888436E+03  0.12498429645E+03 0.  0.
         25    2    1    2    0    0 -0.52412619266E+02  0.41260823173E+02  0.56429442516E+03  0.58180936293E+03  0.12499759337E+03 0.  0.
          5    1    3    3  501    0 -0.68517914894E+01 -0.17477294749E+02  0.20500309985E+03  0.20591445754E+03  0.47000000000E+01 0. -1.
         -5    1    3    3    0  501  0.59264410756E+02 -0.23783528423E+02  0.35501206838E+02  0.73214426812E+02  0.47000000000E+01 0. -1.
          5    1    4    4  502    0 -0.13160326177E+02  0.75848327573E+02  0.21144608617E+03  0.22507265569E+03  0.47000000000E+01 0.  1.
         -5    1    4    4    0  502 -0.39252293089E+02 -0.34587504401E+02  0.35284833898E+03  0.35673670724E+03  0.47000000000E+01 0.  1.
<mgrwt>
<rscale>  0 0.30580004E+03</rscale>
<asrwt>0</asrwt>
<pdfrwt beam="1">  1       21 0.12813360E+00 0.30580004E+03</pdfrwt>
<pdfrwt beam="2">  1       21 0.43184249E-02 0.30580004E+03</pdfrwt>
<totfact> 0.14852038E+05</totfact>
</mgrwt>
</event>
<event>
 8    1  0.4760912E-006  0.4669250E+03  0.7546771E-02  0.1022792E+00
         21   -1    0    0  504  503  0.00000000000E+00  0.00000000000E+00  0.17408500595E+04  0.17408500595E+04  0.00000000000E+00 0.  1.
         21   -1    0    0  503  504 -0.00000000000E+00 -0.00000000000E+00 -0.31309272071E+02  0.31309272071E+02  0.00000000000E+00 0.  1.
         25    2    1    2    0    0 -0.16864193577E+03 -0.16027283522E+01  0.12425176092E+04  0.12601253275E+04  0.12499264173E+03 0.  0.
         25    2    1    2    0    0  0.16864193577E+03  0.16027283522E+01  0.46702317822E+03  0.51203400410E+03  0.12500200450E+03 0.  0.
          5    1    3    3  501    0 -0.11328797535E+03 -0.26680485374E+02  0.10848660712E+04  0.10911015059E+04  0.47000000000E+01 0. -1.
         -5    1    3    3    0  501 -0.55353960421E+02  0.25077757022E+02  0.15765153800E+03  0.16902382159E+03  0.47000000000E+01 0. -1.
          5    1    4    4  502    0  0.15327985112E+03 -0.10292360716E+02  0.46741979905E+03  0.49204065279E+03  0.47000000000E+01 0. -1.
         -5    1    4    4    0  502  0.15362084652E+02  0.11895089068E+02 -0.39662083616E+00  0.19993351317E+02  0.47000000000E+01 0. -1.
<mgrwt>
<rscale>  0 0.46692504E+03</rscale>
<asrwt>0</asrwt>
<pdfrwt beam="1">  1       21 0.26782301E+00 0.46692504E+03</pdfrwt>
<pdfrwt beam="2">  1       21 0.48168124E-02 0.46692504E+03</pdfrwt>
<totfact> 0.12734172E+04</totfact>
</mgrwt>
</event>
<event>
 8    1  0.4760912E-006  0.2886525E+03  0.7546771E-02  0.1091055E+00
         21   -1    0    0  504  503  0.00000000000E+00  0.00000000000E+00  0.88725065839E+02  0.88725065839E+02  0.00000000000E+00 0.  1.
         21   -1    0    0  503  504 -0.00000000000E+00 -0.00000000000E+00 -0.23477093059E+03  0.23477093059E+03  0.00000000000E+00 0.  1.
         25    2    1    2    0    0 -0.51540418936E+02  0.49041190682E+02 -0.86434494556E+02  0.16780318726E+03  0.12500213853E+03 0.  0.
         25    2    1    2    0    0  0.51540418936E+02 -0.49041190682E+02 -0.59611370197E+02  0.15569280917E+03  0.12500112881E+03 0.  0.
          5    1    3    3  501    0  0.22932895416E+02 -0.21885115500E+02  0.19661139154E+01  0.32106565941E+02  0.47000000000E+01 0. -1.
         -5    1    3    3    0  501 -0.74473314352E+02  0.70926306182E+02 -0.88400608472E+02  0.13569662132E+03  0.47000000000E+01 0. -1.
          5    1    4    4  502    0  0.49881441216E+01 -0.51647124459E+02 -0.87005459083E+02  0.10141176932E+03  0.47000000000E+01 0. -1.
         -5    1    4    4    0  502  0.46552274815E+02  0.26059337771E+01  0.27394088885E+02  0.54281039849E+02  0.47000000000E+01 0. -1.
<mgrwt>
<rscale>  0 0.28865250E+03</rscale>
<asrwt>0</asrwt>
<pdfrwt beam="1">  1       21 0.13650010E-01 0.28865250E+03</pdfrwt>
<pdfrwt beam="2">  1       21 0.36118605E-01 0.28865250E+03</pdfrwt>
<totfact> 0.33675998E+05</totfact>
</mgrwt>
</event>
<event>
 8    1  0.4760912E-006  0.2805426E+03  0.7546771E-02  0.1095393E+00
         21   -1    0    0  504  503  0.00000000000E+00  0.00000000000E+00  0.95550949601E+03  0.95550949601E+03  0.00000000000E+00 0.  1.
         21   -1    0    0  503  504 -0.00000000000E+00 -0.00000000000E+00 -0.20592188225E+02  0.20592188225E+02  0.00000000000E+00 0.  1.
         25    2    1    2    0    0 -0.25599578951E+02  0.26566909323E+01  0.26493321939E+03  0.29406862588E+03  0.12499739815E+03 0.  0.
         25    2    1    2    0    0  0.25599578951E+02 -0.26566909323E+01  0.66998408839E+03  0.68203305835E+03  0.12501206955E+03 0.  0.
          5    1    3    3  501    0  0.74343951295E+01 -0.20855294024E+02 -0.31885248478E+01  0.22857607278E+02  0.47000000000E+01 0.  1.
         -5    1    3    3    0  501 -0.33033974080E+02  0.23511984956E+02  0.26812174424E+03  0.27121101860E+03  0.47000000000E+01 0.  1.
          5    1    4    4  502    0 -0.45275017328E+02  0.31573565572E+01  0.40747997667E+03  0.41002660582E+03  0.47000000000E+01 0.  1.
         -5    1    4    4    0  502  0.70874596279E+02 -0.58140474895E+01  0.26250411173E+03  0.27200645253E+03  0.47000000000E+01 0.  1.
<mgrwt>
<rscale>  0 0.28054256E+03</rscale>
<asrwt>0</asrwt>
<pdfrwt beam="1">  1       21 0.14700143E+00 0.28054256E+03</pdfrwt>
<pdfrwt beam="2">  1       21 0.31680297E-02 0.28054256E+03</pdfrwt>
<totfact> 0.17638645E+05</totfact>
</mgrwt>
</event>
<event>
 8    1  0.4760912E-006  0.3081845E+03  0.7546771E-02  0.1081219E+00
         21   -1    0    0  504  503  0.00000000000E+00  0.00000000000E+00  0.17173203053E+02  0.17173203053E+02  0.00000000000E+00 0.  1.
         21   -1    0    0  503  504 -0.00000000000E+00 -0.00000000000E+00 -0.13826436382E+04  0.13826436382E+04  0.00000000000E+00 0.  1.
         25    2    1    2    0    0  0.42185083482E+01  0.89535323108E+02 -0.64121335382E+03  0.65940647155E+03  0.12501183829E+03 0.  0.
         25    2    1    2    0    0 -0.42185083482E+01 -0.89535323108E+02 -0.72425708138E+03  0.74041036975E+03  0.12499930324E+03 0.  0.
          5    1    3    3  501    0 -0.26083993295E+01  0.81851470132E+01 -0.46544626779E+03  0.46554926547E+03  0.47000000000E+01 0. -1.
         -5    1    3    3    0  501  0.68269076777E+01  0.81350176095E+02 -0.17576708602E+03  0.19385720608E+03  0.47000000000E+01 0. -1.
          5    1    4    4  502    0 -0.50978455112E+02  0.16433040382E+00 -0.19891837134E+03  0.20540067757E+03  0.47000000000E+01 0. -1.
         -5    1    4    4    0  502  0.46759946764E+02 -0.89699653512E+02 -0.52533871004E+03  0.53500969218E+03  0.47000000000E+01 0. -1.
<mgrwt>
<rscale>  0 0.30818449E+03</rscale>
<asrwt>0</asrwt>
<pdfrwt beam="1">  1       21 0.26420318E-02 0.30818449E+03</pdfrwt>
<pdfrwt beam="2">  1       21 0.21271436E+00 0.30818449E+03</pdfrwt>
<totfact> 0.82103382E+04</totfact>
</mgrwt>
</event>
<event>
 8    1  0.4760912E-006  0.2580839E+03  0.7546771E-02  0.1108300E+00
         21   -1    0    0  504  503  0.00000000000E+00  0.00000000000E+00  0.39080703401E+03  0.39080703401E+03  0.00000000000E+00 0. -1.
         21   -1    0    0  503  504 -0.00000000000E+00 -0.00000000000E+00 -0.42608806561E+02  0.42608806561E+02  0.00000000000E+00 0. -1.
         25    2    1    2    0    0  0.18579406024E+02  0.16920605957E+01  0.21786958285E+03  0.25187104812E+03  0.12499524933E+03 0.  0.
         25    2    1    2    0    0 -0.18579406024E+02 -0.16920605957E+01  0.13032864461E+03  0.18154479245E+03  0.12499959466E+03 0.  0.
          5    1    3    3  501    0 -0.14568842935E+02 -0.54020612162E+02  0.65843663740E+02  0.86532975088E+02  0.47000000000E+01 0.  1.
         -5    1    3    3    0  501  0.33148248959E+02  0.55712672758E+02  0.15202591911E+03  0.16533807303E+03  0.47000000000E+01 0.  1.
          5    1    4    4  502    0 -0.40763942434E+02  0.41728076473E+01  0.14707631450E+03  0.15275026551E+03  0.47000000000E+01 0.  1.
         -5    1    4    4    0  502  0.22184536410E+02 -0.58648682430E+01 -0.16747669891E+02  0.28794526945E+02  0.47000000000E+01 0.  1.
<mgrwt>
<rscale>  0 0.25808387E+03</rscale>
<asrwt>0</asrwt>
<pdfrwt beam="1">  1       21 0.60124157E-01 0.25808387E+03</pdfrwt>
<pdfrwt beam="2">  1       21 0.65552013E-02 0.25808387E+03</pdfrwt>
<totfact> 0.43070474E+05</totfact>
</mgrwt>
</event>
<event>
 8    1  0.4760912E-006  0.3049292E+03  0.7546771E-02  0.1082802E+00
         21   -1    0    0  504  503  0.00000000000E+00  0.00000000000E+00  0.25102174323E+03  0.25102174323E+03  0.00000000000E+00 0.  1.
         21   -1    0    0  503  504 -0.00000000000E+00 -0.00000000000E+00 -0.92603352412E+02  0.92603352412E+02  0.00000000000E+00 0.  1.
         25    2    1    2    0    0 -0.76027613459E+02  0.36712544848E+02  0.10415465615E+03  0.18331971713E+03  0.12501966779E+03 0.  0.
         25    2    1    2    0    0  0.76027613459E+02 -0.36712544848E+02  0.54263734669E+02  0.16030537851E+03  0.12500101008E+03 0.  0.
          5    1    3    3  501    0 -0.81186388311E+02  0.74319808656E+02  0.90938371976E+02  0.14285146518E+03  0.47000000000E+01 0.  1.
         -5    1    3    3    0  501  0.51587748515E+01 -0.37607263808E+02  0.13216284176E+02  0.40468251958E+02  0.47000000000E+01 0.  1.
          5    1    4    4  502    0  0.77883068427E+02 -0.55083010980E+02 -0.73708298748E+01  0.95793160399E+02  0.47000000000E+01 0.  1.
         -5    1    4    4    0  502 -0.18554549676E+01  0.18370466132E+02  0.61634564544E+02  0.64512218111E+02  0.47000000000E+01 0.  1.
<mgrwt>
<rscale>  0 0.30492920E+03</rscale>
<asrwt>0</asrwt>
<pdfrwt beam="1">  1       21 0.38618730E-01 0.30492920E+03</pdfrwt>
<pdfrwt beam="2">  1       21 0.14246670E-01 0.30492920E+03</pdfrwt>
<totfact> 0.27114507E+05</totfact>
</mgrwt>
</event>
<event>
 8    1  0.4760912E-006  0.2983774E+03  0.7546771E-02  0.1086055E+00
         21   -1    0    0  504  503  0.00000000000E+00  0.00000000000E+00  0.32324353334E+03  0.32324353334E+03  0.00000000000E+00 0. -1.
         21   -1    0    0  503  504 -0.00000000000E+00 -0.00000000000E+00 -0.68856028816E+02  0.68856028816E+02  0.00000000000E+00 0. -1.
         25    2    1    2    0    0  0.47053313616E+00  0.81325974017E+02  0.12171817555E+03  0.19249824317E+03  0.12500449558E+03 0.  0.
         25    2    1    2    0    0 -0.47053313616E+00 -0.81325974017E+02  0.13266932897E+03  0.19960131898E+03  0.12500160094E+03 0.  0.
          5    1    3    3  501    0 -0.53509113709E+02  0.21038087368E+02  0.86838237787E+02  0.10425351750E+03  0.47000000000E+01 0.  1.
         -5    1    3    3    0  501  0.53979646845E+02  0.60287886648E+02  0.34879937762E+02  0.88244725668E+02  0.47000000000E+01 0.  1.
          5    1    4    4  502    0 -0.87491883057E+01 -0.10890310727E+03  0.68306634160E+02  0.12893533782E+03  0.47000000000E+01 0.  1.
         -5    1    4    4    0  502  0.82786551696E+01  0.27577133253E+02  0.64362694813E+02  0.70665981161E+02  0.47000000000E+01 0.  1.
<mgrwt>
<rscale>  0 0.29837739E+03</rscale>
<asrwt>0</asrwt>
<pdfrwt beam="1">  1       21 0.49729773E-01 0.29837739E+03</pdfrwt>
<pdfrwt beam="2">  1       21 0.10593235E-01 0.29837739E+03</pdfrwt>
<totfact> 0.27519510E+05</totfact>
</mgrwt>
</event>
<event>
 8    1  0.4760912E-006  0.2985968E+03  0.7546771E-02  0.1085944E+00
         21   -1    0    0  504  503  0.00000000000E+00  0.00000000000E+00  0.14928260945E+03  0.14928260945E+03  0.00000000000E+00 0.  1.
         21   -1    0    0  503  504 -0.00000000000E+00 -0.00000000000E+00 -0.14931417825E+03  0.14931417825E+03  0.00000000000E+00 0.  1.
         25    2    1    2    0    0 -0.13565854599E+02  0.55101560967E+02 -0.58710195929E+02  0.14930290336E+03  0.12499702162E+03 0.  0.
         25    2    1    2    0    0  0.13565854599E+02 -0.55101560967E+02  0.58678627126E+02  0.14929388434E+03  0.12500107275E+03 0.  0.
          5    1    3    3  501    0 -0.52742688115E+02  0.10526465494E+01  0.94326647942E+01  0.53795579553E+02  0.47000000000E+01 0. -1.
         -5    1    3    3    0  501  0.39176833515E+02  0.54048914418E+02 -0.68142860723E+02  0.95507323811E+02  0.47000000000E+01 0. -1.
          5    1    4    4  502    0  0.49583473245E+02  0.19334940632E+02  0.32000028722E+02  0.62277223658E+02  0.47000000000E+01 0. -1.
         -5    1    4    4    0  502 -0.36017618646E+02 -0.74436501599E+02  0.26678598404E+02  0.87016660681E+02  0.47000000000E+01 0. -1.
<mgrwt>
<rscale>  0 0.29859679E+03</rscale>
<asrwt>0</asrwt>
<pdfrwt beam="1">  1       21 0.22966555E-01 0.29859679E+03</pdfrwt>
<pdfrwt beam="2">  1       21 0.22971412E-01 0.29859679E+03</pdfrwt>
<totfact> 0.30909727E+05</totfact>
</mgrwt>
</event>
<event>
 8    1  0.4760912E-006  0.2649298E+03  0.7546771E-02  0.1104217E+00
         21   -1    0    0  504  503  0.00000000000E+00  0.00000000000E+00  0.16401216767E+02  0.16401216767E+02  0.00000000000E+00 0. -1.
         21   -1    0    0  503  504 -0.00000000000E+00 -0.00000000000E+00 -0.10698562237E+04  0.10698562237E+04  0.00000000000E+00 0. -1.
         25    2    1    2    0    0 -0.81553480853E+00 -0.42042067723E+02 -0.57750557989E+03  0.59237332768E+03  0.12500105598E+03 0.  0.
         25    2    1    2    0    0  0.81553480853E+00  0.42042067723E+02 -0.47594942704E+03  0.49388411277E+03  0.12500183677E+03 0.  0.
          5    1    3    3  501    0 -0.48057724749E+02 -0.24464773975E+02 -0.47472723088E+03  0.47780341544E+03  0.47000000000E+01 0.  1.
         -5    1    3    3    0  501  0.47242189940E+02 -0.17577293748E+02 -0.10277834901E+03  0.11456991224E+03  0.47000000000E+01 0.  1.
          5    1    4    4  502    0 -0.94449958380E+01  0.77874000261E+02 -0.19199494620E+03  0.20745533792E+03  0.47000000000E+01 0. -1.
         -5    1    4    4    0  502  0.10260530647E+02 -0.35831932538E+02 -0.28395448084E+03  0.28642877486E+03  0.47000000000E+01 0. -1.
<mgrwt>
<rscale>  0 0.26492976E+03</rscale>
<asrwt>0</asrwt>
<pdfrwt beam="1">  1       21 0.25232643E-02 0.26492976E+03</pdfrwt>
<pdfrwt beam="2">  1       21 0.16459325E+00 0.26492976E+03</pdfrwt>
<totfact> 0.19066253E+05</totfact>
</mgrwt>
</event>
<event>
 8    1  0.4760912E-006  0.4984825E+03  0.7546771E-02  0.1014176E+00
         21   -1    0    0  504  503  0.00000000000E+00  0.00000000000E+00  0.73364535169E+02  0.73364535169E+02  0.00000000000E+00 0. -1.
         21   -1    0    0  503  504 -0.00000000000E+00 -0.00000000000E+00 -0.84674717808E+03  0.84674717808E+03  0.00000000000E+00 0. -1.
         25    2    1    2    0    0 -0.14867447340E+03  0.24039450563E+02 -0.67153120561E+03  0.69947435570E+03  0.12501287914E+03 0.  0.
         25    2    1    2    0    0  0.14867447340E+03 -0.24039450563E+02 -0.10185143731E+03  0.22063735755E+03  0.12500053616E+03 0.  0.
          5    1    3    3  501    0 -0.70432969766E+02  0.27881408078E+02 -0.11728440549E+03  0.13969931251E+03  0.47000000000E+01 0.  1.
         -5    1    3    3    0  501 -0.78241503637E+02 -0.38419575152E+01 -0.55424680012E+03  0.55977504319E+03  0.47000000000E+01 0.  1.
          5    1    4    4  502    0 -0.13032386386E+02  0.19832888184E+02  0.57848351223E+00  0.24199404782E+02  0.47000000000E+01 0.  1.
         -5    1    4    4    0  502  0.16170685979E+03 -0.43872338747E+02 -0.10242992082E+03  0.19643795277E+03  0.47000000000E+01 0.  1.
<mgrwt>
<rscale>  0 0.49848255E+03</rscale>
<asrwt>0</asrwt>
<pdfrwt beam="1">  1       21 0.11286852E-01 0.49848255E+03</pdfrwt>
<pdfrwt beam="2">  1       21 0.13026880E+00 0.49848255E+03</pdfrwt>
<totfact> 0.25056078E+04</totfact>
</mgrwt>
</event>
<event>
 8    1  0.4760912E-006  0.2723425E+03  0.7546771E-02  0.1099946E+00
         21   -1    0    0  504  503  0.00000000000E+00  0.00000000000E+00  0.89777789429E+02  0.89777789429E+02  0.00000000000E+00 0. -1.
         21   -1    0    0  503  504 -0.00000000000E+00 -0.00000000000E+00 -0.20653898432E+03  0.20653898432E+03  0.00000000000E+00 0. -1.
         25    2    1    2    0    0 -0.68639037238E+01  0.49757163637E+02 -0.36594006506E+02  0.13955648995E+03  0.12495600852E+03 0.  0.
         25    2    1    2    0    0  0.68639037238E+01 -0.49757163637E+02 -0.80167188384E+02  0.15676028380E+03  0.12499647986E+03 0.  0.
          5    1    3    3  501    0 -0.27085707695E+02  0.81575532473E+02 -0.49660006029E+02  0.99380125068E+02  0.47000000000E+01 0. -1.
         -5    1    3    3    0  501  0.20221803971E+02 -0.31818368836E+02  0.13065999523E+02  0.40176364877E+02  0.47000000000E+01 0. -1.
          5    1    4    4  502    0  0.35159435583E+02  0.14825603645E+02 -0.76951903693E+02  0.86021334074E+02  0.47000000000E+01 0.  1.
         -5    1    4    4    0  502 -0.28295531859E+02 -0.64582767282E+02 -0.32152846912E+01  0.70738949728E+02  0.47000000000E+01 0.  1.
<mgrwt>
<rscale>  0 0.27234253E+03</rscale>
<asrwt>0</asrwt>
<pdfrwt beam="1">  1       21 0.13811968E-01 0.27234253E+03</pdfrwt>
<pdfrwt beam="2">  1       21 0.31775228E-01 0.27234253E+03</pdfrwt>
<totfact> 0.42686991E+05</totfact>
</mgrwt>
</event>
<event>
 8    1  0.4760912E-006  0.2554958E+03  0.7546771E-02  0.1109880E+00
         21   -1    0    0  504  503  0.00000000000E+00  0.00000000000E+00  0.97723778725E+02  0.97723778725E+02  0.00000000000E+00 0. -1.
         21   -1    0    0  503  504 -0.00000000000E+00 -0.00000000000E+00 -0.16699646339E+03  0.16699646339E+03  0.00000000000E+00 0. -1.
         25    2    1    2    0    0  0.19518329635E+02 -0.17685357443E+02 -0.35071629444E+02  0.13247622443E+03  0.12500477506E+03 0.  0.
         25    2    1    2    0    0 -0.19518329635E+02  0.17685357443E+02 -0.34201055225E+02  0.13224401769E+03  0.12500012390E+03 0.  0.
          5    1    3    3  501    0  0.35240332125E+02  0.37908678761E+02 -0.50528386083E+02  0.72485562244E+02  0.47000000000E+01 0. -1.
         -5    1    3    3    0  501 -0.15722002490E+02 -0.55594036204E+02  0.15456756639E+02  0.59990662187E+02  0.47000000000E+01 0. -1.
          5    1    4    4  502    0 -0.69466975536E+02  0.30358635392E+02 -0.22027803387E+02  0.79086165383E+02  0.47000000000E+01 0.  1.
         -5    1    4    4    0  502  0.49948645901E+02 -0.12673277949E+02 -0.12173251839E+02  0.53157852304E+02  0.47000000000E+01 0.  1.
<mgrwt>
<rscale>  0 0.25549580E+03</rscale>
<asrwt>0</asrwt>
<pdfrwt beam="1">  1       21 0.15034428E-01 0.25549580E+03</pdfrwt>
<pdfrwt beam="2">  1       21 0.25691763E-01 0.25549580E+03</pdfrwt>
<totfact> 0.55519133E+05</totfact>
</mgrwt>
</event>
<event>
 8    1  0.4760912E-006  0.3986671E+03  0.7546771E-02  0.1044242E+00
         21   -1    0    0  504  503  0.00000000000E+00  0.00000000000E+00  0.44295489521E+03  0.44295489521E+03  0.00000000000E+00 0. -1.
         21   -1    0    0  503  504 -0.00000000000E+00 -0.00000000000E+00 -0.89701816794E+02  0.89701816794E+02  0.00000000000E+00 0. -1.
         25    2    1    2    0    0  0.86753924013E+02 -0.19516675504E+02  0.34669214645E+03  0.37911456219E+03  0.12500105159E+03 0.  0.
         25    2    1    2    0    0 -0.86753924013E+02  0.19516675504E+02  0.65609319651E+01  0.15354214982E+03  0.12500000795E+03 0.  0.
          5    1    3    3  501    0  0.66317397932E+02 -0.63294179667E+02  0.14460933496E+03  0.17128368342E+03  0.47000000000E+01 0.  1.
         -5    1    3    3    0  501  0.20436526080E+02  0.43777504163E+02  0.20208281150E+03  0.20783087877E+03  0.47000000000E+01 0.  1.
          5    1    4    4  502    0 -0.46027967748E+02  0.43232654612E+02 -0.49339708623E+02  0.80275357905E+02  0.47000000000E+01 0.  1.
         -5    1    4    4    0  502 -0.40725956265E+02 -0.23715979108E+02  0.55900640589E+02  0.73266791911E+02  0.47000000000E+01 0.  1.
<mgrwt>
<rscale>  0 0.39866707E+03</rscale>
<asrwt>0</asrwt>
<pdfrwt beam="1">  1       21 0.68146906E-01 0.39866707E+03</pdfrwt>
<pdfrwt beam="2">  1       21 0.13800280E-01 0.39866707E+03</pdfrwt>
<totfact> 0.84194770E+04</totfact>
</mgrwt>
</event>
<event>
 8    1  0.4760912E-006  0.2617979E+03  0.7546771E-02  0.1106068E+00
         21   -1    0    0  504  503  0.00000000000E+00  0.00000000000E+00  0.19679379369E+03  0.19679379369E+03  0.00000000000E+00 0. -1.
         21   -1    0    0  503  504 -0.00000000000E+00 -0.00000000000E+00 -0.87068474773E+02  0.87068474773E+02  0.00000000000E+00 0. -1.
         25    2    1    2    0    0  0.13341952690E+02  0.25535636688E+02  0.83124566176E+02  0.15285589776E+03  0.12500062215E+03 0.  0.
         25    2    1    2    0    0 -0.13341952690E+02 -0.25535636688E+02  0.26600752746E+02  0.13100637070E+03  0.12499997070E+03 0.  0.
          5    1    3    3  501    0  0.41227169516E+02 -0.22929311276E+02  0.84317597057E+02  0.96731483992E+02  0.47000000000E+01 0. -1.
         -5    1    3    3    0  501 -0.27885216826E+02  0.48464947965E+02 -0.11930308811E+01  0.56124413773E+02  0.47000000000E+01 0. -1.
          5    1    4    4  502    0  0.28130896930E+02 -0.41885842795E+02 -0.29935245539E+02  0.58855586941E+02  0.47000000000E+01 0.  1.
         -5    1    4    4    0  502 -0.41472849620E+02  0.16350206107E+02  0.56535998285E+02  0.72150783761E+02  0.47000000000E+01 0.  1.
<mgrwt>
<rscale>  0 0.26179790E+03</rscale>
<asrwt>0</asrwt>
<pdfrwt beam="1">  1       21 0.30275968E-01 0.26179790E+03</pdfrwt>
<pdfrwt beam="2">  1       21 0.13395150E-01 0.26179790E+03</pdfrwt>
<totfact> 0.49741490E+05</totfact>
</mgrwt>
</event>
<event>
 8    1  0.4760912E-006  0.2543965E+03  0.7546771E-02  0.1110557E+00
         21   -1    0    0  504  503  0.00000000000E+00  0.00000000000E+00  0.40839731535E+02  0.40839731535E+02  0.00000000000E+00 0. -1.
         21   -1    0    0  503  504 -0.00000000000E+00 -0.00000000000E+00 -0.39616798727E+03  0.39616798727E+03  0.00000000000E+00 0. -1.
         25    2    1    2    0    0  0.15330274225E+02  0.13842193408E+02 -0.15833552336E+03  0.20279042328E+03  0.12500877646E+03 0.  0.
         25    2    1    2    0    0 -0.15330274225E+02 -0.13842193408E+02 -0.19699273237E+03  0.23421729552E+03  0.12499992515E+03 0.  0.
          5    1    3    3  501    0  0.52277080055E+02  0.20562062555E+02 -0.15484132657E+03  0.16478354872E+03  0.47000000000E+01 0.  1.
         -5    1    3    3    0  501 -0.36946805829E+02 -0.67198691472E+01 -0.34941967856E+01  0.38006874556E+02  0.47000000000E+01 0.  1.
          5    1    4    4  502    0 -0.31773708108E+02  0.10022864740E+02  0.13881400619E+01  0.33675559050E+02  0.47000000000E+01 0. -1.
         -5    1    4    4    0  502  0.16443433883E+02 -0.23865058147E+02 -0.19838087244E+03  0.20054173647E+03  0.47000000000E+01 0. -1.
<mgrwt>
<rscale>  0 0.25439650E+03</rscale>
<asrwt>0</asrwt>
<pdfrwt beam="1">  1       21 0.62830356E-02 0.25439650E+03</pdfrwt>
<pdfrwt beam="2">  1       21 0.60948921E-01 0.25439650E+03</pdfrwt>
<totfact> 0.45033168E+05</totfact>
</mgrwt>
</event>
<event>
 8    1  0.4760912E-006  0.3922666E+03  0.7546771E-02  0.1046491E+00
         21   -1    0    0  504  503  0.00000000000E+00  0.00000000000E+00  0.13896911446E+03  0.13896911446E+03  0.00000000000E+00 0. -1.
         21   -1    0    0  503  504 -0.00000000000E+00 -0.00000000000E+00 -0.27681172676E+03  0.27681172676E+03  0.00000000000E+00 0. -1.
         25    2    1    2    0    0 -0.90805974550E+02  0.12006467090E+03 -0.83163599142E+02  0.21261853381E+03  0.12501682481E+03 0.  0.
         25    2    1    2    0    0  0.90805974550E+02 -0.12006467090E+03 -0.54679013157E+02  0.20316230742E+03  0.12499551378E+03 0.  0.
          5    1    3    3  501    0 -0.28626007171E+02  0.12210585855E+03 -0.26359970217E+02  0.12824284389E+03  0.47000000000E+01 0. -1.
         -5    1    3    3    0  501 -0.62179967379E+02 -0.20411876521E+01 -0.56803628925E+02  0.84375689919E+02  0.47000000000E+01 0. -1.
          5    1    4    4  502    0  0.12010257518E+03 -0.75098011067E+02 -0.37262239120E+02  0.14654318236E+03  0.47000000000E+01 0. -1.
         -5    1    4    4    0  502 -0.29296600631E+02 -0.44966659831E+02 -0.17416774037E+02  0.56619125061E+02  0.47000000000E+01 0. -1.
<mgrwt>
<rscale>  0 0.39226665E+03</rscale>
<asrwt>0</asrwt>
<pdfrwt beam="1">  1       21 0.21379864E-01 0.39226665E+03</pdfrwt>
<pdfrwt beam="2">  1       21 0.42586419E-01 0.39226665E+03</pdfrwt>
<totfact> 0.10200142E+05</totfact>
</mgrwt>
</event>
<event>
 8    1  0.4760912E-006  0.3282622E+03  0.7546771E-02  0.1071908E+00
         21   -1    0    0  504  503  0.00000000000E+00  0.00000000000E+00  0.10827747371E+03  0.10827747371E+03  0.00000000000E+00 0.  1.
         21   -1    0    0  503  504 -0.00000000000E+00 -0.00000000000E+00 -0.24879607065E+03  0.24879607065E+03  0.00000000000E+00 0.  1.
         25    2    1    2    0    0  0.85538979670E+02 -0.58090050879E+02 -0.97413258574E+02  0.18922329395E+03  0.12499896388E+03 0.  0.
         25    2    1    2    0    0 -0.85538979670E+02  0.58090050879E+02 -0.43105338374E+02  0.16785025041E+03  0.12499706122E+03 0.  0.
          5    1    3    3  501    0  0.39518054318E+02  0.35641662731E+02 -0.13294125559E+02  0.55052960989E+02  0.47000000000E+01 0. -1.
         -5    1    3    3    0  501  0.46020925352E+02 -0.93731713611E+02 -0.84119133016E+02  0.13417033296E+03  0.47000000000E+01 0. -1.
          5    1    4    4  502    0 -0.99435210838E+02  0.85432542283E+02 -0.35657402577E+02  0.13593976899E+03  0.47000000000E+01 0.  1.
         -5    1    4    4    0  502  0.13896231168E+02 -0.27342491404E+02 -0.74479357969E+01  0.31910481420E+02  0.47000000000E+01 0.  1.
<mgrwt>
<rscale>  0 0.32826215E+03</rscale>
<asrwt>0</asrwt>
<pdfrwt beam="1">  1       21 0.16658073E-01 0.32826215E+03</pdfrwt>
<pdfrwt beam="2">  1       21 0.38276319E-01 0.32826215E+03</pdfrwt>
<totfact> 0.20591835E+05</totfact>
</mgrwt>
</event>
<event>
 8    1  0.4760912E-006  0.2719404E+03  0.7546771E-02  0.1100174E+00
         21   -1    0    0  504  503  0.00000000000E+00  0.00000000000E+00  0.85458367270E+02  0.85458367270E+02  0.00000000000E+00 0. -1.
         21   -1    0    0  503  504 -0.00000000000E+00 -0.00000000000E+00 -0.21633795592E+03  0.21633795592E+03  0.00000000000E+00 0. -1.
         25    2    1    2    0    0  0.18351462043E+02 -0.37636312891E+02 -0.10240335304E+03  0.16692853294E+03  0.12500168074E+03 0.  0.
         25    2    1    2    0    0 -0.18351462043E+02  0.37636312891E+02 -0.28476235617E+02  0.13486779026E+03  0.12500062658E+03 0.  0.
          5    1    3    3  501    0 -0.36807182265E+02 -0.45222379181E+02 -0.10588290046E+02  0.59447742860E+02  0.47000000000E+01 0.  1.
         -5    1    3    3    0  501  0.55158644308E+02  0.75860662900E+01 -0.91815062990E+02  0.10748079008E+03  0.47000000000E+01 0.  1.
          5    1    4    4  502    0 -0.47028244515E+02  0.72432197084E+02 -0.19238208253E+02  0.88601792382E+02  0.47000000000E+01 0. -1.
         -5    1    4    4    0  502  0.28676782472E+02 -0.34795884193E+02 -0.92380273642E+01  0.46265997874E+02  0.47000000000E+01 0. -1.
<mgrwt>
<rscale>  0 0.27194035E+03</rscale>
<asrwt>0</asrwt>
<pdfrwt beam="1">  1       21 0.13147441E-01 0.27194035E+03</pdfrwt>
<pdfrwt beam="2">  1       21 0.33282763E-01 0.27194035E+03</pdfrwt>
<totfact> 0.42595914E+05</totfact>
</mgrwt>
</event>
<event>
 8    1  0.4760912E-006  0.2808348E+03  0.7546771E-02  0.1095234E+00
         21   -1    0    0  504  503  0.00000000000E+00  0.00000000000E+00  0.39662934521E+03  0.39662934521E+03  0.00000000000E+00 0.  1.
         21   -1    0    0  503  504 -0.00000000000E+00 -0.00000000000E+00 -0.49711512015E+02  0.49711512015E+02  0.00000000000E+00 0.  1.
         25    2    1    2    0    0 -0.24551537460E+02  0.34582072141E+02  0.97373974979E+02  0.16403258049E+03  0.12500519491E+03 0.  0.
         25    2    1    2    0    0  0.24551537460E+02 -0.34582072141E+02  0.24954385822E+03  0.28230827673E+03  0.12500851264E+03 0.  0.
          5    1    3    3  501    0 -0.68777088085E+02  0.27182460126E+02  0.92739257720E+02  0.11870903043E+03  0.47000000000E+01 0.  1.
         -5    1    3    3    0  501  0.44225550625E+02  0.73996120151E+01  0.46347172588E+01  0.45323550061E+02  0.47000000000E+01 0.  1.
          5    1    4    4  502    0  0.67991240832E+02  0.80431135455E+01  0.10540164038E+03  0.12577398897E+03  0.47000000000E+01 0.  1.
         -5    1    4    4    0  502 -0.43439703372E+02 -0.42625185686E+02  0.14414221784E+03  0.15653428777E+03  0.47000000000E+01 0.  1.
<mgrwt>
<rscale>  0 0.28083479E+03</rscale>
<asrwt>0</asrwt>
<pdfrwt beam="1">  1       21 0.61019897E-01 0.28083479E+03</pdfrwt>
<pdfrwt beam="2">  1       21 0.76479252E-02 0.28083479E+03</pdfrwt>
<totfact> 0.31743630E+05</totfact>
</mgrwt>
</event>
<event>
 8    1  0.4760912E-006  0.2804510E+03  0.7546771E-02  0.1095443E+00
         21   -1    0    0  504  503  0.00000000000E+00  0.00000000000E+00  0.47055338801E+03  0.47055338801E+03  0.00000000000E+00 0. -1.
         21   -1    0    0  503  504 -0.00000000000E+00 -0.00000000000E+00 -0.41787372705E+02  0.41787372705E+02  0.00000000000E+00 0. -1.
         25    2    1    2    0    0 -0.56750368959E+02  0.27981724754E+02  0.20346829527E+03  0.24703757394E+03  0.12499853784E+03 0.  0.
         25    2    1    2    0    0  0.56750368959E+02 -0.27981724754E+02  0.22529772004E+03  0.26530318677E+03  0.12499254762E+03 0.  0.
          5    1    3    3  501    0  0.10962776964E+02 -0.29926367969E+02  0.95870518664E+01  0.33612074349E+02  0.47000000000E+01 0. -1.
         -5    1    3    3    0  501 -0.67713145924E+02  0.57908092723E+02  0.19388124340E+03  0.21342549959E+03  0.47000000000E+01 0. -1.
          5    1    4    4  502    0  0.90331749418E+02 -0.27883216938E+02  0.20496512968E+03  0.22576557116E+03  0.47000000000E+01 0. -1.
         -5    1    4    4    0  502 -0.33581380459E+02 -0.98507816286E-01  0.20332590361E+02  0.39537615610E+02  0.47000000000E+01 0. -1.
<mgrwt>
<rscale>  0 0.28045099E+03</rscale>
<asrwt>0</asrwt>
<pdfrwt beam="1">  1       21 0.72392825E-01 0.28045099E+03</pdfrwt>
<pdfrwt beam="2">  1       21 0.64288269E-02 0.28045099E+03</pdfrwt>
<totfact> 0.29462956E+05</totfact>
</mgrwt>
</event>
<event>
 8    1  0.4760912E-006  0.4180585E+03  0.7546771E-02  0.1037700E+00
         21   -1    0    0  504  503  0.00000000000E+00  0.00000000000E+00  0.52578745371E+02  0.52578745371E+02  0.00000000000E+00 0.  1.
         21   -1    0    0  503  504 -0.00000000000E+00 -0.00000000000E+00 -0.83100554464E+03  0.83100554464E+03  0.00000000000E+00 0.  1.
         25    2    1    2    0    0 -0.36876281535E+02 -0.16310404466E+03 -0.41090496087E+03  0.46090218272E+03  0.12500058258E+03 0.  0.
         25    2    1    2    0    0  0.36876281535E+02  0.16310404466E+03 -0.36752183839E+03  0.42268210728E+03  0.12500029039E+03 0.  0.
          5    1    3    3  501    0 -0.17320574250E+02 -0.15851891080E+03 -0.41034597928E+03  0.44026601059E+03  0.47000000000E+01 0. -1.
         -5    1    3    3    0  501 -0.19555707285E+02 -0.45851338638E+01 -0.55898159853E+00  0.20636172135E+02  0.47000000000E+01 0. -1.
          5    1    4    4  502    0  0.60242396194E+02  0.27182531055E+02 -0.16307922527E+03  0.17602545273E+03  0.47000000000E+01 0.  1.
         -5    1    4    4    0  502 -0.23366114659E+02  0.13592151361E+03 -0.20444261312E+03  0.24665665456E+03  0.47000000000E+01 0.  1.
<mgrwt>
<rscale>  0 0.41805851E+03</rscale>
<asrwt>0</asrwt>
<pdfrwt beam="1">  1       21 0.80890383E-02 0.41805851E+03</pdfrwt>
<pdfrwt beam="2">  1       21 0.12784700E+00 0.41805851E+03</pdfrwt>
<totfact> 0.48797683E+04</totfact>
</mgrwt>
</event>
<event>
 8    1  0.4760912E-006  0.2665957E+03  0.7546771E-02  0.1103244E+00
         21   -1    0    0  504  503  0.00000000000E+00  0.00000000000E+00  0.22548402737E+03  0.22548402737E+03  0.00000000000E+00 0.  1.
         21   -1    0    0  503  504 -0.00000000000E+00 -0.00000000000E+00 -0.78800753477E+02  0.78800753477E+02  0.00000000000E+00 0.  1.
         25    2    1    2    0    0  0.46295404033E+02 -0.31254203638E+00  0.72480685137E+02  0.15172560659E+03  0.12499539136E+03 0.  0.
         25    2    1    2    0    0 -0.46295404033E+02  0.31254203638E+00  0.74202588756E+02  0.15255917426E+03  0.12499966142E+03 0.  0.
          5    1    3    3  501    0 -0.79027900679E+01 -0.53377421444E+02  0.14311070640E+02  0.56022316568E+02  0.47000000000E+01 0. -1.
         -5    1    3    3    0  501  0.54198194101E+02  0.53064879407E+02  0.58169614498E+02  0.95703290022E+02  0.47000000000E+01 0. -1.
          5    1    4    4  502    0 -0.88985913877E+02 -0.63259591880E+01  0.43593281754E+02  0.99403092720E+02  0.47000000000E+01 0. -1.
         -5    1    4    4    0  502  0.42690509844E+02  0.66385012243E+01  0.30609307002E+02  0.53156081538E+02  0.47000000000E+01 0. -1.
<mgrwt>
<rscale>  0 0.26659566E+03</rscale>
<asrwt>0</asrwt>
<pdfrwt beam="1">  1       21 0.34689850E-01 0.26659566E+03</pdfrwt>
<pdfrwt beam="2">  1       21 0.12123193E-01 0.26659566E+03</pdfrwt>
<totfact> 0.45465043E+05</totfact>
</mgrwt>
</event>
<event>
 8    1  0.4760912E-006  0.3034570E+03  0.7546771E-02  0.1083525E+00
         21   -1    0    0  504  503  0.00000000000E+00  0.00000000000E+00  0.13182793934E+03  0.13182793934E+03  0.00000000000E+00 0. -1.
         21   -1    0    0  503  504 -0.00000000000E+00 -0.00000000000E+00 -0.17463323014E+03  0.17463323014E+03  0.00000000000E+00 0. -1.
         25    2    1    2    0    0  0.56140506408E+02  0.65138007232E+02 -0.20182013250E+02  0.15306248822E+03  0.12500438071E+03 0.  0.
         25    2    1    2    0    0 -0.56140506408E+02 -0.65138007232E+02 -0.22623277550E+02  0.15339868125E+03  0.12499850510E+03 0.  0.
          5    1    3    3  501    0  0.87939371619E+02  0.27018731186E+02 -0.38640355290E+02  0.99892502084E+02  0.47000000000E+01 0.  1.
         -5    1    3    3    0  501 -0.31798865211E+02  0.38119276046E+02  0.18458342040E+02  0.53169986137E+02  0.47000000000E+01 0.  1.
          5    1    4    4  502    0 -0.24942052416E+02 -0.38110818010E+02 -0.74187936594E+02  0.87180733905E+02  0.47000000000E+01 0.  1.
         -5    1    4    4    0  502 -0.31198453992E+02 -0.27027189222E+02  0.51564659044E+02  0.66217947348E+02  0.47000000000E+01 0.  1.
<mgrwt>
<rscale>  0 0.30345701E+03</rscale>
<asrwt>0</asrwt>
<pdfrwt beam="1">  1       21 0.20281221E-01 0.30345701E+03</pdfrwt>
<pdfrwt beam="2">  1       21 0.26866651E-01 0.30345701E+03</pdfrwt>
<totfact> 0.28920121E+05</totfact>
</mgrwt>
</event>
<event>
 8    1  0.4760912E-006  0.3655163E+03  0.7546771E-02  0.1056421E+00
         21   -1    0    0  504  503  0.00000000000E+00  0.00000000000E+00  0.82948073873E+03  0.82948073873E+03  0.00000000000E+00 0.  1.
         21   -1    0    0  503  504 -0.00000000000E+00 -0.00000000000E+00 -0.40266805553E+02  0.40266805553E+02  0.00000000000E+00 0.  1.
         25    2    1    2    0    0 -0.23674395319E+02 -0.12870410263E+03  0.33399644581E+03  0.37987676146E+03  0.12501001982E+03 0.  0.
         25    2    1    2    0    0  0.23674395319E+02  0.12870410263E+03  0.45521748736E+03  0.48987078282E+03  0.12500080013E+03 0.  0.
          5    1    3    3  501    0 -0.70138143404E+02 -0.86782524797E+02  0.16179874193E+03  0.19659981857E+03  0.47000000000E+01 0.  1.
         -5    1    3    3    0  501  0.46463748086E+02 -0.41921577833E+02  0.17219770388E+03  0.18327694290E+03  0.47000000000E+01 0.  1.
          5    1    4    4  502    0 -0.18988661006E+02  0.13425204527E+03  0.31110996267E+03  0.33940489062E+03  0.47000000000E+01 0.  1.
         -5    1    4    4    0  502  0.42663056325E+02 -0.55479426350E+01  0.14410752470E+03  0.15046589220E+03  0.47000000000E+01 0.  1.
<mgrwt>
<rscale>  0 0.36551629E+03</rscale>
<asrwt>0</asrwt>
<pdfrwt beam="1">  1       21 0.12761241E+00 0.36551629E+03</pdfrwt>
<pdfrwt beam="2">  1       21 0.61948938E-02 0.36551629E+03</pdfrwt>
<totfact> 0.79401304E+04</totfact>
</mgrwt>
</event>
<event>
 8    1  0.4760912E-006  0.5040419E+03  0.7546771E-02  0.1012729E+00
         21   -1    0    0  504  503  0.00000000000E+00  0.00000000000E+00  0.71857579220E+03  0.71857579220E+03  0.00000000000E+00 0. -1.
         21   -1    0    0  503  504 -0.00000000000E+00 -0.00000000000E+00 -0.88389503600E+02  0.88389503600E+02  0.00000000000E+00 0. -1.
         25    2    1    2    0    0 -0.19916354052E+03  0.55902711630E+02  0.42944709361E+03  0.49278788886E+03  0.12499547255E+03 0.  0.
         25    2    1    2    0    0  0.19916354052E+03 -0.55902711630E+02  0.20073919500E+03  0.31417740694E+03  0.12497995673E+03 0.  0.
          5    1    3    3  501    0 -0.14563742722E+03  0.76420796817E+02  0.21484586466E+03  0.27061270103E+03  0.47000000000E+01 0. -1.
         -5    1    3    3    0  501 -0.53526113300E+02 -0.20518085187E+02  0.21460122894E+03  0.22217518783E+03  0.47000000000E+01 0. -1.
          5    1    4    4  502    0  0.36052222496E+01 -0.38622557282E+02  0.98165954416E+01  0.40288399131E+02  0.47000000000E+01 0. -1.
         -5    1    4    4    0  502  0.19555831827E+03 -0.17280154348E+02  0.19092259955E+03  0.27388900781E+03  0.47000000000E+01 0. -1.
<mgrwt>
<rscale>  0 0.50404189E+03</rscale>
<asrwt>0</asrwt>
<pdfrwt beam="1">  1       21 0.11055012E+00 0.50404189E+03</pdfrwt>
<pdfrwt beam="2">  1       21 0.13598386E-01 0.50404189E+03</pdfrwt>
<totfact> 0.27024315E+04</totfact>
</mgrwt>
</event>
<event>
 8    1  0.4760912E-006  0.3697965E+03  0.7546771E-02  0.1054771E+00
         21   -1    0    0  504  503  0.00000000000E+00  0.00000000000E+00  0.97382738469E+02  0.97382738469E+02  0.00000000000E+00 0.  1.
         21   -1    0    0  503  504 -0.00000000000E+00 -0.00000000000E+00 -0.35106182289E+03  0.35106182289E+03  0.00000000000E+00 0.  1.
         25    2    1    2    0    0 -0.31501625298E+02  0.12353027285E+02  0.33195431431E+02  0.13369193438E+03  0.12500658771E+03 0.  0.
         25    2    1    2    0    0  0.31501625298E+02 -0.12353027285E+02 -0.28687451585E+03  0.31475262698E+03  0.12500911432E+03 0.  0.
          5    1    3    3  501    0 -0.44730953774E+02  0.54708332190E+02 -0.10074078844E+02  0.71536262840E+02  0.47000000000E+01 0.  1.
         -5    1    3    3    0  501  0.13229328477E+02 -0.42355304905E+02  0.43269510275E+02  0.62155671543E+02  0.47000000000E+01 0.  1.
          5    1    4    4  502    0  0.70838453866E+01 -0.67240741272E+02 -0.12803292471E+03  0.14486551681E+03  0.47000000000E+01 0.  1.
         -5    1    4    4    0  502  0.24417779911E+02  0.54887713986E+02 -0.15884159115E+03  0.16988711017E+03  0.47000000000E+01 0.  1.
<mgrwt>
<rscale>  0 0.36979649E+03</rscale>
<asrwt>0</asrwt>
<pdfrwt beam="1">  1       21 0.14981960E-01 0.36979649E+03</pdfrwt>
<pdfrwt beam="2">  1       21 0.54009512E-01 0.36979649E+03</pdfrwt>
<totfact> 0.12111908E+05</totfact>
</mgrwt>
</event>
<event>
 8    1  0.4760912E-006  0.4637248E+03  0.7546771E-02  0.1023706E+00
         21   -1    0    0  504  503  0.00000000000E+00  0.00000000000E+00  0.89230343426E+02  0.89230343426E+02  0.00000000000E+00 0. -1.
         21   -1    0    0  503  504 -0.00000000000E+00 -0.00000000000E+00 -0.60248756509E+03  0.60248756509E+03  0.00000000000E+00 0. -1.
         25    2    1    2    0    0  0.12693667343E+03  0.95046473767E+02 -0.86635303389E+02  0.21972482488E+03  0.12500628640E+03 0.  0.
         25    2    1    2    0    0 -0.12693667343E+03 -0.95046473767E+02 -0.42662191827E+03  0.47199308363E+03  0.12499783441E+03 0.  0.
          5    1    3    3  501    0  0.73134689855E+02 -0.90465925563E+01  0.13856732124E+00  0.73841945383E+02  0.47000000000E+01 0. -1.
         -5    1    3    3    0  501  0.53801983575E+02  0.10409306632E+03 -0.86773870710E+02  0.14588287950E+03  0.47000000000E+01 0. -1.
          5    1    4    4  502    0 -0.91602976591E+02 -0.66243531593E+02 -0.13211476789E+03  0.17394169338E+03  0.47000000000E+01 0. -1.
         -5    1    4    4    0  502 -0.35333696838E+02 -0.28802942174E+02 -0.29450715038E+03  0.29805139025E+03  0.47000000000E+01 0. -1.
<mgrwt>
<rscale>  0 0.46372480E+03</rscale>
<asrwt>0</asrwt>
<pdfrwt beam="1">  1       21 0.13727746E-01 0.46372480E+03</pdfrwt>
<pdfrwt beam="2">  1       21 0.92690391E-01 0.46372480E+03</pdfrwt>
<totfact> 0.41211492E+04</totfact>
</mgrwt>
</event>
<event>
 8    1  0.4760912E-006  0.2578081E+03  0.7546771E-02  0.1108467E+00
         21   -1    0    0  504  503  0.00000000000E+00  0.00000000000E+00  0.26482357313E+03  0.26482357313E+03  0.00000000000E+00 0. -1.
         21   -1    0    0  503  504 -0.00000000000E+00 -0.00000000000E+00 -0.62744621931E+02  0.62744621931E+02  0.00000000000E+00 0. -1.
         25    2    1    2    0    0 -0.84216697483E+01 -0.62374058378E+01  0.13876909218E+03  0.18706282918E+03  0.12500324541E+03 0.  0.
         25    2    1    2    0    0  0.84216697483E+01  0.62374058378E+01  0.63309859026E+02  0.14050536589E+03  0.12499515927E+03 0.  0.
          5    1    3    3  501    0  0.20289117363E+02  0.47855080152E+02  0.25215130033E+02  0.57962485819E+02  0.47000000000E+01 0. -1.
         -5    1    3    3    0  501 -0.28710787112E+02 -0.54092485990E+02  0.11355396214E+03  0.12910034336E+03  0.47000000000E+01 0. -1.
          5    1    4    4  502    0 -0.12449258258E+02  0.56180705682E+02  0.63966675988E+02  0.86168911790E+02  0.47000000000E+01 0.  1.
         -5    1    4    4    0  502  0.20870928006E+02 -0.49943299845E+02 -0.65681696194E+00  0.54336454096E+02  0.47000000000E+01 0.  1.
<mgrwt>
<rscale>  0 0.25780811E+03</rscale>
<asrwt>0</asrwt>
<pdfrwt beam="1">  1       21 0.40742087E-01 0.25780811E+03</pdfrwt>
<pdfrwt beam="2">  1       21 0.96530189E-02 0.25780811E+03</pdfrwt>
<totfact> 0.49476334E+05</totfact>
</mgrwt>
</event>
<event>
 8    1  0.4760912E-006  0.2549851E+03  0.7546771E-02  0.1110194E+00
         21   -1    0    0  504  503  0.00000000000E+00  0.00000000000E+00  0.65304600265E+03  0.65304600265E+03  0.00000000000E+00 0. -1.
         21   -1    0    0  503  504 -0.00000000000E+00 -0.00000000000E+00 -0.24890048410E+02  0.24890048410E+02  0.00000000000E+00 0. -1.
         25    2    1    2    0    0  0.64813318179E+01 -0.21582460596E+02  0.34344158511E+03  0.36617049045E+03  0.12498358061E+03 0.  0.
         25    2    1    2    0    0 -0.64813318179E+01  0.21582460596E+02  0.28471436913E+03  0.31176556062E+03  0.12501072966E+03 0.  0.
          5    1    3    3  501    0 -0.18997456163E+02 -0.47350057541E+02  0.31688155616E+03  0.32099679426E+03  0.47000000000E+01 0.  1.
         -5    1    3    3    0  501  0.25478787981E+02  0.25767596945E+02  0.26560028946E+02  0.45173696183E+02  0.47000000000E+01 0.  1.
          5    1    4    4  502    0  0.23565873556E+02 -0.13188821918E+02  0.45113392967E+01  0.27780165627E+02  0.47000000000E+01 0. -1.
         -5    1    4    4    0  502 -0.30047205373E+02  0.34771282515E+02  0.28020302984E+03  0.28398539499E+03  0.47000000000E+01 0. -1.
<mgrwt>
<rscale>  0 0.25498507E+03</rscale>
<asrwt>0</asrwt>
<pdfrwt beam="1">  1       21 0.10046860E+00 0.25498507E+03</pdfrwt>
<pdfrwt beam="2">  1       21 0.38292387E-02 0.25498507E+03</pdfrwt>
<totfact> 0.33645542E+05</totfact>
</mgrwt>
</event>
<event>
 8    1  0.4760912E-006  0.2786846E+03  0.7546771E-02  0.1096410E+00
         21   -1    0    0  504  503  0.00000000000E+00  0.00000000000E+00  0.25541559094E+02  0.25541559094E+02  0.00000000000E+00 0. -1.
         21   -1    0    0  503  504 -0.00000000000E+00 -0.00000000000E+00 -0.76018369747E+03  0.76018369747E+03  0.00000000000E+00 0. -1.
         25    2    1    2    0    0  0.90442935596E+01 -0.44789846395E+02 -0.48339617464E+03  0.50138294285E+03  0.12500025659E+03 0.  0.
         25    2    1    2    0    0 -0.90442935596E+01  0.44789846395E+02 -0.25124596375E+03  0.28434231371E+03  0.12505233898E+03 0.  0.
          5    1    3    3  501    0  0.15666577732E+02  0.23428087587E+02 -0.25300068837E+02  0.38164124894E+02  0.47000000000E+01 0. -1.
         -5    1    3    3    0  501 -0.66222841720E+01 -0.68217933982E+02 -0.45809610580E+03  0.46321881796E+03  0.47000000000E+01 0. -1.
          5    1    4    4  502    0  0.19930911617E+02  0.63871096142E+02 -0.60238709058E+02  0.90152926903E+02  0.47000000000E+01 0.  1.
         -5    1    4    4    0  502 -0.28975205176E+02 -0.19081249747E+02 -0.19100725469E+03  0.19418938681E+03  0.47000000000E+01 0.  1.
<mgrwt>
<rscale>  0 0.27868460E+03</rscale>
<asrwt>0</asrwt>
<pdfrwt beam="1">  1       21 0.39294707E-02 0.27868460E+03</pdfrwt>
<pdfrwt beam="2">  1       21 0.11695134E+00 0.27868460E+03</pdfrwt>
<totfact> 0.22105407E+05</totfact>
</mgrwt>
</event>
<event>
 8    1  0.4760912E-006  0.2987512E+03  0.7546771E-02  0.1085867E+00
         21   -1    0    0  504  503  0.00000000000E+00  0.00000000000E+00  0.14741111889E+03  0.14741111889E+03  0.00000000000E+00 0.  1.
         21   -1    0    0  503  504 -0.00000000000E+00 -0.00000000000E+00 -0.15136631125E+03  0.15136631125E+03  0.00000000000E+00 0.  1.
         25    2    1    2    0    0 -0.47557260885E+02 -0.33686400274E+02 -0.59362669094E+02  0.15014481864E+03  0.12499229358E+03 0.  0.
         25    2    1    2    0    0  0.47557260885E+02  0.33686400274E+02  0.55407476740E+02  0.14863261150E+03  0.12500079239E+03 0.  0.
          5    1    3    3  501    0  0.14641388160E+02 -0.63989327949E+02 -0.14014832227E+02  0.67286773299E+02  0.47000000000E+01 0.  1.
         -5    1    3    3    0  501 -0.62198649045E+02  0.30302927675E+02 -0.45347836866E+02  0.82858045338E+02  0.47000000000E+01 0.  1.
          5    1    4    4  502    0  0.40478169672E+02 -0.42609195202E+02  0.37273266472E+02  0.69752506258E+02  0.47000000000E+01 0. -1.
         -5    1    4    4    0  502  0.70790912130E+01  0.76295595476E+02  0.18134210268E+02  0.78880105245E+02  0.47000000000E+01 0. -1.
<mgrwt>
<rscale>  0 0.29875125E+03</rscale>
<asrwt>0</asrwt>
<pdfrwt beam="1">  1       21 0.22678634E-01 0.29875125E+03</pdfrwt>
<pdfrwt beam="2">  1       21 0.23287125E-01 0.29875125E+03</pdfrwt>
<totfact> 0.30846715E+05</totfact>
</mgrwt>
</event>
<event>
 8    1  0.4760912E-006  0.3342172E+03  0.7546771E-02  0.1069286E+00
         21   -1    0    0  504  503  0.00000000000E+00  0.00000000000E+00  0.79425402561E+02  0.79425402561E+02  0.00000000000E+00 0. -1.
         21   -1    0    0  503  504 -0.00000000000E+00 -0.00000000000E+00 -0.35159127867E+03  0.35159127867E+03  0.00000000000E+00 0. -1.
         25    2    1    2    0    0 -0.48127745434E+02 -0.99133014432E+02 -0.11962744592E+03  0.20512671704E+03  0.12499043882E+03 0.  0.
         25    2    1    2    0    0  0.48127745434E+02  0.99133014432E+02 -0.15253843019E+03  0.22588996419E+03  0.12495866839E+03 0.  0.
          5    1    3    3  501    0  0.37422815939E+02 -0.10985068641E+02 -0.50884112045E+02  0.64283915130E+02  0.47000000000E+01 0. -1.
         -5    1    3    3    0  501 -0.85550561372E+02 -0.88147945791E+02 -0.68743333879E+02  0.14084280191E+03  0.47000000000E+01 0. -1.
          5    1    4    4  502    0  0.90474551876E+02  0.69864752641E+02 -0.11307756317E+03  0.16085817819E+03  0.47000000000E+01 0. -1.
         -5    1    4    4    0  502 -0.42346806443E+02  0.29268261791E+02 -0.39460867018E+02  0.65031785997E+02  0.47000000000E+01 0. -1.
<mgrwt>
<rscale>  0 0.33421717E+03</rscale>
<asrwt>0</asrwt>
<pdfrwt beam="1">  1       21 0.12219293E-01 0.33421717E+03</pdfrwt>
<pdfrwt beam="2">  1       21 0.54090965E-01 0.33421717E+03</pdfrwt>
<totfact> 0.17666680E+05</totfact>
</mgrwt>
</event>
<event>
 8    1  0.4760912E-006  0.7405397E+03  0.7546771E-02  0.9650310E-01
         21   -1    0    0  504  503  0.00000000000E+00  0.00000000000E+00  0.24509760072E+03  0.24509760072E+03  0.00000000000E+00 0.  1.
         21   -1    0    0  503  504 -0.00000000000E+00 -0.00000000000E+00 -0.55936802560E+03  0.55936802560E+03  0.00000000000E+00 0.  1.
         25    2    1    2    0    0  0.15395228199E+03  0.10853027057E+03  0.16142496444E+03  0.27778576869E+03  0.12500715734E+03 0.  0.
         25    2    1    2    0    0 -0.15395228199E+03 -0.10853027057E+03 -0.47569538931E+03  0.52667985762E+03  0.12500177700E+03 0.  0.
          5    1    3    3  501    0  0.16273720410E+03  0.12590844627E+03  0.15050598287E+03  0.25497151864E+03  0.47000000000E+01 0. -1.
         -5    1    3    3    0  501 -0.87849221137E+01 -0.17378175692E+02  0.10918981568E+02  0.22814250051E+02  0.47000000000E+01 0. -1.
          5    1    4    4  502    0 -0.13214147538E+03 -0.66020651888E+02 -0.21066476536E+03  0.25733602421E+03  0.47000000000E+01 0.  1.
         -5    1    4    4    0  502 -0.21810806608E+02 -0.42509618687E+02 -0.26503062395E+03  0.26934383342E+03  0.47000000000E+01 0.  1.
<mgrwt>
<rscale>  0 0.74053970E+03</rscale>
<asrwt>0</asrwt>
<pdfrwt beam="1">  1       21 0.37707324E-01 0.74053970E+03</pdfrwt>
<pdfrwt beam="2">  1       21 0.86056619E-01 0.74053970E+03</pdfrwt>
<totfact> 0.65228454E+03</totfact>
</mgrwt>
</event>
<event>
 8    1  0.4760912E-006  0.2863186E+03  0.7546771E-02  0.1092287E+00
         21   -1    0    0  504  503  0.00000000000E+00  0.00000000000E+00  0.17583200645E+03  0.17583200645E+03  0.00000000000E+00 0. -1.
         21   -1    0    0  503  504 -0.00000000000E+00 -0.00000000000E+00 -0.11655777995E+03  0.11655777995E+03  0.00000000000E+00 0. -1.
         25    2    1    2    0    0 -0.19016595615E+02 -0.53866550249E+02 -0.11235716920E+02  0.13789436062E+03  0.12500150884E+03 0.  0.
         25    2    1    2    0    0  0.19016595615E+02  0.53866550249E+02  0.70509943419E+02  0.15449542578E+03  0.12503578816E+03 0.  0.
          5    1    3    3  501    0 -0.52561467792E+02 -0.67563749069E+02  0.21993874387E+02  0.88506432508E+02  0.47000000000E+01 0.  1.
         -5    1    3    3    0  501  0.33544872177E+02  0.13697198820E+02 -0.33229591307E+02  0.49387928113E+02  0.47000000000E+01 0.  1.
          5    1    4    4  502    0 -0.12830583516E+02 -0.73499787629E+01 -0.29246333234E+02  0.33107160386E+02  0.47000000000E+01 0.  1.
         -5    1    4    4    0  502  0.31847179131E+02  0.61216529012E+02  0.99756276653E+02  0.12138826539E+03  0.47000000000E+01 0.  1.
<mgrwt>
<rscale>  0 0.28631862E+03</rscale>
<asrwt>0</asrwt>
<pdfrwt beam="1">  1       21 0.27051078E-01 0.28631862E+03</pdfrwt>
<pdfrwt beam="2">  1       21 0.17931966E-01 0.28631862E+03</pdfrwt>
<totfact> 0.36077382E+05</totfact>
</mgrwt>
</event>
<event>
 8    1  0.4760912E-006  0.2865112E+03  0.7546771E-02  0.1092185E+00
         21   -1    0    0  504  503  0.00000000000E+00  0.00000000000E+00  0.51757012374E+03  0.51757012374E+03  0.00000000000E+00 0.  1.
         21   -1    0    0  503  504 -0.00000000000E+00 -0.00000000000E+00 -0.39650978949E+02  0.39650978949E+02  0.00000000000E+00 0.  1.
         25    2    1    2    0    0 -0.65205266142E+02  0.22978118912E+02  0.21787764690E+03  0.26052971591E+03  0.12500137268E+03 0.  0.
         25    2    1    2    0    0  0.65205266142E+02 -0.22978118912E+02  0.26004149789E+03  0.29669138678E+03  0.12499791071E+03 0.  0.
          5    1    3    3  501    0 -0.21909167254E+02  0.17856640987E+02  0.21465724157E+03  0.21656105974E+03  0.47000000000E+01 0. -1.
         -5    1    3    3    0  501 -0.43296098888E+02  0.51214779244E+01  0.32204053308E+01  0.43968656172E+02  0.47000000000E+01 0. -1.
          5    1    4    4  502    0  0.75582096258E+02  0.16974183245E+02  0.78232412095E+02  0.11019608193E+03  0.47000000000E+01 0.  1.
         -5    1    4    4    0  502 -0.10376830116E+02 -0.39952302156E+02  0.18180908580E+03  0.18649530484E+03  0.47000000000E+01 0.  1.
<mgrwt>
<rscale>  0 0.28651117E+03</rscale>
<asrwt>0</asrwt>
<pdfrwt beam="1">  1       21 0.79626168E-01 0.28651117E+03</pdfrwt>
<pdfrwt beam="2">  1       21 0.61001510E-02 0.28651117E+03</pdfrwt>
<totfact> 0.25979193E+05</totfact>
</mgrwt>
</event>
<event>
 8    1  0.4760912E-006  0.4244549E+03  0.7546771E-02  0.1035626E+00
         21   -1    0    0  504  503  0.00000000000E+00  0.00000000000E+00  0.40163394214E+02  0.40163394214E+02  0.00000000000E+00 0. -1.
         21   -1    0    0  503  504 -0.00000000000E+00 -0.00000000000E+00 -0.11214312709E+04  0.11214312709E+04  0.00000000000E+00 0. -1.
         25    2    1    2    0    0 -0.64395668055E+02  0.11211188396E+03 -0.84904644325E+03  0.86788390088E+03  0.12500690390E+03 0.  0.
         25    2    1    2    0    0  0.64395668055E+02 -0.11211188396E+03 -0.23222143340E+03  0.29371076420E+03  0.12499336897E+03 0.  0.
          5    1    3    3  501    0  0.17508059189E+02  0.14855642552E+02 -0.41270426436E+03  0.41336923213E+03  0.47000000000E+01 0.  1.
         -5    1    3    3    0  501 -0.81903727244E+02  0.97256241409E+02 -0.43634217889E+03  0.45451466875E+03  0.47000000000E+01 0.  1.
          5    1    4    4  502    0  0.51685864141E+02 -0.12772962079E+02 -0.16387828041E+03  0.17237388985E+03  0.47000000000E+01 0.  1.
         -5    1    4    4    0  502  0.12709803913E+02 -0.99338921882E+02 -0.68343152999E+02  0.12133687435E+03  0.47000000000E+01 0.  1.
<mgrwt>
<rscale>  0 0.42445488E+03</rscale>
<asrwt>0</asrwt>
<pdfrwt beam="1">  1       21 0.61789851E-02 0.42445488E+03</pdfrwt>
<pdfrwt beam="2">  1       21 0.17252785E+00 0.42445488E+03</pdfrwt>
<totfact> 0.34728208E+04</totfact>
</mgrwt>
</event>
<event>
 8    1  0.4760912E-006  0.2884821E+03  0.7546771E-02  0.1091144E+00
         21   -1    0    0  504  503  0.00000000000E+00  0.00000000000E+00  0.82134248896E+02  0.82134248896E+02  0.00000000000E+00 0.  1.
         21   -1    0    0  503  504 -0.00000000000E+00 -0.00000000000E+00 -0.25331064364E+03  0.25331064364E+03  0.00000000000E+00 0.  1.
         25    2    1    2    0    0  0.50396494145E+02 -0.31383120407E+02 -0.38321360113E+02  0.14358995863E+03  0.12499937084E+03 0.  0.
         25    2    1    2    0    0 -0.50396494145E+02  0.31383120407E+02 -0.13285503463E+03  0.19185493391E+03  0.12503259003E+03 0.  0.
          5    1    3    3  501    0  0.76010726091E+02  0.15328647759E+02 -0.44868874339E+02  0.89710109840E+02  0.47000000000E+01 0.  1.
         -5    1    3    3    0  501 -0.25614231946E+02 -0.46711768165E+02  0.65475142258E+01  0.53879848792E+02  0.47000000000E+01 0.  1.
          5    1    4    4  502    0 -0.29366511241E+02 -0.46857090783E+02 -0.39286329770E+02  0.67996210526E+02  0.47000000000E+01 0.  1.
         -5    1    4    4    0  502 -0.21029982904E+02  0.78240211189E+02 -0.93568704863E+02  0.12385872338E+03  0.47000000000E+01 0.  1.
<mgrwt>
<rscale>  0 0.28848209E+03</rscale>
<asrwt>0</asrwt>
<pdfrwt beam="1">  1       21 0.12636038E-01 0.28848209E+03</pdfrwt>
<pdfrwt beam="2">  1       21 0.38970868E-01 0.28848209E+03</pdfrwt>
<totfact> 0.33232171E+05</totfact>
</mgrwt>
</event>
<event>
 8    1  0.4760912E-006  0.2726859E+03  0.7546771E-02  0.1099752E+00
         21   -1    0    0  504  503  0.00000000000E+00  0.00000000000E+00  0.24946130105E+03  0.24946130105E+03  0.00000000000E+00 0.  1.
         21   -1    0    0  503  504 -0.00000000000E+00 -0.00000000000E+00 -0.74518170164E+02  0.74518170164E+02  0.00000000000E+00 0.  1.
         25    2    1    2    0    0  0.75593283774E+00  0.38397586093E+02  0.41623823300E+02  0.13723356757E+03  0.12500225337E+03 0.  0.
         25    2    1    2    0    0 -0.75593283774E+00 -0.38397586093E+02  0.13331930759E+03  0.18674590365E+03  0.12500019481E+03 0.  0.
          5    1    3    3  501    0  0.29493128763E+02  0.93847453976E+01 -0.37028050347E+02  0.48487984109E+02  0.47000000000E+01 0.  1.
         -5    1    3    3    0  501 -0.28737195925E+02  0.29012840695E+02  0.78651873647E+02  0.88745583457E+02  0.47000000000E+01 0.  1.
          5    1    4    4  502    0  0.27728766429E+02 -0.27394105726E+02 -0.96886572160E+01  0.40438615145E+02  0.47000000000E+01 0.  1.
         -5    1    4    4    0  502 -0.28484699267E+02 -0.11003480367E+02  0.14300796480E+03  0.14630728851E+03  0.47000000000E+01 0.  1.
<mgrwt>
<rscale>  0 0.27268590E+03</rscale>
<asrwt>0</asrwt>
<pdfrwt beam="1">  1       21 0.38378661E-01 0.27268590E+03</pdfrwt>
<pdfrwt beam="2">  1       21 0.11464334E-01 0.27268590E+03</pdfrwt>
<totfact> 0.40984292E+05</totfact>
</mgrwt>
</event>
<event>
 8    1  0.4760912E-006  0.3397977E+03  0.7546771E-02  0.1066882E+00
         21   -1    0    0  504  503  0.00000000000E+00  0.00000000000E+00  0.38472906874E+03  0.38472906874E+03  0.00000000000E+00 0.  1.
         21   -1    0    0  503  504 -0.00000000000E+00 -0.00000000000E+00 -0.75028451659E+02  0.75028451659E+02  0.00000000000E+00 0.  1.
         25    2    1    2    0    0  0.90773943610E+02 -0.39806346176E+02  0.75774197278E+02  0.17661832601E+03  0.12501139978E+03 0.  0.
         25    2    1    2    0    0 -0.90773943610E+02  0.39806346176E+02  0.23392641980E+03  0.28313919438E+03  0.12498711726E+03 0.  0.
          5    1    3    3  501    0 -0.76158841834E+01  0.15922075404E+01  0.68956527650E+02  0.69553069827E+02  0.47000000000E+01 0. -1.
         -5    1    3    3    0  501  0.98389827793E+02 -0.41398553716E+02  0.68176696281E+01  0.10706525619E+03  0.47000000000E+01 0. -1.
          5    1    4    4  502    0  0.20627147875E+02 -0.21184059171E+02  0.27082499192E+02  0.40370723983E+02  0.47000000000E+01 0. -1.
         -5    1    4    4    0  502 -0.11140109148E+03  0.60990405347E+02  0.20684392061E+03  0.24276847040E+03  0.47000000000E+01 0. -1.
<mgrwt>
<rscale>  0 0.33979774E+03</rscale>
<asrwt>0</asrwt>
<pdfrwt beam="1">  1       21 0.59189086E-01 0.33979774E+03</pdfrwt>
<pdfrwt beam="2">  1       21 0.11542839E-01 0.33979774E+03</pdfrwt>
<totfact> 0.16110094E+05</totfact>
</mgrwt>
</event>
<event>
 8    1  0.4760912E-006  0.2618167E+03  0.7546771E-02  0.1106057E+00
         21   -1    0    0  504  503  0.00000000000E+00  0.00000000000E+00  0.21417336037E+02  0.21417336037E+02  0.00000000000E+00 0. -1.
         21   -1    0    0  503  504 -0.00000000000E+00 -0.00000000000E+00 -0.80014613360E+03  0.80014613360E+03  0.00000000000E+00 0. -1.
         25    2    1    2    0    0  0.20328851646E+02 -0.30531618700E+02 -0.43002723047E+03  0.44932469977E+03  0.12499529962E+03 0.  0.
         25    2    1    2    0    0 -0.20328851646E+02  0.30531618700E+02 -0.34870156709E+03  0.37223876986E+03  0.12499390765E+03 0.  0.
          5    1    3    3  501    0  0.20865135827E+02  0.46848958083E+02 -0.14215454706E+03  0.15119584656E+03  0.47000000000E+01 0.  1.
         -5    1    3    3    0  501 -0.53628418083E+00 -0.77380576783E+02 -0.28787268341E+03  0.29812885321E+03  0.47000000000E+01 0.  1.
          5    1    4    4  502    0 -0.13312798110E+02  0.63386442671E+02 -0.88148117421E+02  0.10948631108E+03  0.47000000000E+01 0.  1.
         -5    1    4    4    0  502 -0.70160535358E+01 -0.32854823971E+02 -0.26055344967E+03  0.26275245879E+03  0.47000000000E+01 0.  1.
<mgrwt>
<rscale>  0 0.26181672E+03</rscale>
<asrwt>0</asrwt>
<pdfrwt beam="1">  1       21 0.32949757E-02 0.26181672E+03</pdfrwt>
<pdfrwt beam="2">  1       21 0.12309937E+00 0.26181672E+03</pdfrwt>
<totfact> 0.26263509E+05</totfact>
</mgrwt>
</event>
<event>
 8    1  0.4760912E-006  0.2834880E+03  0.7546771E-02  0.1093799E+00
         21   -1    0    0  504  503  0.00000000000E+00  0.00000000000E+00  0.48919322347E+02  0.48919322347E+02  0.00000000000E+00 0. -1.
         21   -1    0    0  503  504 -0.00000000000E+00 -0.00000000000E+00 -0.41070402342E+03  0.41070402342E+03  0.00000000000E+00 0. -1.
         25    2    1    2    0    0 -0.19763260316E+02  0.40840700266E+02 -0.10134284650E+03  0.16719430663E+03  0.12500005750E+03 0.  0.
         25    2    1    2    0    0  0.19763260316E+02 -0.40840700266E+02 -0.26044185457E+03  0.29242903914E+03  0.12500493615E+03 0.  0.
          5    1    3    3  501    0 -0.71091053510E+02  0.35604625091E+02 -0.73499555493E+02  0.10837851205E+03  0.47000000000E+01 0.  1.
         -5    1    3    3    0  501  0.51327793194E+02  0.52360751748E+01 -0.27843291006E+02  0.58815794574E+02  0.47000000000E+01 0.  1.
          5    1    4    4  502    0  0.57570928940E+02  0.81634383286E+01 -0.18895084012E+03  0.19775126691E+03  0.47000000000E+01 0. -1.
         -5    1    4    4    0  502 -0.37807668624E+02 -0.49004138594E+02 -0.71491014453E+02  0.94677772226E+02  0.47000000000E+01 0. -1.
<mgrwt>
<rscale>  0 0.28348801E+03</rscale>
<asrwt>0</asrwt>
<pdfrwt beam="1">  1       21 0.75260496E-02 0.28348801E+03</pdfrwt>
<pdfrwt beam="2">  1       21 0.63185234E-01 0.28348801E+03</pdfrwt>
<totfact> 0.30241269E+05</totfact>
</mgrwt>
</event>
<event>
 8    1  0.4760912E-006  0.2671650E+03  0.7546771E-02  0.1102913E+00
         21   -1    0    0  504  503  0.00000000000E+00  0.00000000000E+00  0.77403297456E+02  0.77403297456E+02  0.00000000000E+00 0. -1.
         21   -1    0    0  503  504 -0.00000000000E+00 -0.00000000000E+00 -0.23053646120E+03  0.23053646120E+03  0.00000000000E+00 0. -1.
         25    2    1    2    0    0  0.12488089574E+02  0.35309288427E+02 -0.43608357892E+02  0.13758008260E+03  0.12499556800E+03 0.  0.
         25    2    1    2    0    0 -0.12488089574E+02 -0.35309288427E+02 -0.10952480586E+03  0.17035967606E+03  0.12499615154E+03 0.  0.
          5    1    3    3  501    0 -0.53242139570E+02  0.34388855729E+02 -0.12810331942E+02  0.64834508009E+02  0.47000000000E+01 0. -1.
         -5    1    3    3    0  501  0.65730229144E+02  0.92043269775E+00 -0.30798025950E+02  0.72745574588E+02  0.47000000000E+01 0. -1.
          5    1    4    4  502    0 -0.23420136917E+02 -0.75047553280E+02 -0.37467898118E+02  0.87215660612E+02  0.47000000000E+01 0. -1.
         -5    1    4    4    0  502  0.10932047343E+02  0.39738264853E+02 -0.72056907738E+02  0.83144015452E+02  0.47000000000E+01 0. -1.
<mgrwt>
<rscale>  0 0.26716498E+03</rscale>
<asrwt>0</asrwt>
<pdfrwt beam="1">  1       21 0.11908200E-01 0.26716498E+03</pdfrwt>
<pdfrwt beam="2">  1       21 0.35467147E-01 0.26716498E+03</pdfrwt>
<totfact> 0.44914181E+05</totfact>
</mgrwt>
</event>
<event>
 8    1  0.4760912E-006  0.3089328E+03  0.7546771E-02  0.1080859E+00
         21   -1    0    0  504  503  0.00000000000E+00  0.00000000000E+00  0.92725663877E+02  0.92725663877E+02  0.00000000000E+00 0. -1.
         21   -1    0    0  503  504 -0.00000000000E+00 -0.00000000000E+00 -0.25731669957E+03  0.25731669957E+03  0.00000000000E+00 0. -1.
         25    2    1    2    0    0  0.29590673854E+02  0.75201290659E+02 -0.35527907561E+02  0.15302886166E+03  0.12499903275E+03 0.  0.
         25    2    1    2    0    0 -0.29590673854E+02 -0.75201290659E+02 -0.12906312813E+03  0.19701350179E+03  0.12500474691E+03 0.  0.
          5    1    3    3  501    0  0.25717310820E+02  0.10975442993E+03 -0.19674629725E+02  0.11452770852E+03  0.47000000000E+01 0. -1.
         -5    1    3    3    0  501  0.38733630339E+01 -0.34553139268E+02 -0.15853277836E+02  0.38501153133E+02  0.47000000000E+01 0. -1.
          5    1    4    4  502    0 -0.25166269561E+02 -0.57884418418E+02 -0.15369629603E+03  0.16621849606E+03  0.47000000000E+01 0. -1.
         -5    1    4    4    0  502 -0.44244042932E+01 -0.17316872241E+02  0.24633167896E+02  0.30795005734E+02  0.47000000000E+01 0. -1.
<mgrwt>
<rscale>  0 0.30893276E+03</rscale>
<asrwt>0</asrwt>
<pdfrwt beam="1">  1       21 0.14265487E-01 0.30893276E+03</pdfrwt>
<pdfrwt beam="2">  1       21 0.39587184E-01 0.30893276E+03</pdfrwt>
<totfact> 0.25698558E+05</totfact>
</mgrwt>
</event>
<event>
 8    1  0.4760912E-006  0.2660404E+03  0.7546771E-02  0.1103567E+00
         21   -1    0    0  504  503  0.00000000000E+00  0.00000000000E+00  0.25038098399E+04  0.25038098399E+04  0.00000000000E+00 0.  1.
         21   -1    0    0  503  504 -0.00000000000E+00 -0.00000000000E+00 -0.70669778648E+01  0.70669778648E+01  0.00000000000E+00 0.  1.
         25    2    1    2    0    0 -0.28428156534E+02 -0.28620924552E+02  0.14466553793E+04  0.14526062347E+04  0.12500307655E+03 0.  0.
         25    2    1    2    0    0  0.28428156534E+02  0.28620924552E+02  0.10500874827E+04  0.10582705831E+04  0.12500235292E+03 0.  0.
          5    1    3    3  501    0 -0.18503264019E+02 -0.65238287468E+02  0.12720517458E+04  0.12738666095E+04  0.47000000000E+01 0. -1.
         -5    1    3    3    0  501 -0.99248925145E+01  0.36617362916E+02  0.17460363355E+03  0.17873962517E+03  0.47000000000E+01 0. -1.
          5    1    4    4  502    0  0.42494209094E+01 -0.49260068177E+02  0.39488529756E+03  0.39799635693E+03  0.47000000000E+01 0.  1.
         -5    1    4    4    0  502  0.24178735625E+02  0.77880992729E+02  0.65520218516E+03  0.66027422615E+03  0.47000000000E+01 0.  1.
<mgrwt>
<rscale>  0 0.26604036E+03</rscale>
<asrwt>0</asrwt>
<pdfrwt beam="1">  1       21 0.38520081E+00 0.26604036E+03</pdfrwt>
<pdfrwt beam="2">  1       21 0.10872294E-02 0.26604036E+03</pdfrwt>
<totfact> 0.32899029E+04</totfact>
</mgrwt>
</event>
<event>
 8    1  0.4760912E-006  0.2744622E+03  0.7546771E-02  0.1098753E+00
         21   -1    0    0  504  503  0.00000000000E+00  0.00000000000E+00  0.74193822911E+02  0.74193822911E+02  0.00000000000E+00 0. -1.
         21   -1    0    0  503  504 -0.00000000000E+00 -0.00000000000E+00 -0.25382666659E+03  0.25382666659E+03  0.00000000000E+00 0. -1.
         25    2    1    2    0    0 -0.12666415960E+02 -0.55043838965E+02 -0.94724515068E+02  0.16669752867E+03  0.12500028003E+03 0.  0.
         25    2    1    2    0    0  0.12666415960E+02  0.55043838965E+02 -0.84908328609E+02  0.16132296083E+03  0.12500164448E+03 0.  0.
          5    1    3    3  501    0 -0.18332919357E+02  0.11593755618E+02  0.22532192903E+02  0.31627532602E+02  0.47000000000E+01 0. -1.
         -5    1    3    3    0  501  0.56665033970E+01 -0.66637594583E+02 -0.11725670797E+03  0.13506999606E+03  0.47000000000E+01 0. -1.
          5    1    4    4  502    0 -0.14195955048E+02  0.70954755530E+01  0.29773393231E+02  0.34064877184E+02  0.47000000000E+01 0.  1.
         -5    1    4    4    0  502  0.26862371007E+02  0.47948363412E+02 -0.11468172184E+03  0.12725808365E+03  0.47000000000E+01 0.  1.
<mgrwt>
<rscale>  0 0.27446217E+03</rscale>
<asrwt>0</asrwt>
<pdfrwt beam="1">  1       21 0.11414434E-01 0.27446217E+03</pdfrwt>
<pdfrwt beam="2">  1       21 0.39050257E-01 0.27446217E+03</pdfrwt>
<totfact> 0.39866258E+05</totfact>
</mgrwt>
</event>
<event>
 8    1  0.4760912E-006  0.3888715E+03  0.7546771E-02  0.1047703E+00
         21   -1    0    0  504  503  0.00000000000E+00  0.00000000000E+00  0.10930924103E+03  0.10930924103E+03  0.00000000000E+00 0. -1.
         21   -1    0    0  503  504 -0.00000000000E+00 -0.00000000000E+00 -0.34585601720E+03  0.34585601720E+03  0.00000000000E+00 0. -1.
         25    2    1    2    0    0 -0.86416657128E+02  0.18359640524E+02 -0.25861414891E+03  0.30051492914E+03  0.12499211810E+03 0.  0.
         25    2    1    2    0    0  0.86416657128E+02 -0.18359640524E+02  0.22067372740E+02  0.15465032910E+03  0.12499936128E+03 0.  0.
          5    1    3    3  501    0 -0.14409704733E+02 -0.24397994564E+02 -0.18997209410E+03  0.19213117463E+03  0.47000000000E+01 0.  1.
         -5    1    3    3    0  501 -0.72006952395E+02  0.42757635087E+02 -0.68642054814E+02  0.10838375450E+03  0.47000000000E+01 0.  1.
          5    1    4    4  502    0 -0.61511226764E+01 -0.76241535800E+01  0.54725306656E+02  0.55793487223E+02  0.47000000000E+01 0. -1.
         -5    1    4    4    0  502  0.92567779804E+02 -0.10735486944E+02 -0.32657933915E+02  0.98856841875E+02  0.47000000000E+01 0. -1.
<mgrwt>
<rscale>  0 0.38887149E+03</rscale>
<asrwt>0</asrwt>
<pdfrwt beam="1">  1       21 0.16816806E-01 0.38887149E+03</pdfrwt>
<pdfrwt beam="2">  1       21 0.53208618E-01 0.38887149E+03</pdfrwt>
<totfact> 0.10049568E+05</totfact>
</mgrwt>
</event>
<event>
 8    1  0.4760912E-006  0.4848882E+03  0.7546771E-02  0.1017800E+00
         21   -1    0    0  504  503  0.00000000000E+00  0.00000000000E+00  0.14208853383E+04  0.14208853383E+04  0.00000000000E+00 0. -1.
         21   -1    0    0  503  504 -0.00000000000E+00 -0.00000000000E+00 -0.41367966811E+02  0.41367966811E+02  0.00000000000E+00 0. -1.
         25    2    1    2    0    0 -0.18160457346E+02 -0.15507764311E+03  0.11029666624E+04  0.11209553803E+04  0.12500651383E+03 0.  0.
         25    2    1    2    0    0  0.18160457346E+02  0.15507764311E+03  0.27655070909E+03  0.34129792488E+03  0.12500040490E+03 0.  0.
          5    1    3    3  501    0  0.11680004219E+02 -0.37753337620E+01  0.84684895210E+01  0.15635886874E+02  0.47000000000E+01 0.  1.
         -5    1    3    3    0  501 -0.29840461565E+02 -0.15130230935E+03  0.10944981729E+04  0.11053194934E+04  0.47000000000E+01 0.  1.
          5    1    4    4  502    0 -0.22940029234E+02  0.15200791237E+03  0.24460728598E+03  0.28894197465E+03  0.47000000000E+01 0. -1.
         -5    1    4    4    0  502  0.41100486580E+02  0.30697307447E+01  0.31943423110E+02  0.52355950225E+02  0.47000000000E+01 0. -1.
<mgrwt>
<rscale>  0 0.48488818E+03</rscale>
<asrwt>0</asrwt>
<pdfrwt beam="1">  1       21 0.21859771E+00 0.48488818E+03</pdfrwt>
<pdfrwt beam="2">  1       21 0.63643037E-02 0.48488818E+03</pdfrwt>
<totfact> 0.15780395E+04</totfact>
</mgrwt>
</event>
<event>
 8    1  0.4760912E-006  0.2570583E+03  0.7546771E-02  0.1108924E+00
         21   -1    0    0  504  503  0.00000000000E+00  0.00000000000E+00  0.11798592283E+04  0.11798592283E+04  0.00000000000E+00 0. -1.
         21   -1    0    0  503  504 -0.00000000000E+00 -0.00000000000E+00 -0.14001451042E+02  0.14001451042E+02  0.00000000000E+00 0. -1.
         25    2    1    2    0    0  0.84991921360E+01 -0.27006168661E+02  0.62774781646E+03  0.64069787529E+03  0.12499950765E+03 0.  0.
         25    2    1    2    0    0 -0.84991921360E+01  0.27006168661E+02  0.53810996078E+03  0.55316280404E+03  0.12500075386E+03 0.  0.
          5    1    3    3  501    0 -0.46447333809E+02  0.23931686020E+02  0.22749432784E+03  0.23346485734E+03  0.47000000000E+01 0.  1.
         -5    1    3    3    0  501  0.54946525945E+02 -0.50937854681E+02  0.40025348862E+03  0.40723301795E+03  0.47000000000E+01 0.  1.
          5    1    4    4  502    0  0.43384059210E+02  0.46766824894E+02  0.18646230075E+03  0.19712836453E+03  0.47000000000E+01 0.  1.
         -5    1    4    4    0  502 -0.51883251346E+02 -0.19760656233E+02  0.35164766004E+03  0.35603443950E+03  0.47000000000E+01 0.  1.
<mgrwt>
<rscale>  0 0.25705829E+03</rscale>
<asrwt>0</asrwt>
<pdfrwt beam="1">  1       21 0.18151673E+00 0.25705829E+03</pdfrwt>
<pdfrwt beam="2">  1       21 0.21540703E-02 0.25705829E+03</pdfrwt>
<totfact> 0.18850281E+05</totfact>
</mgrwt>
</event>
<event>
 8    1  0.4760912E-006  0.3916483E+03  0.7546771E-02  0.1046711E+00
         21   -1    0    0  504  503  0.00000000000E+00  0.00000000000E+00  0.39443693714E+02  0.39443693714E+02  0.00000000000E+00 0.  1.
         21   -1    0    0  503  504 -0.00000000000E+00 -0.00000000000E+00 -0.97219862470E+03  0.97219862470E+03  0.00000000000E+00 0.  1.
         25    2    1    2    0    0 -0.39316430877E+02 -0.28889928125E+02 -0.97969828158E+02  0.16614322054E+03  0.12500029127E+03 0.  0.
         25    2    1    2    0    0  0.39316430877E+02  0.28889928125E+02 -0.83478510283E+03  0.84549909787E+03  0.12498858713E+03 0.  0.
          5    1    3    3  501    0  0.38081550314E+02 -0.81766775029E+01 -0.71633570344E+02  0.81673257126E+02  0.47000000000E+01 0. -1.
         -5    1    3    3    0  501 -0.77397981191E+02 -0.20713250622E+02 -0.26336257814E+02  0.84469963416E+02  0.47000000000E+01 0. -1.
          5    1    4    4  502    0  0.84308975364E+02  0.14357241455E+02 -0.58471637420E+03  0.59095639599E+03  0.47000000000E+01 0.  1.
         -5    1    4    4    0  502 -0.44992544486E+02  0.14532686670E+02 -0.25006872863E+03  0.25454270188E+03  0.47000000000E+01 0.  1.
<mgrwt>
<rscale>  0 0.39164834E+03</rscale>
<asrwt>0</asrwt>
<pdfrwt beam="1">  1       21 0.60682610E-02 0.39164834E+03</pdfrwt>
<pdfrwt beam="2">  1       21 0.14956901E+00 0.39164834E+03</pdfrwt>
<totfact> 0.53805764E+04</totfact>
</mgrwt>
</event>
<event>
 8    1  0.4760912E-006  0.4261410E+03  0.7546771E-02  0.1035086E+00
         21   -1    0    0  504  503  0.00000000000E+00  0.00000000000E+00  0.11519483156E+03  0.11519483156E+03  0.00000000000E+00 0.  1.
         21   -1    0    0  503  504 -0.00000000000E+00 -0.00000000000E+00 -0.39410651918E+03  0.39410651918E+03  0.00000000000E+00 0.  1.
         25    2    1    2    0    0 -0.12727719749E+03  0.70218040853E+02 -0.28357963258E+02  0.19380987382E+03  0.12501213880E+03 0.  0.
         25    2    1    2    0    0  0.12727719749E+03 -0.70218040853E+02 -0.25055372435E+03  0.31549147692E+03  0.12501057941E+03 0.  0.
          5    1    3    3  501    0 -0.40624463703E+02  0.37020430453E+02  0.48327141502E+02  0.73337997844E+02  0.47000000000E+01 0.  1.
         -5    1    3    3    0  501 -0.86652733783E+02  0.33197610400E+02 -0.76685104760E+02  0.12047187597E+03  0.47000000000E+01 0.  1.
          5    1    4    4  502    0  0.64300415583E+02  0.13094107482E+02 -0.17369516994E+03  0.18573664462E+03  0.47000000000E+01 0.  1.
         -5    1    4    4    0  502  0.62976781903E+02 -0.83312148335E+02 -0.76858554411E+02  0.12975483230E+03  0.47000000000E+01 0.  1.
<mgrwt>
<rscale>  0 0.42614098E+03</rscale>
<asrwt>0</asrwt>
<pdfrwt beam="1">  1       21 0.17722281E-01 0.42614098E+03</pdfrwt>
<pdfrwt beam="2">  1       21 0.60631773E-01 0.42614098E+03</pdfrwt>
<totfact> 0.68099006E+04</totfact>
</mgrwt>
</event>
<event>
 8    1  0.4760912E-006  0.2891661E+03  0.7546771E-02  0.1090785E+00
         21   -1    0    0  504  503  0.00000000000E+00  0.00000000000E+00  0.24207915842E+03  0.24207915842E+03  0.00000000000E+00 0. -1.
         21   -1    0    0  503  504 -0.00000000000E+00 -0.00000000000E+00 -0.86353010516E+02  0.86353010516E+02  0.00000000000E+00 0. -1.
         25    2    1    2    0    0  0.52185135581E+02  0.49762381872E+02  0.87656170180E+02  0.16884323703E+03  0.12499940598E+03 0.  0.
         25    2    1    2    0    0 -0.52185135581E+02 -0.49762381872E+02  0.68069977727E+02  0.15958893191E+03  0.12504208210E+03 0.  0.
          5    1    3    3  501    0  0.13225806319E+02  0.55610802431E+02  0.10945659767E+03  0.12357313654E+03  0.47000000000E+01 0. -1.
         -5    1    3    3    0  501  0.38959329262E+02 -0.58484205589E+01 -0.21800427495E+02  0.45270100492E+02  0.47000000000E+01 0. -1.
          5    1    4    4  502    0 -0.74503128869E+02 -0.64197311330E+02  0.14389641189E+02  0.99504586662E+02  0.47000000000E+01 0. -1.
         -5    1    4    4    0  502  0.22317993288E+02  0.14434929458E+02  0.53680336538E+02  0.60084345246E+02  0.47000000000E+01 0. -1.
<mgrwt>
<rscale>  0 0.28916614E+03</rscale>
<asrwt>0</asrwt>
<pdfrwt beam="1">  1       21 0.37242947E-01 0.28916614E+03</pdfrwt>
<pdfrwt beam="2">  1       21 0.13285079E-01 0.28916614E+03</pdfrwt>
<totfact> 0.33257256E+05</totfact>
</mgrwt>
</event>
<event>
 8    1  0.4760912E-006  0.3951060E+03  0.7546771E-02  0.1045488E+00
         21   -1    0    0  504  503  0.00000000000E+00  0.00000000000E+00  0.11852355933E+03  0.11852355933E+03  0.00000000000E+00 0.  1.
         21   -1    0    0  503  504 -0.00000000000E+00 -0.00000000000E+00 -0.32927794875E+03  0.32927794875E+03  0.00000000000E+00 0.  1.
         25    2    1    2    0    0 -0.54416946133E+02  0.13556252193E+03 -0.15688160428E+03  0.24813020579E+03  0.12497343673E+03 0.  0.
         25    2    1    2    0    0  0.54416946133E+02 -0.13556252193E+03 -0.53872785143E+02  0.19967130229E+03  0.12501180186E+03 0.  0.
          5    1    3    3  501    0 -0.44343921292E+02  0.96547713477E+02 -0.23767413807E+02  0.10897166738E+03  0.47000000000E+01 0. -1.
         -5    1    3    3    0  501 -0.10073024841E+02  0.39014808449E+02 -0.13311419047E+03  0.13915853841E+03  0.47000000000E+01 0. -1.
          5    1    4    4  502    0  0.91708962594E+02 -0.11134807723E+03 -0.25083888841E+02  0.14649307015E+03  0.47000000000E+01 0.  1.
         -5    1    4    4    0  502 -0.37292016461E+02 -0.24214444698E+02 -0.28788896303E+02  0.53178232145E+02  0.47000000000E+01 0.  1.
<mgrwt>
<rscale>  0 0.39510603E+03</rscale>
<asrwt>0</asrwt>
<pdfrwt beam="1">  1       21 0.18234394E-01 0.39510603E+03</pdfrwt>
<pdfrwt beam="2">  1       21 0.50658145E-01 0.39510603E+03</pdfrwt>
<totfact> 0.95763947E+04</totfact>
</mgrwt>
</event>
<event>
 8    1  0.4760912E-006  0.3796018E+03  0.7546771E-02  0.1051081E+00
         21   -1    0    0  504  503  0.00000000000E+00  0.00000000000E+00  0.71325520287E+03  0.71325520287E+03  0.00000000000E+00 0.  1.
         21   -1    0    0  503  504 -0.00000000000E+00 -0.00000000000E+00 -0.50506989461E+02  0.50506989461E+02  0.00000000000E+00 0.  1.
         25    2    1    2    0    0  0.24623429089E+02  0.51742995792E+02  0.68184258033E+02  0.15349684091E+03  0.12501414420E+03 0.  0.
         25    2    1    2    0    0 -0.24623429089E+02 -0.51742995792E+02  0.59456395538E+03  0.61026535143E+03  0.12503539997E+03 0.  0.
          5    1    3    3  501    0 -0.14329274569E+01  0.44932308017E+02  0.10107871769E+03  0.11072471610E+03  0.47000000000E+01 0. -1.
         -5    1    3    3    0  501  0.26056356546E+02  0.68106877749E+01 -0.32894459658E+02  0.42772124808E+02  0.47000000000E+01 0. -1.
          5    1    4    4  502    0 -0.27607957450E+02  0.14885124659E+02  0.37109681147E+02  0.48815824130E+02  0.47000000000E+01 0.  1.
         -5    1    4    4    0  502  0.29845283614E+01 -0.66628120451E+02  0.55745427423E+03  0.56144952730E+03  0.47000000000E+01 0.  1.
<mgrwt>
<rscale>  0 0.37960175E+03</rscale>
<asrwt>0</asrwt>
<pdfrwt beam="1">  1       21 0.10973156E+00 0.37960175E+03</pdfrwt>
<pdfrwt beam="2">  1       21 0.77703066E-02 0.37960175E+03</pdfrwt>
<totfact> 0.77774601E+04</totfact>
</mgrwt>
</event>
<event>
 8    1  0.4760912E-006  0.5615889E+03  0.7546771E-02  0.9988466E-01
         21   -1    0    0  504  503  0.00000000000E+00  0.00000000000E+00  0.83389327391E+03  0.83389327391E+03  0.00000000000E+00 0. -1.
         21   -1    0    0  503  504 -0.00000000000E+00 -0.00000000000E+00 -0.94551085221E+02  0.94551085221E+02  0.00000000000E+00 0. -1.
         25    2    1    2    0    0  0.62523684113E+02 -0.71536268041E+02 -0.15197390747E+02  0.15774245981E+03  0.12500029688E+03 0.  0.
         25    2    1    2    0    0 -0.62523684113E+02  0.71536268041E+02  0.75453957944E+03  0.77070189932E+03  0.12499916784E+03 0.  0.
          5    1    3    3  501    0  0.20160021684E+02 -0.17420972429E+02 -0.66538536909E+02  0.71828849696E+02  0.47000000000E+01 0. -1.
         -5    1    3    3    0  501  0.42363662428E+02 -0.54115295611E+02  0.51341146162E+02  0.85913610113E+02  0.47000000000E+01 0. -1.
          5    1    4    4  502    0 -0.85292678652E+02  0.74956468248E+02  0.72007742866E+03  0.72899033356E+03  0.47000000000E+01 0. -1.
         -5    1    4    4    0  502  0.22768994539E+02 -0.34202002079E+01  0.34462150775E+02  0.41711565756E+02  0.47000000000E+01 0. -1.
<mgrwt>
<rscale>  0 0.56158887E+03</rscale>
<asrwt>0</asrwt>
<pdfrwt beam="1">  1       21 0.12829127E+00 0.56158887E+03</pdfrwt>
<pdfrwt beam="2">  1       21 0.14546321E-01 0.56158887E+03</pdfrwt>
<totfact> 0.16116095E+04</totfact>
</mgrwt>
</event>
<event>
 8    1  0.4760912E-006  0.2929223E+03  0.7546771E-02  0.1088833E+00
         21   -1    0    0  504  503  0.00000000000E+00  0.00000000000E+00  0.13843623859E+04  0.13843623859E+04  0.00000000000E+00 0.  1.
         21   -1    0    0  503  504 -0.00000000000E+00 -0.00000000000E+00 -0.15495123712E+02  0.15495123712E+02  0.00000000000E+00 0.  1.
         25    2    1    2    0    0 -0.65355605713E+02 -0.34658231578E+02  0.59466938322E+03  0.61215191482E+03  0.12500297305E+03 0.  0.
         25    2    1    2    0    0  0.65355605713E+02  0.34658231578E+02  0.77419787895E+03  0.78770559477E+03  0.12500080017E+03 0.  0.
          5    1    3    3  501    0  0.26756377566E+02  0.25822261328E+01  0.29811095668E+03  0.29935731847E+03  0.47000000000E+01 0.  1.
         -5    1    3    3    0  501 -0.92111983279E+02 -0.37240457710E+02  0.29655842654E+03  0.31279459635E+03  0.47000000000E+01 0.  1.
          5    1    4    4  502    0  0.81218998971E+02  0.69282488579E+02  0.56408209845E+03  0.57411435516E+03  0.47000000000E+01 0. -1.
         -5    1    4    4    0  502 -0.15863393258E+02 -0.34624257001E+02  0.21011578050E+03  0.21359123960E+03  0.47000000000E+01 0. -1.
<mgrwt>
<rscale>  0 0.29292229E+03</rscale>
<asrwt>0</asrwt>
<pdfrwt beam="1">  1       21 0.21297873E+00 0.29292229E+03</pdfrwt>
<pdfrwt beam="2">  1       21 0.23838663E-02 0.29292229E+03</pdfrwt>
<totfact> 0.97592409E+04</totfact>
</mgrwt>
</event>
<event>
 8    1  0.4760912E-006  0.3335913E+03  0.7546771E-02  0.1069559E+00
         21   -1    0    0  504  503  0.00000000000E+00  0.00000000000E+00  0.11396384824E+04  0.11396384824E+04  0.00000000000E+00 0. -1.
         21   -1    0    0  503  504 -0.00000000000E+00 -0.00000000000E+00 -0.24411940318E+02  0.24411940318E+02  0.00000000000E+00 0. -1.
         25    2    1    2    0    0  0.24877416709E+02  0.92801740163E+02  0.74762610594E+03  0.76406894670E+03  0.12500204874E+03 0.  0.
         25    2    1    2    0    0 -0.24877416709E+02 -0.92801740163E+02  0.36760043617E+03  0.39998147604E+03  0.12499620661E+03 0.  0.
          5    1    3    3  501    0  0.46734157381E+02  0.96336300474E+02  0.35585357237E+03  0.37164313423E+03  0.47000000000E+01 0. -1.
         -5    1    3    3    0  501 -0.21856740672E+02 -0.35345603107E+01  0.39177253357E+03  0.39242581247E+03  0.47000000000E+01 0. -1.
          5    1    4    4  502    0 -0.56759722176E+02 -0.72311710080E+02  0.34159322151E+03  0.35377771051E+03  0.47000000000E+01 0. -1.
         -5    1    4    4    0  502  0.31882305467E+02 -0.20490030083E+02  0.26007214660E+02  0.46203765529E+02  0.47000000000E+01 0. -1.
<mgrwt>
<rscale>  0 0.33359129E+03</rscale>
<asrwt>0</asrwt>
<pdfrwt beam="1">  1       21 0.17532896E+00 0.33359129E+03</pdfrwt>
<pdfrwt beam="2">  1       21 0.37556840E-02 0.33359129E+03</pdfrwt>
<totfact> 0.80226380E+04</totfact>
</mgrwt>
</event>
<event>
 8    1  0.4760912E-006  0.3488732E+03  0.7546771E-02  0.1063078E+00
         21   -1    0    0  504  503  0.00000000000E+00  0.00000000000E+00  0.47247891366E+03  0.47247891366E+03  0.00000000000E+00 0.  1.
         21   -1    0    0  503  504 -0.00000000000E+00 -0.00000000000E+00 -0.64401022250E+02  0.64401022250E+02  0.00000000000E+00 0.  1.
         25    2    1    2    0    0 -0.20804097825E+02 -0.46632939646E+02  0.34084329655E+02  0.13925692458E+03  0.12499323169E+03 0.  0.
         25    2    1    2    0    0  0.20804097825E+02  0.46632939646E+02  0.37399356175E+03  0.39762301133E+03  0.12500173343E+03 0.  0.
          5    1    3    3  501    0  0.46864701168E+02 -0.31194332099E+02 -0.93251160508E+01  0.57257613991E+02  0.47000000000E+01 0.  1.
         -5    1    3    3    0  501 -0.67668798992E+02 -0.15438607547E+02  0.43409445706E+02  0.81999310586E+02  0.47000000000E+01 0.  1.
          5    1    4    4  502    0 -0.18419599548E+02  0.74275707361E+02  0.14953708418E+03  0.16804639805E+03  0.47000000000E+01 0. -1.
         -5    1    4    4    0  502  0.39223697373E+02 -0.27642767716E+02  0.22445647757E+03  0.22957661329E+03  0.47000000000E+01 0. -1.
<mgrwt>
<rscale>  0 0.34887319E+03</rscale>
<asrwt>0</asrwt>
<pdfrwt beam="1">  1       21 0.72689061E-01 0.34887319E+03</pdfrwt>
<pdfrwt beam="2">  1       21 0.99078499E-02 0.34887319E+03</pdfrwt>
<totfact> 0.13429589E+05</totfact>
</mgrwt>
</event>
<event>
 8    1  0.4760912E-006  0.2640307E+03  0.7546771E-02  0.1104745E+00
         21   -1    0    0  504  503  0.00000000000E+00  0.00000000000E+00  0.50849493077E+03  0.50849493077E+03  0.00000000000E+00 0. -1.
         21   -1    0    0  503  504 -0.00000000000E+00 -0.00000000000E+00 -0.34273787452E+02  0.34273787452E+02  0.00000000000E+00 0. -1.
         25    2    1    2    0    0  0.15405759490E+02  0.35571101745E+02  0.20153912428E+03  0.24030560719E+03  0.12500450204E+03 0.  0.
         25    2    1    2    0    0 -0.15405759490E+02 -0.35571101745E+02  0.27268201904E+03  0.30246311103E+03  0.12500323723E+03 0.  0.
          5    1    3    3  501    0 -0.47351138990E+02  0.27995489720E+02  0.44345737611E+02  0.70813220888E+02  0.47000000000E+01 0.  1.
         -5    1    3    3    0  501  0.62756898480E+02  0.75756120247E+01  0.15719338667E+03  0.16949238631E+03  0.47000000000E+01 0.  1.
          5    1    4    4  502    0 -0.10791848838E+02 -0.82511331895E+02  0.18020570422E+03  0.19854664370E+03  0.47000000000E+01 0.  1.
         -5    1    4    4    0  502 -0.46139106513E+01  0.46940230151E+02  0.92476314824E+02  0.10391646733E+03  0.47000000000E+01 0.  1.
<mgrwt>
<rscale>  0 0.26403066E+03</rscale>
<asrwt>0</asrwt>
<pdfrwt beam="1">  1       21 0.78229984E-01 0.26403066E+03</pdfrwt>
<pdfrwt beam="2">  1       21 0.52728907E-02 0.26403066E+03</pdfrwt>
<totfact> 0.34925737E+05</totfact>
</mgrwt>
</event>
<event>
 8    1  0.4760912E-006  0.3080764E+03  0.7546771E-02  0.1081272E+00
         21   -1    0    0  504  503  0.00000000000E+00  0.00000000000E+00  0.61765877531E+02  0.61765877531E+02  0.00000000000E+00 0. -1.
         21   -1    0    0  503  504 -0.00000000000E+00 -0.00000000000E+00 -0.38415651911E+03  0.38415651911E+03  0.00000000000E+00 0. -1.
         25    2    1    2    0    0 -0.69296821199E+02  0.22811071332E+02 -0.23753292243E+03  0.27815151008E+03  0.12499591559E+03 0.  0.
         25    2    1    2    0    0  0.69296821199E+02 -0.22811071332E+02 -0.84857719147E+02  0.16777088657E+03  0.12499537382E+03 0.  0.
          5    1    3    3  501    0 -0.42548956594E+02 -0.46191369603E+02 -0.65742308736E+02  0.91039538064E+02  0.47000000000E+01 0.  1.
         -5    1    3    3    0  501 -0.26747864606E+02  0.69002440934E+02 -0.17179061370E+03  0.18711197201E+03  0.47000000000E+01 0.  1.
          5    1    4    4  502    0  0.18692704007E+02  0.42201357827E+02  0.39256927213E+01  0.46560421486E+02  0.47000000000E+01 0. -1.
         -5    1    4    4    0  502  0.50604117193E+02 -0.65012429159E+02 -0.88783411868E+02  0.12121046508E+03  0.47000000000E+01 0. -1.
<mgrwt>
<rscale>  0 0.30807638E+03</rscale>
<asrwt>0</asrwt>
<pdfrwt beam="1">  1       21 0.95024429E-02 0.30807638E+03</pdfrwt>
<pdfrwt beam="2">  1       21 0.59101002E-01 0.30807638E+03</pdfrwt>
<totfact> 0.23062666E+05</totfact>
</mgrwt>
</event>
<event>
 8    1  0.4760912E-006  0.2672763E+03  0.7546771E-02  0.1102849E+00
         21   -1    0    0  504  503  0.00000000000E+00  0.00000000000E+00  0.26784340621E+03  0.26784340621E+03  0.00000000000E+00 0.  1.
         21   -1    0    0  503  504 -0.00000000000E+00 -0.00000000000E+00 -0.66677579686E+02  0.66677579686E+02  0.00000000000E+00 0.  1.
         25    2    1    2    0    0 -0.98743479107E+01 -0.32036705847E+02  0.58953608485E+02  0.14223250303E+03  0.12502281270E+03 0.  0.
         25    2    1    2    0    0  0.98743479107E+01  0.32036705847E+02  0.14221221804E+03  0.19228848287E+03  0.12500676948E+03 0.  0.
          5    1    3    3  501    0  0.33503610957E+02 -0.65572787048E+02  0.26834855960E+02  0.78514214272E+02  0.47000000000E+01 0.  1.
         -5    1    3    3    0  501 -0.43377958867E+02  0.33536081202E+02  0.32118752526E+02  0.63718288753E+02  0.47000000000E+01 0.  1.
          5    1    4    4  502    0  0.54826459347E+02 -0.19787978763E+02  0.83073592941E+02  0.10159141988E+03  0.47000000000E+01 0.  1.
         -5    1    4    4    0  502 -0.44952111436E+02  0.51824684610E+02  0.59138625096E+02  0.90697062994E+02  0.47000000000E+01 0.  1.
<mgrwt>
<rscale>  0 0.26727626E+03</rscale>
<asrwt>0</asrwt>
<pdfrwt beam="1">  1       21 0.41206677E-01 0.26727626E+03</pdfrwt>
<pdfrwt beam="2">  1       21 0.10258089E-01 0.26727626E+03</pdfrwt>
<totfact> 0.43314788E+05</totfact>
</mgrwt>
</event>
<event>
 8    1  0.4760912E-006  0.3141206E+03  0.7546771E-02  0.1078387E+00
         21   -1    0    0  504  503  0.00000000000E+00  0.00000000000E+00  0.18755909073E+02  0.18755909073E+02  0.00000000000E+00 0.  1.
         21   -1    0    0  503  504 -0.00000000000E+00 -0.00000000000E+00 -0.13152085826E+04  0.13152085826E+04  0.00000000000E+00 0.  1.
         25    2    1    2    0    0 -0.69141055708E+02  0.34947944900E+02 -0.88237174497E+03  0.89454298730E+03  0.12500166147E+03 0.  0.
         25    2    1    2    0    0  0.69141055708E+02 -0.34947944900E+02 -0.41408092860E+03  0.43942150442E+03  0.12500559457E+03 0.  0.
          5    1    3    3  501    0 -0.46240211446E+02  0.81878048850E+02 -0.53126607065E+03  0.53954415932E+03  0.47000000000E+01 0. -1.
         -5    1    3    3    0  501 -0.22900844262E+02 -0.46930103950E+02 -0.35110567432E+03  0.35499882798E+03  0.47000000000E+01 0. -1.
          5    1    4    4  502    0  0.14353057883E+02  0.46432925535E+02 -0.13405437579E+03  0.14266987248E+03  0.47000000000E+01 0.  1.
         -5    1    4    4    0  502  0.54787997825E+02 -0.81380870435E+02 -0.28002655282E+03  0.29675163194E+03  0.47000000000E+01 0.  1.
<mgrwt>
<rscale>  0 0.31412057E+03</rscale>
<asrwt>0</asrwt>
<pdfrwt beam="1">  1       21 0.28855241E-02 0.31412057E+03</pdfrwt>
<pdfrwt beam="2">  1       21 0.20233981E+00 0.31412057E+03</pdfrwt>
<totfact> 0.82502627E+04</totfact>
</mgrwt>
</event>
<event>
 8    1  0.4760912E-006  0.5410867E+03  0.7546771E-02  0.1003578E+00
         21   -1    0    0  504  503  0.00000000000E+00  0.00000000000E+00  0.14192135906E+03  0.14192135906E+03  0.00000000000E+00 0.  1.
         21   -1    0    0  503  504 -0.00000000000E+00 -0.00000000000E+00 -0.51573429223E+03  0.51573429223E+03  0.00000000000E+00 0.  1.
         25    2    1    2    0    0 -0.22933598876E+03  0.69511292381E+02 -0.20143814987E+03  0.33709023458E+03  0.12500273003E+03 0.  0.
         25    2    1    2    0    0  0.22933598876E+03 -0.69511292381E+02 -0.17237478329E+03  0.32056541672E+03  0.12498921941E+03 0.  0.
          5    1    3    3  501    0 -0.15332479929E+03 -0.10179267034E+02 -0.80791551709E+02  0.17367059734E+03  0.47000000000E+01 0. -1.
         -5    1    3    3    0  501 -0.76011189471E+02  0.79690559415E+02 -0.12064659817E+03  0.16341963723E+03  0.47000000000E+01 0. -1.
          5    1    4    4  502    0  0.13358476333E+03 -0.27225993033E+01 -0.31152832174E+02  0.13727669319E+03  0.47000000000E+01 0. -1.
         -5    1    4    4    0  502  0.95751225434E+02 -0.66788693078E+02 -0.14122195112E+03  0.18328872353E+03  0.47000000000E+01 0. -1.
<mgrwt>
<rscale>  0 0.54108673E+03</rscale>
<asrwt>0</asrwt>
<pdfrwt beam="1">  1       21 0.21834055E-01 0.54108673E+03</pdfrwt>
<pdfrwt beam="2">  1       21 0.79343739E-01 0.54108673E+03</pdfrwt>
<totfact> 0.24374044E+04</totfact>
</mgrwt>
</event>
<event>
 8    1  0.4760912E-006  0.2971813E+03  0.7546771E-02  0.1086658E+00
         21   -1    0    0  504  503  0.00000000000E+00  0.00000000000E+00  0.29185982632E+03  0.29185982632E+03  0.00000000000E+00 0.  1.
         21   -1    0    0  503  504 -0.00000000000E+00 -0.00000000000E+00 -0.75649936515E+02  0.75649936515E+02  0.00000000000E+00 0.  1.
         25    2    1    2    0    0 -0.70553763325E+02  0.24567339041E+02  0.14459975304E+03  0.20522361988E+03  0.12500503155E+03 0.  0.
         25    2    1    2    0    0  0.70553763325E+02 -0.24567339041E+02  0.71610136764E+02  0.16228614295E+03  0.12500957099E+03 0.  0.
          5    1    3    3  501    0 -0.75475734575E+01 -0.41994577741E+02  0.86610785810E+02  0.96664515948E+02  0.47000000000E+01 0. -1.
         -5    1    3    3    0  501 -0.63006189868E+02  0.66561916782E+02  0.57988967228E+02  0.10855910394E+03  0.47000000000E+01 0. -1.
          5    1    4    4  502    0  0.20331392662E+02  0.45625315191E+02  0.54674861642E+02  0.74205561850E+02  0.47000000000E+01 0. -1.
         -5    1    4    4    0  502  0.50222370663E+02 -0.70192654233E+02  0.16935275122E+02  0.88080581099E+02  0.47000000000E+01 0. -1.
<mgrwt>
<rscale>  0 0.29718127E+03</rscale>
<asrwt>0</asrwt>
<pdfrwt beam="1">  1       21 0.44901511E-01 0.29718127E+03</pdfrwt>
<pdfrwt beam="2">  1       21 0.11638452E-01 0.29718127E+03</pdfrwt>
<totfact> 0.28775741E+05</totfact>
</mgrwt>
</event>
<event>
 8    1  0.4760912E-006  0.3111868E+03  0.7546771E-02  0.1079778E+00
         21   -1    0    0  504  503  0.00000000000E+00  0.00000000000E+00  0.30378759308E+02  0.30378759308E+02  0.00000000000E+00 0.  1.
         21   -1    0    0  503  504 -0.00000000000E+00 -0.00000000000E+00 -0.79691564124E+03  0.79691564124E+03  0.00000000000E+00 0.  1.
         25    2    1    2    0    0 -0.54680632278E+01 -0.34132948566E+02 -0.61170427664E+03  0.62531141632E+03  0.12504914006E+03 0.  0.
         25    2    1    2    0    0  0.54680632278E+01  0.34132948566E+02 -0.15483260529E+03  0.20198298422E+03  0.12501612841E+03 0.  0.
          5    1    3    3  501    0 -0.90904795750E+01 -0.51166502296E+01  0.13690997747E+01  0.11523079565E+02  0.47000000000E+01 0.  1.
         -5    1    3    3    0  501  0.36224163472E+01 -0.29016298337E+02 -0.61307337642E+03  0.61378833676E+03  0.47000000000E+01 0.  1.
          5    1    4    4  502    0 -0.40109635188E+02  0.10590992377E+01 -0.36240566594E+01  0.40560181370E+02  0.47000000000E+01 0. -1.
         -5    1    4    4    0  502  0.45577698416E+02  0.33073849329E+02 -0.15120854863E+03  0.16142280285E+03  0.47000000000E+01 0. -1.
<mgrwt>
<rscale>  0 0.31118681E+03</rscale>
<asrwt>0</asrwt>
<pdfrwt beam="1">  1       21 0.46736557E-02 0.31118681E+03</pdfrwt>
<pdfrwt beam="2">  1       21 0.12260239E+00 0.31118681E+03</pdfrwt>
<totfact> 0.14500912E+05</totfact>
</mgrwt>
</event>
<event>
 8    1  0.4760912E-006  0.4975579E+03  0.7546771E-02  0.1014418E+00
         21   -1    0    0  504  503  0.00000000000E+00  0.00000000000E+00  0.55471123837E+02  0.55471123837E+02  0.00000000000E+00 0. -1.
         21   -1    0    0  503  504 -0.00000000000E+00 -0.00000000000E+00 -0.11157329866E+04  0.11157329866E+04  0.00000000000E+00 0. -1.
         25    2    1    2    0    0  0.43717860863E+02  0.20563076356E+03 -0.63715231191E+03  0.68248440655E+03  0.12500653717E+03 0.  0.
         25    2    1    2    0    0 -0.43717860863E+02 -0.20563076356E+03 -0.42310955089E+03  0.48871970392E+03  0.12501997706E+03 0.  0.
          5    1    3    3  501    0  0.51384677403E+02  0.13780635849E+03 -0.56159596825E+03  0.58055413104E+03  0.47000000000E+01 0.  1.
         -5    1    3    3    0  501 -0.76668165397E+01  0.67824405074E+02 -0.75556343662E+02  0.10193027552E+03  0.47000000000E+01 0.  1.
          5    1    4    4  502    0  0.42308398318E+02 -0.57743578611E+02 -0.99882244943E+02  0.12297509623E+03  0.47000000000E+01 0. -1.
         -5    1    4    4    0  502 -0.86026259181E+02 -0.14788718495E+03 -0.32322730594E+03  0.36574460768E+03  0.47000000000E+01 0. -1.
<mgrwt>
<rscale>  0 0.49755789E+03</rscale>
<asrwt>0</asrwt>
<pdfrwt beam="1">  1       21 0.85340186E-02 0.49755789E+03</pdfrwt>
<pdfrwt beam="2">  1       21 0.17165124E+00 0.49755789E+03</pdfrwt>
<totfact> 0.19527395E+04</totfact>
</mgrwt>
</event>
<event>
 8    1  0.4760912E-006  0.3075313E+03  0.7546771E-02  0.1081535E+00
         21   -1    0    0  504  503  0.00000000000E+00  0.00000000000E+00  0.46369214405E+03  0.46369214405E+03  0.00000000000E+00 0. -1.
         21   -1    0    0  503  504 -0.00000000000E+00 -0.00000000000E+00 -0.50990456964E+02  0.50990456964E+02  0.00000000000E+00 0. -1.
         25    2    1    2    0    0 -0.25217478656E+02 -0.67940244481E+02  0.29421197468E+03  0.32777358685E+03  0.12499216032E+03 0.  0.
         25    2    1    2    0    0  0.25217478656E+02  0.67940244481E+02  0.11848971240E+03  0.18690901416E+03  0.12507345674E+03 0.  0.
          5    1    3    3  501    0 -0.37464406715E+02 -0.54442213620E+02  0.50423444104E+02  0.83259534648E+02  0.47000000000E+01 0.  1.
         -5    1    3    3    0  501  0.12246928059E+02 -0.13498030860E+02  0.24378853058E+03  0.24451405220E+03  0.47000000000E+01 0.  1.
          5    1    4    4  502    0  0.35124696571E+02  0.58474646378E+02  0.14296152549E+03  0.15847118460E+03  0.47000000000E+01 0.  1.
         -5    1    4    4    0  502 -0.99072179149E+01  0.94655981026E+01 -0.24471813089E+02  0.28437829560E+02  0.47000000000E+01 0.  1.
<mgrwt>
<rscale>  0 0.30753129E+03</rscale>
<asrwt>0</asrwt>
<pdfrwt beam="1">  1       21 0.71337250E-01 0.30753129E+03</pdfrwt>
<pdfrwt beam="2">  1       21 0.78446860E-02 0.30753129E+03</pdfrwt>
<totfact> 0.21386583E+05</totfact>
</mgrwt>
</event>
<event>
 8    1  0.4760912E-006  0.2823809E+03  0.7546771E-02  0.1094396E+00
         21   -1    0    0  504  503  0.00000000000E+00  0.00000000000E+00  0.11116344303E+03  0.11116344303E+03  0.00000000000E+00 0.  1.
         21   -1    0    0  503  504 -0.00000000000E+00 -0.00000000000E+00 -0.17932821889E+03  0.17932821889E+03  0.00000000000E+00 0.  1.
         25    2    1    2    0    0  0.43248864811E+02  0.25725822568E+02 -0.77457657570E+02  0.15542508895E+03  0.12499994922E+03 0.  0.
         25    2    1    2    0    0 -0.43248864811E+02 -0.25725822568E+02  0.92928817053E+01  0.13506657297E+03  0.12499735689E+03 0.  0.
          5    1    3    3  501    0  0.33636859849E+02 -0.12333815923E+02  0.26102105208E+02  0.44575455713E+02  0.47000000000E+01 0. -1.
         -5    1    3    3    0  501  0.96120049621E+01  0.38059638491E+02 -0.10355976278E+03  0.11084963323E+03  0.47000000000E+01 0. -1.
          5    1    4    4  502    0 -0.56801800308E+02  0.17406618118E+02  0.47086695334E+02  0.75951838359E+02  0.47000000000E+01 0. -1.
         -5    1    4    4    0  502  0.13552935497E+02 -0.43132440685E+02 -0.37793813629E+02  0.59114734616E+02  0.47000000000E+01 0. -1.
<mgrwt>
<rscale>  0 0.28238089E+03</rscale>
<asrwt>0</asrwt>
<pdfrwt beam="1">  1       21 0.17102068E-01 0.28238089E+03</pdfrwt>
<pdfrwt beam="2">  1       21 0.27588956E-01 0.28238089E+03</pdfrwt>
<totfact> 0.37950208E+05</totfact>
</mgrwt>
</event>
<event>
 8    1  0.4760912E-006  0.3589047E+03  0.7546771E-02  0.1059018E+00
         21   -1    0    0  504  503  0.00000000000E+00  0.00000000000E+00  0.25195502713E+03  0.25195502713E+03  0.00000000000E+00 0.  1.
         21   -1    0    0  503  504 -0.00000000000E+00 -0.00000000000E+00 -0.12781304961E+03  0.12781304961E+03  0.00000000000E+00 0.  1.
         25    2    1    2    0    0  0.11051594282E+03  0.33366209344E+02  0.17368790248E+01  0.17016472301E+03  0.12500375460E+03 0.  0.
         25    2    1    2    0    0 -0.11051594282E+03 -0.33366209344E+02  0.12240509849E+03  0.20960335373E+03  0.12499392070E+03 0.  0.
          5    1    3    3  501    0  0.90632180800E+01  0.33088022351E+02 -0.46299185876E+02  0.57815774299E+02  0.47000000000E+01 0. -1.
         -5    1    3    3    0  501  0.10145272474E+03  0.27818699395E+00  0.48036064900E+02  0.11234894871E+03  0.47000000000E+01 0. -1.
          5    1    4    4  502    0 -0.10108082630E+03 -0.71810518832E+02  0.66025043424E+02  0.14055419033E+03  0.47000000000E+01 0.  1.
         -5    1    4    4    0  502 -0.94351165161E+01  0.38444309487E+02  0.56380055070E+02  0.69049163393E+02  0.47000000000E+01 0.  1.
<mgrwt>
<rscale>  0 0.35890467E+03</rscale>
<asrwt>0</asrwt>
<pdfrwt beam="1">  1       21 0.38762312E-01 0.35890467E+03</pdfrwt>
<pdfrwt beam="2">  1       21 0.19663546E-01 0.35890467E+03</pdfrwt>
<totfact> 0.14613547E+05</totfact>
</mgrwt>
</event>
<event>
 8    1  0.4760912E-006  0.2585058E+03  0.7546771E-02  0.1108044E+00
         21   -1    0    0  504  503  0.00000000000E+00  0.00000000000E+00  0.10034256258E+03  0.10034256258E+03  0.00000000000E+00 0. -1.
         21   -1    0    0  503  504 -0.00000000000E+00 -0.00000000000E+00 -0.16649282753E+03  0.16649282753E+03  0.00000000000E+00 0. -1.
         25    2    1    2    0    0  0.18009269372E+02 -0.24005312524E+02 -0.47096480281E+02  0.13690152127E+03  0.12499343687E+03 0.  0.
         25    2    1    2    0    0 -0.18009269372E+02  0.24005312524E+02 -0.19053784672E+02  0.12993386883E+03  0.12497669681E+03 0.  0.
          5    1    3    3  501    0  0.58667312877E+02  0.18470813838E+02 -0.47595510569E+02  0.77913074579E+02  0.47000000000E+01 0. -1.
         -5    1    3    3    0  501 -0.40658043505E+02 -0.42476126362E+02  0.49903028806E+00  0.58988446696E+02  0.47000000000E+01 0. -1.
          5    1    4    4  502    0 -0.46397314002E+01  0.74434789707E+02 -0.16838367682E+01  0.74746172695E+02  0.47000000000E+01 0.  1.
         -5    1    4    4    0  502 -0.13369537972E+02 -0.50429477184E+02 -0.17369947904E+02  0.55187696136E+02  0.47000000000E+01 0.  1.
<mgrwt>
<rscale>  0 0.25850584E+03</rscale>
<asrwt>0</asrwt>
<pdfrwt beam="1">  1       21 0.15437317E-01 0.25850584E+03</pdfrwt>
<pdfrwt beam="2">  1       21 0.25614281E-01 0.25850584E+03</pdfrwt>
<totfact> 0.53170782E+05</totfact>
</mgrwt>
</event>
<event>
 8    1  0.4760912E-006  0.3810557E+03  0.7546771E-02  0.1050544E+00
         21   -1    0    0  504  503  0.00000000000E+00  0.00000000000E+00  0.20965365026E+04  0.20965365026E+04  0.00000000000E+00 0.  1.
         21   -1    0    0  503  504 -0.00000000000E+00 -0.00000000000E+00 -0.17314679026E+02  0.17314679026E+02  0.00000000000E+00 0.  1.
         25    2    1    2    0    0 -0.54460693731E+02  0.35801552412E+02  0.17506620712E+04  0.17563285303E+04  0.12499800232E+03 0.  0.
         25    2    1    2    0    0  0.54460693731E+02 -0.35801552412E+02  0.32855975239E+03  0.35752265132E+03  0.12499286778E+03 0.  0.
          5    1    3    3  501    0 -0.24977260122E+01  0.18463841463E+01  0.12009404078E+01  0.57602107176E+01  0.47000000000E+01 0.  1.
         -5    1    3    3    0  501 -0.51962967719E+02  0.33955168266E+02  0.17494611308E+04  0.17505683196E+04  0.47000000000E+01 0.  1.
          5    1    4    4  502    0  0.90532801785E+02 -0.47291463771E+02  0.22441197899E+03  0.24660798255E+03  0.47000000000E+01 0.  1.
         -5    1    4    4    0  502 -0.36072108054E+02  0.11489911359E+02  0.10414777340E+03  0.11091466877E+03  0.47000000000E+01 0.  1.
<mgrwt>
<rscale>  0 0.38105567E+03</rscale>
<asrwt>0</asrwt>
<pdfrwt beam="1">  1       21 0.32254388E+00 0.38105567E+03</pdfrwt>
<pdfrwt beam="2">  1       21 0.26637984E-02 0.38105567E+03</pdfrwt>
<totfact> 0.16947917E+04</totfact>
</mgrwt>
</event>
<event>
 8    1  0.4760912E-006  0.4901284E+03  0.7546771E-02  0.1016388E+00
         21   -1    0    0  504  503  0.00000000000E+00  0.00000000000E+00  0.81328141665E+03  0.81328141665E+03  0.00000000000E+00 0.  1.
         21   -1    0    0  503  504 -0.00000000000E+00 -0.00000000000E+00 -0.73844621170E+02  0.73844621170E+02  0.00000000000E+00 0.  1.
         25    2    1    2    0    0 -0.55463787302E+02 -0.96941907200E+02  0.69327718696E+03  0.71325517232E+03  0.12500287116E+03 0.  0.
         25    2    1    2    0    0  0.55463787302E+02  0.96941907200E+02  0.46159608518E+02  0.17387086550E+03  0.12500561323E+03 0.  0.
          5    1    3    3  501    0  0.73398791026E+00 -0.78530692025E+02  0.17847519254E+03  0.19504638597E+03  0.47000000000E+01 0.  1.
         -5    1    3    3    0  501 -0.56197775213E+02 -0.18411215175E+02  0.51480199442E+03  0.51820878634E+03  0.47000000000E+01 0.  1.
          5    1    4    4  502    0  0.72480907996E+02  0.10022221405E+03 -0.60671903759E+00  0.12377573398E+03  0.47000000000E+01 0. -1.
         -5    1    4    4    0  502 -0.17017120694E+02 -0.32803068527E+01  0.46766327555E+02  0.50095131528E+02  0.47000000000E+01 0. -1.
<mgrwt>
<rscale>  0 0.49012838E+03</rscale>
<asrwt>0</asrwt>
<pdfrwt beam="1">  1       21 0.12512021E+00 0.49012838E+03</pdfrwt>
<pdfrwt beam="2">  1       21 0.11360712E-01 0.49012838E+03</pdfrwt>
<totfact> 0.27544019E+04</totfact>
</mgrwt>
</event>
<event>
 8    1  0.4760912E-006  0.2740624E+03  0.7546771E-02  0.1098977E+00
         21   -1    0    0  504  503  0.00000000000E+00  0.00000000000E+00  0.62456027996E+02  0.62456027996E+02  0.00000000000E+00 0.  1.
         21   -1    0    0  503  504 -0.00000000000E+00 -0.00000000000E+00 -0.30065233310E+03  0.30065233310E+03  0.00000000000E+00 0.  1.
         25    2    1    2    0    0  0.13636984433E+02  0.21986484243E+02 -0.53048585037E+02  0.13823485796E+03  0.12500140298E+03 0.  0.
         25    2    1    2    0    0 -0.13636984433E+02 -0.21986484243E+02 -0.18514772007E+03  0.22487350314E+03  0.12497616307E+03 0.  0.
          5    1    3    3  501    0  0.25878225068E+01  0.13880658367E+02 -0.93806103543E+02  0.94979179634E+02  0.47000000000E+01 0.  1.
         -5    1    3    3    0  501  0.11049161927E+02  0.81058258764E+01  0.40757518505E+02  0.43255678322E+02  0.47000000000E+01 0.  1.
          5    1    4    4  502    0 -0.60090007198E+02 -0.39875650890E+02 -0.76313418711E+02  0.10510330335E+03  0.47000000000E+01 0.  1.
         -5    1    4    4    0  502  0.46453022765E+02  0.17889166647E+02 -0.10883430136E+03  0.11977019980E+03  0.47000000000E+01 0.  1.
<mgrwt>
<rscale>  0 0.27406241E+03</rscale>
<asrwt>0</asrwt>
<pdfrwt beam="1">  1       21 0.96086198E-02 0.27406241E+03</pdfrwt>
<pdfrwt beam="2">  1       21 0.46254204E-01 0.27406241E+03</pdfrwt>
<totfact> 0.38295128E+05</totfact>
</mgrwt>
</event>
<event>
 8    1  0.4760912E-006  0.4768311E+03  0.7546771E-02  0.1020010E+00
         21   -1    0    0  504  503  0.00000000000E+00  0.00000000000E+00  0.42193660510E+03  0.42193660510E+03  0.00000000000E+00 0. -1.
         21   -1    0    0  503  504 -0.00000000000E+00 -0.00000000000E+00 -0.13471688431E+03  0.13471688431E+03  0.00000000000E+00 0. -1.
         25    2    1    2    0    0  0.35747595993E+01  0.14976454731E+03  0.30356803305E+03  0.36086099697E+03  0.12499963961E+03 0.  0.
         25    2    1    2    0    0 -0.35747595993E+01 -0.14976454731E+03 -0.16348312263E+02  0.19579249244E+03  0.12500093698E+03 0.  0.
          5    1    3    3  501    0  0.30100053393E+02  0.27159191019E+01  0.11351676961E+02  0.32624224139E+02  0.47000000000E+01 0.  1.
         -5    1    3    3    0  501 -0.26525293794E+02  0.14704862821E+03  0.29221635609E+03  0.32823677283E+03  0.47000000000E+01 0.  1.
          5    1    4    4  502    0  0.99285816764E+01  0.20961208112E+02  0.25412802758E+00  0.23666507149E+02  0.47000000000E+01 0. -1.
         -5    1    4    4    0  502 -0.13503341276E+02 -0.17072575542E+03 -0.16602440291E+02  0.17212598529E+03  0.47000000000E+01 0. -1.
<mgrwt>
<rscale>  0 0.47683114E+03</rscale>
<asrwt>0</asrwt>
<pdfrwt beam="1">  1       21 0.64913323E-01 0.47683114E+03</pdfrwt>
<pdfrwt beam="2">  1       21 0.20725675E-01 0.47683114E+03</pdfrwt>
<totfact> 0.43060993E+04</totfact>
</mgrwt>
</event>
<event>
 8    1  0.4760912E-006  0.9038651E+03  0.7546771E-02  0.9420763E-01
         21   -1    0    0  504  503  0.00000000000E+00  0.00000000000E+00  0.89257503896E+03  0.89257503896E+03  0.00000000000E+00 0.  1.
         21   -1    0    0  503  504 -0.00000000000E+00 -0.00000000000E+00 -0.22882451193E+03  0.22882451193E+03  0.00000000000E+00 0.  1.
         25    2    1    2    0    0 -0.30777199248E+03  0.18819030515E+03  0.63189543837E+03  0.73828053499E+03  0.12500845177E+03 0.  0.
         25    2    1    2    0    0  0.30777199248E+03 -0.18819030515E+03  0.31855088662E+02  0.38311901589E+03  0.12500497333E+03 0.  0.
          5    1    3    3  501    0 -0.31380510264E+03  0.16349706802E+03  0.56629118315E+03  0.66776697119E+03  0.47000000000E+01 0.  1.
         -5    1    3    3    0  501  0.60331101600E+01  0.24693237132E+02  0.65604255216E+02  0.70513563807E+02  0.47000000000E+01 0.  1.
          5    1    4    4  502    0  0.22618545123E+03 -0.67990835829E+02  0.25932039809E+02  0.23764926424E+03  0.47000000000E+01 0.  1.
         -5    1    4    4    0  502  0.81586541248E+02 -0.12019946932E+03  0.59230488523E+01  0.14546975165E+03  0.47000000000E+01 0.  1.
<mgrwt>
<rscale>  0 0.90386514E+03</rscale>
<asrwt>0</asrwt>
<pdfrwt beam="1">  1       21 0.13731923E+00 0.90386514E+03</pdfrwt>
<pdfrwt beam="2">  1       21 0.35203772E-01 0.90386514E+03</pdfrwt>
<totfact> 0.22448274E+03</totfact>
</mgrwt>
</event>
<event>
 8    1  0.4760912E-006  0.3172179E+03  0.7546771E-02  0.1076937E+00
         21   -1    0    0  504  503  0.00000000000E+00  0.00000000000E+00  0.33836719281E+03  0.33836719281E+03  0.00000000000E+00 0.  1.
         21   -1    0    0  503  504 -0.00000000000E+00 -0.00000000000E+00 -0.74347645121E+02  0.74347645121E+02  0.00000000000E+00 0.  1.
         25    2    1    2    0    0  0.23454740210E+02  0.91196642901E+02  0.98413243137E+02  0.18488059358E+03  0.12501485888E+03 0.  0.
         25    2    1    2    0    0 -0.23454740210E+02 -0.91196642901E+02  0.16560630455E+03  0.22783424435E+03  0.12496416397E+03 0.  0.
          5    1    3    3  501    0  0.75026879486E+01  0.12061254226E+03  0.64737090651E+02  0.13717381887E+03  0.47000000000E+01 0.  1.
         -5    1    3    3    0  501  0.15952052261E+02 -0.29415899362E+02  0.33676152486E+02  0.47706774706E+02  0.47000000000E+01 0.  1.
          5    1    4    4  502    0  0.23919918066E+01 -0.10572277361E+03  0.16706769275E+03  0.19777949956E+03  0.47000000000E+01 0.  1.
         -5    1    4    4    0  502 -0.25846732016E+02  0.14526130704E+02 -0.14613882018E+01  0.30054744794E+02  0.47000000000E+01 0.  1.
<mgrwt>
<rscale>  0 0.31721793E+03</rscale>
<asrwt>0</asrwt>
<pdfrwt beam="1">  1       21 0.52056490E-01 0.31721793E+03</pdfrwt>
<pdfrwt beam="2">  1       21 0.11438099E-01 0.31721793E+03</pdfrwt>
<totfact> 0.21680764E+05</totfact>
</mgrwt>
</event>
<event>
 8    1  0.4760912E-006  0.2953626E+03  0.7546771E-02  0.1087582E+00
         21   -1    0    0  504  503  0.00000000000E+00  0.00000000000E+00  0.30607226559E+03  0.30607226559E+03  0.00000000000E+00 0.  1.
         21   -1    0    0  503  504 -0.00000000000E+00 -0.00000000000E+00 -0.71256899950E+02  0.71256899950E+02  0.00000000000E+00 0.  1.
         25    2    1    2    0    0 -0.77726212514E+02 -0.11817630950E+02  0.11658258536E+03  0.18816033436E+03  0.12502716386E+03 0.  0.
         25    2    1    2    0    0  0.77726212514E+02  0.11817630950E+02  0.11823278027E+03  0.18916883118E+03  0.12499934338E+03 0.  0.
          5    1    3    3  501    0 -0.88735450946E+02  0.13572504017E+02  0.12919215428E+03  0.15738772458E+03  0.47000000000E+01 0.  1.
         -5    1    3    3    0  501  0.11009238432E+02 -0.25390134968E+02 -0.12609568916E+02  0.30772609782E+02  0.47000000000E+01 0.  1.
          5    1    4    4  502    0 -0.14034605392E+02  0.42596117949E+01  0.92052680502E+02  0.93332204672E+02  0.47000000000E+01 0. -1.
         -5    1    4    4    0  502  0.91760817906E+02  0.75580191554E+01  0.26180099770E+02  0.95836626507E+02  0.47000000000E+01 0. -1.
<mgrwt>
<rscale>  0 0.29536256E+03</rscale>
<asrwt>0</asrwt>
<pdfrwt beam="1">  1       21 0.47088040E-01 0.29536256E+03</pdfrwt>
<pdfrwt beam="2">  1       21 0.10962600E-01 0.29536256E+03</pdfrwt>
<totfact> 0.29035812E+05</totfact>
</mgrwt>
</event>
<event>
 8    1  0.4760912E-006  0.2815804E+03  0.7546771E-02  0.1094829E+00
         21   -1    0    0  504  503  0.00000000000E+00  0.00000000000E+00  0.31305881091E+03  0.31305881091E+03  0.00000000000E+00 0. -1.
         21   -1    0    0  503  504 -0.00000000000E+00 -0.00000000000E+00 -0.63316809256E+02  0.63316809256E+02  0.00000000000E+00 0. -1.
         25    2    1    2    0    0 -0.62154184158E+02 -0.12025206603E+02  0.10649715538E+03  0.17599684383E+03  0.12500198691E+03 0.  0.
         25    2    1    2    0    0  0.62154184158E+02  0.12025206603E+02  0.14324484627E+03  0.20037877634E+03  0.12499927928E+03 0.  0.
          5    1    3    3  501    0  0.27929037359E+02  0.13035518779E+02 -0.37029454305E+01  0.31396778218E+02  0.47000000000E+01 0. -1.
         -5    1    3    3    0  501 -0.90083221516E+02 -0.25060725382E+02  0.11020010081E+03  0.14460006561E+03  0.47000000000E+01 0. -1.
          5    1    4    4  502    0 -0.27803059491E+02  0.34317352071E+02  0.28363204156E+02  0.52699640608E+02  0.47000000000E+01 0. -1.
         -5    1    4    4    0  502  0.89957243649E+02 -0.22292145467E+02  0.11488164212E+03  0.14767913573E+03  0.47000000000E+01 0. -1.
<mgrwt>
<rscale>  0 0.28158043E+03</rscale>
<asrwt>0</asrwt>
<pdfrwt beam="1">  1       21 0.48162893E-01 0.28158043E+03</pdfrwt>
<pdfrwt beam="2">  1       21 0.97410478E-02 0.28158043E+03</pdfrwt>
<totfact> 0.34301047E+05</totfact>
</mgrwt>
</event>
<event>
 8    1  0.4760912E-006  0.3998676E+03  0.7546771E-02  0.1043826E+00
         21   -1    0    0  504  503  0.00000000000E+00  0.00000000000E+00  0.27574676266E+03  0.27574676266E+03  0.00000000000E+00 0. -1.
         21   -1    0    0  503  504 -0.00000000000E+00 -0.00000000000E+00 -0.14496459183E+03  0.14496459183E+03  0.00000000000E+00 0. -1.
         25    2    1    2    0    0  0.12254995396E+01 -0.75024265842E+02 -0.78558981441E+02  0.16560925642E+03  0.12499907973E+03 0.  0.
         25    2    1    2    0    0 -0.12254995396E+01  0.75024265842E+02  0.20934115227E+03  0.25510209806E+03  0.12499288015E+03 0.  0.
          5    1    3    3  501    0 -0.25117999489E+02 -0.12705514756E+02  0.27557098825E+02  0.39671497314E+02  0.47000000000E+01 0. -1.
         -5    1    3    3    0  501  0.26343499028E+02 -0.62318751086E+02 -0.10611608027E+03  0.12593775911E+03  0.47000000000E+01 0. -1.
          5    1    4    4  502    0 -0.60096726252E+01  0.47317481153E+02  0.43358926302E+01  0.48124319763E+02  0.47000000000E+01 0.  1.
         -5    1    4    4    0  502  0.47841730857E+01  0.27706784689E+02  0.20500525964E+03  0.20697777830E+03  0.47000000000E+01 0.  1.
<mgrwt>
<rscale>  0 0.39986756E+03</rscale>
<asrwt>0</asrwt>
<pdfrwt beam="1">  1       21 0.42422579E-01 0.39986756E+03</pdfrwt>
<pdfrwt beam="2">  1       21 0.22302245E-01 0.39986756E+03</pdfrwt>
<totfact> 0.94680935E+04</totfact>
</mgrwt>
</event>
<event>
 8    1  0.4760912E-006  0.2530130E+03  0.7546771E-02  0.1111415E+00
         21   -1    0    0  504  503  0.00000000000E+00  0.00000000000E+00  0.97424994657E+02  0.97424994657E+02  0.00000000000E+00 0.  1.
         21   -1    0    0  503  504 -0.00000000000E+00 -0.00000000000E+00 -0.16426889646E+03  0.16426889646E+03  0.00000000000E+00 0.  1.
         25    2    1    2    0    0 -0.52527608686E+01 -0.15386565988E+02 -0.22365931058E+02  0.12802073682E+03  0.12499894509E+03 0.  0.
         25    2    1    2    0    0  0.52527608686E+01  0.15386565988E+02 -0.44477970746E+02  0.13367315430E+03  0.12500353750E+03 0.  0.
          5    1    3    3  501    0 -0.25485413879E+02  0.16917627138E+02  0.42538020010E+02  0.52604995722E+02  0.47000000000E+01 0.  1.
         -5    1    3    3    0  501  0.20232653010E+02 -0.32304193126E+02 -0.64903951068E+02  0.75415741099E+02  0.47000000000E+01 0.  1.
          5    1    4    4  502    0 -0.53544093631E+02  0.30274307521E+02 -0.66738685030E+01  0.62049449469E+02  0.47000000000E+01 0.  1.
         -5    1    4    4    0  502  0.58796854500E+02 -0.14887741533E+02 -0.37804102243E+02  0.71623704829E+02  0.47000000000E+01 0.  1.
<mgrwt>
<rscale>  0 0.25301301E+03</rscale>
<asrwt>0</asrwt>
<pdfrwt beam="1">  1       21 0.14988461E-01 0.25301301E+03</pdfrwt>
<pdfrwt beam="2">  1       21 0.25272138E-01 0.25301301E+03</pdfrwt>
<totfact> 0.57654010E+05</totfact>
</mgrwt>
</event>
<event>
 8    1  0.4760912E-006  0.2867378E+03  0.7546771E-02  0.1092065E+00
         21   -1    0    0  504  503  0.00000000000E+00  0.00000000000E+00  0.53245335134E+02  0.53245335134E+02  0.00000000000E+00 0. -1.
         21   -1    0    0  503  504 -0.00000000000E+00 -0.00000000000E+00 -0.38603659234E+03  0.38603659234E+03  0.00000000000E+00 0. -1.
         25    2    1    2    0    0 -0.11517014247E+02  0.45850800731E+02 -0.86869122999E+02  0.15939373259E+03  0.12500071965E+03 0.  0.
         25    2    1    2    0    0  0.11517014247E+02 -0.45850800731E+02 -0.24592213421E+03  0.27988819489E+03  0.12499907200E+03 0.  0.
          5    1    3    3  501    0 -0.43631225705E+02  0.39515729285E+01 -0.95985903422E+02  0.10561573008E+03  0.47000000000E+01 0. -1.
         -5    1    3    3    0  501  0.32114211457E+02  0.41899227803E+02  0.91167804228E+01  0.53778002503E+02  0.47000000000E+01 0. -1.
          5    1    4    4  502    0 -0.39218479597E+02  0.20198561986E+02 -0.12779047690E+03  0.13527219609E+03  0.47000000000E+01 0. -1.
         -5    1    4    4    0  502  0.50735493845E+02 -0.66049362717E+02 -0.11813165731E+03  0.14461599880E+03  0.47000000000E+01 0. -1.
<mgrwt>
<rscale>  0 0.28673784E+03</rscale>
<asrwt>0</asrwt>
<pdfrwt beam="1">  1       21 0.81915900E-02 0.28673784E+03</pdfrwt>
<pdfrwt beam="2">  1       21 0.59390245E-01 0.28673784E+03</pdfrwt>
<totfact> 0.29805468E+05</totfact>
</mgrwt>
</event>
<event>
 8    1  0.4760912E-006  0.3848626E+03  0.7546771E-02  0.1049151E+00
         21   -1    0    0  504  503  0.00000000000E+00  0.00000000000E+00  0.58493304453E+02  0.58493304453E+02  0.00000000000E+00 0. -1.
         21   -1    0    0  503  504 -0.00000000000E+00 -0.00000000000E+00 -0.63306048026E+03  0.63306048026E+03  0.00000000000E+00 0. -1.
         25    2    1    2    0    0 -0.10926826769E+03 -0.83251683342E+02 -0.37773639894E+03  0.42092936367E+03  0.12500537993E+03 0.  0.
         25    2    1    2    0    0  0.10926826769E+03  0.83251683342E+02 -0.19683077687E+03  0.27062442105E+03  0.12499930176E+03 0.  0.
          5    1    3    3  501    0 -0.34515856973E+02 -0.16501074344E+02 -0.27369069506E+03  0.27639159973E+03  0.47000000000E+01 0. -1.
         -5    1    3    3    0  501 -0.74752410718E+02 -0.66750608998E+02 -0.10404570388E+03  0.14453776394E+03  0.47000000000E+01 0. -1.
          5    1    4    4  502    0  0.13169529937E+03  0.42175664976E+02 -0.13970239749E+03  0.19662474020E+03  0.47000000000E+01 0. -1.
         -5    1    4    4    0  502 -0.22427031685E+02  0.41076018366E+02 -0.57128379376E+02  0.73999680845E+02  0.47000000000E+01 0. -1.
<mgrwt>
<rscale>  0 0.38486257E+03</rscale>
<asrwt>0</asrwt>
<pdfrwt beam="1">  1       21 0.89989696E-02 0.38486257E+03</pdfrwt>
<pdfrwt beam="2">  1       21 0.97393924E-01 0.38486257E+03</pdfrwt>
<totfact> 0.80109763E+04</totfact>
</mgrwt>
</event>
<event>
 8    1  0.4760912E-006  0.3376787E+03  0.7546771E-02  0.1067789E+00
         21   -1    0    0  504  503  0.00000000000E+00  0.00000000000E+00  0.16357741911E+03  0.16357741911E+03  0.00000000000E+00 0.  1.
         21   -1    0    0  503  504 -0.00000000000E+00 -0.00000000000E+00 -0.17427052695E+03  0.17427052695E+03  0.00000000000E+00 0.  1.
         25    2    1    2    0    0 -0.42699942669E+02  0.34694120225E+02 -0.10465392531E+03  0.17206482636E+03  0.12500757299E+03 0.  0.
         25    2    1    2    0    0  0.42699942669E+02 -0.34694120225E+02  0.93960817473E+02  0.16578311970E+03  0.12501376114E+03 0.  0.
          5    1    3    3  501    0 -0.36152492712E+02 -0.31289156390E+02  0.49092462982E-01  0.48042756446E+02  0.47000000000E+01 0. -1.
         -5    1    3    3    0  501 -0.65474499575E+01  0.65983276616E+02 -0.10470301777E+03  0.12402206991E+03  0.47000000000E+01 0. -1.
          5    1    4    4  502    0  0.40970224266E+01 -0.74864963944E+02  0.30163682520E+02  0.80953604999E+02  0.47000000000E+01 0. -1.
         -5    1    4    4    0  502  0.38602920243E+02  0.40170843719E+02  0.63797134952E+02  0.84829514701E+02  0.47000000000E+01 0. -1.
<mgrwt>
<rscale>  0 0.33767868E+03</rscale>
<asrwt>0</asrwt>
<pdfrwt beam="1">  1       21 0.25165757E-01 0.33767868E+03</pdfrwt>
<pdfrwt beam="2">  1       21 0.26810850E-01 0.33767868E+03</pdfrwt>
<totfact> 0.19090429E+05</totfact>
</mgrwt>
</event>
<event>
 8    1  0.4760912E-006  0.2872459E+03  0.7546771E-02  0.1091796E+00
         21   -1    0    0  504  503  0.00000000000E+00  0.00000000000E+00  0.69882826807E+03  0.69882826807E+03  0.00000000000E+00 0. -1.
         21   -1    0    0  503  504 -0.00000000000E+00 -0.00000000000E+00 -0.29517332979E+02  0.29517332979E+02  0.00000000000E+00 0. -1.
         25    2    1    2    0    0 -0.64074598875E+02  0.13736047556E+02  0.26718868829E+03  0.30217232566E+03  0.12499634403E+03 0.  0.
         25    2    1    2    0    0  0.64074598875E+02 -0.13736047556E+02  0.40212224680E+03  0.42617327539E+03  0.12500850395E+03 0.  0.
          5    1    3    3  501    0  0.49796579300E+01  0.46793368633E+02  0.17971047246E+03  0.18582884667E+03  0.47000000000E+01 0.  1.
         -5    1    3    3    0  501 -0.69054256805E+02 -0.33057321077E+02  0.87478215824E+02  0.11634347899E+03  0.47000000000E+01 0.  1.
          5    1    4    4  502    0 -0.14676485286E+01 -0.58076744851E+02  0.12472522456E+03  0.13767183418E+03  0.47000000000E+01 0. -1.
         -5    1    4    4    0  502  0.65542247403E+02  0.44340697295E+02  0.27739702224E+03  0.28850144121E+03  0.47000000000E+01 0. -1.
<mgrwt>
<rscale>  0 0.28724586E+03</rscale>
<asrwt>0</asrwt>
<pdfrwt beam="1">  1       21 0.10751203E+00 0.28724586E+03</pdfrwt>
<pdfrwt beam="2">  1       21 0.45411287E-02 0.28724586E+03</pdfrwt>
<totfact> 0.21223548E+05</totfact>
</mgrwt>
</event>
<event>
 8    1  0.4760912E-006  0.2892780E+03  0.7546771E-02  0.1090727E+00
         21   -1    0    0  504  503  0.00000000000E+00  0.00000000000E+00  0.71502818032E+03  0.71502818032E+03  0.00000000000E+00 0. -1.
         21   -1    0    0  503  504 -0.00000000000E+00 -0.00000000000E+00 -0.29258211396E+02  0.29258211396E+02  0.00000000000E+00 0. -1.
         25    2    1    2    0    0  0.33261177391E+02  0.21240730081E+02  0.18559595762E+03  0.22722069027E+03  0.12500363221E+03 0.  0.
         25    2    1    2    0    0 -0.33261177391E+02 -0.21240730081E+02  0.50017401131E+03  0.51706570145E+03  0.12500169396E+03 0.  0.
          5    1    3    3  501    0  0.26597167349E+02 -0.35821201120E+02  0.15245488402E+02  0.47382303419E+02  0.47000000000E+01 0.  1.
         -5    1    3    3    0  501  0.66640100415E+01  0.57061931201E+02  0.17035046922E+03  0.17983838685E+03  0.47000000000E+01 0.  1.
          5    1    4    4  502    0 -0.58762906440E+02 -0.23929390191E+02  0.47974337348E+03  0.48394368400E+03  0.47000000000E+01 0. -1.
         -5    1    4    4    0  502  0.25501729050E+02  0.26886601098E+01  0.20430637828E+02  0.33122017447E+02  0.47000000000E+01 0. -1.
<mgrwt>
<rscale>  0 0.28927804E+03</rscale>
<asrwt>0</asrwt>
<pdfrwt beam="1">  1       21 0.11000432E+00 0.28927804E+03</pdfrwt>
<pdfrwt beam="2">  1       21 0.45012638E-02 0.28927804E+03</pdfrwt>
<totfact> 0.20359528E+05</totfact>
</mgrwt>
</event>
<event>
 8    1  0.4760912E-006  0.3139329E+03  0.7546771E-02  0.1078476E+00
         21   -1    0    0  504  503  0.00000000000E+00  0.00000000000E+00  0.44000765833E+03  0.44000765833E+03  0.00000000000E+00 0. -1.
         21   -1    0    0  503  504 -0.00000000000E+00 -0.00000000000E+00 -0.55995546993E+02  0.55995546993E+02  0.00000000000E+00 0. -1.
         25    2    1    2    0    0 -0.39557140943E+02 -0.86254377005E+02  0.18776030520E+03  0.24471961942E+03  0.12501669876E+03 0.  0.
         25    2    1    2    0    0  0.39557140943E+02  0.86254377005E+02  0.19625180614E+03  0.25128358591E+03  0.12499633667E+03 0.  0.
          5    1    3    3  501    0 -0.79153629594E+02 -0.23851963873E+02  0.10334655843E+03  0.13242663780E+03  0.47000000000E+01 0. -1.
         -5    1    3    3    0  501  0.39596488651E+02 -0.62402413132E+02  0.84413746767E+02  0.11229298162E+03  0.47000000000E+01 0. -1.
          5    1    4    4  502    0  0.63726221943E+02  0.18355565819E+01  0.52283067421E+02  0.82583350441E+02  0.47000000000E+01 0. -1.
         -5    1    4    4    0  502 -0.24169081000E+02  0.84418820424E+02  0.14396873872E+03  0.16870023547E+03  0.47000000000E+01 0. -1.
<mgrwt>
<rscale>  0 0.31393292E+03</rscale>
<asrwt>0</asrwt>
<pdfrwt beam="1">  1       21 0.67693484E-01 0.31393292E+03</pdfrwt>
<pdfrwt beam="2">  1       21 0.86146998E-02 0.31393292E+03</pdfrwt>
<totfact> 0.20352998E+05</totfact>
</mgrwt>
</event>
<event>
 8    1  0.4760912E-006  0.2966417E+03  0.7546771E-02  0.1086932E+00
         21   -1    0    0  504  503  0.00000000000E+00  0.00000000000E+00  0.72431974328E+03  0.72431974328E+03  0.00000000000E+00 0. -1.
         21   -1    0    0  503  504 -0.00000000000E+00 -0.00000000000E+00 -0.30372040637E+02  0.30372040637E+02  0.00000000000E+00 0. -1.
         25    2    1    2    0    0  0.68800425072E+02 -0.40270179939E+02  0.33608160164E+03  0.36733098401E+03  0.12500409180E+03 0.  0.
         25    2    1    2    0    0 -0.68800425072E+02  0.40270179939E+02  0.35786610100E+03  0.38736079991E+03  0.12500022871E+03 0.  0.
          5    1    3    3  501    0  0.47006567886E+02 -0.67357508054E+02  0.31677990137E+03  0.32728924093E+03  0.47000000000E+01 0.  1.
         -5    1    3    3    0  501  0.21793857186E+02  0.27087328115E+02  0.19301700271E+02  0.40041743079E+02  0.47000000000E+01 0.  1.
          5    1    4    4  502    0 -0.47339406187E+02 -0.89375696722E+01  0.31446187871E+03  0.31816546433E+03  0.47000000000E+01 0. -1.
         -5    1    4    4    0  502 -0.21461018884E+02  0.49207749611E+02  0.43404222293E+02  0.69195335582E+02  0.47000000000E+01 0. -1.
<mgrwt>
<rscale>  0 0.29664166E+03</rscale>
<asrwt>0</asrwt>
<pdfrwt beam="1">  1       21 0.11143379E+00 0.29664166E+03</pdfrwt>
<pdfrwt beam="2">  1       21 0.46726222E-02 0.29664166E+03</pdfrwt>
<totfact> 0.18472870E+05</totfact>
</mgrwt>
</event>
<event>
 8    1  0.4760912E-006  0.3704745E+03  0.7546771E-02  0.1054512E+00
         21   -1    0    0  504  503  0.00000000000E+00  0.00000000000E+00  0.65105872402E+03  0.65105872402E+03  0.00000000000E+00 0.  1.
         21   -1    0    0  503  504 -0.00000000000E+00 -0.00000000000E+00 -0.52703149007E+02  0.52703149007E+02  0.00000000000E+00 0.  1.
         25    2    1    2    0    0  0.11852527861E+03 -0.67623693373E+02  0.28365456484E+03  0.33868450969E+03  0.12500431741E+03 0.  0.
         25    2    1    2    0    0 -0.11852527861E+03  0.67623693373E+02  0.31470101017E+03  0.36507736334E+03  0.12499419925E+03 0.  0.
          5    1    3    3  501    0  0.80996526771E+02 -0.73153128134E+02  0.90720428847E+02  0.14200036519E+03  0.47000000000E+01 0. -1.
         -5    1    3    3    0  501  0.37528751836E+02  0.55294347607E+01  0.19293413600E+03  0.19668414450E+03  0.47000000000E+01 0. -1.
          5    1    4    4  502    0 -0.12861906318E+03  0.66448289731E+02  0.18530739604E+03  0.23520025435E+03  0.47000000000E+01 0.  1.
         -5    1    4    4    0  502  0.10093784569E+02  0.11754036417E+01  0.12939361413E+03  0.12987710899E+03  0.47000000000E+01 0.  1.
<mgrwt>
<rscale>  0 0.37047453E+03</rscale>
<asrwt>0</asrwt>
<pdfrwt beam="1">  1       21 0.10016288E+00 0.37047453E+03</pdfrwt>
<pdfrwt beam="2">  1       21 0.81081772E-02 0.37047453E+03</pdfrwt>
<totfact> 0.90402676E+04</totfact>
</mgrwt>
</event>
<event>
 8    1  0.4760912E-006  0.3100534E+03  0.7546771E-02  0.1080320E+00
         21   -1    0    0  504  503  0.00000000000E+00  0.00000000000E+00  0.14124300851E+03  0.14124300851E+03  0.00000000000E+00 0. -1.
         21   -1    0    0  503  504 -0.00000000000E+00 -0.00000000000E+00 -0.17015557299E+03  0.17015557299E+03  0.00000000000E+00 0. -1.
         25    2    1    2    0    0 -0.80824184837E+02  0.19491804870E+02  0.24376474392E+02  0.15209859370E+03  0.12500916122E+03 0.  0.
         25    2    1    2    0    0  0.80824184837E+02 -0.19491804870E+02 -0.53289038866E+02  0.15929998780E+03  0.12499714052E+03 0.  0.
          5    1    3    3  501    0  0.20166893893E+02 -0.11039362061E+02  0.38965390347E+02  0.45485852404E+02  0.47000000000E+01 0. -1.
         -5    1    3    3    0  501 -0.10099107873E+03  0.30531166930E+02 -0.14588915955E+02  0.10661274129E+03  0.47000000000E+01 0. -1.
          5    1    4    4  502    0  0.95991243042E+02  0.17376520061E+02 -0.68330532042E+01  0.97903231848E+02  0.47000000000E+01 0.  1.
         -5    1    4    4    0  502 -0.15167058205E+02 -0.36868324931E+02 -0.46455985662E+02  0.61396755953E+02  0.47000000000E+01 0.  1.
<mgrwt>
<rscale>  0 0.31005345E+03</rscale>
<asrwt>0</asrwt>
<pdfrwt beam="1">  1       21 0.21729694E-01 0.31005345E+03</pdfrwt>
<pdfrwt beam="2">  1       21 0.26177780E-01 0.31005345E+03</pdfrwt>
<totfact> 0.26651721E+05</totfact>
</mgrwt>
</event>
<event>
 8    1  0.4760912E-006  0.2778268E+03  0.7546771E-02  0.1096882E+00
         21   -1    0    0  504  503  0.00000000000E+00  0.00000000000E+00  0.39399004666E+02  0.39399004666E+02  0.00000000000E+00 0.  1.
         21   -1    0    0  503  504 -0.00000000000E+00 -0.00000000000E+00 -0.48978235777E+03  0.48978235777E+03  0.00000000000E+00 0.  1.
         25    2    1    2    0    0  0.53231952484E+02 -0.15810541938E+02 -0.27138967907E+03  0.30390986460E+03  0.12500093557E+03 0.  0.
         25    2    1    2    0    0 -0.53231952484E+02  0.15810541938E+02 -0.17899367404E+03  0.22527149784E+03  0.12499959356E+03 0.  0.
          5    1    3    3  501    0 -0.22293285979E+02 -0.21789052376E+02 -0.12149938928E+02  0.33785565249E+02  0.47000000000E+01 0.  1.
         -5    1    3    3    0  501  0.75525238463E+02  0.59785104389E+01 -0.25923974014E+03  0.27012429935E+03  0.47000000000E+01 0.  1.
          5    1    4    4  502    0 -0.48514447822E+02 -0.49773705537E+02 -0.10676294930E+03  0.12748133492E+03  0.47000000000E+01 0.  1.
         -5    1    4    4    0  502 -0.47175046617E+01  0.65584247475E+02 -0.72230724740E+02  0.97790162918E+02  0.47000000000E+01 0.  1.
<mgrwt>
<rscale>  0 0.27782683E+03</rscale>
<asrwt>0</asrwt>
<pdfrwt beam="1">  1       21 0.60613858E-02 0.27782683E+03</pdfrwt>
<pdfrwt beam="2">  1       21 0.75351127E-01 0.27782683E+03</pdfrwt>
<totfact> 0.29828884E+05</totfact>
</mgrwt>
</event>
<event>
 8    1  0.4760912E-006  0.3571990E+03  0.7546771E-02  0.1059698E+00
         21   -1    0    0  504  503  0.00000000000E+00  0.00000000000E+00  0.36040158641E+03  0.36040158641E+03  0.00000000000E+00 0. -1.
         21   -1    0    0  503  504 -0.00000000000E+00 -0.00000000000E+00 -0.88506239782E+02  0.88506239782E+02  0.00000000000E+00 0. -1.
         25    2    1    2    0    0 -0.11828326373E+03  0.48955554496E+01  0.19566568442E+03  0.26062250806E+03  0.12499653878E+03 0.  0.
         25    2    1    2    0    0  0.11828326373E+03 -0.48955554496E+01  0.76229662211E+02  0.18828531813E+03  0.12500201071E+03 0.  0.
          5    1    3    3  501    0 -0.42150298980E+02  0.55014964063E+02  0.39960538994E+02  0.80138808649E+02  0.47000000000E+01 0. -1.
         -5    1    3    3    0  501 -0.76132964748E+02 -0.50119408613E+02  0.15570514542E+03  0.18048369941E+03  0.47000000000E+01 0. -1.
          5    1    4    4  502    0  0.13427925996E+03 -0.32800447646E+02  0.70638532048E+02  0.15530190350E+03  0.47000000000E+01 0.  1.
         -5    1    4    4    0  502 -0.15995996236E+02  0.27904892196E+02  0.55911301624E+01  0.32983414629E+02  0.47000000000E+01 0.  1.
<mgrwt>
<rscale>  0 0.35719904E+03</rscale>
<asrwt>0</asrwt>
<pdfrwt beam="1">  1       21 0.55446397E-01 0.35719904E+03</pdfrwt>
<pdfrwt beam="2">  1       21 0.13616345E-01 0.35719904E+03</pdfrwt>
<totfact> 0.13685927E+05</totfact>
</mgrwt>
</event>
<event>
 8    1  0.4760912E-006  0.4377469E+03  0.7546771E-02  0.1031440E+00
         21   -1    0    0  504  503  0.00000000000E+00  0.00000000000E+00  0.12097445404E+04  0.12097445404E+04  0.00000000000E+00 0. -1.
         21   -1    0    0  503  504 -0.00000000000E+00 -0.00000000000E+00 -0.39599755895E+02  0.39599755895E+02  0.00000000000E+00 0. -1.
         25    2    1    2    0    0 -0.52509136326E+02 -0.51746070075E+02  0.10527109922E+04  0.10626664926E+04  0.12499910455E+03 0.  0.
         25    2    1    2    0    0  0.52509136326E+02  0.51746070075E+02  0.11743379227E+03  0.18667780370E+03  0.12499216640E+03 0.  0.
          5    1    3    3  501    0 -0.67851045030E+02 -0.50554844397E+02  0.36272979242E+03  0.37249771666E+03  0.47000000000E+01 0. -1.
         -5    1    3    3    0  501  0.15341908704E+02 -0.11912256782E+01  0.68998119978E+03  0.69016877590E+03  0.47000000000E+01 0. -1.
          5    1    4    4  502    0  0.42784465147E+02  0.92977669434E+02  0.84750718738E+02  0.13296665671E+03  0.47000000000E+01 0. -1.
         -5    1    4    4    0  502  0.97246711792E+01 -0.41231599358E+02  0.32683073528E+02  0.53711146985E+02  0.47000000000E+01 0. -1.
<mgrwt>
<rscale>  0 0.43774691E+03</rscale>
<asrwt>0</asrwt>
<pdfrwt beam="1">  1       21 0.18611452E+00 0.43774691E+03</pdfrwt>
<pdfrwt beam="2">  1       21 0.60922711E-02 0.43774691E+03</pdfrwt>
<totfact> 0.28430193E+04</totfact>
</mgrwt>
</event>
<event>
 8    1  0.4760912E-006  0.3209216E+03  0.7546771E-02  0.1075226E+00
         21   -1    0    0  504  503  0.00000000000E+00  0.00000000000E+00  0.23505568993E+04  0.23505568993E+04  0.00000000000E+00 0. -1.
         21   -1    0    0  503  504 -0.00000000000E+00 -0.00000000000E+00 -0.10953857341E+02  0.10953857341E+02  0.00000000000E+00 0. -1.
         25    2    1    2    0    0 -0.89069632249E+01 -0.94951454852E+02  0.14056758395E+04  0.14144414484E+04  0.12499972957E+03 0.  0.
         25    2    1    2    0    0  0.89069632249E+01  0.94951454852E+02  0.93392720243E+03  0.94706930823E+03  0.12500056948E+03 0.  0.
          5    1    3    3  501    0 -0.43501907536E+02 -0.60649738911E+02  0.36331611543E+03  0.37093327772E+03  0.47000000000E+01 0.  1.
         -5    1    3    3    0  501  0.34594944311E+02 -0.34301715942E+02  0.10423597241E+04  0.10435081707E+04  0.47000000000E+01 0.  1.
          5    1    4    4  502    0 -0.13616141617E+02  0.11937464985E+03  0.80089700450E+03  0.80987271108E+03  0.47000000000E+01 0.  1.
         -5    1    4    4    0  502  0.22523104842E+02 -0.24423195001E+02  0.13303019793E+03  0.13719659714E+03  0.47000000000E+01 0.  1.
<mgrwt>
<rscale>  0 0.32092158E+03</rscale>
<asrwt>0</asrwt>
<pdfrwt beam="1">  1       21 0.36162374E+00 0.32092158E+03</pdfrwt>
<pdfrwt beam="2">  1       21 0.16852107E-02 0.32092158E+03</pdfrwt>
<totfact> 0.21710545E+04</totfact>
</mgrwt>
</event>
<event>
 8    1  0.4760912E-006  0.2867017E+03  0.7546771E-02  0.1092084E+00
         21   -1    0    0  504  503  0.00000000000E+00  0.00000000000E+00  0.16824947884E+03  0.16824947884E+03  0.00000000000E+00 0. -1.
         21   -1    0    0  503  504 -0.00000000000E+00 -0.00000000000E+00 -0.12213686186E+03  0.12213686186E+03  0.00000000000E+00 0. -1.
         25    2    1    2    0    0  0.29339570170E+02  0.63639935191E+02  0.26819700179E+02  0.14579471188E+03  0.12500379980E+03 0.  0.
         25    2    1    2    0    0 -0.29339570170E+02 -0.63639935191E+02  0.19292916804E+02  0.14459162883E+03  0.12499468292E+03 0.  0.
          5    1    3    3  501    0  0.12820045254E+02 -0.20746093451E+01  0.65968126098E+02  0.67398377022E+02  0.47000000000E+01 0.  1.
         -5    1    3    3    0  501  0.16519524916E+02  0.65714544536E+02 -0.39148425919E+02  0.78396334857E+02  0.47000000000E+01 0.  1.
          5    1    4    4  502    0  0.48793674628E+02 -0.33586823610E+02  0.94847069416E+01  0.60174305727E+02  0.47000000000E+01 0.  1.
         -5    1    4    4    0  502 -0.78133244798E+02 -0.30053111581E+02  0.98082098623E+01  0.84417323099E+02  0.47000000000E+01 0.  1.
<mgrwt>
<rscale>  0 0.28670168E+03</rscale>
<asrwt>0</asrwt>
<pdfrwt beam="1">  1       21 0.25884535E-01 0.28670168E+03</pdfrwt>
<pdfrwt beam="2">  1       21 0.18790286E-01 0.28670168E+03</pdfrwt>
<totfact> 0.36004781E+05</totfact>
</mgrwt>
</event>
<event>
 8    1  0.4760912E-006  0.3772993E+03  0.7546771E-02  0.1051936E+00
         21   -1    0    0  504  503  0.00000000000E+00  0.00000000000E+00  0.27301843485E+02  0.27301843485E+02  0.00000000000E+00 0. -1.
         21   -1    0    0  503  504 -0.00000000000E+00 -0.00000000000E+00 -0.13035271496E+04  0.13035271496E+04  0.00000000000E+00 0. -1.
         25    2    1    2    0    0  0.68578797797E+02 -0.11937565206E+03 -0.52599036737E+03  0.55789163718E+03  0.12499445770E+03 0.  0.
         25    2    1    2    0    0 -0.68578797797E+02  0.11937565206E+03 -0.75023493870E+03  0.77293735586E+03  0.12500438004E+03 0.  0.
          5    1    3    3  501    0  0.23507849174E+02 -0.44500255887E+02 -0.41047323433E+02  0.65114241973E+02  0.47000000000E+01 0.  1.
         -5    1    3    3    0  501  0.45070948623E+02 -0.74875396172E+02 -0.48494304394E+03  0.49277739521E+03  0.47000000000E+01 0.  1.
          5    1    4    4  502    0  0.23284156731E+02  0.19939622181E+02 -0.44012557445E+02  0.53841765390E+02  0.47000000000E+01 0.  1.
         -5    1    4    4    0  502 -0.91862954528E+02  0.99436029878E+02 -0.70622238126E+03  0.71909559047E+03  0.47000000000E+01 0.  1.
<mgrwt>
<rscale>  0 0.37729932E+03</rscale>
<asrwt>0</asrwt>
<pdfrwt beam="1">  1       21 0.42002845E-02 0.37729932E+03</pdfrwt>
<pdfrwt beam="2">  1       21 0.20054259E+00 0.37729932E+03</pdfrwt>
<totfact> 0.43976818E+04</totfact>
</mgrwt>
</event>
<event>
 8    1  0.4760912E-006  0.4152164E+03  0.7546771E-02  0.1038635E+00
         21   -1    0    0  504  503  0.00000000000E+00  0.00000000000E+00  0.18055848338E+04  0.18055848338E+04  0.00000000000E+00 0.  1.
         21   -1    0    0  503  504 -0.00000000000E+00 -0.00000000000E+00 -0.23871023993E+02  0.23871023993E+02  0.00000000000E+00 0.  1.
         25    2    1    2    0    0 -0.79965082203E+02 -0.47134866039E+02  0.28582939770E+03  0.32548308573E+03  0.12499873813E+03 0.  0.
         25    2    1    2    0    0  0.79965082203E+02  0.47134866039E+02  0.14958844121E+04  0.15039727721E+04  0.12509122583E+03 0.  0.
          5    1    3    3  501    0 -0.11765210040E+02  0.39121024887E+02  0.46592435868E+02  0.62143542188E+02  0.47000000000E+01 0. -1.
         -5    1    3    3    0  501 -0.68199872163E+02 -0.86255890927E+02  0.23923696184E+03  0.26333954354E+03  0.47000000000E+01 0. -1.
          5    1    4    4  502    0  0.89912379032E+02 -0.12930552143E+02  0.72717134347E+03  0.73283810480E+03  0.47000000000E+01 0. -1.
         -5    1    4    4    0  502 -0.99472968296E+01  0.60065418183E+02  0.76871306867E+03  0.77113466731E+03  0.47000000000E+01 0. -1.
<mgrwt>
<rscale>  0 0.41521637E+03</rscale>
<asrwt>0</asrwt>
<pdfrwt beam="1">  1       21 0.27778218E+00 0.41521637E+03</pdfrwt>
<pdfrwt beam="2">  1       21 0.36724666E-02 0.41521637E+03</pdfrwt>
<totfact> 0.18000325E+04</totfact>
</mgrwt>
</event>
<event>
 8    1  0.4760912E-006  0.2673188E+03  0.7546771E-02  0.1102824E+00
         21   -1    0    0  504  503  0.00000000000E+00  0.00000000000E+00  0.10564137006E+02  0.10564137006E+02  0.00000000000E+00 0.  1.
         21   -1    0    0  503  504 -0.00000000000E+00 -0.00000000000E+00 -0.16910836712E+04  0.16910836712E+04  0.00000000000E+00 0.  1.
         25    2    1    2    0    0 -0.58445064754E+01 -0.48806736473E+01 -0.54287506148E+03  0.55713202673E+03  0.12499913436E+03 0.  0.
         25    2    1    2    0    0  0.58445064754E+01  0.48806736473E+01 -0.11376444727E+04  0.11445157815E+04  0.12499379399E+03 0.  0.
          5    1    3    3  501    0 -0.76407577708E+00  0.59091314236E+02 -0.30499294596E+03  0.31070106906E+03  0.47000000000E+01 0. -1.
         -5    1    3    3    0  501 -0.50804306983E+01 -0.63971987884E+02 -0.23788211552E+03  0.24643095766E+03  0.47000000000E+01 0. -1.
          5    1    4    4  502    0 -0.26642653392E+02 -0.48515537037E+02 -0.34993298376E+03  0.35431450921E+03  0.47000000000E+01 0.  1.
         -5    1    4    4    0  502  0.32487159868E+02  0.53396210684E+02 -0.78771148894E+03  0.79020127226E+03  0.47000000000E+01 0.  1.
<mgrwt>
<rscale>  0 0.26731883E+03</rscale>
<asrwt>0</asrwt>
<pdfrwt beam="1">  1       21 0.16252522E-02 0.26731883E+03</pdfrwt>
<pdfrwt beam="2">  1       21 0.26016666E+00 0.26731883E+03</pdfrwt>
<totfact> 0.95304201E+04</totfact>
</mgrwt>
</event>
<event>
 8    1  0.4760912E-006  0.2717168E+03  0.7546771E-02  0.1100301E+00
         21   -1    0    0  504  503  0.00000000000E+00  0.00000000000E+00  0.73938354133E+03  0.73938354133E+03  0.00000000000E+00 0. -1.
         21   -1    0    0  503  504 -0.00000000000E+00 -0.00000000000E+00 -0.24963375098E+02  0.24963375098E+02  0.00000000000E+00 0. -1.
         25    2    1    2    0    0 -0.11104424292E+02 -0.80192973151E+01  0.21258454533E+03  0.24699672627E+03  0.12501030561E+03 0.  0.
         25    2    1    2    0    0  0.11104424292E+02  0.80192973151E+01  0.50183562091E+03  0.51735019016E+03  0.12499844590E+03 0.  0.
          5    1    3    3  501    0 -0.39654395125E+01 -0.50092365545E+02  0.19357167309E+03  0.20004262651E+03  0.47000000000E+01 0.  1.
         -5    1    3    3    0  501 -0.71389847792E+01  0.42073068230E+02  0.19012872232E+02  0.46954099762E+02  0.47000000000E+01 0.  1.
          5    1    4    4  502    0  0.35237190007E+02  0.13998597613E+02  0.41841113983E+02  0.56660295746E+02  0.47000000000E+01 0.  1.
         -5    1    4    4    0  502 -0.24132765715E+02 -0.59793002983E+01  0.45999450693E+03  0.46068989441E+03  0.47000000000E+01 0.  1.
<mgrwt>
<rscale>  0 0.27171683E+03</rscale>
<asrwt>0</asrwt>
<pdfrwt beam="1">  1       21 0.11375130E+00 0.27171683E+03</pdfrwt>
<pdfrwt beam="2">  1       21 0.38405198E-02 0.27171683E+03</pdfrwt>
<totfact> 0.24649701E+05</totfact>
</mgrwt>
</event>
<event>
 8    1  0.4760912E-006  0.2926569E+03  0.7546771E-02  0.1088970E+00
         21   -1    0    0  504  503  0.00000000000E+00  0.00000000000E+00  0.10831003465E+02  0.10831003465E+02  0.00000000000E+00 0. -1.
         21   -1    0    0  503  504 -0.00000000000E+00 -0.00000000000E+00 -0.19769182680E+04  0.19769182680E+04  0.00000000000E+00 0. -1.
         25    2    1    2    0    0 -0.21828815065E+01 -0.15169239572E+02 -0.47691150140E+03  0.49325811026E+03  0.12499644943E+03 0.  0.
         25    2    1    2    0    0  0.21828815065E+01  0.15169239572E+02 -0.14891757631E+04  0.14944911612E+04  0.12499802642E+03 0.  0.
          5    1    3    3  501    0  0.64072009244E+01 -0.30523371156E+02 -0.23133686990E+02  0.39115033991E+02  0.47000000000E+01 0. -1.
         -5    1    3    3    0  501 -0.85900824309E+01  0.15354131584E+02 -0.45377781441E+03  0.45414307627E+03  0.47000000000E+01 0. -1.
          5    1    4    4  502    0  0.47679014629E+02 -0.24424061978E+02 -0.39493246957E+03  0.39857692954E+03  0.47000000000E+01 0.  1.
         -5    1    4    4    0  502 -0.45496133123E+02  0.39593301550E+02 -0.10942432935E+04  0.10959142316E+04  0.47000000000E+01 0.  1.
<mgrwt>
<rscale>  0 0.29265685E+03</rscale>
<asrwt>0</asrwt>
<pdfrwt beam="1">  1       21 0.16663067E-02 0.29265685E+03</pdfrwt>
<pdfrwt beam="2">  1       21 0.30414155E+00 0.29265685E+03</pdfrwt>
<totfact> 0.49659616E+04</totfact>
</mgrwt>
</event>
<event>
 8    1  0.4760912E-006  0.2617871E+03  0.7546771E-02  0.1106074E+00
         21   -1    0    0  504  503  0.00000000000E+00  0.00000000000E+00  0.62088713872E+02  0.62088713872E+02  0.00000000000E+00 0.  1.
         21   -1    0    0  503  504 -0.00000000000E+00 -0.00000000000E+00 -0.27594577721E+03  0.27594577721E+03  0.00000000000E+00 0.  1.
         25    2    1    2    0    0 -0.20596896434E+02 -0.11930680846E+02 -0.67302043092E+02  0.14395038721E+03  0.12500230272E+03 0.  0.
         25    2    1    2    0    0  0.20596896434E+02  0.11930680846E+02 -0.14655502025E+03  0.19408410387E+03  0.12499476840E+03 0.  0.
          5    1    3    3  501    0  0.14226346079E+00  0.22388617987E+02  0.30509570883E+02  0.38133900531E+02  0.47000000000E+01 0. -1.
         -5    1    3    3    0  501 -0.20739159895E+02 -0.34319298833E+02 -0.97811613975E+02  0.10581648668E+03  0.47000000000E+01 0. -1.
          5    1    4    4  502    0  0.61223896988E+02 -0.30281466539E+02 -0.79269191042E+02  0.10474267242E+03  0.47000000000E+01 0. -1.
         -5    1    4    4    0  502 -0.40627000554E+02  0.42212147385E+02 -0.67285829206E+02  0.89341431446E+02  0.47000000000E+01 0. -1.
<mgrwt>
<rscale>  0 0.26178708E+03</rscale>
<asrwt>0</asrwt>
<pdfrwt beam="1">  1       21 0.95521099E-02 0.26178708E+03</pdfrwt>
<pdfrwt beam="2">  1       21 0.42453196E-01 0.26178708E+03</pdfrwt>
<totfact> 0.46304209E+05</totfact>
</mgrwt>
</event>
<event>
 8    1  0.4760912E-006  0.3539010E+03  0.7546771E-02  0.1061025E+00
         21   -1    0    0  504  503  0.00000000000E+00  0.00000000000E+00  0.28056321597E+03  0.28056321597E+03  0.00000000000E+00 0.  1.
         21   -1    0    0  503  504 -0.00000000000E+00 -0.00000000000E+00 -0.11160222305E+03  0.11160222305E+03  0.00000000000E+00 0.  1.
         25    2    1    2    0    0  0.11049245191E+03  0.51041165507E+02  0.11725072626E+03  0.21019772901E+03  0.12498627911E+03 0.  0.
         25    2    1    2    0    0 -0.11049245191E+03 -0.51041165507E+02  0.51710266664E+02  0.18196771001E+03  0.12499805319E+03 0.  0.
          5    1    3    3  501    0  0.26522072315E+02 -0.25201377264E+02  0.84266262036E+02  0.91985991615E+02  0.47000000000E+01 0. -1.
         -5    1    3    3    0  501  0.83970379597E+02  0.76242542771E+02  0.32984464228E+02  0.11821173740E+03  0.47000000000E+01 0. -1.
          5    1    4    4  502    0 -0.12258853297E+03 -0.25926127833E+02  0.27337532652E+01  0.12541800480E+03  0.47000000000E+01 0.  1.
         -5    1    4    4    0  502  0.12096081062E+02 -0.25115037674E+02  0.48976513398E+02  0.56549705208E+02  0.47000000000E+01 0.  1.
<mgrwt>
<rscale>  0 0.35390100E+03</rscale>
<asrwt>0</asrwt>
<pdfrwt beam="1">  1       21 0.43163571E-01 0.35390100E+03</pdfrwt>
<pdfrwt beam="2">  1       21 0.17169573E-01 0.35390100E+03</pdfrwt>
<totfact> 0.15129483E+05</totfact>
</mgrwt>
</event>
<event>
 8    1  0.4760912E-006  0.4798696E+03  0.7546771E-02  0.1019171E+00
         21   -1    0    0  504  503  0.00000000000E+00  0.00000000000E+00  0.73615512535E+03  0.73615512535E+03  0.00000000000E+00 0. -1.
         21   -1    0    0  503  504 -0.00000000000E+00 -0.00000000000E+00 -0.78201881834E+02  0.78201881834E+02  0.00000000000E+00 0. -1.
         25    2    1    2    0    0 -0.13627544523E+03  0.15190026912E+03  0.29966123660E+03  0.38349274594E+03  0.12500056297E+03 0.  0.
         25    2    1    2    0    0  0.13627544523E+03 -0.15190026912E+03  0.35829200692E+03  0.43086426124E+03  0.12500464255E+03 0.  0.
          5    1    3    3  501    0 -0.13818203756E+03  0.15094233845E+03  0.20849904239E+03  0.29218454052E+03  0.47000000000E+01 0. -1.
         -5    1    3    3    0  501  0.19065923307E+01  0.95793067176E+00  0.91162194205E+02  0.91308205424E+02  0.47000000000E+01 0. -1.
          5    1    4    4  502    0  0.13551414500E+03 -0.72555113186E+02  0.18764867352E+03  0.24261583340E+03  0.47000000000E+01 0.  1.
         -5    1    4    4    0  502  0.76130023010E+00 -0.79345155938E+02  0.17064333340E+03  0.18824842784E+03  0.47000000000E+01 0.  1.
<mgrwt>
<rscale>  0 0.47986963E+03</rscale>
<asrwt>0</asrwt>
<pdfrwt beam="1">  1       21 0.11325463E+00 0.47986963E+03</pdfrwt>
<pdfrwt beam="2">  1       21 0.12031059E-01 0.47986963E+03</pdfrwt>
<totfact> 0.32032981E+04</totfact>
</mgrwt>
</event>
<event>
 8    1  0.4760912E-006  0.3862263E+03  0.7546771E-02  0.1048656E+00
         21   -1    0    0  504  503  0.00000000000E+00  0.00000000000E+00  0.51098628731E+02  0.51098628731E+02  0.00000000000E+00 0.  1.
         21   -1    0    0  503  504 -0.00000000000E+00 -0.00000000000E+00 -0.72981775368E+03  0.72981775368E+03  0.00000000000E+00 0.  1.
         25    2    1    2    0    0 -0.46133328072E+02 -0.69820392594E+02 -0.94509737923E+02  0.17765203634E+03  0.12499993709E+03 0.  0.
         25    2    1    2    0    0  0.46133328072E+02  0.69820392594E+02 -0.58420938702E+03  0.60326434607E+03  0.12499636865E+03 0.  0.
          5    1    3    3  501    0  0.10963336309E+02 -0.19713712733E+02 -0.98770418013E+02  0.10142243680E+03  0.47000000000E+01 0.  1.
         -5    1    3    3    0  501 -0.57096664381E+02 -0.50106679861E+02  0.42606800899E+01  0.76229599533E+02  0.47000000000E+01 0.  1.
          5    1    4    4  502    0  0.38985407608E+02  0.73272894478E+02 -0.58758832823E+03  0.59343989800E+03  0.47000000000E+01 0.  1.
         -5    1    4    4    0  502  0.71479204639E+01 -0.34525018845E+01  0.33789412044E+01  0.98244480702E+01  0.47000000000E+01 0.  1.
<mgrwt>
<rscale>  0 0.38622629E+03</rscale>
<asrwt>0</asrwt>
<pdfrwt beam="1">  1       21 0.78613271E-02 0.38622629E+03</pdfrwt>
<pdfrwt beam="2">  1       21 0.11227966E+00 0.38622629E+03</pdfrwt>
<totfact> 0.71865480E+04</totfact>
</mgrwt>
</event>
<event>
 8    1  0.4760912E-006  0.2920796E+03  0.7546771E-02  0.1089268E+00
         21   -1    0    0  504  503  0.00000000000E+00  0.00000000000E+00  0.30372380112E+02  0.30372380112E+02  0.00000000000E+00 0. -1.
         21   -1    0    0  503  504 -0.00000000000E+00 -0.00000000000E+00 -0.70220462435E+03  0.70220462435E+03  0.00000000000E+00 0. -1.
         25    2    1    2    0    0  0.85574038055E+00 -0.61869126880E+02 -0.44455029336E+03  0.46591235062E+03  0.12498333481E+03 0.  0.
         25    2    1    2    0    0 -0.85574038055E+00  0.61869126880E+02 -0.22728195087E+03  0.26666465384E+03  0.12499772503E+03 0.  0.
          5    1    3    3  501    0  0.28952473911E+02  0.25959302306E+02 -0.21409225141E+03  0.21764584360E+03  0.47000000000E+01 0. -1.
         -5    1    3    3    0  501 -0.28096733530E+02 -0.87828429186E+02 -0.23045804195E+03  0.24826650702E+03  0.47000000000E+01 0. -1.
          5    1    4    4  502    0  0.32760875424E+02 -0.96280135862E+01 -0.10725303812E+02  0.36098417500E+02  0.47000000000E+01 0.  1.
         -5    1    4    4    0  502 -0.33616615804E+02  0.71497140466E+02 -0.21655664706E+03  0.23056623634E+03  0.47000000000E+01 0.  1.
<mgrwt>
<rscale>  0 0.29207962E+03</rscale>
<asrwt>0</asrwt>
<pdfrwt beam="1">  1       21 0.46726739E-02 0.29207962E+03</pdfrwt>
<pdfrwt beam="2">  1       21 0.10803148E+00 0.29207962E+03</pdfrwt>
<totfact> 0.19954537E+05</totfact>
</mgrwt>
</event>
<event>
 8    1  0.4760912E-006  0.3041804E+03  0.7546771E-02  0.1083169E+00
         21   -1    0    0  504  503  0.00000000000E+00  0.00000000000E+00  0.50686875880E+02  0.50686875880E+02  0.00000000000E+00 0. -1.
         21   -1    0    0  503  504 -0.00000000000E+00 -0.00000000000E+00 -0.45635921787E+03  0.45635921787E+03  0.00000000000E+00 0. -1.
         25    2    1    2    0    0  0.71838696972E+01  0.91461848190E+01 -0.34593959880E+03  0.36801405532E+03  0.12499951285E+03 0.  0.
         25    2    1    2    0    0 -0.71838696972E+01 -0.91461848190E+01 -0.59732743181E+02  0.13903203843E+03  0.12500658551E+03 0.  0.
          5    1    3    3  501    0 -0.30333883112E+02 -0.42557191413E+02 -0.22632938990E+03  0.23233239493E+03  0.47000000000E+01 0.  1.
         -5    1    3    3    0  501  0.37517752809E+02  0.51703376232E+02 -0.11961020891E+03  0.13568166039E+03  0.47000000000E+01 0.  1.
          5    1    4    4  502    0 -0.55405080372E+02  0.13189636397E+02  0.23249388721E+01  0.57194272266E+02  0.47000000000E+01 0.  1.
         -5    1    4    4    0  502  0.48221210675E+02 -0.22335821216E+02 -0.62057682053E+02  0.81837766160E+02  0.47000000000E+01 0.  1.
<mgrwt>
<rscale>  0 0.30418036E+03</rscale>
<asrwt>0</asrwt>
<pdfrwt beam="1">  1       21 0.77979809E-02 0.30418036E+03</pdfrwt>
<pdfrwt beam="2">  1       21 0.70209111E-01 0.30418036E+03</pdfrwt>
<totfact> 0.22412801E+05</totfact>
</mgrwt>
</event>
<event>
 8    1  0.4760912E-006  0.3027537E+03  0.7546771E-02  0.1083872E+00
         21   -1    0    0  504  503  0.00000000000E+00  0.00000000000E+00  0.19255656970E+03  0.19255656970E+03  0.00000000000E+00 0.  1.
         21   -1    0    0  503  504 -0.00000000000E+00 -0.00000000000E+00 -0.11900375956E+03  0.11900375956E+03  0.00000000000E+00 0.  1.
         25    2    1    2    0    0  0.25582733411E+02 -0.79362569756E+02  0.55653312214E+02  0.16023592674E+03  0.12500146931E+03 0.  0.
         25    2    1    2    0    0 -0.25582733411E+02  0.79362569756E+02  0.17899497932E+02  0.15132440253E+03  0.12500315615E+03 0.  0.
          5    1    3    3  501    0  0.69342570228E+02 -0.15549572306E+02  0.15306556429E+02  0.72846152366E+02  0.47000000000E+01 0. -1.
         -5    1    3    3    0  501 -0.43759836818E+02 -0.63812997451E+02  0.40346755785E+02  0.87389774369E+02  0.47000000000E+01 0. -1.
          5    1    4    4  502    0  0.38183283611E+02  0.58625119574E+02  0.39800038438E+02  0.80628784265E+02  0.47000000000E+01 0. -1.
         -5    1    4    4    0  502 -0.63766017021E+02  0.20737450182E+02 -0.21900540506E+02  0.70695618261E+02  0.47000000000E+01 0. -1.
<mgrwt>
<rscale>  0 0.30275373E+03</rscale>
<asrwt>0</asrwt>
<pdfrwt beam="1">  1       21 0.29624088E-01 0.30275373E+03</pdfrwt>
<pdfrwt beam="2">  1       21 0.18308271E-01 0.30275373E+03</pdfrwt>
<totfact> 0.28963705E+05</totfact>
</mgrwt>
</event>
<event>
 8    1  0.4760912E-006  0.4282336E+03  0.7546771E-02  0.1034419E+00
         21   -1    0    0  504  503  0.00000000000E+00  0.00000000000E+00  0.96251049625E+03  0.96251049625E+03  0.00000000000E+00 0.  1.
         21   -1    0    0  503  504 -0.00000000000E+00 -0.00000000000E+00 -0.47631694798E+02  0.47631694798E+02  0.00000000000E+00 0.  1.
         25    2    1    2    0    0  0.91997536226E+02  0.11530784101E+02  0.11056061100E+03  0.19090629592E+03  0.12500023785E+03 0.  0.
         25    2    1    2    0    0 -0.91997536226E+02 -0.11530784101E+02  0.80431819046E+03  0.81923589513E+03  0.12499277870E+03 0.  0.
          5    1    3    3  501    0  0.46089761298E+02  0.11459208641E+02  0.13174906618E+03  0.14012667840E+03  0.47000000000E+01 0. -1.
         -5    1    3    3    0  501  0.45907774928E+02  0.71575459892E-01 -0.21188455186E+02  0.50779617516E+02  0.47000000000E+01 0. -1.
          5    1    4    4  502    0 -0.11516354440E+03 -0.89034928910E+01  0.46757295978E+03  0.48165182120E+03  0.47000000000E+01 0. -1.
         -5    1    4    4    0  502  0.23166008175E+02 -0.26272912095E+01  0.33674523067E+03  0.33758407394E+03  0.47000000000E+01 0. -1.
<mgrwt>
<rscale>  0 0.42823361E+03</rscale>
<asrwt>0</asrwt>
<pdfrwt beam="1">  1       21 0.14807852E+00 0.42823361E+03</pdfrwt>
<pdfrwt beam="2">  1       21 0.73279537E-02 0.42823361E+03</pdfrwt>
<totfact> 0.39332018E+04</totfact>
</mgrwt>
</event>
<event>
 8    1  0.4760912E-006  0.2789038E+03  0.7546771E-02  0.1096289E+00
         21   -1    0    0  504  503  0.00000000000E+00  0.00000000000E+00  0.52774946735E+02  0.52774946735E+02  0.00000000000E+00 0.  1.
         21   -1    0    0  503  504 -0.00000000000E+00 -0.00000000000E+00 -0.36848613249E+03  0.36848613249E+03  0.00000000000E+00 0.  1.
         25    2    1    2    0    0 -0.36627894758E+02  0.46295329772E+02 -0.18559109008E+03  0.23141787783E+03  0.12500128491E+03 0.  0.
         25    2    1    2    0    0  0.36627894758E+02 -0.46295329772E+02 -0.13012009568E+03  0.18984320140E+03  0.12499736631E+03 0.  0.
          5    1    3    3  501    0  0.15485844848E+02  0.31503511958E+02  0.26156194682E+01  0.35513576581E+02  0.47000000000E+01 0.  1.
         -5    1    3    3    0  501 -0.52113739606E+02  0.14791817814E+02 -0.18820670954E+03  0.19590430125E+03  0.47000000000E+01 0.  1.
          5    1    4    4  502    0  0.24871276829E+02  0.59174303284E+01 -0.13350373190E+03  0.13601078202E+03  0.47000000000E+01 0. -1.
         -5    1    4    4    0  502  0.11756617930E+02 -0.52212760101E+02  0.33836362212E+01  0.53832419382E+02  0.47000000000E+01 0. -1.
<mgrwt>
<rscale>  0 0.27890383E+03</rscale>
<asrwt>0</asrwt>
<pdfrwt beam="1">  1       21 0.81192226E-02 0.27890383E+03</pdfrwt>
<pdfrwt beam="2">  1       21 0.56690174E-01 0.27890383E+03</pdfrwt>
<totfact> 0.33522376E+05</totfact>
</mgrwt>
</event>
<event>
 8    1  0.4760912E-006  0.5208442E+03  0.7546771E-02  0.1008477E+00
         21   -1    0    0  504  503  0.00000000000E+00  0.00000000000E+00  0.33444324014E+03  0.33444324014E+03  0.00000000000E+00 0.  1.
         21   -1    0    0  503  504 -0.00000000000E+00 -0.00000000000E+00 -0.20278380011E+03  0.20278380011E+03  0.00000000000E+00 0.  1.
         25    2    1    2    0    0  0.40676896545E+02  0.13978711995E+03 -0.11577549562E+03  0.22410696111E+03  0.12499966325E+03 0.  0.
         25    2    1    2    0    0 -0.40676896545E+02 -0.13978711995E+03  0.24743493565E+03  0.31312007914E+03  0.12500035106E+03 0.  0.
          5    1    3    3  501    0  0.49779954749E+02  0.45443642088E+02 -0.10992324105E+03  0.12902859150E+03  0.47000000000E+01 0.  1.
         -5    1    3    3    0  501 -0.91030582042E+01  0.94343477861E+02 -0.58522545726E+01  0.95078369607E+02  0.47000000000E+01 0.  1.
          5    1    4    4  502    0 -0.67003769079E+02 -0.13408888980E+03  0.15074941500E+03  0.21264245004E+03  0.47000000000E+01 0. -1.
         -5    1    4    4    0  502  0.26326872534E+02 -0.56982301455E+01  0.96685520659E+02  0.10047762910E+03  0.47000000000E+01 0. -1.
<mgrwt>
<rscale>  0 0.52084420E+03</rscale>
<asrwt>0</asrwt>
<pdfrwt beam="1">  1       21 0.51452806E-01 0.52084420E+03</pdfrwt>
<pdfrwt beam="2">  1       21 0.31197508E-01 0.52084420E+03</pdfrwt>
<totfact> 0.31855274E+04</totfact>
</mgrwt>
</event>
<event>
 8    1  0.4760912E-006  0.3311986E+03  0.7546771E-02  0.1070608E+00
         21   -1    0    0  504  503  0.00000000000E+00  0.00000000000E+00  0.57922757712E+02  0.57922757712E+02  0.00000000000E+00 0.  1.
         21   -1    0    0  503  504 -0.00000000000E+00 -0.00000000000E+00 -0.47344293573E+03  0.47344293573E+03  0.00000000000E+00 0.  1.
         25    2    1    2    0    0  0.52337035669E+02 -0.93869568642E+02 -0.18243726400E+03  0.24588449513E+03  0.12500067372E+03 0.  0.
         25    2    1    2    0    0 -0.52337035669E+02  0.93869568642E+02 -0.23308291401E+03  0.28548119831E+03  0.12498483333E+03 0.  0.
          5    1    3    3  501    0 -0.10601728277E+02  0.16238373470E+02  0.39984313799E+01  0.20350893565E+02  0.47000000000E+01 0. -1.
         -5    1    3    3    0  501  0.62938763946E+02 -0.11010794211E+03 -0.18643569538E+03  0.22553360157E+03  0.47000000000E+01 0. -1.
          5    1    4    4  502    0 -0.81028526187E+02  0.27631578806E+02 -0.16595732433E+03  0.18679681395E+03  0.47000000000E+01 0.  1.
         -5    1    4    4    0  502  0.28691490518E+02  0.66237989836E+02 -0.67125589686E+02  0.98684384359E+02  0.47000000000E+01 0.  1.
<mgrwt>
<rscale>  0 0.33119855E+03</rscale>
<asrwt>0</asrwt>
<pdfrwt beam="1">  1       21 0.89111933E-02 0.33119855E+03</pdfrwt>
<pdfrwt beam="2">  1       21 0.72837377E-01 0.33119855E+03</pdfrwt>
<totfact> 0.16211740E+05</totfact>
</mgrwt>
</event>
<event>
 8    1  0.4760912E-006  0.2766148E+03  0.7546771E-02  0.1097552E+00
         21   -1    0    0  504  503  0.00000000000E+00  0.00000000000E+00  0.23035972709E+02  0.23035972709E+02  0.00000000000E+00 0. -1.
         21   -1    0    0  503  504 -0.00000000000E+00 -0.00000000000E+00 -0.83039417180E+03  0.83039417180E+03  0.00000000000E+00 0. -1.
         25    2    1    2    0    0 -0.33035924474E+02  0.25614006776E+02 -0.53290790674E+03  0.54897072636E+03  0.12502228473E+03 0.  0.
         25    2    1    2    0    0  0.33035924474E+02 -0.25614006776E+02 -0.27445029234E+03  0.30445941815E+03  0.12500049873E+03 0.  0.
          5    1    3    3  501    0 -0.86102365987E+01  0.73898572293E+02 -0.24923489025E+03  0.26014468221E+03  0.47000000000E+01 0.  1.
         -5    1    3    3    0  501 -0.24425687875E+02 -0.48284565517E+02 -0.28367301649E+03  0.28882604415E+03  0.47000000000E+01 0.  1.
          5    1    4    4  502    0 -0.37204320528E+02 -0.45198510015E+02 -0.12358452824E+03  0.13682942809E+03  0.47000000000E+01 0. -1.
         -5    1    4    4    0  502  0.70240245001E+02  0.19584503239E+02 -0.15086576411E+03  0.16762999005E+03  0.47000000000E+01 0. -1.
<mgrwt>
<rscale>  0 0.27661480E+03</rscale>
<asrwt>0</asrwt>
<pdfrwt beam="1">  1       21 0.35439964E-02 0.27661480E+03</pdfrwt>
<pdfrwt beam="2">  1       21 0.12775293E+00 0.27661480E+03</pdfrwt>
<totfact> 0.21070576E+05</totfact>
</mgrwt>
</event>
<event>
 8    1  0.4760912E-006  0.2580588E+03  0.7546771E-02  0.1108315E+00
         21   -1    0    0  504  503  0.00000000000E+00  0.00000000000E+00  0.20359419948E+04  0.20359419948E+04  0.00000000000E+00 0.  1.
         21   -1    0    0  503  504 -0.00000000000E+00 -0.00000000000E+00 -0.81773359382E+01  0.81773359382E+01  0.00000000000E+00 0.  1.
         25    2    1    2    0    0 -0.22616979448E+02  0.21627866661E+02  0.10658032818E+04  0.10735660147E+04  0.12501223938E+03 0.  0.
         25    2    1    2    0    0  0.22616979448E+02 -0.21627866661E+02  0.96196137703E+03  0.97055331603E+03  0.12499902394E+03 0.  0.
          5    1    3    3  501    0 -0.15080321641E+02  0.40678763295E+01  0.10442623067E+04  0.10443896873E+04  0.47000000000E+01 0.  1.
         -5    1    3    3    0  501 -0.75366578065E+01  0.17559990332E+02  0.21540975084E+02  0.29176327372E+02  0.47000000000E+01 0.  1.
          5    1    4    4  502    0  0.15292018747E+02  0.20492818142E+02  0.85320488059E+03  0.85360087845E+03  0.47000000000E+01 0. -1.
         -5    1    4    4    0  502  0.73249607002E+01 -0.42120684803E+02  0.10875649644E+03  0.11695243758E+03  0.47000000000E+01 0. -1.
<mgrwt>
<rscale>  0 0.25805877E+03</rscale>
<asrwt>0</asrwt>
<pdfrwt beam="1">  1       21 0.31322144E+00 0.25805877E+03</pdfrwt>
<pdfrwt beam="2">  1       21 0.12580533E-02 0.25805877E+03</pdfrwt>
<totfact> 0.70800333E+04</totfact>
</mgrwt>
</event>
<event>
 8    1  0.4760912E-006  0.3176701E+03  0.7546771E-02  0.1076727E+00
         21   -1    0    0  504  503  0.00000000000E+00  0.00000000000E+00  0.52432925070E+02  0.52432925070E+02  0.00000000000E+00 0. -1.
         21   -1    0    0  503  504 -0.00000000000E+00 -0.00000000000E+00 -0.48115890774E+03  0.48115890774E+03  0.00000000000E+00 0. -1.
         25    2    1    2    0    0 -0.60906279383E+02  0.15257837449E+02 -0.34073528163E+03  0.36833412276E+03  0.12500846919E+03 0.  0.
         25    2    1    2    0    0  0.60906279383E+02 -0.15257837449E+02 -0.87990701046E+02  0.16525771006E+03  0.12500148315E+03 0.  0.
          5    1    3    3  501    0 -0.17706327189E+02 -0.52322141342E+02 -0.97322307544E+02  0.11200375906E+03  0.47000000000E+01 0.  1.
         -5    1    3    3    0  501 -0.43199952193E+02  0.67579978791E+02 -0.24341297408E+03  0.25633036370E+03  0.47000000000E+01 0.  1.
          5    1    4    4  502    0  0.94830919320E+02 -0.31728568947E+02 -0.75031121891E+02  0.12510541395E+03  0.47000000000E+01 0.  1.
         -5    1    4    4    0  502 -0.33924639937E+02  0.16470731498E+02 -0.12959579155E+02  0.40152296109E+02  0.47000000000E+01 0.  1.
<mgrwt>
<rscale>  0 0.31767007E+03</rscale>
<asrwt>0</asrwt>
<pdfrwt beam="1">  1       21 0.80666039E-02 0.31767007E+03</pdfrwt>
<pdfrwt beam="2">  1       21 0.74024447E-01 0.31767007E+03</pdfrwt>
<totfact> 0.18696012E+05</totfact>
</mgrwt>
</event>
<event>
 8    1  0.4760912E-006  0.2804683E+03  0.7546771E-02  0.1095433E+00
         21   -1    0    0  504  503  0.00000000000E+00  0.00000000000E+00  0.21739272065E+03  0.21739272065E+03  0.00000000000E+00 0. -1.
         21   -1    0    0  503  504 -0.00000000000E+00 -0.00000000000E+00 -0.90461231463E+02  0.90461231463E+02  0.00000000000E+00 0. -1.
         25    2    1    2    0    0  0.46208972131E+02  0.51976786223E+01  0.11103477923E+03  0.17353990197E+03  0.12500036163E+03 0.  0.
         25    2    1    2    0    0 -0.46208972131E+02 -0.51976786223E+01  0.15896709959E+02  0.13431405015E+03  0.12500109484E+03 0.  0.
          5    1    3    3  501    0 -0.53766979993E+01  0.12503205105E+02 -0.24412055548E+02  0.28342150154E+02  0.47000000000E+01 0.  1.
         -5    1    3    3    0  501  0.51585670130E+02 -0.73055264827E+01  0.13544683478E+03  0.14519775181E+03  0.47000000000E+01 0.  1.
          5    1    4    4  502    0 -0.72972978406E+02 -0.44265801519E+02  0.58688838586E+01  0.85679930902E+02  0.47000000000E+01 0. -1.
         -5    1    4    4    0  502  0.26764006275E+02  0.39068122897E+02  0.10027826100E+02  0.48634119247E+02  0.47000000000E+01 0. -1.
<mgrwt>
<rscale>  0 0.28046827E+03</rscale>
<asrwt>0</asrwt>
<pdfrwt beam="1">  1       21 0.33445034E-01 0.28046827E+03</pdfrwt>
<pdfrwt beam="2">  1       21 0.13917113E-01 0.28046827E+03</pdfrwt>
<totfact> 0.37974630E+05</totfact>
</mgrwt>
</event>
<event>
 8    1  0.4760912E-006  0.3768875E+03  0.7546771E-02  0.1052090E+00
         21   -1    0    0  504  503  0.00000000000E+00  0.00000000000E+00  0.21737436283E+03  0.21737436283E+03  0.00000000000E+00 0.  1.
         21   -1    0    0  503  504 -0.00000000000E+00 -0.00000000000E+00 -0.16336352489E+03  0.16336352489E+03  0.00000000000E+00 0.  1.
         25    2    1    2    0    0 -0.52308202016E+02  0.99447258932E+02 -0.59068177158E+02  0.17815741096E+03  0.12500043288E+03 0.  0.
         25    2    1    2    0    0  0.52308202016E+02 -0.99447258932E+02  0.11307901510E+03  0.20258047675E+03  0.12500432231E+03 0.  0.
          5    1    3    3  501    0 -0.85984485907E+01  0.11885982320E+03 -0.49655311813E+02  0.12918719318E+03  0.47000000000E+01 0.  1.
         -5    1    3    3    0  501 -0.43709753426E+02 -0.19412564269E+02 -0.94128653457E+01  0.48970217786E+02  0.47000000000E+01 0.  1.
          5    1    4    4  502    0  0.84402587430E+02 -0.55083352589E+02  0.10735382723E+03  0.14732585217E+03  0.47000000000E+01 0.  1.
         -5    1    4    4    0  502 -0.32094385413E+02 -0.44363906342E+02  0.57251878675E+01  0.55254624577E+02  0.47000000000E+01 0.  1.
<mgrwt>
<rscale>  0 0.37688747E+03</rscale>
<asrwt>0</asrwt>
<pdfrwt beam="1">  1       21 0.33442210E-01 0.37688747E+03</pdfrwt>
<pdfrwt beam="2">  1       21 0.25132850E-01 0.37688747E+03</pdfrwt>
<totfact> 0.12265457E+05</totfact>
</mgrwt>
</event>
<event>
 8    1  0.4760912E-006  0.4694484E+03  0.7546771E-02  0.1022076E+00
         21   -1    0    0  504  503  0.00000000000E+00  0.00000000000E+00  0.14705812531E+03  0.14705812531E+03  0.00000000000E+00 0.  1.
         21   -1    0    0  503  504 -0.00000000000E+00 -0.00000000000E+00 -0.37465080821E+03  0.37465080821E+03  0.00000000000E+00 0.  1.
         25    2    1    2    0    0 -0.13766984390E+03  0.79511037103E+02  0.18598600737E+02  0.20309236342E+03  0.12500243673E+03 0.  0.
         25    2    1    2    0    0  0.13766984390E+03 -0.79511037103E+02 -0.24619128364E+03  0.31861657009E+03  0.12502551602E+03 0.  0.
          5    1    3    3  501    0 -0.15831557986E+03  0.56620721531E+02  0.28017230302E+02  0.17051916059E+03  0.47000000000E+01 0. -1.
         -5    1    3    3    0  501  0.20645735956E+02  0.22890315572E+02 -0.94186295648E+01  0.32573202837E+02  0.47000000000E+01 0. -1.
          5    1    4    4  502    0  0.28666849638E+02  0.27008057945E+02 -0.99144272584E+02  0.10678436331E+03  0.47000000000E+01 0.  1.
         -5    1    4    4    0  502  0.10900299427E+03 -0.10651909505E+03 -0.14704701106E+03  0.21183220678E+03  0.47000000000E+01 0.  1.
<mgrwt>
<rscale>  0 0.46944838E+03</rscale>
<asrwt>0</asrwt>
<pdfrwt beam="1">  1       21 0.22624327E-01 0.46944838E+03</pdfrwt>
<pdfrwt beam="2">  1       21 0.57638586E-01 0.46944838E+03</pdfrwt>
<totfact> 0.47350603E+04</totfact>
</mgrwt>
</event>
<event>
 8    1  0.4760912E-006  0.4211012E+03  0.7546771E-02  0.1036709E+00
         21   -1    0    0  504  503  0.00000000000E+00  0.00000000000E+00  0.19559056776E+03  0.19559056776E+03  0.00000000000E+00 0. -1.
         21   -1    0    0  503  504 -0.00000000000E+00 -0.00000000000E+00 -0.22665486713E+03  0.22665486713E+03  0.00000000000E+00 0. -1.
         25    2    1    2    0    0  0.16635907639E+03 -0.31889982119E+02 -0.19323136891E+02  0.21140157219E+03  0.12499971139E+03 0.  0.
         25    2    1    2    0    0 -0.16635907639E+03  0.31889982119E+02 -0.11741162479E+02  0.21084386271E+03  0.12499986515E+03 0.  0.
          5    1    3    3  501    0  0.95505929555E+01  0.29964621080E+01  0.38921225057E+02  0.40461640734E+02  0.47000000000E+01 0.  1.
         -5    1    3    3    0  501  0.15680848343E+03 -0.34886444227E+02 -0.58244361948E+02  0.17093993146E+03  0.47000000000E+01 0.  1.
          5    1    4    4  502    0 -0.15809637797E+02  0.13738436170E+02 -0.49972967726E+02  0.54388204411E+02  0.47000000000E+01 0. -1.
         -5    1    4    4    0  502 -0.15054943859E+03  0.18151545950E+02  0.38231805247E+02  0.15645565830E+03  0.47000000000E+01 0. -1.
<mgrwt>
<rscale>  0 0.42110120E+03</rscale>
<asrwt>0</asrwt>
<pdfrwt beam="1">  1       21 0.30090857E-01 0.42110120E+03</pdfrwt>
<pdfrwt beam="2">  1       21 0.34869979E-01 0.42110120E+03</pdfrwt>
<totfact> 0.78476897E+04</totfact>
</mgrwt>
</event>
<event>
 8    1  0.4760912E-006  0.3364707E+03  0.7546771E-02  0.1068309E+00
         21   -1    0    0  504  503  0.00000000000E+00  0.00000000000E+00  0.16664623269E+03  0.16664623269E+03  0.00000000000E+00 0. -1.
         21   -1    0    0  503  504 -0.00000000000E+00 -0.00000000000E+00 -0.16983957455E+03  0.16983957455E+03  0.00000000000E+00 0. -1.
         25    2    1    2    0    0 -0.34952109050E+02  0.10406503853E+03 -0.26647084156E+02  0.16847838203E+03  0.12499486369E+03 0.  0.
         25    2    1    2    0    0  0.34952109050E+02 -0.10406503853E+03  0.23453742296E+02  0.16800742521E+03  0.12500093891E+03 0.  0.
          5    1    3    3  501    0 -0.78162133443E+02  0.89367845783E+02 -0.29762903960E+02  0.12249020947E+03  0.47000000000E+01 0.  1.
         -5    1    3    3    0  501  0.43210024393E+02  0.14697192742E+02  0.31158198040E+01  0.45988172562E+02  0.47000000000E+01 0.  1.
          5    1    4    4  502    0  0.49933648574E+01  0.28610819977E+02 -0.22386218334E+01  0.29506171220E+02  0.47000000000E+01 0. -1.
         -5    1    4    4    0  502  0.29958744192E+02 -0.13267585850E+03  0.25692364129E+02  0.13850125399E+03  0.47000000000E+01 0. -1.
<mgrwt>
<rscale>  0 0.33647065E+03</rscale>
<asrwt>0</asrwt>
<pdfrwt beam="1">  1       21 0.25637882E-01 0.33647065E+03</pdfrwt>
<pdfrwt beam="2">  1       21 0.26129166E-01 0.33647065E+03</pdfrwt>
<totfact> 0.19366257E+05</totfact>
</mgrwt>
</event>
<event>
 8    1  0.4760912E-006  0.2961740E+03  0.7546771E-02  0.1087169E+00
         21   -1    0    0  504  503  0.00000000000E+00  0.00000000000E+00  0.38676292672E+02  0.38676292672E+02  0.00000000000E+00 0. -1.
         21   -1    0    0  503  504 -0.00000000000E+00 -0.00000000000E+00 -0.56700780048E+03  0.56700780048E+03  0.00000000000E+00 0. -1.
         25    2    1    2    0    0 -0.78750813712E+02  0.77352491605E+01 -0.25217580719E+03  0.29239516702E+03  0.12506306900E+03 0.  0.
         25    2    1    2    0    0  0.78750813712E+02 -0.77352491605E+01 -0.27615570062E+03  0.31328892613E+03  0.12500582190E+03 0.  0.
          5    1    3    3  501    0 -0.38833532067E+01 -0.49381252833E+02 -0.12117659139E+03  0.13099406423E+03  0.47000000000E+01 0.  1.
         -5    1    3    3    0  501 -0.74867460505E+02  0.57116501993E+02 -0.13099921579E+03  0.16140110279E+03  0.47000000000E+01 0.  1.
          5    1    4    4  502    0  0.49815670496E+02 -0.30614298037E+02 -0.32996947836E+02  0.67303230516E+02  0.47000000000E+01 0.  1.
         -5    1    4    4    0  502  0.28935143215E+02  0.22879048877E+02 -0.24315875278E+03  0.24598569561E+03  0.47000000000E+01 0.  1.
<mgrwt>
<rscale>  0 0.29617400E+03</rscale>
<asrwt>0</asrwt>
<pdfrwt beam="1">  1       21 0.59501993E-02 0.29617400E+03</pdfrwt>
<pdfrwt beam="2">  1       21 0.87231963E-01 0.29617400E+03</pdfrwt>
<totfact> 0.21929123E+05</totfact>
</mgrwt>
</event>
<event>
 8    1  0.4760912E-006  0.4977169E+03  0.7546771E-02  0.1014377E+00
         21   -1    0    0  504  503  0.00000000000E+00  0.00000000000E+00  0.29332888657E+03  0.29332888657E+03  0.00000000000E+00 0.  1.
         21   -1    0    0  503  504 -0.00000000000E+00 -0.00000000000E+00 -0.21112996514E+03  0.21112996514E+03  0.00000000000E+00 0.  1.
         25    2    1    2    0    0  0.10349422061E+03 -0.67593141531E+02 -0.13742696998E+03  0.22313914327E+03  0.12500007480E+03 0.  0.
         25    2    1    2    0    0 -0.10349422061E+03  0.67593141531E+02  0.21962589141E+03  0.28131970843E+03  0.12500143876E+03 0.  0.
          5    1    3    3  501    0  0.26541959507E+02  0.41234141010E+01 -0.11138147851E+03  0.11467084160E+03  0.47000000000E+01 0. -1.
         -5    1    3    3    0  501  0.76952261105E+02 -0.71716555632E+02 -0.26045491465E+02  0.10846830167E+03  0.47000000000E+01 0. -1.
          5    1    4    4  502    0  0.66982992348E+01  0.38663721868E+02  0.71211680551E+01  0.40156588946E+02  0.47000000000E+01 0. -1.
         -5    1    4    4    0  502 -0.11019251985E+03  0.28929419663E+02  0.21250472335E+03  0.24116311948E+03  0.47000000000E+01 0. -1.
<mgrwt>
<rscale>  0 0.49771686E+03</rscale>
<asrwt>0</asrwt>
<pdfrwt beam="1">  1       21 0.45127521E-01 0.49771686E+03</pdfrwt>
<pdfrwt beam="2">  1       21 0.32481533E-01 0.49771686E+03</pdfrwt>
<totfact> 0.38989328E+04</totfact>
</mgrwt>
</event>
<event>
 8    1  0.4760912E-006  0.2843227E+03  0.7546771E-02  0.1093351E+00
         21   -1    0    0  504  503  0.00000000000E+00  0.00000000000E+00  0.18223165705E+02  0.18223165705E+02  0.00000000000E+00 0. -1.
         21   -1    0    0  503  504 -0.00000000000E+00 -0.00000000000E+00 -0.11090200154E+04  0.11090200154E+04  0.00000000000E+00 0. -1.
         25    2    1    2    0    0 -0.15627581498E+01  0.65123349958E+02 -0.47238742168E+03  0.49297198844E+03  0.12501204863E+03 0.  0.
         25    2    1    2    0    0  0.15627581498E+01 -0.65123349958E+02 -0.61840942798E+03  0.63427119263E+03  0.12500492895E+03 0.  0.
          5    1    3    3  501    0 -0.65634335522E+01  0.24146297464E+02 -0.43882178415E+03  0.43955974632E+03  0.47000000000E+01 0. -1.
         -5    1    3    3    0  501  0.50006754024E+01  0.40977052494E+02 -0.33565637534E+02  0.53412242123E+02  0.47000000000E+01 0. -1.
          5    1    4    4  502    0 -0.84058636319E+01 -0.99297455873E+02 -0.36729828126E+03  0.38060578122E+03  0.47000000000E+01 0. -1.
         -5    1    4    4    0  502  0.99686217816E+01  0.34174105914E+02 -0.25111114672E+03  0.25366541140E+03  0.47000000000E+01 0. -1.
<mgrwt>
<rscale>  0 0.28432274E+03</rscale>
<asrwt>0</asrwt>
<pdfrwt beam="1">  1       21 0.28035629E-02 0.28432274E+03</pdfrwt>
<pdfrwt beam="2">  1       21 0.17061853E+00 0.28432274E+03</pdfrwt>
<totfact> 0.14389837E+05</totfact>
</mgrwt>
</event>
<event>
 8    1  0.4760912E-006  0.2731158E+03  0.7546771E-02  0.1099509E+00
         21   -1    0    0  504  503  0.00000000000E+00  0.00000000000E+00  0.34441884808E+02  0.34441884808E+02  0.00000000000E+00 0. -1.
         21   -1    0    0  503  504 -0.00000000000E+00 -0.00000000000E+00 -0.54143566322E+03  0.54143566322E+03  0.00000000000E+00 0. -1.
         25    2    1    2    0    0 -0.43006580093E+02  0.16292425581E+02 -0.18993205810E+03  0.23197968553E+03  0.12500151496E+03 0.  0.
         25    2    1    2    0    0  0.43006580093E+02 -0.16292425581E+02 -0.31706172031E+03  0.34389786249E+03  0.12499038476E+03 0.  0.
          5    1    3    3  501    0 -0.61101410444E+02  0.20353449257E+02 -0.20013734831E+03  0.21029667958E+03  0.47000000000E+01 0. -1.
         -5    1    3    3    0  501  0.18094830351E+02 -0.40610236764E+01  0.10205290207E+02  0.21683005948E+02  0.47000000000E+01 0. -1.
          5    1    4    4  502    0  0.29702685807E+02 -0.46008116776E+02 -0.48421611160E+02  0.73251203272E+02  0.47000000000E+01 0. -1.
         -5    1    4    4    0  502  0.13303894286E+02  0.29715691195E+02 -0.26864010915E+03  0.27064665922E+03  0.47000000000E+01 0. -1.
<mgrwt>
<rscale>  0 0.27311583E+03</rscale>
<asrwt>0</asrwt>
<pdfrwt beam="1">  1       21 0.52987515E-02 0.27311583E+03</pdfrwt>
<pdfrwt beam="2">  1       21 0.83297794E-01 0.27311583E+03</pdfrwt>
<totfact> 0.29946202E+05</totfact>
</mgrwt>
</event>
<event>
 8    1  0.4760912E-006  0.4654384E+03  0.7546771E-02  0.1023216E+00
         21   -1    0    0  504  503  0.00000000000E+00  0.00000000000E+00  0.36815234000E+03  0.36815234000E+03  0.00000000000E+00 0.  1.
         21   -1    0    0  503  504 -0.00000000000E+00 -0.00000000000E+00 -0.14710819136E+03  0.14710819136E+03  0.00000000000E+00 0.  1.
         25    2    1    2    0    0  0.13610730535E+03 -0.12317489925E+03  0.18750759872E+03  0.29065839724E+03  0.12500379967E+03 0.  0.
         25    2    1    2    0    0 -0.13610730535E+03  0.12317489925E+03  0.33536549916E+02  0.22460213411E+03  0.12499665632E+03 0.  0.
          5    1    3    3  501    0 -0.22622571282E+01 -0.63790106415E+02  0.92741372525E+02  0.11268250823E+03  0.47000000000E+01 0. -1.
         -5    1    3    3    0  501  0.13836956248E+03 -0.59384792834E+02  0.94766226199E+02  0.17797588901E+03  0.47000000000E+01 0. -1.
          5    1    4    4  502    0 -0.31734964441E+02  0.16733941430E+02 -0.43623431940E+02  0.56676508168E+02  0.47000000000E+01 0. -1.
         -5    1    4    4    0  502 -0.10437234091E+03  0.10644095782E+03  0.77159981856E+02  0.16792562594E+03  0.47000000000E+01 0. -1.
<mgrwt>
<rscale>  0 0.46543839E+03</rscale>
<asrwt>0</asrwt>
<pdfrwt beam="1">  1       21 0.56638821E-01 0.46543839E+03</pdfrwt>
<pdfrwt beam="2">  1       21 0.22632030E-01 0.46543839E+03</pdfrwt>
<totfact> 0.49196484E+04</totfact>
</mgrwt>
</event>
<event>
 8    1  0.4760912E-006  0.2668431E+03  0.7546771E-02  0.1103100E+00
         21   -1    0    0  504  503  0.00000000000E+00  0.00000000000E+00  0.39767292688E+03  0.39767292688E+03  0.00000000000E+00 0.  1.
         21   -1    0    0  503  504 -0.00000000000E+00 -0.00000000000E+00 -0.44763696492E+02  0.44763696492E+02  0.00000000000E+00 0.  1.
         25    2    1    2    0    0 -0.21967093045E+02  0.13646594239E+02  0.24083258910E+03  0.27257087137E+03  0.12500304491E+03 0.  0.
         25    2    1    2    0    0  0.21967093045E+02 -0.13646594239E+02  0.11207664129E+03  0.16986575200E+03  0.12499766985E+03 0.  0.
          5    1    3    3  501    0 -0.49850586359E+02  0.47418006038E+02  0.79064407451E+02  0.10491338705E+03  0.47000000000E+01 0. -1.
         -5    1    3    3    0  501  0.27883493313E+02 -0.33771411799E+02  0.16176818165E+03  0.16765748432E+03  0.47000000000E+01 0. -1.
          5    1    4    4  502    0  0.29287068001E+00 -0.62033839097E+01 -0.27377144997E+02  0.28463411836E+02  0.47000000000E+01 0. -1.
         -5    1    4    4    0  502  0.21674222365E+02 -0.74432103294E+01  0.13945378628E+03  0.14140234016E+03  0.47000000000E+01 0. -1.
<mgrwt>
<rscale>  0 0.26684310E+03</rscale>
<asrwt>0</asrwt>
<pdfrwt beam="1">  1       21 0.61180448E-01 0.26684310E+03</pdfrwt>
<pdfrwt beam="2">  1       21 0.68867228E-02 0.26684310E+03</pdfrwt>
<totfact> 0.38005266E+05</totfact>
</mgrwt>
</event>
<event>
 8    1  0.4760912E-006  0.3616518E+03  0.7546771E-02  0.1057932E+00
         21   -1    0    0  504  503  0.00000000000E+00  0.00000000000E+00  0.10655005561E+03  0.10655005561E+03  0.00000000000E+00 0. -1.
         21   -1    0    0  503  504 -0.00000000000E+00 -0.00000000000E+00 -0.30687927834E+03  0.30687927834E+03  0.00000000000E+00 0. -1.
         25    2    1    2    0    0 -0.39517692496E+02  0.12227927513E+03 -0.12720608787E+03  0.21982168511E+03  0.12500526111E+03 0.  0.
         25    2    1    2    0    0  0.39517692496E+02 -0.12227927513E+03 -0.73123134854E+02  0.19360764884E+03  0.12499223853E+03 0.  0.
          5    1    3    3  501    0 -0.51788968605E+02  0.11958890772E+03 -0.14662171963E+03  0.19622340020E+03  0.47000000000E+01 0. -1.
         -5    1    3    3    0  501  0.12271276109E+02  0.26903674088E+01  0.19415631755E+02  0.23598284908E+02  0.47000000000E+01 0. -1.
          5    1    4    4  502    0  0.68128340813E+01 -0.13980168594E+03 -0.45998325864E+02  0.14740713037E+03  0.47000000000E+01 0. -1.
         -5    1    4    4    0  502  0.32704858415E+02  0.17522410812E+02 -0.27124808990E+02  0.46200518474E+02  0.47000000000E+01 0. -1.
<mgrwt>
<rscale>  0 0.36165179E+03</rscale>
<asrwt>0</asrwt>
<pdfrwt beam="1">  1       21 0.16392316E-01 0.36165179E+03</pdfrwt>
<pdfrwt beam="2">  1       21 0.47212196E-01 0.36165179E+03</pdfrwt>
<totfact> 0.13659003E+05</totfact>
</mgrwt>
</event>
<event>
 8    1  0.4760912E-006  0.3811606E+03  0.7546771E-02  0.1050506E+00
         21   -1    0    0  504  503  0.00000000000E+00  0.00000000000E+00  0.40170124036E+03  0.40170124036E+03  0.00000000000E+00 0.  1.
         21   -1    0    0  503  504 -0.00000000000E+00 -0.00000000000E+00 -0.90417559325E+02  0.90417559325E+02  0.00000000000E+00 0.  1.
         25    2    1    2    0    0  0.67250364570E+02  0.11615790274E+03  0.22251145495E+03  0.28835424694E+03  0.12498621622E+03 0.  0.
         25    2    1    2    0    0 -0.67250364570E+02 -0.11615790274E+03  0.88772226093E+02  0.20376455275E+03  0.12499685967E+03 0.  0.
          5    1    3    3  501    0  0.40665741366E+01  0.83807097297E+02  0.19453601632E+03  0.21191158116E+03  0.47000000000E+01 0. -1.
         -5    1    3    3    0  501  0.63183790433E+02  0.32350805438E+02  0.27975438626E+02  0.76442665785E+02  0.47000000000E+01 0. -1.
          5    1    4    4  502    0  0.29247014442E+01 -0.11285000421E+03  0.53422361520E+02  0.12497886237E+03  0.47000000000E+01 0. -1.
         -5    1    4    4    0  502 -0.70175066014E+02 -0.33078985233E+01  0.35349864573E+02  0.78785690376E+02  0.47000000000E+01 0. -1.
<mgrwt>
<rscale>  0 0.38116057E+03</rscale>
<asrwt>0</asrwt>
<pdfrwt beam="1">  1       21 0.61800190E-01 0.38116057E+03</pdfrwt>
<pdfrwt beam="2">  1       21 0.13910394E-01 0.38116057E+03</pdfrwt>
<totfact> 0.10342619E+05</totfact>
</mgrwt>
</event>
<event>
 8    1  0.4760912E-006  0.8185775E+03  0.7546771E-02  0.9533510E-01
         21   -1    0    0  504  503  0.00000000000E+00  0.00000000000E+00  0.37055321304E+03  0.37055321304E+03  0.00000000000E+00 0. -1.
         21   -1    0    0  503  504 -0.00000000000E+00 -0.00000000000E+00 -0.45207348066E+03  0.45207348066E+03  0.00000000000E+00 0. -1.
         25    2    1    2    0    0  0.83110666577E+02 -0.31630763577E+03 -0.25378795687E+03  0.43242311255E+03  0.12499407134E+03 0.  0.
         25    2    1    2    0    0 -0.83110666577E+02  0.31630763577E+03  0.17226768925E+03  0.39020358115E+03  0.12499909854E+03 0.  0.
          5    1    3    3  501    0 -0.16828744521E+02 -0.97235892909E+02 -0.28951622099E+02  0.10294810311E+03  0.47000000000E+01 0. -1.
         -5    1    3    3    0  501  0.99939411098E+02 -0.21907174286E+03 -0.22483633478E+03  0.32947500944E+03  0.47000000000E+01 0. -1.
          5    1    4    4  502    0  0.27614839955E+02  0.23111310848E+02  0.12620467548E+02  0.38445783592E+02  0.47000000000E+01 0.  1.
         -5    1    4    4    0  502 -0.11072550653E+03  0.29319632492E+03  0.15964722170E+03  0.35175779755E+03  0.47000000000E+01 0.  1.
<mgrwt>
<rscale>  0 0.81857750E+03</rscale>
<asrwt>0</asrwt>
<pdfrwt beam="1">  1       21 0.57008187E-01 0.81857750E+03</pdfrwt>
<pdfrwt beam="2">  1       21 0.69549766E-01 0.81857750E+03</pdfrwt>
<totfact> 0.43768297E+03</totfact>
</mgrwt>
</event>
<event>
 8    1  0.4760912E-006  0.2854898E+03  0.7546771E-02  0.1092728E+00
         21   -1    0    0  504  503  0.00000000000E+00  0.00000000000E+00  0.48236715544E+02  0.48236715544E+02  0.00000000000E+00 0.  1.
         21   -1    0    0  503  504 -0.00000000000E+00 -0.00000000000E+00 -0.42241907965E+03  0.42241907965E+03  0.00000000000E+00 0.  1.
         25    2    1    2    0    0 -0.63979818306E+02 -0.22109797355E+01 -0.22920101288E+03  0.26880733200E+03  0.12500388734E+03 0.  0.
         25    2    1    2    0    0  0.63979818306E+02  0.22109797355E+01 -0.14498135122E+03  0.20184846319E+03  0.12499961723E+03 0.  0.
          5    1    3    3  501    0  0.15931325890E+02 -0.28920577965E+02 -0.11426423241E+02  0.35254221343E+02  0.47000000000E+01 0. -1.
         -5    1    3    3    0  501 -0.79911144196E+02  0.26709598230E+02 -0.21777458964E+03  0.23355311066E+03  0.47000000000E+01 0. -1.
          5    1    4    4  502    0  0.33705909499E+02 -0.35985800783E+02 -0.75314543057E+00  0.49535072637E+02  0.47000000000E+01 0.  1.
         -5    1    4    4    0  502  0.30273908806E+02  0.38196780518E+02 -0.14422820579E+03  0.15231339055E+03  0.47000000000E+01 0.  1.
<mgrwt>
<rscale>  0 0.28548982E+03</rscale>
<asrwt>0</asrwt>
<pdfrwt beam="1">  1       21 0.74210331E-02 0.28548982E+03</pdfrwt>
<pdfrwt beam="2">  1       21 0.64987551E-01 0.28548982E+03</pdfrwt>
<totfact> 0.29127484E+05</totfact>
</mgrwt>
</event>
<event>
 8    1  0.4760912E-006  0.2840717E+03  0.7546771E-02  0.1093486E+00
         21   -1    0    0  504  503  0.00000000000E+00  0.00000000000E+00  0.90268316676E+02  0.90268316676E+02  0.00000000000E+00 0. -1.
         21   -1    0    0  503  504 -0.00000000000E+00 -0.00000000000E+00 -0.22349132985E+03  0.22349132985E+03  0.00000000000E+00 0. -1.
         25    2    1    2    0    0 -0.21999614073E+02 -0.47007448904E+02 -0.11418408342E+03  0.17708031378E+03  0.12500299737E+03 0.  0.
         25    2    1    2    0    0  0.21999614073E+02  0.47007448904E+02 -0.19038929747E+02  0.13667933274E+03  0.12500030352E+03 0.  0.
          5    1    3    3  501    0  0.50941413647E+02 -0.10723032650E+02 -0.32119991323E+02  0.61349775029E+02  0.47000000000E+01 0.  1.
         -5    1    3    3    0  501 -0.72941027720E+02 -0.36284416254E+02 -0.82064092102E+02  0.11573053875E+03  0.47000000000E+01 0.  1.
          5    1    4    4  502    0 -0.43312372403E+02  0.28589090813E+02  0.22736320381E+02  0.56853566125E+02  0.47000000000E+01 0.  1.
         -5    1    4    4    0  502  0.65311986476E+02  0.18418358092E+02 -0.41775250127E+02  0.79825766614E+02  0.47000000000E+01 0.  1.
<mgrwt>
<rscale>  0 0.28407172E+03</rscale>
<asrwt>0</asrwt>
<pdfrwt beam="1">  1       21 0.13887433E-01 0.28407172E+03</pdfrwt>
<pdfrwt beam="2">  1       21 0.34383281E-01 0.28407172E+03</pdfrwt>
<totfact> 0.36050911E+05</totfact>
</mgrwt>
</event>
<event>
 8    1  0.4760912E-006  0.3907920E+03  0.7546771E-02  0.1047016E+00
         21   -1    0    0  504  503  0.00000000000E+00  0.00000000000E+00  0.50051707404E+02  0.50051707404E+02  0.00000000000E+00 0.  1.
         21   -1    0    0  503  504 -0.00000000000E+00 -0.00000000000E+00 -0.76280309516E+03  0.76280309516E+03  0.00000000000E+00 0.  1.
         25    2    1    2    0    0 -0.11523680629E+03 -0.95937463360E+02 -0.33884377791E+03  0.39105428549E+03  0.12499931990E+03 0.  0.
         25    2    1    2    0    0  0.11523680629E+03  0.95937463360E+02 -0.37390760985E+03  0.42180051707E+03  0.12500102841E+03 0.  0.
          5    1    3    3  501    0 -0.12509666804E+02  0.62514694586E+01  0.67948116778E+01  0.16242909212E+02  0.47000000000E+01 0. -1.
         -5    1    3    3    0  501 -0.10272713948E+03 -0.10218893282E+03 -0.34563858959E+03  0.37481137628E+03  0.47000000000E+01 0. -1.
          5    1    4    4  502    0  0.12273539482E+02  0.62146221630E+02 -0.24611952052E+03  0.25418438389E+03  0.47000000000E+01 0.  1.
         -5    1    4    4    0  502  0.10296326680E+03  0.33791241729E+02 -0.12778808933E+03  0.16761613318E+03  0.47000000000E+01 0.  1.
<mgrwt>
<rscale>  0 0.39079200E+03</rscale>
<asrwt>0</asrwt>
<pdfrwt beam="1">  1       21 0.77002629E-02 0.39079200E+03</pdfrwt>
<pdfrwt beam="2">  1       21 0.11735432E+00 0.39079200E+03</pdfrwt>
<totfact> 0.66692132E+04</totfact>
</mgrwt>
</event>
<event>
 8    1  0.4760912E-006  0.2964347E+03  0.7546771E-02  0.1087037E+00
         21   -1    0    0  504  503  0.00000000000E+00  0.00000000000E+00  0.79841580671E+02  0.79841580671E+02  0.00000000000E+00 0.  1.
         21   -1    0    0  503  504 -0.00000000000E+00 -0.00000000000E+00 -0.27514969038E+03  0.27514969038E+03  0.00000000000E+00 0.  1.
         25    2    1    2    0    0  0.13840310191E+02 -0.16230304082E+02 -0.57378286499E+01  0.12692803221E+03  0.12499130260E+03 0.  0.
         25    2    1    2    0    0 -0.13840310191E+02  0.16230304082E+02 -0.18957028106E+03  0.22806323885E+03  0.12498388894E+03 0.  0.
          5    1    3    3  501    0  0.27202122376E+01  0.71362656560E+01  0.57627539250E+02  0.58321086428E+02  0.47000000000E+01 0. -1.
         -5    1    3    3    0  501  0.11120097953E+02 -0.23366569738E+02 -0.63365367900E+02  0.68606945777E+02  0.47000000000E+01 0. -1.
          5    1    4    4  502    0 -0.22217931413E+02 -0.38311289727E+02 -0.15833849121E+03  0.16448270181E+03  0.47000000000E+01 0. -1.
         -5    1    4    4    0  502  0.83776212221E+01  0.54541593809E+02 -0.31231789852E+02  0.63580537037E+02  0.47000000000E+01 0. -1.
<mgrwt>
<rscale>  0 0.29643472E+03</rscale>
<asrwt>0</asrwt>
<pdfrwt beam="1">  1       21 0.12283320E-01 0.29643472E+03</pdfrwt>
<pdfrwt beam="2">  1       21 0.42330721E-01 0.29643472E+03</pdfrwt>
<totfact> 0.29491357E+05</totfact>
</mgrwt>
</event>
<event>
 8    1  0.4760912E-006  0.4096493E+03  0.7546771E-02  0.1040489E+00
         21   -1    0    0  504  503  0.00000000000E+00  0.00000000000E+00  0.32007010624E+02  0.32007010624E+02  0.00000000000E+00 0. -1.
         21   -1    0    0  503  504 -0.00000000000E+00 -0.00000000000E+00 -0.13107484200E+04  0.13107484200E+04  0.00000000000E+00 0. -1.
         25    2    1    2    0    0  0.12428019353E+03 -0.10428793206E+03 -0.64726672524E+03  0.67889790047E+03  0.12500642539E+03 0.  0.
         25    2    1    2    0    0 -0.12428019353E+03  0.10428793206E+03 -0.63147468418E+03  0.66385753020E+03  0.12500001742E+03 0.  0.
          5    1    3    3  501    0  0.47791852898E+02 -0.11338870838E+03 -0.46365155004E+03  0.47972482764E+03  0.47000000000E+01 0.  1.
         -5    1    3    3    0  501  0.76488340628E+02  0.91007763194E+01 -0.18361517520E+03  0.19917307284E+03  0.47000000000E+01 0.  1.
          5    1    4    4  502    0 -0.33810483721E+02  0.88200400977E+02 -0.18247783681E+03  0.20553031521E+03  0.47000000000E+01 0.  1.
         -5    1    4    4    0  502 -0.90469709805E+02  0.16087531088E+02 -0.44899684737E+03  0.45832721499E+03  0.47000000000E+01 0.  1.
<mgrwt>
<rscale>  0 0.40964931E+03</rscale>
<asrwt>0</asrwt>
<pdfrwt beam="1">  1       21 0.49241553E-02 0.40964931E+03</pdfrwt>
<pdfrwt beam="2">  1       21 0.20165361E+00 0.40964931E+03</pdfrwt>
<totfact> 0.32562355E+04</totfact>
</mgrwt>
</event>
<event>
 8    1  0.4760912E-006  0.2868645E+03  0.7546771E-02  0.1091998E+00
         21   -1    0    0  504  503  0.00000000000E+00  0.00000000000E+00  0.16510977764E+03  0.16510977764E+03  0.00000000000E+00 0.  1.
         21   -1    0    0  503  504 -0.00000000000E+00 -0.00000000000E+00 -0.12460077664E+03  0.12460077664E+03  0.00000000000E+00 0.  1.
         25    2    1    2    0    0 -0.52141476768E+02  0.36733912403E+02 -0.96715585135E+01  0.14067026213E+03  0.12500587860E+03 0.  0.
         25    2    1    2    0    0  0.52141476768E+02 -0.36733912403E+02  0.50180559519E+02  0.14904029214E+03  0.12500722462E+03 0.  0.
          5    1    3    3  501    0 -0.16239041577E+02  0.60544495698E+02 -0.50878301160E+02  0.80870476440E+02  0.47000000000E+01 0. -1.
         -5    1    3    3    0  501 -0.35902435192E+02 -0.23810583295E+02  0.41206742647E+02  0.59799785694E+02  0.47000000000E+01 0. -1.
          5    1    4    4  502    0  0.72020897826E+01  0.49892946412E+01 -0.39257556740E+02  0.40497023587E+02  0.47000000000E+01 0. -1.
         -5    1    4    4    0  502  0.44939386986E+02 -0.41723207044E+02  0.89438116259E+02  0.10854326856E+03  0.47000000000E+01 0. -1.
<mgrwt>
<rscale>  0 0.28686447E+03</rscale>
<asrwt>0</asrwt>
<pdfrwt beam="1">  1       21 0.25401504E-01 0.28686447E+03</pdfrwt>
<pdfrwt beam="2">  1       21 0.19169350E-01 0.28686447E+03</pdfrwt>
<totfact> 0.35964962E+05</totfact>
</mgrwt>
</event>
<event>
 8    1  0.4760912E-006  0.2818254E+03  0.7546771E-02  0.1094696E+00
         21   -1    0    0  504  503  0.00000000000E+00  0.00000000000E+00  0.24082246191E+03  0.24082246191E+03  0.00000000000E+00 0. -1.
         21   -1    0    0  503  504 -0.00000000000E+00 -0.00000000000E+00 -0.82452420036E+02  0.82452420036E+02  0.00000000000E+00 0. -1.
         25    2    1    2    0    0  0.48946286281E+01  0.42918401332E+02  0.13497821105E+03  0.18896732967E+03  0.12499435052E+03 0.  0.
         25    2    1    2    0    0 -0.48946286281E+01 -0.42918401332E+02  0.23391830823E+02  0.13430755228E+03  0.12500157714E+03 0.  0.
          5    1    3    3  501    0 -0.25564129822E+02 -0.18922881612E+02 -0.53099434544E+01  0.32586587448E+02  0.47000000000E+01 0. -1.
         -5    1    3    3    0  501  0.30458758450E+02  0.61841282943E+02  0.14028815451E+03  0.15638074222E+03  0.47000000000E+01 0. -1.
          5    1    4    4  502    0 -0.35395873355E+02 -0.77298627577E+02  0.22623561904E+02  0.88101425806E+02  0.47000000000E+01 0. -1.
         -5    1    4    4    0  502  0.30501244727E+02  0.34380226245E+02  0.76826891893E+00  0.46206126474E+02  0.47000000000E+01 0. -1.
<mgrwt>
<rscale>  0 0.28182544E+03</rscale>
<asrwt>0</asrwt>
<pdfrwt beam="1">  1       21 0.37049609E-01 0.28182544E+03</pdfrwt>
<pdfrwt beam="2">  1       21 0.12684988E-01 0.28182544E+03</pdfrwt>
<totfact> 0.36603377E+05</totfact>
</mgrwt>
</event>
<event>
 8    1  0.4760912E-006  0.2821572E+03  0.7546771E-02  0.1094517E+00
         21   -1    0    0  504  503  0.00000000000E+00  0.00000000000E+00  0.58704036191E+03  0.58704036191E+03  0.00000000000E+00 0.  1.
         21   -1    0    0  503  504 -0.00000000000E+00 -0.00000000000E+00 -0.33904260341E+02  0.33904260341E+02  0.00000000000E+00 0.  1.
         25    2    1    2    0    0  0.14033900914E+02 -0.57817684297E+02  0.21671500316E+03  0.25715203720E+03  0.12498777001E+03 0.  0.
         25    2    1    2    0    0 -0.14033900914E+02  0.57817684297E+02  0.33642109841E+03  0.36379258505E+03  0.12500421788E+03 0.  0.
          5    1    3    3  501    0  0.40038128560E+02 -0.88374506101E+02  0.13918516802E+03  0.16972833018E+03  0.47000000000E+01 0. -1.
         -5    1    3    3    0  501 -0.26004227645E+02  0.30556821804E+02  0.77529835135E+02  0.87423707027E+02  0.47000000000E+01 0. -1.
          5    1    4    4  502    0  0.39133363367E+02 -0.14901648518E+02  0.16245011505E+03  0.16782612770E+03  0.47000000000E+01 0.  1.
         -5    1    4    4    0  502 -0.53167264282E+02  0.72719332814E+02  0.17397098336E+03  0.19596645736E+03  0.47000000000E+01 0.  1.
<mgrwt>
<rscale>  0 0.28215718E+03</rscale>
<asrwt>0</asrwt>
<pdfrwt beam="1">  1       21 0.90313895E-01 0.28215718E+03</pdfrwt>
<pdfrwt beam="2">  1       21 0.52160405E-02 0.28215718E+03</pdfrwt>
<totfact> 0.25446304E+05</totfact>
</mgrwt>
</event>
<event>
 8    1  0.4760912E-006  0.2612174E+03  0.7546771E-02  0.1106414E+00
         21   -1    0    0  504  503  0.00000000000E+00  0.00000000000E+00  0.44859550349E+03  0.44859550349E+03  0.00000000000E+00 0.  1.
         21   -1    0    0  503  504 -0.00000000000E+00 -0.00000000000E+00 -0.38026762147E+02  0.38026762147E+02  0.00000000000E+00 0.  1.
         25    2    1    2    0    0  0.18309774104E+01  0.25187100539E+02  0.25782236127E+03  0.28763542591E+03  0.12499610296E+03 0.  0.
         25    2    1    2    0    0 -0.18309774104E+01 -0.25187100539E+02  0.15274638007E+03  0.19898683973E+03  0.12500625284E+03 0.  0.
          5    1    3    3  501    0 -0.11610897034E+02 -0.21792412127E+02  0.22967856675E+03  0.23104989977E+03  0.47000000000E+01 0. -1.
         -5    1    3    3    0  501  0.13441874444E+02  0.46979512666E+02  0.28143794519E+02  0.56585526143E+02  0.47000000000E+01 0. -1.
          5    1    4    4  502    0  0.17012057342E+02  0.34227959469E+00  0.16403487929E+03  0.16498199561E+03  0.47000000000E+01 0.  1.
         -5    1    4    4    0  502 -0.18843034752E+02 -0.25529380134E+02 -0.11288499224E+02  0.34004844117E+02  0.47000000000E+01 0.  1.
<mgrwt>
<rscale>  0 0.26121742E+03</rscale>
<asrwt>0</asrwt>
<pdfrwt beam="1">  1       21 0.69014689E-01 0.26121742E+03</pdfrwt>
<pdfrwt beam="2">  1       21 0.58502714E-02 0.26121742E+03</pdfrwt>
<totfact> 0.38729064E+05</totfact>
</mgrwt>
</event>
<event>
 8    1  0.4760912E-006  0.3123716E+03  0.7546771E-02  0.1079215E+00
         21   -1    0    0  504  503  0.00000000000E+00  0.00000000000E+00  0.37514047719E+03  0.37514047719E+03  0.00000000000E+00 0.  1.
         21   -1    0    0  503  504 -0.00000000000E+00 -0.00000000000E+00 -0.65026299040E+02  0.65026299040E+02  0.00000000000E+00 0.  1.
         25    2    1    2    0    0  0.47346873440E+02 -0.80218340305E+02  0.14135239082E+03  0.21042819812E+03  0.12499127821E+03 0.  0.
         25    2    1    2    0    0 -0.47346873440E+02  0.80218340305E+02  0.16876178734E+03  0.22973857811E+03  0.12499025907E+03 0.  0.
          5    1    3    3  501    0  0.67527900066E+02 -0.10341361504E+03  0.12270520640E+03  0.17416386175E+03  0.47000000000E+01 0. -1.
         -5    1    3    3    0  501 -0.20181026627E+02  0.23195274732E+02  0.18647184418E+02  0.36264336369E+02  0.47000000000E+01 0. -1.
          5    1    4    4  502    0 -0.60755800743E+02  0.85647167098E+02  0.62285502140E+02  0.12218133381E+03  0.47000000000E+01 0. -1.
         -5    1    4    4    0  502  0.13408927303E+02 -0.54288267929E+01  0.10647628520E+03  0.10755724430E+03  0.47000000000E+01 0. -1.
<mgrwt>
<rscale>  0 0.31237155E+03</rscale>
<asrwt>0</asrwt>
<pdfrwt beam="1">  1       21 0.57713918E-01 0.31237155E+03</pdfrwt>
<pdfrwt beam="2">  1       21 0.10004046E-01 0.31237155E+03</pdfrwt>
<totfact> 0.22131201E+05</totfact>
</mgrwt>
</event>
<event>
 8    1  0.4760912E-006  0.4673791E+03  0.7546771E-02  0.1022663E+00
         21   -1    0    0  504  503  0.00000000000E+00  0.00000000000E+00  0.17326477623E+04  0.17326477623E+04  0.00000000000E+00 0. -1.
         21   -1    0    0  503  504 -0.00000000000E+00 -0.00000000000E+00 -0.31518705843E+02  0.31518705843E+02  0.00000000000E+00 0. -1.
         25    2    1    2    0    0 -0.18322329848E+03 -0.73580327457E+02  0.84819586502E+03  0.87980076639E+03  0.12501328492E+03 0.  0.
         25    2    1    2    0    0  0.18322329848E+03  0.73580327457E+02  0.85293319143E+03  0.88436570175E+03  0.12499129445E+03 0.  0.
          5    1    3    3  501    0 -0.45178751729E+02 -0.64937304969E+02  0.47914228465E+03  0.48565151305E+03  0.47000000000E+01 0.  1.
         -5    1    3    3    0  501 -0.13804454676E+03 -0.86430224872E+01  0.36905358037E+03  0.39414925334E+03  0.47000000000E+01 0.  1.
          5    1    4    4  502    0  0.17629988230E+03  0.70723787436E+02  0.85451214458E+03  0.87538368607E+03  0.47000000000E+01 0. -1.
         -5    1    4    4    0  502  0.69234161868E+01  0.28565400202E+01 -0.15789531472E+01  0.89820156771E+01  0.47000000000E+01 0. -1.
<mgrwt>
<rscale>  0 0.46737914E+03</rscale>
<asrwt>0</asrwt>
<pdfrwt beam="1">  1       21 0.26656112E+00 0.46737914E+03</pdfrwt>
<pdfrwt beam="2">  1       21 0.48490330E-02 0.46737914E+03</pdfrwt>
<totfact> 0.12810630E+04</totfact>
</mgrwt>
</event>
<event>
 8    1  0.4760912E-006  0.4156126E+03  0.7546771E-02  0.1038504E+00
         21   -1    0    0  504  503  0.00000000000E+00  0.00000000000E+00  0.36125477939E+03  0.36125477939E+03  0.00000000000E+00 0.  1.
         21   -1    0    0  503  504 -0.00000000000E+00 -0.00000000000E+00 -0.11953738536E+03  0.11953738536E+03  0.00000000000E+00 0.  1.
         25    2    1    2    0    0  0.46762111048E+02  0.15357928914E+03  0.71982493520E+02  0.21581973908E+03  0.12499354911E+03 0.  0.
         25    2    1    2    0    0 -0.46762111048E+02 -0.15357928914E+03  0.16973490051E+03  0.26497242567E+03  0.12500862703E+03 0.  0.
          5    1    3    3  501    0  0.84380034768E+02  0.10692003533E+03  0.75121723059E+02  0.15561891754E+03  0.47000000000E+01 0.  1.
         -5    1    3    3    0  501 -0.37617923719E+02  0.46659253817E+02 -0.31392295392E+01  0.60200821538E+02  0.47000000000E+01 0.  1.
          5    1    4    4  502    0  0.12122999762E+02  0.92385748510E+01 -0.70875393128E+01  0.17453985276E+02  0.47000000000E+01 0. -1.
         -5    1    4    4    0  502 -0.58885110811E+02 -0.16281786399E+03  0.17682243982E+03  0.24751844040E+03  0.47000000000E+01 0. -1.
<mgrwt>
<rscale>  0 0.41561257E+03</rscale>
<asrwt>0</asrwt>
<pdfrwt beam="1">  1       21 0.55577658E-01 0.41561257E+03</pdfrwt>
<pdfrwt beam="2">  1       21 0.18390367E-01 0.41561257E+03</pdfrwt>
<totfact> 0.76935743E+04</totfact>
</mgrwt>
</event>
<event>
 8    1  0.4760912E-006  0.2822407E+03  0.7546771E-02  0.1094471E+00
         21   -1    0    0  504  503  0.00000000000E+00  0.00000000000E+00  0.18596743437E+04  0.18596743437E+04  0.00000000000E+00 0. -1.
         21   -1    0    0  503  504 -0.00000000000E+00 -0.00000000000E+00 -0.10708840484E+02  0.10708840484E+02  0.00000000000E+00 0. -1.
         25    2    1    2    0    0 -0.51373263655E+02 -0.91725477606E+00  0.65533725379E+03  0.66912726573E+03  0.12499731182E+03 0.  0.
         25    2    1    2    0    0  0.51373263655E+02  0.91725477606E+00  0.11936282494E+04  0.12012559184E+04  0.12500932051E+03 0.  0.
          5    1    3    3  501    0 -0.40550851750E+02 -0.41372330933E+02  0.13365345648E+03  0.14574422038E+03  0.47000000000E+01 0.  1.
         -5    1    3    3    0  501 -0.10822411905E+02  0.40455076157E+02  0.52168379731E+03  0.52338304535E+03  0.47000000000E+01 0.  1.
          5    1    4    4  502    0 -0.30567589856E+02 -0.24358239040E+02  0.61845473506E+03  0.61970642297E+03  0.47000000000E+01 0. -1.
         -5    1    4    4    0  502  0.81940853512E+02  0.25275493816E+02  0.57517351432E+03  0.58154949544E+03  0.47000000000E+01 0. -1.
<mgrwt>
<rscale>  0 0.28224072E+03</rscale>
<asrwt>0</asrwt>
<pdfrwt beam="1">  1       21 0.28610349E+00 0.28224072E+03</pdfrwt>
<pdfrwt beam="2">  1       21 0.16475154E-02 0.28224072E+03</pdfrwt>
<totfact> 0.64975259E+04</totfact>
</mgrwt>
</event>
<event>
 8    1  0.4760912E-006  0.2634181E+03  0.7546771E-02  0.1105107E+00
         21   -1    0    0  504  503  0.00000000000E+00  0.00000000000E+00  0.55260006395E+02  0.55260006395E+02  0.00000000000E+00 0.  1.
         21   -1    0    0  503  504 -0.00000000000E+00 -0.00000000000E+00 -0.31392093524E+03  0.31392093524E+03  0.00000000000E+00 0.  1.
         25    2    1    2    0    0 -0.32373577987E+02 -0.15310390537E+02 -0.15871768984E+03  0.20517886382E+03  0.12499841792E+03 0.  0.
         25    2    1    2    0    0  0.32373577987E+02  0.15310390537E+02 -0.99943239008E+02  0.16400207781E+03  0.12500229555E+03 0.  0.
          5    1    3    3  501    0  0.28718991806E+02 -0.28307027981E+02 -0.72082394275E+01  0.41232475539E+02  0.47000000000E+01 0. -1.
         -5    1    3    3    0  501 -0.61092569793E+02  0.12996637444E+02 -0.15150945041E+03  0.16394638829E+03  0.47000000000E+01 0. -1.
          5    1    4    4  502    0 -0.17433049213E+02 -0.14153319216E+02  0.20198922953E+02  0.30566552605E+02  0.47000000000E+01 0. -1.
         -5    1    4    4    0  502  0.49806627201E+02  0.29463709753E+02 -0.12014216196E+03  0.13343552520E+03  0.47000000000E+01 0. -1.
<mgrwt>
<rscale>  0 0.26341809E+03</rscale>
<asrwt>0</asrwt>
<pdfrwt beam="1">  1       21 0.85015397E-02 0.26341809E+03</pdfrwt>
<pdfrwt beam="2">  1       21 0.48295527E-01 0.26341809E+03</pdfrwt>
<totfact> 0.43540854E+05</totfact>
</mgrwt>
</event>
<event>
 8    1  0.4760912E-006  0.4155907E+03  0.7546771E-02  0.1038511E+00
         21   -1    0    0  504  503  0.00000000000E+00  0.00000000000E+00  0.14301706850E+03  0.14301706850E+03  0.00000000000E+00 0.  1.
         21   -1    0    0  503  504 -0.00000000000E+00 -0.00000000000E+00 -0.30191442525E+03  0.30191442525E+03  0.00000000000E+00 0.  1.
         25    2    1    2    0    0 -0.12450292872E+03 -0.10968022674E+03 -0.85656967098E+02  0.22467985614E+03  0.12495275245E+03 0.  0.
         25    2    1    2    0    0  0.12450292872E+03  0.10968022674E+03 -0.73240389648E+02  0.22025163761E+03  0.12496358587E+03 0.  0.
          5    1    3    3  501    0 -0.87457240076E+02 -0.94983303045E+02 -0.11657640119E+03  0.17401937827E+03  0.47000000000E+01 0.  1.
         -5    1    3    3    0  501 -0.37045688649E+02 -0.14696923700E+02  0.30919434092E+02  0.50660477872E+02  0.47000000000E+01 0.  1.
          5    1    4    4  502    0  0.93684057825E+02  0.77456103161E+02 -0.10866138430E+03  0.16311203832E+03  0.47000000000E+01 0. -1.
         -5    1    4    4    0  502  0.30818870899E+02  0.32224123584E+02  0.35420994653E+02  0.57139599285E+02  0.47000000000E+01 0. -1.
<mgrwt>
<rscale>  0 0.41559074E+03</rscale>
<asrwt>0</asrwt>
<pdfrwt beam="1">  1       21 0.22002626E-01 0.41559074E+03</pdfrwt>
<pdfrwt beam="2">  1       21 0.46448372E-01 0.41559074E+03</pdfrwt>
<totfact> 0.80158232E+04</totfact>
</mgrwt>
</event>
<event>
 8    1  0.4760912E-006  0.3663687E+03  0.7546771E-02  0.1056090E+00
         21   -1    0    0  504  503  0.00000000000E+00  0.00000000000E+00  0.77136506452E+03  0.77136506452E+03  0.00000000000E+00 0. -1.
         21   -1    0    0  503  504 -0.00000000000E+00 -0.00000000000E+00 -0.43502752523E+02  0.43502752523E+02  0.00000000000E+00 0. -1.
         25    2    1    2    0    0 -0.28686679863E+02 -0.10629064076E+03  0.19440171969E+03  0.25600515973E+03  0.12500394904E+03 0.  0.
         25    2    1    2    0    0  0.28686679863E+02  0.10629064076E+03  0.53346059230E+03  0.55886265731E+03  0.12500656096E+03 0.  0.
          5    1    3    3  501    0  0.37278022707E+02 -0.39195926087E+02  0.20144623371E+02  0.57912584552E+02  0.47000000000E+01 0.  1.
         -5    1    3    3    0  501 -0.65964702570E+02 -0.67094714674E+02  0.17425709632E+03  0.19809257518E+03  0.47000000000E+01 0.  1.
          5    1    4    4  502    0  0.72105055217E+02  0.74902210813E+02  0.42810101565E+03  0.44057014172E+03  0.47000000000E+01 0. -1.
         -5    1    4    4    0  502 -0.43418375355E+02  0.31388429949E+02  0.10535957665E+03  0.11829251559E+03  0.47000000000E+01 0. -1.
<mgrwt>
<rscale>  0 0.36636869E+03</rscale>
<asrwt>0</asrwt>
<pdfrwt beam="1">  1       21 0.11867154E+00 0.36636869E+03</pdfrwt>
<pdfrwt beam="2">  1       21 0.66927317E-02 0.36636869E+03</pdfrwt>
<totfact> 0.83475216E+04</totfact>
</mgrwt>
</event>
<event>
 8    1  0.4760912E-006  0.2826926E+03  0.7546771E-02  0.1094227E+00
         21   -1    0    0  504  503  0.00000000000E+00  0.00000000000E+00  0.48465651944E+02  0.48465651944E+02  0.00000000000E+00 0.  1.
         21   -1    0    0  503  504 -0.00000000000E+00 -0.00000000000E+00 -0.41222549681E+03  0.41222549681E+03  0.00000000000E+00 0.  1.
         25    2    1    2    0    0  0.49591942737E+02  0.20209162194E+01 -0.25267255450E+03  0.28624107621E+03  0.12500835582E+03 0.  0.
         25    2    1    2    0    0 -0.49591942737E+02 -0.20209162194E+01 -0.11108729037E+03  0.17445007255E+03  0.12501598636E+03 0.  0.
          5    1    3    3  501    0  0.19220773772E+02  0.23645097371E+02 -0.43135346408E-01  0.30832136396E+02  0.47000000000E+01 0. -1.
         -5    1    3    3    0  501  0.30371168965E+02 -0.21624181151E+02 -0.25262941915E+03  0.25540893981E+03  0.47000000000E+01 0. -1.
          5    1    4    4  502    0 -0.86052074253E+02  0.21733130112E+02 -0.60291056805E+02  0.10739827726E+03  0.47000000000E+01 0.  1.
         -5    1    4    4    0  502  0.36460131516E+02 -0.23754046331E+02 -0.50796233568E+02  0.67051795293E+02  0.47000000000E+01 0.  1.
<mgrwt>
<rscale>  0 0.28269261E+03</rscale>
<asrwt>0</asrwt>
<pdfrwt beam="1">  1       21 0.74562541E-02 0.28269261E+03</pdfrwt>
<pdfrwt beam="2">  1       21 0.63419308E-01 0.28269261E+03</pdfrwt>
<totfact> 0.30495492E+05</totfact>
</mgrwt>
</event>
<event>
 8    1  0.4760912E-006  0.3086366E+03  0.7546771E-02  0.1081001E+00
         21   -1    0    0  504  503  0.00000000000E+00  0.00000000000E+00  0.12869496056E+03  0.12869496056E+03  0.00000000000E+00 0. -1.
         21   -1    0    0  503  504 -0.00000000000E+00 -0.00000000000E+00 -0.18504332217E+03  0.18504332217E+03  0.00000000000E+00 0. -1.
         25    2    1    2    0    0  0.57925327615E+02  0.41598988978E+02  0.28518353766E+02  0.14666935434E+03  0.12495112459E+03 0.  0.
         25    2    1    2    0    0 -0.57925327615E+02 -0.41598988978E+02 -0.84866715375E+02  0.16706892839E+03  0.12499539188E+03 0.  0.
          5    1    3    3  501    0  0.43236379606E-01  0.70934704383E+02 -0.88515992479E+01  0.71639199915E+02  0.47000000000E+01 0.  1.
         -5    1    3    3    0  501  0.57882091235E+02 -0.29335715404E+02  0.37369953014E+02  0.75030154420E+02  0.47000000000E+01 0.  1.
          5    1    4    4  502    0 -0.39546780145E+02 -0.46783878744E+02 -0.11540837392E+03  0.13074349659E+03  0.47000000000E+01 0. -1.
         -5    1    4    4    0  502 -0.18378547469E+02  0.51848897658E+01  0.30541658543E+02  0.36325431801E+02  0.47000000000E+01 0. -1.
<mgrwt>
<rscale>  0 0.30863663E+03</rscale>
<asrwt>0</asrwt>
<pdfrwt beam="1">  1       21 0.19799225E-01 0.30863663E+03</pdfrwt>
<pdfrwt beam="2">  1       21 0.28468203E-01 0.30863663E+03</pdfrwt>
<totfact> 0.27002423E+05</totfact>
</mgrwt>
</event>
<event>
 8    1  0.4760912E-006  0.2764952E+03  0.7546771E-02  0.1097619E+00
         21   -1    0    0  504  503  0.00000000000E+00  0.00000000000E+00  0.73343879523E+02  0.73343879523E+02  0.00000000000E+00 0. -1.
         21   -1    0    0  503  504 -0.00000000000E+00 -0.00000000000E+00 -0.26058606457E+03  0.26058606457E+03  0.00000000000E+00 0. -1.
         25    2    1    2    0    0 -0.46202924342E+02  0.35006884989E+02 -0.10731715067E+03  0.17465226174E+03  0.12500499785E+03 0.  0.
         25    2    1    2    0    0  0.46202924342E+02 -0.35006884989E+02 -0.79925034380E+02  0.15927768236E+03  0.12498470611E+03 0.  0.
          5    1    3    3  501    0 -0.52000777643E+02  0.40136876227E+02  0.10914611309E+01  0.65866007896E+02  0.47000000000E+01 0.  1.
         -5    1    3    3    0  501  0.57978533009E+01 -0.51299912380E+01 -0.10840861180E+03  0.10878625384E+03  0.47000000000E+01 0.  1.
          5    1    4    4  502    0  0.42749586720E+02 -0.27027977827E+02  0.23084954487E+02  0.55794658112E+02  0.47000000000E+01 0.  1.
         -5    1    4    4    0  502  0.34533376225E+01 -0.79789071619E+01 -0.10300998887E+03  0.10348302424E+03  0.47000000000E+01 0.  1.
<mgrwt>
<rscale>  0 0.27649516E+03</rscale>
<asrwt>0</asrwt>
<pdfrwt beam="1">  1       21 0.11283674E-01 0.27649516E+03</pdfrwt>
<pdfrwt beam="2">  1       21 0.40090164E-01 0.27649516E+03</pdfrwt>
<totfact> 0.38566220E+05</totfact>
</mgrwt>
</event>
<event>
 8    1  0.4760912E-006  0.3551911E+03  0.7546771E-02  0.1060504E+00
         21   -1    0    0  504  503  0.00000000000E+00  0.00000000000E+00  0.37562604954E+02  0.37562604954E+02  0.00000000000E+00 0. -1.
         21   -1    0    0  503  504 -0.00000000000E+00 -0.00000000000E+00 -0.83966965367E+03  0.83966965367E+03  0.00000000000E+00 0. -1.
         25    2    1    2    0    0 -0.91371836414E+02  0.85473911779E+02 -0.36111338013E+03  0.40209600195E+03  0.12499487747E+03 0.  0.
         25    2    1    2    0    0  0.91371836414E+02 -0.85473911779E+02 -0.44099366859E+03  0.47513625667E+03  0.12499777832E+03 0.  0.
          5    1    3    3  501    0 -0.10904831165E+03  0.95949400807E+02 -0.34836475167E+03  0.37746246436E+03  0.47000000000E+01 0.  1.
         -5    1    3    3    0  501  0.17676475233E+02 -0.10475489028E+02 -0.12748628451E+02  0.24633537594E+02  0.47000000000E+01 0.  1.
          5    1    4    4  502    0  0.77801651974E+02 -0.76729229132E+02 -0.44467129334E+03  0.45792479816E+03  0.47000000000E+01 0. -1.
         -5    1    4    4    0  502  0.13570184440E+02 -0.87446826472E+01  0.36776247482E+01  0.17211458512E+02  0.47000000000E+01 0. -1.
<mgrwt>
<rscale>  0 0.35519110E+03</rscale>
<asrwt>0</asrwt>
<pdfrwt beam="1">  1       21 0.57788626E-02 0.35519110E+03</pdfrwt>
<pdfrwt beam="2">  1       21 0.12917994E+00 0.35519110E+03</pdfrwt>
<totfact> 0.87052980E+04</totfact>
</mgrwt>
</event>
<event>
 8    1  0.4760912E-006  0.4619171E+03  0.7546771E-02  0.1024227E+00
         21   -1    0    0  504  503  0.00000000000E+00  0.00000000000E+00  0.42761830239E+03  0.42761830239E+03  0.00000000000E+00 0. -1.
         21   -1    0    0  503  504 -0.00000000000E+00 -0.00000000000E+00 -0.12474172598E+03  0.12474172598E+03  0.00000000000E+00 0. -1.
         25    2    1    2    0    0  0.18023911840E+03 -0.71254958332E+02  0.13670965926E+03  0.26810266743E+03  0.12500440176E+03 0.  0.
         25    2    1    2    0    0 -0.18023911840E+03  0.71254958332E+02  0.16616691715E+03  0.28425736095E+03  0.12500957567E+03 0.  0.
          5    1    3    3  501    0  0.10145277082E+03 -0.59597035829E+01  0.13051291536E+03  0.16548079601E+03  0.47000000000E+01 0. -1.
         -5    1    3    3    0  501  0.78786347580E+02 -0.65295254749E+02  0.61967438983E+01  0.10262187141E+03  0.47000000000E+01 0. -1.
          5    1    4    4  502    0 -0.31302581706E+02  0.68115130386E+02  0.88878842949E+02  0.11636606607E+03  0.47000000000E+01 0. -1.
         -5    1    4    4    0  502 -0.14893653669E+03  0.31398279458E+01  0.77288074200E+02  0.16789129487E+03  0.47000000000E+01 0. -1.
<mgrwt>
<rscale>  0 0.46191707E+03</rscale>
<asrwt>0</asrwt>
<pdfrwt beam="1">  1       21 0.65787431E-01 0.46191707E+03</pdfrwt>
<pdfrwt beam="2">  1       21 0.19191035E-01 0.46191707E+03</pdfrwt>
<totfact> 0.48548483E+04</totfact>
</mgrwt>
</event>
<event>
 8    1  0.4760912E-006  0.2632518E+03  0.7546771E-02  0.1105205E+00
         21   -1    0    0  504  503  0.00000000000E+00  0.00000000000E+00  0.18768069940E+03  0.18768069940E+03  0.00000000000E+00 0.  1.
         21   -1    0    0  503  504 -0.00000000000E+00 -0.00000000000E+00 -0.92313032887E+02  0.92313032887E+02  0.00000000000E+00 0.  1.
         25    2    1    2    0    0 -0.97439296504E+01 -0.30796275668E+02  0.75057841547E+02  0.14933771829E+03  0.12499887906E+03 0.  0.
         25    2    1    2    0    0  0.97439296504E+01  0.30796275668E+02  0.20309824967E+02  0.13065601400E+03  0.12496059476E+03 0.  0.
          5    1    3    3  501    0  0.46505627967E+02 -0.50859308114E+02  0.36935869885E+02  0.78331290929E+02  0.47000000000E+01 0.  1.
         -5    1    3    3    0  501 -0.56249557617E+02  0.20063032446E+02  0.38121971662E+02  0.71006427360E+02  0.47000000000E+01 0.  1.
          5    1    4    4  502    0  0.50984936240E+02 -0.15581085104E+02 -0.19286638255E+02  0.56888472924E+02  0.47000000000E+01 0. -1.
         -5    1    4    4    0  502 -0.41241006590E+02  0.46377360771E+02  0.39596463222E+02  0.73767541075E+02  0.47000000000E+01 0. -1.
<mgrwt>
<rscale>  0 0.26325178E+03</rscale>
<asrwt>0</asrwt>
<pdfrwt beam="1">  1       21 0.28873954E-01 0.26325178E+03</pdfrwt>
<pdfrwt beam="2">  1       21 0.14202005E-01 0.26325178E+03</pdfrwt>
<totfact> 0.49056420E+05</totfact>
</mgrwt>
</event>
<event>
 8    1  0.4760912E-006  0.4301323E+03  0.7546771E-02  0.1033818E+00
         21   -1    0    0  504  503  0.00000000000E+00  0.00000000000E+00  0.49378943796E+02  0.49378943796E+02  0.00000000000E+00 0. -1.
         21   -1    0    0  503  504 -0.00000000000E+00 -0.00000000000E+00 -0.93670388571E+03  0.93670388571E+03  0.00000000000E+00 0. -1.
         25    2    1    2    0    0 -0.18359787917E+02 -0.77311214931E+02 -0.80113554721E+03  0.81471198809E+03  0.12499341094E+03 0.  0.
         25    2    1    2    0    0  0.18359787917E+02  0.77311214931E+02 -0.86189394703E+02  0.17137084141E+03  0.12500099103E+03 0.  0.
          5    1    3    3  501    0 -0.16276512726E+02  0.46907347389E+01 -0.11938751962E+02  0.21249744876E+02  0.47000000000E+01 0.  1.
         -5    1    3    3    0  501 -0.20832751917E+01 -0.82001949670E+02 -0.78919679525E+03  0.79346224322E+03  0.47000000000E+01 0.  1.
          5    1    4    4  502    0  0.29738867733E+02  0.78489110825E+02  0.23502908461E+00  0.84065962260E+02  0.47000000000E+01 0. -1.
         -5    1    4    4    0  502 -0.11379079816E+02 -0.11778958935E+01 -0.86424423787E+02  0.87304879149E+02  0.47000000000E+01 0. -1.
<mgrwt>
<rscale>  0 0.43013230E+03</rscale>
<asrwt>0</asrwt>
<pdfrwt beam="1">  1       21 0.75967613E-02 0.43013230E+03</pdfrwt>
<pdfrwt beam="2">  1       21 0.14410828E+00 0.43013230E+03</pdfrwt>
<totfact> 0.39690592E+04</totfact>
</mgrwt>
</event>
<event>
 8    1  0.4760912E-006  0.3356750E+03  0.7546771E-02  0.1068653E+00
         21   -1    0    0  504  503  0.00000000000E+00  0.00000000000E+00  0.44234623973E+02  0.44234623973E+02  0.00000000000E+00 0. -1.
         21   -1    0    0  503  504 -0.00000000000E+00 -0.00000000000E+00 -0.63681856160E+03  0.63681856160E+03  0.00000000000E+00 0. -1.
         25    2    1    2    0    0 -0.11074039895E+03  0.16608416268E+02 -0.30065943228E+03  0.34432656567E+03  0.12500165662E+03 0.  0.
         25    2    1    2    0    0  0.11074039895E+03 -0.16608416268E+02 -0.29192450535E+03  0.33672661990E+03  0.12500249709E+03 0.  0.
          5    1    3    3  501    0 -0.60116309187E+02  0.70859188106E+02 -0.15480303061E+03  0.18061302128E+03  0.47000000000E+01 0.  1.
         -5    1    3    3    0  501 -0.50624089764E+02 -0.54250771838E+02 -0.14585640167E+03  0.16371354439E+03  0.47000000000E+01 0.  1.
          5    1    4    4  502    0  0.43125171010E+02  0.45303218428E+02 -0.57980624639E+02  0.85416654161E+02  0.47000000000E+01 0.  1.
         -5    1    4    4    0  502  0.67615227941E+02 -0.61911634695E+02 -0.23394388071E+03  0.25130996574E+03  0.47000000000E+01 0.  1.
<mgrwt>
<rscale>  0 0.33567502E+03</rscale>
<asrwt>0</asrwt>
<pdfrwt beam="1">  1       21 0.68053268E-02 0.33567502E+03</pdfrwt>
<pdfrwt beam="2">  1       21 0.97972086E-01 0.33567502E+03</pdfrwt>
<totfact> 0.13079098E+05</totfact>
</mgrwt>
</event>
<event>
 8    1  0.4760912E-006  0.2836965E+03  0.7546771E-02  0.1093687E+00
         21   -1    0    0  504  503  0.00000000000E+00  0.00000000000E+00  0.43035614896E+03  0.43035614896E+03  0.00000000000E+00 0.  1.
         21   -1    0    0  503  504 -0.00000000000E+00 -0.00000000000E+00 -0.46754138818E+02  0.46754138818E+02  0.00000000000E+00 0.  1.
         25    2    1    2    0    0 -0.63569130205E+02 -0.18876347908E+02  0.20845669256E+03  0.25194835210E+03  0.12500571438E+03 0.  0.
         25    2    1    2    0    0  0.63569130205E+02  0.18876347908E+02  0.17514531758E+03  0.22516193567E+03  0.12499865672E+03 0.  0.
          5    1    3    3  501    0 -0.83858355097E+02 -0.42829612585E+02  0.19665017319E+03  0.21808250743E+03  0.47000000000E+01 0.  1.
         -5    1    3    3    0  501  0.20289224892E+02  0.23953264677E+02  0.11806519375E+02  0.33865844669E+02  0.47000000000E+01 0.  1.
          5    1    4    4  502    0  0.59265277996E+02  0.45526507938E+02  0.35528983527E+02  0.82882053374E+02  0.47000000000E+01 0.  1.
         -5    1    4    4    0  502  0.43038522090E+01 -0.26650160030E+02  0.13961633405E+03  0.14227988230E+03  0.47000000000E+01 0.  1.
<mgrwt>
<rscale>  0 0.28369654E+03</rscale>
<asrwt>0</asrwt>
<pdfrwt beam="1">  1       21 0.66208636E-01 0.28369654E+03</pdfrwt>
<pdfrwt beam="2">  1       21 0.71929447E-02 0.28369654E+03</pdfrwt>
<totfact> 0.29535674E+05</totfact>
</mgrwt>
</event>
<event>
 8    1  0.4760912E-006  0.3236307E+03  0.7546771E-02  0.1073990E+00
         21   -1    0    0  504  503  0.00000000000E+00  0.00000000000E+00  0.13741810299E+03  0.13741810299E+03  0.00000000000E+00 0.  1.
         21   -1    0    0  503  504 -0.00000000000E+00 -0.00000000000E+00 -0.19054405196E+03  0.19054405196E+03  0.00000000000E+00 0.  1.
         25    2    1    2    0    0  0.12731027177E+02 -0.85952412345E+02 -0.82155784428E+02  0.17298513345E+03  0.12499754893E+03 0.  0.
         25    2    1    2    0    0 -0.12731027177E+02  0.85952412345E+02  0.29029835453E+02  0.15497702150E+03  0.12500099841E+03 0.  0.
          5    1    3    3  501    0  0.56470000941E+02 -0.90598232458E+02 -0.48237541255E+02  0.11724270177E+03  0.47000000000E+01 0.  1.
         -5    1    3    3    0  501 -0.43738973765E+02  0.46458201128E+01 -0.33918243172E+02  0.55742431687E+02  0.47000000000E+01 0.  1.
          5    1    4    4  502    0  0.13608504148E+02  0.81079584434E+02 -0.31854929892E+02  0.88294489950E+02  0.47000000000E+01 0. -1.
         -5    1    4    4    0  502 -0.26339531325E+02  0.48728279118E+01  0.60884765345E+02  0.66682531546E+02  0.47000000000E+01 0. -1.
<mgrwt>
<rscale>  0 0.32363067E+03</rscale>
<asrwt>0</asrwt>
<pdfrwt beam="1">  1       21 0.21141247E-01 0.32363067E+03</pdfrwt>
<pdfrwt beam="2">  1       21 0.29314470E-01 0.32363067E+03</pdfrwt>
<totfact> 0.22450021E+05</totfact>
</mgrwt>
</event>
<event>
 8    1  0.4760912E-006  0.2588504E+03  0.7546771E-02  0.1107836E+00
         21   -1    0    0  504  503  0.00000000000E+00  0.00000000000E+00  0.28317508341E+02  0.28317508341E+02  0.00000000000E+00 0. -1.
         21   -1    0    0  503  504 -0.00000000000E+00 -0.00000000000E+00 -0.59153799004E+03  0.59153799004E+03  0.00000000000E+00 0. -1.
         25    2    1    2    0    0 -0.32649103977E+02 -0.71612875959E+01 -0.27412868496E+03  0.30312970535E+03  0.12499533718E+03 0.  0.
         25    2    1    2    0    0  0.32649103977E+02  0.71612875959E+01 -0.28909179674E+03  0.31672579303E+03  0.12499565192E+03 0.  0.
          5    1    3    3  501    0 -0.99329038024E+01 -0.64531653293E+02 -0.16761842807E+03  0.17994728196E+03  0.47000000000E+01 0.  1.
         -5    1    3    3    0  501 -0.22716200174E+02  0.57370365697E+02 -0.10651025689E+03  0.12318242339E+03  0.47000000000E+01 0.  1.
          5    1    4    4  502    0 -0.39290256700E+02  0.28106182714E+02 -0.16202335424E+03  0.16913704236E+03  0.47000000000E+01 0. -1.
         -5    1    4    4    0  502  0.71939360676E+02 -0.20944895118E+02 -0.12706844250E+03  0.14758875068E+03  0.47000000000E+01 0. -1.
<mgrwt>
<rscale>  0 0.25885040E+03</rscale>
<asrwt>0</asrwt>
<pdfrwt beam="1">  1       21 0.43565397E-02 0.25885040E+03</pdfrwt>
<pdfrwt beam="2">  1       21 0.91005847E-01 0.25885040E+03</pdfrwt>
<totfact> 0.34158926E+05</totfact>
</mgrwt>
</event>
<event>
 8    1  0.4760912E-006  0.2642206E+03  0.7546771E-02  0.1104634E+00
         21   -1    0    0  504  503  0.00000000000E+00  0.00000000000E+00  0.16279909418E+03  0.16279909418E+03  0.00000000000E+00 0. -1.
         21   -1    0    0  503  504 -0.00000000000E+00 -0.00000000000E+00 -0.10720658494E+03  0.10720658494E+03  0.00000000000E+00 0. -1.
         25    2    1    2    0    0 -0.28843818565E+02  0.15014762042E+02 -0.51388038765E+00  0.12915909132E+03  0.12499759137E+03 0.  0.
         25    2    1    2    0    0  0.28843818565E+02 -0.15014762042E+02  0.56106389622E+02  0.14084658780E+03  0.12502969803E+03 0.  0.
          5    1    3    3  501    0  0.38109967457E+02 -0.17608678196E+02  0.26414625738E+02  0.49822260289E+02  0.47000000000E+01 0.  1.
         -5    1    3    3    0  501 -0.66953786022E+02  0.32623440238E+02 -0.26928506125E+02  0.79336831030E+02  0.47000000000E+01 0.  1.
          5    1    4    4  502    0  0.56159362016E+02 -0.23703292661E+01 -0.19222100401E+02  0.59590867981E+02  0.47000000000E+01 0.  1.
         -5    1    4    4    0  502 -0.27315543451E+02 -0.12644432776E+02  0.75328490023E+02  0.81255719820E+02  0.47000000000E+01 0.  1.
<mgrwt>
<rscale>  0 0.26422063E+03</rscale>
<asrwt>0</asrwt>
<pdfrwt beam="1">  1       21 0.25046015E-01 0.26422063E+03</pdfrwt>
<pdfrwt beam="2">  1       21 0.16493321E-01 0.26422063E+03</pdfrwt>
<totfact> 0.49096552E+05</totfact>
</mgrwt>
</event>
<event>
 8    1  0.4760912E-006  0.2596505E+03  0.7546771E-02  0.1107353E+00
         21   -1    0    0  504  503  0.00000000000E+00  0.00000000000E+00  0.42690649433E+02  0.42690649433E+02  0.00000000000E+00 0.  1.
         21   -1    0    0  503  504 -0.00000000000E+00 -0.00000000000E+00 -0.39480754092E+03  0.39480754092E+03  0.00000000000E+00 0.  1.
         25    2    1    2    0    0 -0.15620657512E+02 -0.19617385838E+02 -0.13477330483E+03  0.18552015551E+03  0.12500015055E+03 0.  0.
         25    2    1    2    0    0  0.15620657512E+02  0.19617385838E+02 -0.21734358665E+03  0.25197803484E+03  0.12500339441E+03 0.  0.
          5    1    3    3  501    0 -0.47583014278E+02  0.20395258177E+02 -0.12187905047E+03  0.13250170847E+03  0.47000000000E+01 0.  1.
         -5    1    3    3    0  501  0.31962356766E+02 -0.40012644015E+02 -0.12894254360E+02  0.53018447041E+02  0.47000000000E+01 0.  1.
          5    1    4    4  502    0  0.90893688510E+01  0.72894802367E+02 -0.12466728980E+03  0.14477669697E+03  0.47000000000E+01 0.  1.
         -5    1    4    4    0  502  0.65312886609E+01 -0.53277416529E+02 -0.92676296852E+02  0.10720133787E+03  0.47000000000E+01 0.  1.
<mgrwt>
<rscale>  0 0.25965046E+03</rscale>
<asrwt>0</asrwt>
<pdfrwt beam="1">  1       21 0.65677923E-02 0.25965046E+03</pdfrwt>
<pdfrwt beam="2">  1       21 0.60739621E-01 0.25965046E+03</pdfrwt>
<totfact> 0.41977877E+05</totfact>
</mgrwt>
</event>
<event>
 8    1  0.4760912E-006  0.2877756E+03  0.7546771E-02  0.1091516E+00
         21   -1    0    0  504  503  0.00000000000E+00  0.00000000000E+00  0.60930818034E+02  0.60930818034E+02  0.00000000000E+00 0.  1.
         21   -1    0    0  503  504 -0.00000000000E+00 -0.00000000000E+00 -0.33979035982E+03  0.33979035982E+03  0.00000000000E+00 0.  1.
         25    2    1    2    0    0 -0.61410013895E+02 -0.44953613396E+01 -0.89431344830E+02  0.16556046555E+03  0.12498361587E+03 0.  0.
         25    2    1    2    0    0  0.61410013895E+02  0.44953613396E+01 -0.18942819696E+03  0.23516071230E+03  0.12500448283E+03 0.  0.
          5    1    3    3  501    0  0.38041825655E+02 -0.77961900168E+01 -0.32263184979E+02  0.50704676144E+02  0.47000000000E+01 0.  1.
         -5    1    3    3    0  501 -0.99451839550E+02  0.33008286773E+01 -0.57168159851E+02  0.11485578941E+03  0.47000000000E+01 0.  1.
          5    1    4    4  502    0 -0.24271200075E+02 -0.13427569958E+02 -0.12023152676E+03  0.12347915133E+03  0.47000000000E+01 0.  1.
         -5    1    4    4    0  502  0.85681213970E+02  0.17922931298E+02 -0.69196670200E+02  0.11168156097E+03  0.47000000000E+01 0.  1.
<mgrwt>
<rscale>  0 0.28777564E+03</rscale>
<asrwt>0</asrwt>
<pdfrwt beam="1">  1       21 0.93739719E-02 0.28777564E+03</pdfrwt>
<pdfrwt beam="2">  1       21 0.52275441E-01 0.28777564E+03</pdfrwt>
<totfact> 0.30863874E+05</totfact>
</mgrwt>
</event>
<event>
 8    1  0.4760912E-006  0.3238655E+03  0.7546771E-02  0.1073884E+00
         21   -1    0    0  504  503  0.00000000000E+00  0.00000000000E+00  0.49818324028E+03  0.49818324028E+03  0.00000000000E+00 0.  1.
         21   -1    0    0  503  504 -0.00000000000E+00 -0.00000000000E+00 -0.52635684217E+02  0.52635684217E+02  0.00000000000E+00 0.  1.
         25    2    1    2    0    0  0.85584454533E+01 -0.81309806096E+02  0.32917109819E+03  0.36146987877E+03  0.12498931881E+03 0.  0.
         25    2    1    2    0    0 -0.85584454533E+01  0.81309806096E+02  0.11637645787E+03  0.18934904572E+03  0.12500019846E+03 0.  0.
          5    1    3    3  501    0  0.23852664058E+02 -0.10873735724E+03  0.29226523636E+03  0.31278398428E+03  0.47000000000E+01 0. -1.
         -5    1    3    3    0  501 -0.15294218605E+02  0.27427551140E+02  0.36905861837E+02  0.48685894489E+02  0.47000000000E+01 0. -1.
          5    1    4    4  502    0 -0.48187109718E+02 -0.63611317850E+01  0.19055669084E+02  0.52418222641E+02  0.47000000000E+01 0. -1.
         -5    1    4    4    0  502  0.39628664265E+02  0.87670937881E+02  0.97320788783E+02  0.13693082308E+03  0.47000000000E+01 0. -1.
<mgrwt>
<rscale>  0 0.32386550E+03</rscale>
<asrwt>0</asrwt>
<pdfrwt beam="1">  1       21 0.76643572E-01 0.32386550E+03</pdfrwt>
<pdfrwt beam="2">  1       21 0.80977979E-02 0.32386550E+03</pdfrwt>
<totfact> 0.17139206E+05</totfact>
</mgrwt>
</event>
<event>
 8    1  0.4760912E-006  0.2762184E+03  0.7546771E-02  0.1097772E+00
         21   -1    0    0  504  503  0.00000000000E+00  0.00000000000E+00  0.15831671502E+02  0.15831671502E+02  0.00000000000E+00 0.  1.
         21   -1    0    0  503  504 -0.00000000000E+00 -0.00000000000E+00 -0.12048093954E+04  0.12048093954E+04  0.00000000000E+00 0.  1.
         25    2    1    2    0    0  0.18951619499E+02  0.90256476287E+01 -0.35207198642E+03  0.37419134816E+03  0.12499542079E+03 0.  0.
         25    2    1    2    0    0 -0.18951619499E+02 -0.90256476287E+01 -0.83690573752E+03  0.84644971879E+03  0.12500114695E+03 0.  0.
          5    1    3    3  501    0  0.39525371080E+02  0.47278653274E+02 -0.94330974630E+02  0.11277388345E+03  0.47000000000E+01 0. -1.
         -5    1    3    3    0  501 -0.20573751581E+02 -0.38253005645E+02 -0.25774101179E+03  0.26141746470E+03  0.47000000000E+01 0. -1.
          5    1    4    4  502    0 -0.58008710260E+02  0.39554885434E+01 -0.72113951602E+03  0.72349495362E+03  0.47000000000E+01 0.  1.
         -5    1    4    4    0  502  0.39057090761E+02 -0.12981136172E+02 -0.11576622150E+03  0.12295476516E+03  0.47000000000E+01 0.  1.
<mgrwt>
<rscale>  0 0.27621837E+03</rscale>
<asrwt>0</asrwt>
<pdfrwt beam="1">  1       21 0.24356413E-02 0.27621837E+03</pdfrwt>
<pdfrwt beam="2">  1       21 0.18535533E+00 0.27621837E+03</pdfrwt>
<totfact> 0.14389004E+05</totfact>
</mgrwt>
</event>
<event>
 8    1  0.4760912E-006  0.4481728E+03  0.7546771E-02  0.1028268E+00
         21   -1    0    0  504  503  0.00000000000E+00  0.00000000000E+00  0.14181972891E+03  0.14181972891E+03  0.00000000000E+00 0.  1.
         21   -1    0    0  503  504 -0.00000000000E+00 -0.00000000000E+00 -0.35407417984E+03  0.35407417984E+03  0.00000000000E+00 0.  1.
         25    2    1    2    0    0 -0.81423256627E+02 -0.13646294101E+03  0.79047906968E+00  0.20218257495E+03  0.12500115107E+03 0.  0.
         25    2    1    2    0    0  0.81423256627E+02  0.13646294101E+03 -0.21304493000E+03  0.29371133379E+03  0.12500529753E+03 0.  0.
          5    1    3    3  501    0  0.26185845773E+02 -0.15678991926E+02 -0.23138993622E+02  0.38587981711E+02  0.47000000000E+01 0.  1.
         -5    1    3    3    0  501 -0.10760910240E+03 -0.12078394908E+03  0.23929472692E+02  0.16359459324E+03  0.47000000000E+01 0.  1.
          5    1    4    4  502    0  0.15846174332E+02  0.57357571752E+02 -0.29218550720E+01  0.59763027996E+02  0.47000000000E+01 0.  1.
         -5    1    4    4    0  502  0.65577082294E+02  0.79105369258E+02 -0.21012307493E+03  0.23394830580E+03  0.47000000000E+01 0.  1.
<mgrwt>
<rscale>  0 0.44817275E+03</rscale>
<asrwt>0</asrwt>
<pdfrwt beam="1">  1       21 0.21818420E-01 0.44817275E+03</pdfrwt>
<pdfrwt beam="2">  1       21 0.54472950E-01 0.44817275E+03</pdfrwt>
<totfact> 0.57640315E+04</totfact>
</mgrwt>
</event>
<event>
 8    1  0.4760912E-006  0.3076732E+03  0.7546771E-02  0.1081467E+00
         21   -1    0    0  504  503  0.00000000000E+00  0.00000000000E+00  0.29385853126E+03  0.29385853126E+03  0.00000000000E+00 0.  1.
         21   -1    0    0  503  504 -0.00000000000E+00 -0.00000000000E+00 -0.80534352905E+02  0.80534352905E+02  0.00000000000E+00 0.  1.
         25    2    1    2    0    0 -0.62044272194E+02  0.55992045184E+02  0.67114445591E+02  0.16466191543E+03  0.12499838698E+03 0.  0.
         25    2    1    2    0    0  0.62044272194E+02 -0.55992045184E+02  0.14620973276E+03  0.20973096874E+03  0.12500076983E+03 0.  0.
          5    1    3    3  501    0  0.23126104618E+02 -0.19076696075E+02 -0.40106467733E+01  0.30609023759E+02  0.47000000000E+01 0.  1.
         -5    1    3    3    0  501 -0.85170376812E+02  0.75068741259E+02  0.71125092364E+02  0.13405289167E+03  0.47000000000E+01 0.  1.
          5    1    4    4  502    0  0.21299396256E+02 -0.60710470892E+02  0.15467327972E+03  0.16758681039E+03  0.47000000000E+01 0.  1.
         -5    1    4    4    0  502  0.40744875938E+02  0.47184257077E+01 -0.84635469525E+01  0.42144158354E+02  0.47000000000E+01 0.  1.
<mgrwt>
<rscale>  0 0.30767325E+03</rscale>
<asrwt>0</asrwt>
<pdfrwt beam="1">  1       21 0.45209004E-01 0.30767325E+03</pdfrwt>
<pdfrwt beam="2">  1       21 0.12389901E-01 0.30767325E+03</pdfrwt>
<totfact> 0.25283778E+05</totfact>
</mgrwt>
</event>
<event>
 8    1  0.4760912E-006  0.4159415E+03  0.7546771E-02  0.1038395E+00
         21   -1    0    0  504  503  0.00000000000E+00  0.00000000000E+00  0.21736485246E+02  0.21736485246E+02  0.00000000000E+00 0. -1.
         21   -1    0    0  503  504 -0.00000000000E+00 -0.00000000000E+00 -0.19898263528E+04  0.19898263528E+04  0.00000000000E+00 0. -1.
         25    2    1    2    0    0  0.12892611958E+03 -0.88511567671E+02 -0.12563757530E+04  0.12722270827E+04  0.12500190153E+03 0.  0.
         25    2    1    2    0    0 -0.12892611958E+03  0.88511567671E+02 -0.71171411457E+03  0.73933575534E+03  0.12499654519E+03 0.  0.
          5    1    3    3  501    0  0.92992046070E+02 -0.16914342694E+02 -0.35876457771E+03  0.37103601960E+03  0.47000000000E+01 0.  1.
         -5    1    3    3    0  501  0.35934073514E+02 -0.71597224977E+02 -0.89761117526E+03  0.90119106310E+03  0.47000000000E+01 0.  1.
          5    1    4    4  502    0 -0.71623002847E+02  0.11517665332E+03 -0.51998665654E+03  0.53740462316E+03  0.47000000000E+01 0.  1.
         -5    1    4    4    0  502 -0.57303116736E+02 -0.26665085646E+02 -0.19172745803E+03  0.20193113218E+03  0.47000000000E+01 0.  1.
<mgrwt>
<rscale>  0 0.41594149E+03</rscale>
<asrwt>0</asrwt>
<pdfrwt beam="1">  1       21 0.33440719E-02 0.41594149E+03</pdfrwt>
<pdfrwt beam="2">  1       21 0.30612738E+00 0.41594149E+03</pdfrwt>
<totfact> 0.14258445E+04</totfact>
</mgrwt>
</event>
<event>
 8    1  0.4760912E-006  0.2853041E+03  0.7546771E-02  0.1092827E+00
         21   -1    0    0  504  503  0.00000000000E+00  0.00000000000E+00  0.26968641323E+02  0.26968641323E+02  0.00000000000E+00 0.  1.
         21   -1    0    0  503  504 -0.00000000000E+00 -0.00000000000E+00 -0.75456557730E+03  0.75456557730E+03  0.00000000000E+00 0.  1.
         25    2    1    2    0    0  0.42101537607E+02 -0.53943556579E+02 -0.38174379076E+03  0.40747494615E+03  0.12500025274E+03 0.  0.
         25    2    1    2    0    0 -0.42101537607E+02  0.53943556579E+02 -0.34585314522E+03  0.37405927248E+03  0.12499397789E+03 0.  0.
          5    1    3    3  501    0 -0.38505021992E+02 -0.10932283761E+01 -0.59044975614E+02  0.70655721722E+02  0.47000000000E+01 0.  1.
         -5    1    3    3    0  501  0.80606559599E+02 -0.52850328203E+02 -0.32269881515E+03  0.33681922442E+03  0.47000000000E+01 0.  1.
          5    1    4    4  502    0  0.15841736777E+02  0.47606245990E+02 -0.44952054588E+02  0.67528456913E+02  0.47000000000E+01 0. -1.
         -5    1    4    4    0  502 -0.57943274384E+02  0.63373105890E+01 -0.30090109063E+03  0.30653081557E+03  0.47000000000E+01 0. -1.
<mgrwt>
<rscale>  0 0.28530411E+03</rscale>
<asrwt>0</asrwt>
<pdfrwt beam="1">  1       21 0.41490218E-02 0.28530411E+03</pdfrwt>
<pdfrwt beam="2">  1       21 0.11608701E+00 0.28530411E+03</pdfrwt>
<totfact> 0.20500766E+05</totfact>
</mgrwt>
</event>
<event>
 8    1  0.4760912E-006  0.3129564E+03  0.7546771E-02  0.1078937E+00
         21   -1    0    0  504  503  0.00000000000E+00  0.00000000000E+00  0.22618608381E+03  0.22618608381E+03  0.00000000000E+00 0. -1.
         21   -1    0    0  503  504 -0.00000000000E+00 -0.00000000000E+00 -0.10825345522E+03  0.10825345522E+03  0.00000000000E+00 0. -1.
         25    2    1    2    0    0 -0.54667393398E+02 -0.25209714535E+02  0.13630396356E+03  0.19449262074E+03  0.12499822172E+03 0.  0.
         25    2    1    2    0    0  0.54667393398E+02  0.25209714535E+02 -0.18371334967E+02  0.13994691829E+03  0.12499432141E+03 0.  0.
          5    1    3    3  501    0  0.10535923912E+02  0.15515300539E+02 -0.15161064033E+02  0.24569861744E+02  0.47000000000E+01 0. -1.
         -5    1    3    3    0  501 -0.65203317310E+02 -0.40725015074E+02  0.15146502759E+03  0.16992275900E+03  0.47000000000E+01 0. -1.
          5    1    4    4  502    0  0.33409306821E+02 -0.49926575801E+02 -0.38209953963E+01  0.60378263964E+02  0.47000000000E+01 0.  1.
         -5    1    4    4    0  502  0.21258086577E+02  0.75136290336E+02 -0.14550339571E+02  0.79568654331E+02  0.47000000000E+01 0.  1.
<mgrwt>
<rscale>  0 0.31295639E+03</rscale>
<asrwt>0</asrwt>
<pdfrwt beam="1">  1       21 0.34797859E-01 0.31295639E+03</pdfrwt>
<pdfrwt beam="2">  1       21 0.16654378E-01 0.31295639E+03</pdfrwt>
<totfact> 0.25047536E+05</totfact>
</mgrwt>
</event>
<event>
 8    1  0.4760912E-006  0.3285036E+03  0.7546771E-02  0.1071801E+00
         21   -1    0    0  504  503  0.00000000000E+00  0.00000000000E+00  0.53850717312E+02  0.53850717312E+02  0.00000000000E+00 0.  1.
         21   -1    0    0  503  504 -0.00000000000E+00 -0.00000000000E+00 -0.50098957016E+03  0.50098957016E+03  0.00000000000E+00 0.  1.
         25    2    1    2    0    0  0.31035790171E+02 -0.42057235274E+02 -0.66743212075E+02  0.15103107157E+03  0.12499478754E+03 0.  0.
         25    2    1    2    0    0 -0.31035790171E+02  0.42057235274E+02 -0.38039564078E+03  0.40380921590E+03  0.12501603103E+03 0.  0.
          5    1    3    3  501    0  0.72142570014E+02 -0.18057783238E+02 -0.71108906406E+02  0.10300097336E+03  0.47000000000E+01 0.  1.
         -5    1    3    3    0  501 -0.41106779843E+02 -0.23999452036E+02  0.43656943316E+01  0.48030098210E+02  0.47000000000E+01 0.  1.
          5    1    4    4  502    0  0.26856018519E+02  0.66210638411E+02 -0.22668487571E+03  0.23772508754E+03  0.47000000000E+01 0.  1.
         -5    1    4    4    0  502 -0.57891808690E+02 -0.24153403137E+02 -0.15371076507E+03  0.16608412836E+03  0.47000000000E+01 0.  1.
<mgrwt>
<rscale>  0 0.32850356E+03</rscale>
<asrwt>0</asrwt>
<pdfrwt beam="1">  1       21 0.82847258E-02 0.32850356E+03</pdfrwt>
<pdfrwt beam="2">  1       21 0.77075318E-01 0.32850356E+03</pdfrwt>
<totfact> 0.16236906E+05</totfact>
</mgrwt>
</event>
<event>
 8    1  0.4760912E-006  0.2795110E+03  0.7546771E-02  0.1095956E+00
         21   -1    0    0  504  503  0.00000000000E+00  0.00000000000E+00  0.54900047241E+02  0.54900047241E+02  0.00000000000E+00 0.  1.
         21   -1    0    0  503  504 -0.00000000000E+00 -0.00000000000E+00 -0.35576665221E+03  0.35576665221E+03  0.00000000000E+00 0.  1.
         25    2    1    2    0    0 -0.55862399366E+02  0.27971344842E+02 -0.14770065730E+03  0.20333077442E+03  0.12499966346E+03 0.  0.
         25    2    1    2    0    0  0.55862399366E+02 -0.27971344842E+02 -0.15316594767E+03  0.20733592503E+03  0.12500149794E+03 0.  0.
          5    1    3    3  501    0  0.11216757981E+02 -0.20288369871E+02  0.96436726923E+01  0.25544549998E+02  0.47000000000E+01 0.  1.
         -5    1    3    3    0  501 -0.67079157347E+02  0.48259714713E+02 -0.15734432999E+03  0.17778622442E+03  0.47000000000E+01 0.  1.
          5    1    4    4  502    0  0.50133462783E+02 -0.92644422953E+01  0.16430128838E+01  0.51224832581E+02  0.47000000000E+01 0. -1.
         -5    1    4    4    0  502  0.57289365837E+01 -0.18706902547E+02 -0.15480896055E+03  0.15611109245E+03  0.47000000000E+01 0. -1.
<mgrwt>
<rscale>  0 0.27951104E+03</rscale>
<asrwt>0</asrwt>
<pdfrwt beam="1">  1       21 0.84461612E-02 0.27951104E+03</pdfrwt>
<pdfrwt beam="2">  1       21 0.54733330E-01 0.27951104E+03</pdfrwt>
<totfact> 0.33710532E+05</totfact>
</mgrwt>
</event>
<event>
 8    1  0.4760912E-006  0.3454893E+03  0.7546771E-02  0.1064482E+00
         21   -1    0    0  504  503  0.00000000000E+00  0.00000000000E+00  0.38699595969E+02  0.38699595969E+02  0.00000000000E+00 0.  1.
         21   -1    0    0  503  504 -0.00000000000E+00 -0.00000000000E+00 -0.77108596350E+03  0.77108596350E+03  0.00000000000E+00 0.  1.
         25    2    1    2    0    0  0.75280941102E+02 -0.37880970665E+02 -0.56387306880E+03  0.58367807253E+03  0.12500026643E+03 0.  0.
         25    2    1    2    0    0 -0.75280941102E+02  0.37880970665E+02 -0.16851329873E+03  0.22610748693E+03  0.12500270304E+03 0.  0.
          5    1    3    3  501    0  0.14654935216E+02 -0.28633823527E+02 -0.47199268944E+03  0.47311082408E+03  0.47000000000E+01 0.  1.
         -5    1    3    3    0  501  0.60626005886E+02 -0.92471471377E+01 -0.91880379361E+02  0.11056724846E+03  0.47000000000E+01 0.  1.
          5    1    4    4  502    0 -0.10863856566E+03  0.20933648276E+02 -0.14169603299E+03  0.17983439979E+03  0.47000000000E+01 0.  1.
         -5    1    4    4    0  502  0.33357624563E+02  0.16947322389E+02 -0.26817265738E+02  0.46273087149E+02  0.47000000000E+01 0.  1.
<mgrwt>
<rscale>  0 0.34548931E+03</rscale>
<asrwt>0</asrwt>
<pdfrwt beam="1">  1       21 0.59537844E-02 0.34548931E+03</pdfrwt>
<pdfrwt beam="2">  1       21 0.11862860E+00 0.34548931E+03</pdfrwt>
<totfact> 0.10297319E+05</totfact>
</mgrwt>
</event>
<event>
 8    1  0.4760912E-006  0.2732425E+03  0.7546771E-02  0.1099438E+00
         21   -1    0    0  504  503  0.00000000000E+00  0.00000000000E+00  0.27340919561E+03  0.27340919561E+03  0.00000000000E+00 0.  1.
         21   -1    0    0  503  504 -0.00000000000E+00 -0.00000000000E+00 -0.68268999324E+02  0.68268999324E+02  0.00000000000E+00 0.  1.
         25    2    1    2    0    0  0.18253572977E+02 -0.18734624957E+02  0.41833459157E+02  0.13436769708E+03  0.12498184114E+03 0.  0.
         25    2    1    2    0    0 -0.18253572977E+02  0.18734624957E+02  0.16330673713E+03  0.20731049786E+03  0.12499749210E+03 0.  0.
          5    1    3    3  501    0  0.33303094770E+02  0.31840939421E+02  0.62253709121E+02  0.77592240874E+02  0.47000000000E+01 0. -1.
         -5    1    3    3    0  501 -0.15049521793E+02 -0.50575564379E+02 -0.20420249964E+02  0.56775456202E+02  0.47000000000E+01 0. -1.
          5    1    4    4  502    0 -0.13816470609E+00 -0.45610578259E+02  0.11752536173E+03  0.12615325833E+03  0.47000000000E+01 0. -1.
         -5    1    4    4    0  502 -0.18115408271E+02  0.64345203216E+02  0.45781375398E+02  0.81157239524E+02  0.47000000000E+01 0. -1.
<mgrwt>
<rscale>  0 0.27324255E+03</rscale>
<asrwt>0</asrwt>
<pdfrwt beam="1">  1       21 0.42062953E-01 0.27324255E+03</pdfrwt>
<pdfrwt beam="2">  1       21 0.10502923E-01 0.27324255E+03</pdfrwt>
<totfact> 0.39771934E+05</totfact>
</mgrwt>
</event>
<event>
 8    1  0.4760912E-006  0.2851961E+03  0.7546771E-02  0.1092884E+00
         21   -1    0    0  504  503  0.00000000000E+00  0.00000000000E+00  0.98811218776E+02  0.98811218776E+02  0.00000000000E+00 0.  1.
         21   -1    0    0  503  504 -0.00000000000E+00 -0.00000000000E+00 -0.20578835495E+03  0.20578835495E+03  0.00000000000E+00 0.  1.
         25    2    1    2    0    0  0.51623579375E+02 -0.29977178850E+02 -0.89643381725E+02  0.16499397609E+03  0.12499380408E+03 0.  0.
         25    2    1    2    0    0 -0.51623579375E+02  0.29977178850E+02 -0.17333754451E+02  0.13960559764E+03  0.12500255457E+03 0.  0.
          5    1    3    3  501    0  0.35903917568E+02 -0.52542382626E+02 -0.11222680552E+03  0.12909972559E+03  0.47000000000E+01 0.  1.
         -5    1    3    3    0  501  0.15719661806E+02  0.22565203776E+02  0.22583423796E+02  0.35894250502E+02  0.47000000000E+01 0.  1.
          5    1    4    4  502    0  0.20505208252E+02  0.27129402216E+02  0.35990234952E+02  0.49737863263E+02  0.47000000000E+01 0. -1.
         -5    1    4    4    0  502 -0.72128787627E+02  0.28477766347E+01 -0.53323989403E+02  0.89867734378E+02  0.47000000000E+01 0. -1.
<mgrwt>
<rscale>  0 0.28519606E+03</rscale>
<asrwt>0</asrwt>
<pdfrwt beam="1">  1       21 0.15201726E-01 0.28519606E+03</pdfrwt>
<pdfrwt beam="2">  1       21 0.31659747E-01 0.28519606E+03</pdfrwt>
<totfact> 0.35987165E+05</totfact>
</mgrwt>
</event>
<event>
 8    1  0.4760912E-006  0.3600956E+03  0.7546771E-02  0.1058546E+00
         21   -1    0    0  504  503  0.00000000000E+00  0.00000000000E+00  0.42147330151E+03  0.42147330151E+03  0.00000000000E+00 0. -1.
         21   -1    0    0  503  504 -0.00000000000E+00 -0.00000000000E+00 -0.76914051494E+02  0.76914051494E+02  0.00000000000E+00 0. -1.
         25    2    1    2    0    0  0.45954988114E+01  0.12785658662E+03  0.14366190038E+03  0.22941499459E+03  0.12499629103E+03 0.  0.
         25    2    1    2    0    0 -0.45954988114E+01 -0.12785658662E+03  0.20089734963E+03  0.26897235841E+03  0.12497183342E+03 0.  0.
          5    1    3    3  501    0  0.35967352429E+02  0.10644683656E+03  0.15313214510E+03  0.18998979793E+03  0.47000000000E+01 0. -1.
         -5    1    3    3    0  501 -0.31371853617E+02  0.21409750060E+02 -0.94702447167E+01  0.39425196664E+02  0.47000000000E+01 0. -1.
          5    1    4    4  502    0  0.37254546135E+02  0.41296398026E+01  0.63273973984E+02  0.73692882400E+02  0.47000000000E+01 0. -1.
         -5    1    4    4    0  502 -0.41850044947E+02 -0.13198622642E+03  0.13762337565E+03  0.19527947601E+03  0.47000000000E+01 0. -1.
<mgrwt>
<rscale>  0 0.36009565E+03</rscale>
<asrwt>0</asrwt>
<pdfrwt beam="1">  1       21 0.64842045E-01 0.36009565E+03</pdfrwt>
<pdfrwt beam="2">  1       21 0.11832931E-01 0.36009565E+03</pdfrwt>
<totfact> 0.12556428E+05</totfact>
</mgrwt>
</event>
<event>
 8    1  0.4760912E-006  0.3587233E+03  0.7546771E-02  0.1059091E+00
         21   -1    0    0  504  503  0.00000000000E+00  0.00000000000E+00  0.54670549435E+03  0.54670549435E+03  0.00000000000E+00 0. -1.
         21   -1    0    0  503  504 -0.00000000000E+00 -0.00000000000E+00 -0.58844470044E+02  0.58844470044E+02  0.00000000000E+00 0. -1.
         25    2    1    2    0    0  0.10139502321E+02  0.11318767521E+03  0.14220427510E+03  0.22081728436E+03  0.12499583150E+03 0.  0.
         25    2    1    2    0    0 -0.10139502321E+02 -0.11318767521E+03  0.34565674920E+03  0.38473268003E+03  0.12500554981E+03 0.  0.
          5    1    3    3  501    0 -0.33586969368E+02  0.10887229934E+03  0.63407721053E+02  0.13047563437E+03  0.47000000000E+01 0. -1.
         -5    1    3    3    0  501  0.43726471689E+02  0.43153758700E+01  0.78796554044E+02  0.90341649998E+02  0.47000000000E+01 0. -1.
          5    1    4    4  502    0 -0.42316236744E+02  0.76603567515E+01  0.10267709873E+03  0.11141822814E+03  0.47000000000E+01 0. -1.
         -5    1    4    4    0  502  0.32176734423E+02 -0.12084803196E+03  0.24297965048E+03  0.27331445189E+03  0.47000000000E+01 0. -1.
<mgrwt>
<rscale>  0 0.35872326E+03</rscale>
<asrwt>0</asrwt>
<pdfrwt beam="1">  1       21 0.84108534E-01 0.35872326E+03</pdfrwt>
<pdfrwt beam="2">  1       21 0.90529958E-02 0.35872326E+03</pdfrwt>
<totfact> 0.11273982E+05</totfact>
</mgrwt>
</event>
<event>
 8    1  0.4760912E-006  0.2538806E+03  0.7546771E-02  0.1110877E+00
         21   -1    0    0  504  503  0.00000000000E+00  0.00000000000E+00  0.43965524367E+02  0.43965524367E+02  0.00000000000E+00 0.  1.
         21   -1    0    0  503  504 -0.00000000000E+00 -0.00000000000E+00 -0.36651068000E+03  0.36651068000E+03  0.00000000000E+00 0.  1.
         25    2    1    2    0    0  0.14018985237E+02  0.18684716622E+01 -0.18876579285E+03  0.22684486362E+03  0.12500417780E+03 0.  0.
         25    2    1    2    0    0 -0.14018985237E+02 -0.18684716622E+01 -0.13377936278E+03  0.18363134075E+03  0.12499411292E+03 0.  0.
          5    1    3    3  501    0 -0.24055466779E+02  0.14699064894E+02  0.49020833367E+01  0.28997386291E+02  0.47000000000E+01 0.  1.
         -5    1    3    3    0  501  0.38074452015E+02 -0.12830593232E+02 -0.19366787618E+03  0.19784747733E+03  0.47000000000E+01 0.  1.
          5    1    4    4  502    0  0.34800092072E+02 -0.36776760823E+02 -0.19489548014E+02  0.54456487462E+02  0.47000000000E+01 0. -1.
         -5    1    4    4    0  502 -0.48819077308E+02  0.34908289161E+02 -0.11428981477E+03  0.12917485329E+03  0.47000000000E+01 0. -1.
<mgrwt>
<rscale>  0 0.25388056E+03</rscale>
<asrwt>0</asrwt>
<pdfrwt beam="1">  1       21 0.67639270E-02 0.25388056E+03</pdfrwt>
<pdfrwt beam="2">  1       21 0.56386257E-01 0.25388056E+03</pdfrwt>
<totfact> 0.46873077E+05</totfact>
</mgrwt>
</event>
<event>
 8    1  0.4760912E-006  0.2947465E+03  0.7546771E-02  0.1087897E+00
         21   -1    0    0  504  503  0.00000000000E+00  0.00000000000E+00  0.49461600882E+02  0.49461600882E+02  0.00000000000E+00 0.  1.
         21   -1    0    0  503  504 -0.00000000000E+00 -0.00000000000E+00 -0.43910584588E+03  0.43910584588E+03  0.00000000000E+00 0.  1.
         25    2    1    2    0    0 -0.62088523288E+02 -0.46827636731E+02 -0.18378840066E+03  0.23548629757E+03  0.12501123085E+03 0.  0.
         25    2    1    2    0    0  0.62088523288E+02  0.46827636731E+02 -0.20585584434E+03  0.25308114920E+03  0.12500250855E+03 0.  0.
          5    1    3    3  501    0 -0.86922139081E+02  0.70954781982E+01 -0.10138877349E+03  0.13381919691E+03  0.47000000000E+01 0. -1.
         -5    1    3    3    0  501  0.24833615793E+02 -0.53923114929E+02 -0.82399627174E+02  0.10166710065E+03  0.47000000000E+01 0. -1.
          5    1    4    4  502    0  0.65312103501E+02 -0.27908223639E+02 -0.84973738735E+02  0.11084749021E+03  0.47000000000E+01 0.  1.
         -5    1    4    4    0  502 -0.32235802132E+01  0.74735860370E+02 -0.12088210561E+03  0.14223365899E+03  0.47000000000E+01 0.  1.
<mgrwt>
<rscale>  0 0.29474652E+03</rscale>
<asrwt>0</asrwt>
<pdfrwt beam="1">  1       21 0.76094772E-02 0.29474652E+03</pdfrwt>
<pdfrwt beam="2">  1       21 0.67554745E-01 0.29474652E+03</pdfrwt>
<totfact> 0.25541701E+05</totfact>
</mgrwt>
</event>
<event>
 8    1  0.4760912E-006  0.3486143E+03  0.7546771E-02  0.1063185E+00
         21   -1    0    0  504  503  0.00000000000E+00  0.00000000000E+00  0.44284665394E+03  0.44284665394E+03  0.00000000000E+00 0. -1.
         21   -1    0    0  503  504 -0.00000000000E+00 -0.00000000000E+00 -0.68608353117E+02  0.68608353117E+02  0.00000000000E+00 0. -1.
         25    2    1    2    0    0 -0.70274445376E+02  0.85035109850E+02  0.11247631151E+03  0.20111014120E+03  0.12499960264E+03 0.  0.
         25    2    1    2    0    0  0.70274445376E+02 -0.85035109850E+02  0.26176198931E+03  0.31034486586E+03  0.12500051656E+03 0.  0.
          5    1    3    3  501    0 -0.10339887549E+03  0.67071594187E+02  0.62283503154E+02  0.13817109309E+03  0.47000000000E+01 0.  1.
         -5    1    3    3    0  501  0.33124430118E+02  0.17963515663E+02  0.50192808360E+02  0.62939048108E+02  0.47000000000E+01 0.  1.
          5    1    4    4  502    0 -0.21043737430E+02  0.76144492539E+01  0.64445075992E+01  0.23757954471E+02  0.47000000000E+01 0. -1.
         -5    1    4    4    0  502  0.91318182806E+02 -0.92649559104E+02  0.25531748171E+03  0.28658691139E+03  0.47000000000E+01 0. -1.
<mgrwt>
<rscale>  0 0.34861428E+03</rscale>
<asrwt>0</asrwt>
<pdfrwt beam="1">  1       21 0.68130253E-01 0.34861428E+03</pdfrwt>
<pdfrwt beam="2">  1       21 0.10555132E-01 0.34861428E+03</pdfrwt>
<totfact> 0.13862677E+05</totfact>
</mgrwt>
</event>
<event>
 8    1  0.4760912E-006  0.4242275E+03  0.7546771E-02  0.1035699E+00
         21   -1    0    0  504  503  0.00000000000E+00  0.00000000000E+00  0.30851683337E+03  0.30851683337E+03  0.00000000000E+00 0.  1.
         21   -1    0    0  503  504 -0.00000000000E+00 -0.00000000000E+00 -0.14583401095E+03  0.14583401095E+03  0.00000000000E+00 0.  1.
         25    2    1    2    0    0 -0.10167132092E+03 -0.70936439894E+02  0.20805671340E+03  0.27254375180E+03  0.12499385845E+03 0.  0.
         25    2    1    2    0    0  0.10167132092E+03  0.70936439894E+02 -0.45373890974E+02  0.18180709252E+03  0.12500397156E+03 0.  0.
          5    1    3    3  501    0  0.17544795599E+02 -0.47756884694E+02  0.38736467493E+02  0.64118201801E+02  0.47000000000E+01 0. -1.
         -5    1    3    3    0  501 -0.11921611652E+03 -0.23179555199E+02  0.16932024591E+03  0.20842555000E+03  0.47000000000E+01 0. -1.
          5    1    4    4  502    0 -0.17056900073E+01  0.13784365371E+02 -0.60840581723E+02  0.62582621321E+02  0.47000000000E+01 0. -1.
         -5    1    4    4    0  502  0.10337701093E+03  0.57152074522E+02  0.15466690749E+02  0.11922447120E+03  0.47000000000E+01 0. -1.
<mgrwt>
<rscale>  0 0.42422752E+03</rscale>
<asrwt>0</asrwt>
<pdfrwt beam="1">  1       21 0.47464128E-01 0.42422752E+03</pdfrwt>
<pdfrwt beam="2">  1       21 0.22436002E-01 0.42422752E+03</pdfrwt>
<totfact> 0.73641529E+04</totfact>
</mgrwt>
</event>
<event>
 8    1  0.4760912E-006  0.2790509E+03  0.7546771E-02  0.1096208E+00
         21   -1    0    0  504  503  0.00000000000E+00  0.00000000000E+00  0.59780601461E+03  0.59780601461E+03  0.00000000000E+00 0. -1.
         21   -1    0    0  503  504 -0.00000000000E+00 -0.00000000000E+00 -0.32564668690E+02  0.32564668690E+02  0.00000000000E+00 0. -1.
         25    2    1    2    0    0 -0.44628637943E+02  0.36176819290E+02  0.33504605358E+03  0.36219427089E+03  0.12501341637E+03 0.  0.
         25    2    1    2    0    0  0.44628637943E+02 -0.36176819290E+02  0.23019529234E+03  0.26817641241E+03  0.12501295123E+03 0.  0.
          5    1    3    3  501    0 -0.20247322922E+02  0.42757042089E+02  0.33305376967E+03  0.33642981768E+03  0.47000000000E+01 0.  1.
         -5    1    3    3    0  501 -0.24381315021E+02 -0.65802227992E+01  0.19922839077E+01  0.25764453213E+02  0.47000000000E+01 0.  1.
          5    1    4    4  502    0 -0.45143587330E+01  0.23932338032E+02 -0.40907419578E+00  0.24807127608E+02  0.47000000000E+01 0. -1.
         -5    1    4    4    0  502  0.49142996676E+02 -0.60109157322E+02  0.23060436654E+03  0.24336928480E+03  0.47000000000E+01 0. -1.
<mgrwt>
<rscale>  0 0.27905093E+03</rscale>
<asrwt>0</asrwt>
<pdfrwt beam="1">  1       21 0.91970148E-01 0.27905093E+03</pdfrwt>
<pdfrwt beam="2">  1       21 0.50099495E-02 0.27905093E+03</pdfrwt>
<totfact> 0.26145359E+05</totfact>
</mgrwt>
</event>
<event>
 8    1  0.4760912E-006  0.3234610E+03  0.7546771E-02  0.1074067E+00
         21   -1    0    0  504  503  0.00000000000E+00  0.00000000000E+00  0.18060257495E+03  0.18060257495E+03  0.00000000000E+00 0.  1.
         21   -1    0    0  503  504 -0.00000000000E+00 -0.00000000000E+00 -0.14483045307E+03  0.14483045307E+03  0.00000000000E+00 0.  1.
         25    2    1    2    0    0  0.81964786522E+02 -0.34236281565E+02 -0.33864501297E+02  0.15701493517E+03  0.12496614027E+03 0.  0.
         25    2    1    2    0    0 -0.81964786522E+02  0.34236281565E+02  0.69636623178E+02  0.16841809286E+03  0.12500018204E+03 0.  0.
          5    1    3    3  501    0 -0.11029466184E+02  0.33516293047E+02  0.39417839450E+01  0.35813666171E+02  0.47000000000E+01 0. -1.
         -5    1    3    3    0  501  0.92994252706E+02 -0.67752574613E+02 -0.37806285242E+02  0.12120126900E+03  0.47000000000E+01 0. -1.
          5    1    4    4  502    0 -0.74487222812E+02  0.48335697158E+02 -0.77557452615E+01  0.89257647104E+02  0.47000000000E+01 0. -1.
         -5    1    4    4    0  502 -0.74775637095E+01 -0.14099415592E+02  0.77392368439E+02  0.79160445752E+02  0.47000000000E+01 0. -1.
<mgrwt>
<rscale>  0 0.32346099E+03</rscale>
<asrwt>0</asrwt>
<pdfrwt beam="1">  1       21 0.27785012E-01 0.32346099E+03</pdfrwt>
<pdfrwt beam="2">  1       21 0.22281608E-01 0.32346099E+03</pdfrwt>
<totfact> 0.22564026E+05</totfact>
</mgrwt>
</event>
<event>
 8    1  0.4760912E-006  0.2736753E+03  0.7546771E-02  0.1099194E+00
         21   -1    0    0  504  503  0.00000000000E+00  0.00000000000E+00  0.20343479069E+02  0.20343479069E+02  0.00000000000E+00 0.  1.
         21   -1    0    0  503  504 -0.00000000000E+00 -0.00000000000E+00 -0.92041999886E+03  0.92041999886E+03  0.00000000000E+00 0.  1.
         25    2    1    2    0    0  0.10599046348E+01 -0.17108126205E+02 -0.26797011091E+03  0.29618820891E+03  0.12500265347E+03 0.  0.
         25    2    1    2    0    0 -0.10599046348E+01  0.17108126205E+02 -0.63210640888E+03  0.64457526902E+03  0.12499981563E+03 0.  0.
          5    1    3    3  501    0  0.50258292599E+02 -0.69788808231E+01 -0.46302487161E+02  0.68852095609E+02  0.47000000000E+01 0. -1.
         -5    1    3    3    0  501 -0.49198387964E+02 -0.10129245382E+02 -0.22166762375E+03  0.22733611330E+03  0.47000000000E+01 0. -1.
          5    1    4    4  502    0  0.37754048999E+02  0.49390323711E+02 -0.19967749748E+03  0.20918404646E+03  0.47000000000E+01 0. -1.
         -5    1    4    4    0  502 -0.38813953634E+02 -0.32282197506E+02 -0.43242891140E+03  0.43539122256E+03  0.47000000000E+01 0. -1.
<mgrwt>
<rscale>  0 0.27367532E+03</rscale>
<asrwt>0</asrwt>
<pdfrwt beam="1">  1       21 0.31297666E-02 0.27367532E+03</pdfrwt>
<pdfrwt beam="2">  1       21 0.14160305E+00 0.27367532E+03</pdfrwt>
<totfact> 0.19912427E+05</totfact>
</mgrwt>
</event>
<event>
 8    1  0.4760912E-006  0.2597489E+03  0.7546771E-02  0.1107294E+00
         21   -1    0    0  504  503  0.00000000000E+00  0.00000000000E+00  0.22990762007E+02  0.22990762007E+02  0.00000000000E+00 0.  1.
         21   -1    0    0  503  504 -0.00000000000E+00 -0.00000000000E+00 -0.73365865912E+03  0.73365865912E+03  0.00000000000E+00 0.  1.
         25    2    1    2    0    0 -0.35151241029E+02 -0.23171413650E+01 -0.35486097509E+03  0.37788163869E+03  0.12500896897E+03 0.  0.
         25    2    1    2    0    0  0.35151241029E+02  0.23171413650E+01 -0.35580692202E+03  0.37876778244E+03  0.12500195345E+03 0.  0.
          5    1    3    3  501    0  0.20250929162E+02 -0.46831242518E+02 -0.89508724675E+02  0.10313664335E+03  0.47000000000E+01 0. -1.
         -5    1    3    3    0  501 -0.55402170191E+02  0.44514101153E+02 -0.26535225042E+03  0.27474499534E+03  0.47000000000E+01 0. -1.
          5    1    4    4  502    0 -0.40758439515E+02  0.21635342013E+02 -0.85132047553E+02  0.96947892892E+02  0.47000000000E+01 0. -1.
         -5    1    4    4    0  502  0.75909680543E+02 -0.19318200648E+02 -0.27067487446E+03  0.28181988954E+03  0.47000000000E+01 0. -1.
<mgrwt>
<rscale>  0 0.25974889E+03</rscale>
<asrwt>0</asrwt>
<pdfrwt beam="1">  1       21 0.35370406E-02 0.25974889E+03</pdfrwt>
<pdfrwt beam="2">  1       21 0.11287055E+00 0.25974889E+03</pdfrwt>
<totfact> 0.28946975E+05</totfact>
</mgrwt>
</event>
<event>
 8    1  0.4760912E-006  0.3542961E+03  0.7546771E-02  0.1060865E+00
         21   -1    0    0  504  503  0.00000000000E+00  0.00000000000E+00  0.14127729789E+03  0.14127729789E+03  0.00000000000E+00 0. -1.
         21   -1    0    0  503  504 -0.00000000000E+00 -0.00000000000E+00 -0.22212654039E+03  0.22212654039E+03  0.00000000000E+00 0. -1.
         25    2    1    2    0    0 -0.48902623496E+02  0.73107802464E+02  0.51431485111E+02  0.16126563870E+03  0.12500076480E+03 0.  0.
         25    2    1    2    0    0  0.48902623496E+02 -0.73107802464E+02 -0.13228072761E+03  0.20213819957E+03  0.12500177384E+03 0.  0.
          5    1    3    3  501    0 -0.94627835658E+01 -0.35545032897E+02  0.14695688662E+02  0.39887929273E+02  0.47000000000E+01 0. -1.
         -5    1    3    3    0  501 -0.39439839930E+02  0.10865283536E+03  0.36735796449E+02  0.12137770943E+03  0.47000000000E+01 0. -1.
          5    1    4    4  502    0 -0.16472055941E+02  0.25227977898E+02 -0.48448328354E+02  0.57246048038E+02  0.47000000000E+01 0. -1.
         -5    1    4    4    0  502  0.65374679437E+02 -0.98335780362E+02 -0.83832399255E+02  0.14489215153E+03  0.47000000000E+01 0. -1.
<mgrwt>
<rscale>  0 0.35429613E+03</rscale>
<asrwt>0</asrwt>
<pdfrwt beam="1">  1       21 0.21734969E-01 0.35429613E+03</pdfrwt>
<pdfrwt beam="2">  1       21 0.34173314E-01 0.35429613E+03</pdfrwt>
<totfact> 0.15604429E+05</totfact>
</mgrwt>
</event>
<event>
 8    1  0.4760912E-006  0.2571595E+03  0.7546771E-02  0.1108862E+00
         21   -1    0    0  504  503  0.00000000000E+00  0.00000000000E+00  0.30815223797E+03  0.30815223797E+03  0.00000000000E+00 0. -1.
         21   -1    0    0  503  504 -0.00000000000E+00 -0.00000000000E+00 -0.53651249348E+02  0.53651249348E+02  0.00000000000E+00 0. -1.
         25    2    1    2    0    0  0.23711647481E+01  0.26248788335E+02  0.10680207513E+03  0.16651704556E+03  0.12500648743E+03 0.  0.
         25    2    1    2    0    0 -0.23711647481E+01 -0.26248788335E+02  0.14769891349E+03  0.19528644175E+03  0.12500881559E+03 0.  0.
          5    1    3    3  501    0 -0.49269812055E+01  0.37672655484E+02 -0.16998906260E+02  0.41887431636E+02  0.47000000000E+01 0.  1.
         -5    1    3    3    0  501  0.72981459536E+01 -0.11423867149E+02  0.12380098139E+03  0.12462961393E+03  0.47000000000E+01 0.  1.
          5    1    4    4  502    0 -0.58965045240E+02 -0.26572895680E+01  0.10458816987E+03  0.12018615987E+03  0.47000000000E+01 0.  1.
         -5    1    4    4    0  502  0.56593880492E+02 -0.23591498767E+02  0.43110743625E+02  0.75100281884E+02  0.47000000000E+01 0.  1.
<mgrwt>
<rscale>  0 0.25715950E+03</rscale>
<asrwt>0</asrwt>
<pdfrwt beam="1">  1       21 0.47408035E-01 0.25715950E+03</pdfrwt>
<pdfrwt beam="2">  1       21 0.82540386E-02 0.25715950E+03</pdfrwt>
<totfact> 0.47727268E+05</totfact>
</mgrwt>
</event>
<event>
 8    1  0.4760912E-006  0.3768074E+03  0.7546771E-02  0.1052120E+00
         21   -1    0    0  504  503  0.00000000000E+00  0.00000000000E+00  0.54565778685E+03  0.54565778685E+03  0.00000000000E+00 0. -1.
         21   -1    0    0  503  504 -0.00000000000E+00 -0.00000000000E+00 -0.65051687546E+02  0.65051687546E+02  0.00000000000E+00 0. -1.
         25    2    1    2    0    0 -0.15638682603E+02 -0.13955519610E+03  0.22077672233E+03  0.29000099338E+03  0.12505196475E+03 0.  0.
         25    2    1    2    0    0  0.15638682603E+02  0.13955519610E+03  0.25982937697E+03  0.32070848101E+03  0.12498961359E+03 0.  0.
          5    1    3    3  501    0  0.11710249338E+02  0.14679558840E+02  0.12012749604E+00  0.19357784426E+02  0.47000000000E+01 0.  1.
         -5    1    3    3    0  501 -0.27348931941E+02 -0.15423475494E+03  0.22065659483E+03  0.27064320895E+03  0.47000000000E+01 0.  1.
          5    1    4    4  502    0 -0.16373008537E+02  0.20394393170E+02  0.15925325861E+03  0.16145493817E+03  0.47000000000E+01 0.  1.
         -5    1    4    4    0  502  0.32011691140E+02  0.11916080293E+03  0.10057611836E+03  0.15925354284E+03  0.47000000000E+01 0.  1.
<mgrwt>
<rscale>  0 0.37680743E+03</rscale>
<asrwt>0</asrwt>
<pdfrwt beam="1">  1       21 0.83947349E-01 0.37680743E+03</pdfrwt>
<pdfrwt beam="2">  1       21 0.10007952E-01 0.37680743E+03</pdfrwt>
<totfact> 0.94275689E+04</totfact>
</mgrwt>
</event>
<event>
 8    1  0.4760912E-006  0.2530225E+03  0.7546771E-02  0.1111409E+00
         21   -1    0    0  504  503  0.00000000000E+00  0.00000000000E+00  0.85313780980E+03  0.85313780980E+03  0.00000000000E+00 0. -1.
         21   -1    0    0  503  504 -0.00000000000E+00 -0.00000000000E+00 -0.18760271639E+02  0.18760271639E+02  0.00000000000E+00 0. -1.
         25    2    1    2    0    0  0.13996464123E+02  0.13570339700E+02  0.41940039232E+03  0.43806555194E+03  0.12499873439E+03 0.  0.
         25    2    1    2    0    0 -0.13996464123E+02 -0.13570339700E+02  0.41497714585E+03  0.43383252949E+03  0.12499830777E+03 0.  0.
          5    1    3    3  501    0  0.74148948042E+01 -0.51503030603E+01 -0.62387918705E+01  0.11938124249E+02  0.47000000000E+01 0. -1.
         -5    1    3    3    0  501  0.65815693186E+01  0.18720642760E+02  0.42563918419E+03  0.42612742770E+03  0.47000000000E+01 0. -1.
          5    1    4    4  502    0  0.10942313168E+02  0.23761910762E+02  0.36698574013E+03  0.36794698814E+03  0.47000000000E+01 0. -1.
         -5    1    4    4    0  502 -0.24938777291E+02 -0.37332250462E+02  0.47991405712E+02  0.65885541354E+02  0.47000000000E+01 0. -1.
<mgrwt>
<rscale>  0 0.25302251E+03</rscale>
<asrwt>0</asrwt>
<pdfrwt beam="1">  1       21 0.13125194E+00 0.25302251E+03</pdfrwt>
<pdfrwt beam="2">  1       21 0.28861963E-02 0.25302251E+03</pdfrwt>
<totfact> 0.27907514E+05</totfact>
</mgrwt>
</event>
<event>
 8    1  0.4760912E-006  0.3418616E+03  0.7546771E-02  0.1066006E+00
         21   -1    0    0  504  503  0.00000000000E+00  0.00000000000E+00  0.48866354107E+02  0.48866354107E+02  0.00000000000E+00 0. -1.
         21   -1    0    0  503  504 -0.00000000000E+00 -0.00000000000E+00 -0.59790312787E+03  0.59790312787E+03  0.00000000000E+00 0. -1.
         25    2    1    2    0    0 -0.55693355120E+02 -0.55141424843E+02 -0.11122459376E+03  0.18476565699E+03  0.12500044483E+03 0.  0.
         25    2    1    2    0    0  0.55693355120E+02  0.55141424843E+02 -0.43781217999E+03  0.46200382498E+03  0.12500281120E+03 0.  0.
          5    1    3    3  501    0  0.19468843589E+02 -0.52193859657E+02 -0.72849678009E+01  0.56377261484E+02  0.47000000000E+01 0. -1.
         -5    1    3    3    0  501 -0.75162198708E+02 -0.29475651868E+01 -0.10393962596E+03  0.12838839551E+03  0.47000000000E+01 0. -1.
          5    1    4    4  502    0  0.68232046678E+02  0.82542038038E+02 -0.25422549586E+03  0.27590123773E+03  0.47000000000E+01 0. -1.
         -5    1    4    4    0  502 -0.12538691558E+02 -0.27400613195E+02 -0.18358668414E+03  0.18610258725E+03  0.47000000000E+01 0. -1.
<mgrwt>
<rscale>  0 0.34186164E+03</rscale>
<asrwt>0</asrwt>
<pdfrwt beam="1">  1       21 0.75179007E-02 0.34186164E+03</pdfrwt>
<pdfrwt beam="2">  1       21 0.91985096E-01 0.34186164E+03</pdfrwt>
<totfact> 0.12745321E+05</totfact>
</mgrwt>
</event>
<event>
 8    1  0.4760912E-006  0.2699595E+03  0.7546771E-02  0.1101303E+00
         21   -1    0    0  504  503  0.00000000000E+00  0.00000000000E+00  0.25694057338E+03  0.25694057338E+03  0.00000000000E+00 0.  1.
         21   -1    0    0  503  504 -0.00000000000E+00 -0.00000000000E+00 -0.70909521951E+02  0.70909521951E+02  0.00000000000E+00 0.  1.
         25    2    1    2    0    0 -0.34743721608E+02  0.19301244265E+02  0.13159970006E+03  0.18580774571E+03  0.12500549223E+03 0.  0.
         25    2    1    2    0    0  0.34743721608E+02 -0.19301244265E+02  0.54431351364E+02  0.14204234962E+03  0.12503436669E+03 0.  0.
          5    1    3    3  501    0 -0.28993326763E+02  0.71629009855E+02  0.67351073109E+02  0.10261376661E+03  0.47000000000E+01 0.  1.
         -5    1    3    3    0  501 -0.57503948458E+01 -0.52327765590E+02  0.64248626955E+02  0.83193979098E+02  0.47000000000E+01 0.  1.
          5    1    4    4  502    0  0.51195801884E+02  0.33310824524E+01  0.85591508734E+02  0.99900463503E+02  0.47000000000E+01 0.  1.
         -5    1    4    4    0  502 -0.16452080276E+02 -0.22632326717E+02 -0.31160157369E+02  0.42141886115E+02  0.47000000000E+01 0.  1.
<mgrwt>
<rscale>  0 0.26995950E+03</rscale>
<asrwt>0</asrwt>
<pdfrwt beam="1">  1       21 0.39529318E-01 0.26995950E+03</pdfrwt>
<pdfrwt beam="2">  1       21 0.10909157E-01 0.26995950E+03</pdfrwt>
<totfact> 0.42216507E+05</totfact>
</mgrwt>
</event>
<event>
 8    1  0.4760912E-006  0.2549863E+03  0.7546771E-02  0.1110194E+00
         21   -1    0    0  504  503  0.00000000000E+00  0.00000000000E+00  0.22900931015E+02  0.22900931015E+02  0.00000000000E+00 0.  1.
         21   -1    0    0  503  504 -0.00000000000E+00 -0.00000000000E+00 -0.70977496796E+03  0.70977496796E+03  0.00000000000E+00 0.  1.
         25    2    1    2    0    0 -0.15606902883E+02  0.14310335565E+02 -0.38214155124E+03  0.40262322161E+03  0.12499972912E+03 0.  0.
         25    2    1    2    0    0  0.15606902883E+02 -0.14310335565E+02 -0.30473248571E+03  0.33005267736E+03  0.12499808345E+03 0.  0.
          5    1    3    3  501    0  0.38004300508E+02  0.58617284569E+00 -0.37727557387E+02  0.53759920406E+02  0.47000000000E+01 0.  1.
         -5    1    3    3    0  501 -0.53611203391E+02  0.13724162719E+02 -0.34441399385E+03  0.34886330121E+03  0.47000000000E+01 0.  1.
          5    1    4    4  502    0  0.24375285227E+02 -0.19750301047E+02 -0.74909968380E+01  0.32594998926E+02  0.47000000000E+01 0. -1.
         -5    1    4    4    0  502 -0.87683823444E+01  0.54399654818E+01 -0.29724148887E+03  0.29745767844E+03  0.47000000000E+01 0. -1.
<mgrwt>
<rscale>  0 0.25498633E+03</rscale>
<asrwt>0</asrwt>
<pdfrwt beam="1">  1       21 0.35232202E-02 0.25498633E+03</pdfrwt>
<pdfrwt beam="2">  1       21 0.10919615E+00 0.25498633E+03</pdfrwt>
<totfact> 0.31633288E+05</totfact>
</mgrwt>
</event>
<event>
 8    1  0.4760912E-006  0.2822620E+03  0.7546771E-02  0.1094460E+00
         21   -1    0    0  504  503  0.00000000000E+00  0.00000000000E+00  0.14322019945E+03  0.14322019945E+03  0.00000000000E+00 0.  1.
         21   -1    0    0  503  504 -0.00000000000E+00 -0.00000000000E+00 -0.13907228350E+03  0.13907228350E+03  0.00000000000E+00 0.  1.
         25    2    1    2    0    0  0.53233224395E+02 -0.37809314691E+02 -0.34971738902E+01  0.14107408456E+03  0.12500538650E+03 0.  0.
         25    2    1    2    0    0 -0.53233224395E+02  0.37809314691E+02  0.76450898455E+01  0.14121839839E+03  0.12498347165E+03 0.  0.
          5    1    3    3  501    0  0.29523749982E+02 -0.21898119933E+02  0.60438327484E+02  0.70894717001E+02  0.47000000000E+01 0.  1.
         -5    1    3    3    0  501  0.23709474413E+02 -0.15911194759E+02 -0.63935501374E+02  0.70179367563E+02  0.47000000000E+01 0.  1.
          5    1    4    4  502    0 -0.46290275921E+02  0.12291325210E+02  0.63243746164E+02  0.79471553081E+02  0.47000000000E+01 0.  1.
         -5    1    4    4    0  502 -0.69429484748E+01  0.25517989481E+02 -0.55598656318E+02  0.61746845305E+02  0.47000000000E+01 0.  1.
<mgrwt>
<rscale>  0 0.28226201E+03</rscale>
<asrwt>0</asrwt>
<pdfrwt beam="1">  1       21 0.22033877E-01 0.28226201E+03</pdfrwt>
<pdfrwt beam="2">  1       21 0.21395736E-01 0.28226201E+03</pdfrwt>
<totfact> 0.38418407E+05</totfact>
</mgrwt>
</event>
<event>
 8    1  0.4760912E-006  0.3205144E+03  0.7546771E-02  0.1075413E+00
         21   -1    0    0  504  503  0.00000000000E+00  0.00000000000E+00  0.18219324783E+02  0.18219324783E+02  0.00000000000E+00 0. -1.
         21   -1    0    0  503  504 -0.00000000000E+00 -0.00000000000E+00 -0.14096224579E+04  0.14096224579E+04  0.00000000000E+00 0. -1.
         25    2    1    2    0    0 -0.51170205365E+02 -0.77571363830E+00 -0.31154436881E+03  0.33956934950E+03  0.12501383018E+03 0.  0.
         25    2    1    2    0    0  0.51170205365E+02  0.77571363830E+00 -0.10798587643E+04  0.10882724332E+04  0.12499178500E+03 0.  0.
          5    1    3    3  501    0 -0.26516315332E+02  0.12167587506E+02 -0.29635439035E+01  0.29699120475E+02  0.47000000000E+01 0. -1.
         -5    1    3    3    0  501 -0.24653890033E+02 -0.12943301145E+02 -0.30858082490E+03  0.30987022903E+03  0.47000000000E+01 0. -1.
          5    1    4    4  502    0  0.56177973180E+02 -0.33143635177E+01 -0.18613505822E+03  0.19451298048E+03  0.47000000000E+01 0. -1.
         -5    1    4    4    0  502 -0.50077678149E+01  0.40900771560E+01 -0.89372370608E+03  0.89375945269E+03  0.47000000000E+01 0. -1.
<mgrwt>
<rscale>  0 0.32051440E+03</rscale>
<asrwt>0</asrwt>
<pdfrwt beam="1">  1       21 0.28029728E-02 0.32051440E+03</pdfrwt>
<pdfrwt beam="2">  1       21 0.21686501E+00 0.32051440E+03</pdfrwt>
<totfact> 0.69668118E+04</totfact>
</mgrwt>
</event>
<event>
 8    1  0.4760912E-006  0.2823820E+03  0.7546771E-02  0.1094395E+00
         21   -1    0    0  504  503  0.00000000000E+00  0.00000000000E+00  0.25565565436E+04  0.25565565436E+04  0.00000000000E+00 0. -1.
         21   -1    0    0  503  504 -0.00000000000E+00 -0.00000000000E+00 -0.77975597475E+01  0.77975597475E+01  0.00000000000E+00 0. -1.
         25    2    1    2    0    0  0.44851895524E+02 -0.20518333435E+02  0.88096868550E+03  0.89115872446E+03  0.12500141118E+03 0.  0.
         25    2    1    2    0    0 -0.44851895524E+02  0.20518333435E+02  0.16677902983E+04  0.16731953789E+04  0.12500240852E+03 0.  0.
          5    1    3    3  501    0 -0.11058948076E+02  0.64628138366E+01  0.76866488036E+01  0.15660231960E+02  0.47000000000E+01 0. -1.
         -5    1    3    3    0  501  0.55910843599E+02 -0.26981147271E+02  0.87328203670E+03  0.87549849250E+03  0.47000000000E+01 0. -1.
          5    1    4    4  502    0  0.30393289153E+02  0.44858001161E+02  0.76852615330E+03  0.77044826601E+03  0.47000000000E+01 0.  1.
         -5    1    4    4    0  502 -0.75245184676E+02 -0.24339667726E+02  0.89926414503E+03  0.90274711286E+03  0.47000000000E+01 0.  1.
<mgrwt>
<rscale>  0 0.28238203E+03</rscale>
<asrwt>0</asrwt>
<pdfrwt beam="1">  1       21 0.39331572E+00 0.28238203E+03</pdfrwt>
<pdfrwt beam="2">  1       21 0.11996266E-02 0.28238203E+03</pdfrwt>
<totfact> 0.24664774E+04</totfact>
</mgrwt>
</event>
<event>
 8    1  0.4760912E-006  0.2984464E+03  0.7546771E-02  0.1086020E+00
         21   -1    0    0  504  503  0.00000000000E+00  0.00000000000E+00  0.26926943458E+03  0.26926943458E+03  0.00000000000E+00 0. -1.
         21   -1    0    0  503  504 -0.00000000000E+00 -0.00000000000E+00 -0.82696203811E+02  0.82696203811E+02  0.00000000000E+00 0. -1.
         25    2    1    2    0    0  0.63698446023E+02  0.14926029821E+02  0.35972507670E+02  0.14560192529E+03  0.12500248376E+03 0.  0.
         25    2    1    2    0    0 -0.63698446023E+02 -0.14926029821E+02  0.15060072310E+03  0.20636371310E+03  0.12500050358E+03 0.  0.
          5    1    3    3  501    0 -0.90732134313E+00  0.24904471028E+02  0.68057694413E+02  0.72629165478E+02  0.47000000000E+01 0.  1.
         -5    1    3    3    0  501  0.64605767366E+02 -0.99784412067E+01 -0.32085186743E+02  0.72972759809E+02  0.47000000000E+01 0.  1.
          5    1    4    4  502    0 -0.86431472465E+02  0.23797859195E+02  0.12669814491E+03  0.15527796836E+03  0.47000000000E+01 0. -1.
         -5    1    4    4    0  502  0.22733026442E+02 -0.38723889016E+02  0.23902578190E+02  0.51085744742E+02  0.47000000000E+01 0. -1.
<mgrwt>
<rscale>  0 0.29844638E+03</rscale>
<asrwt>0</asrwt>
<pdfrwt beam="1">  1       21 0.41426067E-01 0.29844638E+03</pdfrwt>
<pdfrwt beam="2">  1       21 0.12722493E-01 0.29844638E+03</pdfrwt>
<totfact> 0.28916983E+05</totfact>
</mgrwt>
</event>
<event>
 8    1  0.4760912E-006  0.2844265E+03  0.7546771E-02  0.1093296E+00
         21   -1    0    0  504  503  0.00000000000E+00  0.00000000000E+00  0.42627300321E+03  0.42627300321E+03  0.00000000000E+00 0.  1.
         21   -1    0    0  503  504 -0.00000000000E+00 -0.00000000000E+00 -0.47445213359E+02  0.47445213359E+02  0.00000000000E+00 0.  1.
         25    2    1    2    0    0 -0.34087779577E+02 -0.29599105561E+02  0.10516781008E+03  0.16947820534E+03  0.12499804015E+03 0.  0.
         25    2    1    2    0    0  0.34087779577E+02  0.29599105561E+02  0.27365997977E+03  0.30424001123E+03  0.12503645924E+03 0.  0.
          5    1    3    3  501    0  0.14205832017E+02 -0.67072633408E+02  0.72946826823E+02  0.10021912671E+03  0.47000000000E+01 0. -1.
         -5    1    3    3    0  501 -0.48293611594E+02  0.37473527847E+02  0.32220983259E+02  0.69259078627E+02  0.47000000000E+01 0. -1.
          5    1    4    4  502    0 -0.42176152564E+02  0.21295179653E+02  0.56059282170E+02  0.73464587653E+02  0.47000000000E+01 0. -1.
         -5    1    4    4    0  502  0.76263932141E+02  0.83039259080E+01  0.21760069760E+03  0.23077542358E+03  0.47000000000E+01 0. -1.
<mgrwt>
<rscale>  0 0.28442654E+03</rscale>
<asrwt>0</asrwt>
<pdfrwt beam="1">  1       21 0.65580459E-01 0.28442654E+03</pdfrwt>
<pdfrwt beam="2">  1       21 0.72992639E-02 0.28442654E+03</pdfrwt>
<totfact> 0.29395343E+05</totfact>
</mgrwt>
</event>
<event>
 8    1  0.4760912E-006  0.3128540E+03  0.7546771E-02  0.1078986E+00
         21   -1    0    0  504  503  0.00000000000E+00  0.00000000000E+00  0.10844698085E+03  0.10844698085E+03  0.00000000000E+00 0.  1.
         21   -1    0    0  503  504 -0.00000000000E+00 -0.00000000000E+00 -0.22563479588E+03  0.22563479588E+03  0.00000000000E+00 0.  1.
         25    2    1    2    0    0 -0.93442567834E+01  0.92729572695E+02 -0.72054503701E+02  0.17176586976E+03  0.12500229488E+03 0.  0.
         25    2    1    2    0    0  0.93442567834E+01 -0.92729572695E+02 -0.45133311328E+02  0.16231590696E+03  0.12499339613E+03 0.  0.
          5    1    3    3  501    0 -0.26668471831E+02  0.81530125071E+02 -0.10309670870E+03  0.13419906866E+03  0.47000000000E+01 0. -1.
         -5    1    3    3    0  501  0.17324215048E+02  0.11199447623E+02  0.31042204999E+02  0.37566801106E+02  0.47000000000E+01 0. -1.
          5    1    4    4  502    0  0.65063666517E+02 -0.29887918661E+02 -0.18881733727E+02  0.74196888419E+02  0.47000000000E+01 0. -1.
         -5    1    4    4    0  502 -0.55719409734E+02 -0.62841654033E+02 -0.26251577601E+02  0.88119018545E+02  0.47000000000E+01 0. -1.
<mgrwt>
<rscale>  0 0.31285404E+03</rscale>
<asrwt>0</asrwt>
<pdfrwt beam="1">  1       21 0.16684151E-01 0.31285404E+03</pdfrwt>
<pdfrwt beam="2">  1       21 0.34713046E-01 0.31285404E+03</pdfrwt>
<totfact> 0.25087606E+05</totfact>
</mgrwt>
</event>
<event>
 8    1  0.4760912E-006  0.4164390E+03  0.7546771E-02  0.1038232E+00
         21   -1    0    0  504  503  0.00000000000E+00  0.00000000000E+00  0.23901980670E+03  0.23901980670E+03  0.00000000000E+00 0. -1.
         21   -1    0    0  503  504 -0.00000000000E+00 -0.00000000000E+00 -0.18138811894E+03  0.18138811894E+03  0.00000000000E+00 0. -1.
         25    2    1    2    0    0  0.15837977767E+02 -0.15448036986E+02 -0.13780609403E+03  0.18736574255E+03  0.12500367411E+03 0.  0.
         25    2    1    2    0    0 -0.15837977767E+02  0.15448036986E+02  0.19543778179E+03  0.23304218310E+03  0.12499299646E+03 0.  0.
          5    1    3    3  501    0 -0.36121608280E+02 -0.51800359835E+02 -0.66617639563E+02  0.91913262181E+02  0.47000000000E+01 0.  1.
         -5    1    3    3    0  501  0.51959586047E+02  0.36352322849E+02 -0.71188454466E+02  0.95452480366E+02  0.47000000000E+01 0.  1.
          5    1    4    4  502    0 -0.62939472807E+02 -0.15563012459E+02  0.13729784092E+03  0.15190909030E+03  0.47000000000E+01 0. -1.
         -5    1    4    4    0  502  0.47101495040E+02  0.31011049445E+02  0.58139940873E+02  0.81133092801E+02  0.47000000000E+01 0. -1.
<mgrwt>
<rscale>  0 0.41643897E+03</rscale>
<asrwt>0</asrwt>
<pdfrwt beam="1">  1       21 0.36772278E-01 0.41643897E+03</pdfrwt>
<pdfrwt beam="2">  1       21 0.27905865E-01 0.41643897E+03</pdfrwt>
<totfact> 0.81867777E+04</totfact>
</mgrwt>
</event>
<event>
 8    1  0.4760912E-006  0.2738711E+03  0.7546771E-02  0.1099084E+00
         21   -1    0    0  504  503  0.00000000000E+00  0.00000000000E+00  0.59443043382E+02  0.59443043382E+02  0.00000000000E+00 0. -1.
         21   -1    0    0  503  504 -0.00000000000E+00 -0.00000000000E+00 -0.31545071152E+03  0.31545071152E+03  0.00000000000E+00 0. -1.
         25    2    1    2    0    0  0.32002515415E+01  0.53557199598E+02 -0.14938509268E+03  0.20205320188E+03  0.12502389866E+03 0.  0.
         25    2    1    2    0    0 -0.32002515415E+01 -0.53557199598E+02 -0.10662257546E+03  0.17284055302E+03  0.12500747151E+03 0.  0.
          5    1    3    3  501    0  0.47338918997E+02  0.75316804425E+01 -0.10701942012E+02  0.49338838909E+02  0.47000000000E+01 0. -1.
         -5    1    3    3    0  501 -0.44138667456E+02  0.46025519156E+02 -0.13868315067E+03  0.15271436297E+03  0.47000000000E+01 0. -1.
          5    1    4    4  502    0 -0.26241812626E+02 -0.15020885481E+02  0.21235570662E+02  0.37246465495E+02  0.47000000000E+01 0. -1.
         -5    1    4    4    0  502  0.23041561084E+02 -0.38536314117E+02 -0.12785814612E+03  0.13559408752E+03  0.47000000000E+01 0. -1.
<mgrwt>
<rscale>  0 0.27387114E+03</rscale>
<asrwt>0</asrwt>
<pdfrwt beam="1">  1       21 0.91450837E-02 0.27387114E+03</pdfrwt>
<pdfrwt beam="2">  1       21 0.48530878E-01 0.27387114E+03</pdfrwt>
<totfact> 0.37817185E+05</totfact>
</mgrwt>
</event>
<event>
 8    1  0.4760912E-006  0.2541881E+03  0.7546771E-02  0.1110686E+00
         21   -1    0    0  504  503  0.00000000000E+00  0.00000000000E+00  0.38325350450E+03  0.38325350450E+03  0.00000000000E+00 0. -1.
         21   -1    0    0  503  504 -0.00000000000E+00 -0.00000000000E+00 -0.42146781430E+02  0.42146781430E+02  0.00000000000E+00 0. -1.
         25    2    1    2    0    0 -0.39045373423E+01  0.11660231657E+02  0.13786144230E+03  0.18647185775E+03  0.12495907349E+03 0.  0.
         25    2    1    2    0    0  0.39045373423E+01 -0.11660231657E+02  0.20324528077E+03  0.23892842818E+03  0.12500777264E+03 0.  0.
          5    1    3    3  501    0 -0.11212880574E+02  0.40473000792E+02 -0.30623646658E+01  0.42370515234E+02  0.47000000000E+01 0. -1.
         -5    1    3    3    0  501  0.73083432313E+01 -0.28812769135E+02  0.14092380696E+03  0.14410134251E+03  0.47000000000E+01 0. -1.
          5    1    4    4  502    0  0.49850926587E+02 -0.41723826538E+02  0.14372711127E+03  0.15781497108E+03  0.47000000000E+01 0.  1.
         -5    1    4    4    0  502 -0.45946389245E+02  0.30063594882E+02  0.59518169505E+02  0.81113457103E+02  0.47000000000E+01 0.  1.
<mgrwt>
<rscale>  0 0.25418813E+03</rscale>
<asrwt>0</asrwt>
<pdfrwt beam="1">  1       21 0.58962075E-01 0.25418813E+03</pdfrwt>
<pdfrwt beam="2">  1       21 0.64841205E-02 0.25418813E+03</pdfrwt>
<totfact> 0.45816133E+05</totfact>
</mgrwt>
</event>
<event>
 8    1  0.4760912E-006  0.3287775E+03  0.7546771E-02  0.1071679E+00
         21   -1    0    0  504  503  0.00000000000E+00  0.00000000000E+00  0.18800177987E+02  0.18800177987E+02  0.00000000000E+00 0. -1.
         21   -1    0    0  503  504 -0.00000000000E+00 -0.00000000000E+00 -0.14374149107E+04  0.14374149107E+04  0.00000000000E+00 0. -1.
         25    2    1    2    0    0  0.80869880643E+02 -0.37575949210E+02 -0.96933766060E+03  0.98142391648E+03  0.12500205609E+03 0.  0.
         25    2    1    2    0    0 -0.80869880643E+02  0.37575949210E+02 -0.44927707212E+03  0.47479117222E+03  0.12499952050E+03 0.  0.
          5    1    3    3  501    0  0.84741017272E+02 -0.31877559074E+02 -0.33556197148E+03  0.34759336226E+03  0.47000000000E+01 0.  1.
         -5    1    3    3    0  501 -0.38711366294E+01 -0.56983901357E+01 -0.63377568912E+03  0.63383055422E+03  0.47000000000E+01 0.  1.
          5    1    4    4  502    0 -0.67816292732E+02  0.78843161005E+02 -0.24990871116E+03  0.27072448635E+03  0.47000000000E+01 0.  1.
         -5    1    4    4    0  502 -0.13053587910E+02 -0.41267211795E+02 -0.19936836097E+03  0.20406668587E+03  0.47000000000E+01 0.  1.
<mgrwt>
<rscale>  0 0.32877747E+03</rscale>
<asrwt>0</asrwt>
<pdfrwt beam="1">  1       21 0.28923339E-02 0.32877747E+03</pdfrwt>
<pdfrwt beam="2">  1       21 0.22114085E+00 0.32877747E+03</pdfrwt>
<totfact> 0.61917476E+04</totfact>
</mgrwt>
</event>
<event>
 8    1  0.4760912E-006  0.3008112E+03  0.7546771E-02  0.1084836E+00
         21   -1    0    0  504  503  0.00000000000E+00  0.00000000000E+00  0.21007810243E+03  0.21007810243E+03  0.00000000000E+00 0. -1.
         21   -1    0    0  503  504 -0.00000000000E+00 -0.00000000000E+00 -0.10768301913E+03  0.10768301913E+03  0.00000000000E+00 0. -1.
         25    2    1    2    0    0  0.58624919550E+02 -0.56856477990E+02  0.70295907801E+02  0.16503480529E+03  0.12500172807E+03 0.  0.
         25    2    1    2    0    0 -0.58624919550E+02  0.56856477990E+02  0.32099175502E+02  0.15272631627E+03  0.12500172131E+03 0.  0.
          5    1    3    3  501    0  0.46210016793E+02  0.31840337794E+02  0.44324406182E+02  0.71665303643E+02  0.47000000000E+01 0.  1.
         -5    1    3    3    0  501  0.12414902757E+02 -0.88696815784E+02  0.25971501619E+02  0.93369501643E+02  0.47000000000E+01 0.  1.
          5    1    4    4  502    0 -0.78069951844E+02  0.82821486015E+00  0.47191178115E+02  0.91349332853E+02  0.47000000000E+01 0. -1.
         -5    1    4    4    0  502  0.19445032294E+02  0.56028263130E+02 -0.15092002613E+02  0.61376983415E+02  0.47000000000E+01 0. -1.
<mgrwt>
<rscale>  0 0.30081120E+03</rscale>
<asrwt>0</asrwt>
<pdfrwt beam="1">  1       21 0.32319708E-01 0.30081120E+03</pdfrwt>
<pdfrwt beam="2">  1       21 0.16566618E-01 0.30081120E+03</pdfrwt>
<totfact> 0.29384239E+05</totfact>
</mgrwt>
</event>
<event>
 8    1  0.4760912E-006  0.3376702E+03  0.7546771E-02  0.1067793E+00
         21   -1    0    0  504  503  0.00000000000E+00  0.00000000000E+00  0.21056124118E+03  0.21056124118E+03  0.00000000000E+00 0. -1.
         21   -1    0    0  503  504 -0.00000000000E+00 -0.00000000000E+00 -0.13537764639E+03  0.13537764639E+03  0.00000000000E+00 0. -1.
         25    2    1    2    0    0 -0.48827368860E+02 -0.87495816967E+02 -0.17077744769E+02  0.16106943475E+03  0.12494832335E+03 0.  0.
         25    2    1    2    0    0  0.48827368860E+02  0.87495816967E+02  0.92261339559E+02  0.18486945281E+03  0.12499971948E+03 0.  0.
          5    1    3    3  501    0  0.77754923559E+01 -0.85253568366E+02  0.26174595351E+02  0.89642783548E+02  0.47000000000E+01 0. -1.
         -5    1    3    3    0  501 -0.56602861216E+02 -0.22422486004E+01 -0.43252340119E+02  0.71426651205E+02  0.47000000000E+01 0. -1.
          5    1    4    4  502    0  0.90136129451E+02  0.51868879336E+02  0.71608382078E+02  0.12635170303E+03  0.47000000000E+01 0.  1.
         -5    1    4    4    0  502 -0.41308760591E+02  0.35626937631E+02  0.20652957481E+02  0.58517749779E+02  0.47000000000E+01 0.  1.
<mgrwt>
<rscale>  0 0.33767017E+03</rscale>
<asrwt>0</asrwt>
<pdfrwt beam="1">  1       21 0.32394037E-01 0.33767017E+03</pdfrwt>
<pdfrwt beam="2">  1       21 0.20827330E-01 0.33767017E+03</pdfrwt>
<totfact> 0.18899159E+05</totfact>
</mgrwt>
</event>
<event>
 8    1  0.4760912E-006  0.2834359E+03  0.7546771E-02  0.1093827E+00
         21   -1    0    0  504  503  0.00000000000E+00  0.00000000000E+00  0.59994690917E+02  0.59994690917E+02  0.00000000000E+00 0. -1.
         21   -1    0    0  503  504 -0.00000000000E+00 -0.00000000000E+00 -0.33476257399E+03  0.33476257399E+03  0.00000000000E+00 0. -1.
         25    2    1    2    0    0 -0.46621182406E+02  0.21775727905E+02 -0.78111450198E+02  0.15612358432E+03  0.12500183181E+03 0.  0.
         25    2    1    2    0    0  0.46621182406E+02 -0.21775727905E+02 -0.19665643288E+03  0.23863368059E+03  0.12499825576E+03 0.  0.
          5    1    3    3  501    0 -0.79477051952E+02  0.64731584845E+01 -0.87410394998E+02  0.11841102449E+03  0.47000000000E+01 0.  1.
         -5    1    3    3    0  501  0.32855869545E+02  0.15302569420E+02  0.92989448003E+01  0.37712559829E+02  0.47000000000E+01 0.  1.
          5    1    4    4  502    0  0.20161000216E+02 -0.61917608731E+02 -0.44544166672E+02  0.79034985830E+02  0.47000000000E+01 0. -1.
         -5    1    4    4    0  502  0.26460182190E+02  0.40141880826E+02 -0.15211226621E+03  0.15959869476E+03  0.47000000000E+01 0. -1.
<mgrwt>
<rscale>  0 0.28343590E+03</rscale>
<asrwt>0</asrwt>
<pdfrwt beam="1">  1       21 0.92299526E-02 0.28343590E+03</pdfrwt>
<pdfrwt beam="2">  1       21 0.51501934E-01 0.28343590E+03</pdfrwt>
<totfact> 0.32769230E+05</totfact>
</mgrwt>
</event>
<event>
 8    1  0.4760912E-006  0.2544801E+03  0.7546771E-02  0.1110506E+00
         21   -1    0    0  504  503  0.00000000000E+00  0.00000000000E+00  0.79087604369E+02  0.79087604369E+02  0.00000000000E+00 0. -1.
         21   -1    0    0  503  504 -0.00000000000E+00 -0.00000000000E+00 -0.20471008020E+03  0.20471008020E+03  0.00000000000E+00 0. -1.
         25    2    1    2    0    0  0.12443845493E+02 -0.17568035612E+02 -0.51558139575E+02  0.13691709024E+03  0.12499825070E+03 0.  0.
         25    2    1    2    0    0 -0.12443845493E+02  0.17568035612E+02 -0.74064336261E+02  0.14688059433E+03  0.12499959168E+03 0.  0.
          5    1    3    3  501    0  0.47740215057E+02  0.91047261942E+01  0.19911455133E+02  0.52731207253E+02  0.47000000000E+01 0. -1.
         -5    1    3    3    0  501 -0.35296369565E+02 -0.26672761807E+02 -0.71469594708E+02  0.84185882989E+02  0.47000000000E+01 0. -1.
          5    1    4    4  502    0  0.51573756536E+02  0.27141570342E+02 -0.18164247942E+02  0.61225379600E+02  0.47000000000E+01 0. -1.
         -5    1    4    4    0  502 -0.64017602029E+02 -0.95735347298E+01 -0.55900088319E+02  0.85655214732E+02  0.47000000000E+01 0. -1.
<mgrwt>
<rscale>  0 0.25448010E+03</rscale>
<asrwt>0</asrwt>
<pdfrwt beam="1">  1       21 0.12167324E-01 0.25448010E+03</pdfrwt>
<pdfrwt beam="2">  1       21 0.31493858E-01 0.25448010E+03</pdfrwt>
<totfact> 0.54839539E+05</totfact>
</mgrwt>
</event>
<event>
 8    1  0.4760912E-006  0.2690460E+03  0.7546771E-02  0.1101827E+00
         21   -1    0    0  504  503  0.00000000000E+00  0.00000000000E+00  0.66412711142E+03  0.66412711142E+03  0.00000000000E+00 0. -1.
         21   -1    0    0  503  504 -0.00000000000E+00 -0.00000000000E+00 -0.27248455695E+02  0.27248455695E+02  0.00000000000E+00 0. -1.
         25    2    1    2    0    0  0.45751976141E+00  0.20797520518E+02  0.43448686460E+03  0.45258882932E+03  0.12500026691E+03 0.  0.
         25    2    1    2    0    0 -0.45751976141E+00 -0.20797520518E+02  0.20239179113E+03  0.23878673780E+03  0.12499569133E+03 0.  0.
          5    1    3    3  501    0  0.30660528123E+02 -0.42142002825E+02  0.12936366894E+03  0.13954592516E+03  0.47000000000E+01 0.  1.
         -5    1    3    3    0  501 -0.30203008362E+02  0.62939523343E+02  0.30512319566E+03  0.31304290415E+03  0.47000000000E+01 0.  1.
          5    1    4    4  502    0 -0.37331097758E+02  0.39156051202E+02  0.10868171057E+03  0.12149325668E+03  0.47000000000E+01 0.  1.
         -5    1    4    4    0  502  0.36873577997E+02 -0.59953571720E+02  0.93710080552E+02  0.11729348112E+03  0.47000000000E+01 0.  1.
<mgrwt>
<rscale>  0 0.26904600E+03</rscale>
<asrwt>0</asrwt>
<pdfrwt beam="1">  1       21 0.10217339E+00 0.26904600E+03</pdfrwt>
<pdfrwt beam="2">  1       21 0.41920706E-02 0.26904600E+03</pdfrwt>
<totfact> 0.27635732E+05</totfact>
</mgrwt>
</event>
<event>
 8    1  0.4760912E-006  0.4106487E+03  0.7546771E-02  0.1040154E+00
         21   -1    0    0  504  503  0.00000000000E+00  0.00000000000E+00  0.89689961191E+02  0.89689961191E+02  0.00000000000E+00 0.  1.
         21   -1    0    0  503  504 -0.00000000000E+00 -0.00000000000E+00 -0.47004245597E+03  0.47004245597E+03  0.00000000000E+00 0.  1.
         25    2    1    2    0    0 -0.41650927560E+02  0.90990793573E+02 -0.14987032025E+02  0.16082022213E+03  0.12499763372E+03 0.  0.
         25    2    1    2    0    0  0.41650927560E+02 -0.90990793573E+02 -0.36536546276E+03  0.39891219503E+03  0.12499957475E+03 0.  0.
          5    1    3    3  501    0  0.34396540224E+00  0.19295631722E+02  0.50923209697E+02  0.54659884757E+02  0.47000000000E+01 0.  1.
         -5    1    3    3    0  501 -0.41994892962E+02  0.71695161851E+02 -0.65910241722E+02  0.10616033738E+03  0.47000000000E+01 0.  1.
          5    1    4    4  502    0 -0.29718368609E+02 -0.16584218199E+02 -0.20735211822E+03  0.21017899195E+03  0.47000000000E+01 0. -1.
         -5    1    4    4    0  502  0.71369296169E+02 -0.74406575375E+02 -0.15801334454E+03  0.18873320309E+03  0.47000000000E+01 0. -1.
<mgrwt>
<rscale>  0 0.41064870E+03</rscale>
<asrwt>0</asrwt>
<pdfrwt beam="1">  1       21 0.13798456E-01 0.41064870E+03</pdfrwt>
<pdfrwt beam="2">  1       21 0.72314221E-01 0.41064870E+03</pdfrwt>
<totfact> 0.73501199E+04</totfact>
</mgrwt>
</event>
<event>
 8    1  0.4760912E-006  0.2616205E+03  0.7546771E-02  0.1106174E+00
         21   -1    0    0  504  503  0.00000000000E+00  0.00000000000E+00  0.90732806425E+02  0.90732806425E+02  0.00000000000E+00 0. -1.
         21   -1    0    0  503  504 -0.00000000000E+00 -0.00000000000E+00 -0.18859020925E+03  0.18859020925E+03  0.00000000000E+00 0. -1.
         25    2    1    2    0    0 -0.17844890328E+00  0.27495505185E+02 -0.20079635434E+02  0.12955595753E+03  0.12500207888E+03 0.  0.
         25    2    1    2    0    0  0.17844890328E+00 -0.27495505185E+02 -0.77777767391E+02  0.14976705814E+03  0.12499902382E+03 0.  0.
          5    1    3    3  501    0 -0.61535698457E+02  0.70636315330E+01 -0.18036830675E+02  0.64683493535E+02  0.47000000000E+01 0.  1.
         -5    1    3    3    0  501  0.61357249554E+02  0.20431873652E+02 -0.20428047592E+01  0.64872463997E+02  0.47000000000E+01 0.  1.
          5    1    4    4  502    0 -0.33465859906E+01 -0.75143526095E+02 -0.27436570016E+02  0.80203519412E+02  0.47000000000E+01 0.  1.
         -5    1    4    4    0  502  0.35250348939E+01  0.47648020910E+02 -0.50341197375E+02  0.69563538731E+02  0.47000000000E+01 0.  1.
<mgrwt>
<rscale>  0 0.26162048E+03</rscale>
<asrwt>0</asrwt>
<pdfrwt beam="1">  1       21 0.13958893E-01 0.26162048E+03</pdfrwt>
<pdfrwt beam="2">  1       21 0.29013878E-01 0.26162048E+03</pdfrwt>
<totfact> 0.50164385E+05</totfact>
</mgrwt>
</event>
<event>
 8    1  0.4760912E-006  0.3459746E+03  0.7546771E-02  0.1064279E+00
         21   -1    0    0  504  503  0.00000000000E+00  0.00000000000E+00  0.13812141494E+04  0.13812141494E+04  0.00000000000E+00 0.  1.
         21   -1    0    0  503  504 -0.00000000000E+00 -0.00000000000E+00 -0.21665437953E+02  0.21665437953E+02  0.00000000000E+00 0.  1.
         25    2    1    2    0    0 -0.60154396133E+02  0.56699688828E+02  0.10301524042E+04  0.10409957442E+04  0.12499902993E+03 0.  0.
         25    2    1    2    0    0  0.60154396133E+02 -0.56699688828E+02  0.32939630716E+03  0.36188384307E+03  0.12499833044E+03 0.  0.
          5    1    3    3  501    0  0.12825823256E+02 -0.11385647409E+02  0.56282630120E+03  0.56310715680E+03  0.47000000000E+01 0. -1.
         -5    1    3    3    0  501 -0.72980219389E+02  0.68085336237E+02  0.46732610304E+03  0.47788858745E+03  0.47000000000E+01 0. -1.
          5    1    4    4  502    0 -0.22098925685E+01 -0.17853345011E+02 -0.51810815616E+01  0.19301791611E+02  0.47000000000E+01 0.  1.
         -5    1    4    4    0  502  0.62364288701E+02 -0.38846343818E+02  0.33457738872E+03  0.34258205146E+03  0.47000000000E+01 0.  1.
<mgrwt>
<rscale>  0 0.34597462E+03</rscale>
<asrwt>0</asrwt>
<pdfrwt beam="1">  1       21 0.21249442E+00 0.34597462E+03</pdfrwt>
<pdfrwt beam="2">  1       21 0.33331454E-02 0.34597462E+03</pdfrwt>
<totfact> 0.55012278E+04</totfact>
</mgrwt>
</event>
<event>
 8    1  0.4760912E-006  0.4762276E+03  0.7546771E-02  0.1020177E+00
         21   -1    0    0  504  503  0.00000000000E+00  0.00000000000E+00  0.25576942624E+02  0.25576942624E+02  0.00000000000E+00 0. -1.
         21   -1    0    0  503  504 -0.00000000000E+00 -0.00000000000E+00 -0.22167695070E+04  0.22167695070E+04  0.00000000000E+00 0. -1.
         25    2    1    2    0    0  0.15287849480E+02  0.13747176636E+03 -0.17930518743E+04  0.18027184126E+04  0.12500578575E+03 0.  0.
         25    2    1    2    0    0 -0.15287849480E+02 -0.13747176636E+03 -0.39814069010E+03  0.43962803701E+03  0.12499838767E+03 0.  0.
          5    1    3    3  501    0 -0.40382789220E+02  0.36452592957E+02 -0.28035385448E+03  0.28562201407E+03  0.47000000000E+01 0. -1.
         -5    1    3    3    0  501  0.55670638700E+02  0.10101917340E+03 -0.15126980198E+04  0.15170963986E+04  0.47000000000E+01 0. -1.
          5    1    4    4  502    0 -0.39032386116E+02 -0.68561822462E+02 -0.33138609719E+03  0.34068032828E+03  0.47000000000E+01 0. -1.
         -5    1    4    4    0  502  0.23744536636E+02 -0.68909943893E+02 -0.66754592911E+02  0.98947708726E+02  0.47000000000E+01 0. -1.
<mgrwt>
<rscale>  0 0.47622762E+03</rscale>
<asrwt>0</asrwt>
<pdfrwt beam="1">  1       21 0.39349151E-02 0.47622762E+03</pdfrwt>
<pdfrwt beam="2">  1       21 0.34104139E+00 0.47622762E+03</pdfrwt>
<totfact> 0.64704096E+03</totfact>
</mgrwt>
</event>
<event>
 8    1  0.4760912E-006  0.3510607E+03  0.7546771E-02  0.1062181E+00
         21   -1    0    0  504  503  0.00000000000E+00  0.00000000000E+00  0.24109367006E+04  0.24109367006E+04  0.00000000000E+00 0. -1.
         21   -1    0    0  503  504 -0.00000000000E+00 -0.00000000000E+00 -0.12779641452E+02  0.12779641452E+02  0.00000000000E+00 0. -1.
         25    2    1    2    0    0 -0.26758533833E+02  0.83504222244E+02  0.17968347035E+04  0.18033103649E+04  0.12499738466E+03 0.  0.
         25    2    1    2    0    0  0.26758533833E+02 -0.83504222244E+02  0.60132235565E+03  0.62040597716E+03  0.12500410723E+03 0.  0.
          5    1    3    3  501    0  0.49840045371E+02  0.30659213976E+02  0.60650627805E+03  0.60934060495E+03  0.47000000000E+01 0. -1.
         -5    1    3    3    0  501 -0.76598579204E+02  0.52845008267E+02  0.11903284254E+04  0.11939697599E+04  0.47000000000E+01 0. -1.
          5    1    4    4  502    0  0.38566584953E+02 -0.10624953568E+03  0.56173531936E+03  0.57301396520E+03  0.47000000000E+01 0.  1.
         -5    1    4    4    0  502 -0.11808051120E+02  0.22745313434E+02  0.39587036290E+02  0.47392011950E+02  0.47000000000E+01 0.  1.
<mgrwt>
<rscale>  0 0.35106072E+03</rscale>
<asrwt>0</asrwt>
<pdfrwt beam="1">  1       21 0.37091298E+00 0.35106072E+03</pdfrwt>
<pdfrwt beam="2">  1       21 0.19661006E-02 0.35106072E+03</pdfrwt>
<totfact> 0.14497967E+04</totfact>
</mgrwt>
</event>
<event>
 8    1  0.4760912E-006  0.3011344E+03  0.7546771E-02  0.1084675E+00
         21   -1    0    0  504  503  0.00000000000E+00  0.00000000000E+00  0.12573853732E+03  0.12573853732E+03  0.00000000000E+00 0. -1.
         21   -1    0    0  503  504 -0.00000000000E+00 -0.00000000000E+00 -0.18029859784E+03  0.18029859784E+03  0.00000000000E+00 0. -1.
         25    2    1    2    0    0 -0.48878981478E+02  0.63691089979E+02 -0.52250455792E+02  0.15748102085E+03  0.12499780808E+03 0.  0.
         25    2    1    2    0    0  0.48878981478E+02 -0.63691089979E+02 -0.23096047250E+01  0.14855611432E+03  0.12497149696E+03 0.  0.
          5    1    3    3  501    0 -0.43468093527E+02 -0.26399514883E+02  0.36682400778E+01  0.51205034188E+02  0.47000000000E+01 0. -1.
         -5    1    3    3    0  501 -0.54108879511E+01  0.90090604862E+02 -0.55918695869E+02  0.10627598666E+03  0.47000000000E+01 0. -1.
          5    1    4    4  502    0  0.71103830335E+02 -0.83511053337E+02  0.19298502563E+02  0.11146467117E+03  0.47000000000E+01 0.  1.
         -5    1    4    4    0  502 -0.22224848857E+02  0.19819963357E+02 -0.21608107288E+02  0.37091443147E+02  0.47000000000E+01 0.  1.
<mgrwt>
<rscale>  0 0.30113440E+03</rscale>
<asrwt>0</asrwt>
<pdfrwt beam="1">  1       21 0.19344390E-01 0.30113440E+03</pdfrwt>
<pdfrwt beam="2">  1       21 0.27738246E-01 0.30113440E+03</pdfrwt>
<totfact> 0.29724246E+05</totfact>
</mgrwt>
</event>
<event>
 8    1  0.4760912E-006  0.2805908E+03  0.7546771E-02  0.1095367E+00
         21   -1    0    0  504  503  0.00000000000E+00  0.00000000000E+00  0.31476196458E+03  0.31476196458E+03  0.00000000000E+00 0.  1.
         21   -1    0    0  503  504 -0.00000000000E+00 -0.00000000000E+00 -0.62532319356E+02  0.62532319356E+02  0.00000000000E+00 0.  1.
         25    2    1    2    0    0 -0.23977128259E+02 -0.59010088245E+02  0.12727885500E+03  0.18942572229E+03  0.12500041656E+03 0.  0.
         25    2    1    2    0    0  0.23977128259E+02  0.59010088245E+02  0.12495079023E+03  0.18786856165E+03  0.12499921313E+03 0.  0.
          5    1    3    3  501    0 -0.58882610586E+02 -0.51861811093E+02  0.27345604041E+02  0.83226686463E+02  0.47000000000E+01 0. -1.
         -5    1    3    3    0  501  0.34905482327E+02 -0.71482771517E+01  0.99933250960E+02  0.10619903582E+03  0.47000000000E+01 0. -1.
          5    1    4    4  502    0  0.68087040963E+02  0.51892016192E+02  0.46680340837E+02  0.97620544519E+02  0.47000000000E+01 0.  1.
         -5    1    4    4    0  502 -0.44109912704E+02  0.71180720530E+01  0.78270449390E+02  0.90248017131E+02  0.47000000000E+01 0.  1.
<mgrwt>
<rscale>  0 0.28059077E+03</rscale>
<asrwt>0</asrwt>
<pdfrwt beam="1">  1       21 0.48424917E-01 0.28059077E+03</pdfrwt>
<pdfrwt beam="2">  1       21 0.96203570E-02 0.28059077E+03</pdfrwt>
<totfact> 0.34680416E+05</totfact>
</mgrwt>
</event>
<event>
 8    1  0.4760912E-006  0.3470286E+03  0.7546771E-02  0.1063841E+00
         21   -1    0    0  504  503  0.00000000000E+00  0.00000000000E+00  0.23747886424E+03  0.23747886424E+03  0.00000000000E+00 0.  1.
         21   -1    0    0  503  504 -0.00000000000E+00 -0.00000000000E+00 -0.12677848170E+03  0.12677848170E+03  0.00000000000E+00 0.  1.
         25    2    1    2    0    0 -0.13950165031E+02 -0.10341862663E+03 -0.75779416618E+01  0.16300923767E+03  0.12499826769E+03 0.  0.
         25    2    1    2    0    0  0.13950165031E+02  0.10341862663E+03  0.11827832420E+03  0.20124810827E+03  0.12498407766E+03 0.  0.
          5    1    3    3  501    0  0.48444904194E+02 -0.17513949426E+02  0.16004858878E+02  0.54146954435E+02  0.47000000000E+01 0. -1.
         -5    1    3    3    0  501 -0.62395069225E+02 -0.85904677208E+02 -0.23582800539E+02  0.10886228323E+03  0.47000000000E+01 0. -1.
          5    1    4    4  502    0 -0.36284064088E+01 -0.27722229745E+02  0.95153750836E+01  0.29905178784E+02  0.47000000000E+01 0.  1.
         -5    1    4    4    0  502  0.17578571439E+02  0.13114085638E+03  0.10876294912E+03  0.17134292949E+03  0.47000000000E+01 0.  1.
<mgrwt>
<rscale>  0 0.34702859E+03</rscale>
<asrwt>0</asrwt>
<pdfrwt beam="1">  1       21 0.36535210E-01 0.34702859E+03</pdfrwt>
<pdfrwt beam="2">  1       21 0.19504382E-01 0.34702859E+03</pdfrwt>
<totfact> 0.16776501E+05</totfact>
</mgrwt>
</event>
<event>
 8    1  0.4760912E-006  0.3140841E+03  0.7546771E-02  0.1078405E+00
         21   -1    0    0  504  503  0.00000000000E+00  0.00000000000E+00  0.15648177592E+03  0.15648177592E+03  0.00000000000E+00 0.  1.
         21   -1    0    0  503  504 -0.00000000000E+00 -0.00000000000E+00 -0.15760435239E+03  0.15760435239E+03  0.00000000000E+00 0.  1.
         25    2    1    2    0    0  0.94582541497E+01  0.67020028988E+02 -0.67302886241E+02  0.15727216097E+03  0.12499484494E+03 0.  0.
         25    2    1    2    0    0 -0.94582541497E+01 -0.67020028988E+02  0.66180309769E+02  0.15681396734E+03  0.12501857500E+03 0.  0.
          5    1    3    3  501    0 -0.13922654920E+01  0.89528890023E+02 -0.47951320704E+01  0.89791112274E+02  0.47000000000E+01 0. -1.
         -5    1    3    3    0  501  0.10850519642E+02 -0.22508861035E+02 -0.62507754170E+02  0.67481048695E+02  0.47000000000E+01 0. -1.
          5    1    4    4  502    0  0.48303969226E+02 -0.20212661161E+02 -0.62116113010E+01  0.52938636449E+02  0.47000000000E+01 0. -1.
         -5    1    4    4    0  502 -0.57762223375E+02 -0.46807367827E+02  0.72391921070E+02  0.10387533089E+03  0.47000000000E+01 0. -1.
<mgrwt>
<rscale>  0 0.31408412E+03</rscale>
<asrwt>0</asrwt>
<pdfrwt beam="1">  1       21 0.24074119E-01 0.31408412E+03</pdfrwt>
<pdfrwt beam="2">  1       21 0.24246823E-01 0.31408412E+03</pdfrwt>
<totfact> 0.25383098E+05</totfact>
</mgrwt>
</event>
<event>
 8    1  0.4760912E-006  0.2592307E+03  0.7546771E-02  0.1107606E+00
         21   -1    0    0  504  503  0.00000000000E+00  0.00000000000E+00  0.11680593709E+03  0.11680593709E+03  0.00000000000E+00 0. -1.
         21   -1    0    0  503  504 -0.00000000000E+00 -0.00000000000E+00 -0.14382945748E+03  0.14382945748E+03  0.00000000000E+00 0. -1.
         25    2    1    2    0    0  0.66785699438E+01  0.32140889167E+02 -0.38317085852E+01  0.12933245583E+03  0.12503824250E+03 0.  0.
         25    2    1    2    0    0 -0.66785699438E+01 -0.32140889167E+02 -0.23191811812E+02  0.13130293874E+03  0.12499984614E+03 0.  0.
          5    1    3    3  501    0  0.17137278795E+02  0.78983078399E+02 -0.26594046425E-01  0.80957419087E+02  0.47000000000E+01 0. -1.
         -5    1    3    3    0  501 -0.10458708852E+02 -0.46842189232E+02 -0.38051145388E+01  0.48375036740E+02  0.47000000000E+01 0. -1.
          5    1    4    4  502    0  0.56671072736E+02  0.18863907037E+01 -0.59616376405E+01  0.57208391677E+02  0.47000000000E+01 0. -1.
         -5    1    4    4    0  502 -0.63349642680E+02 -0.34027279871E+02 -0.17230174171E+02  0.74094547067E+02  0.47000000000E+01 0. -1.
<mgrwt>
<rscale>  0 0.25923067E+03</rscale>
<asrwt>0</asrwt>
<pdfrwt beam="1">  1       21 0.17970144E-01 0.25923067E+03</pdfrwt>
<pdfrwt beam="2">  1       21 0.22127609E-01 0.25923067E+03</pdfrwt>
<totfact> 0.53109350E+05</totfact>
</mgrwt>
</event>
<event>
 8    1  0.4760912E-006  0.3051503E+03  0.7546771E-02  0.1082694E+00
         21   -1    0    0  504  503  0.00000000000E+00  0.00000000000E+00  0.23911806339E+03  0.23911806339E+03  0.00000000000E+00 0. -1.
         21   -1    0    0  503  504 -0.00000000000E+00 -0.00000000000E+00 -0.97354303254E+02  0.97354303254E+02  0.00000000000E+00 0. -1.
         25    2    1    2    0    0  0.45952002484E+02 -0.32655051967E+02 -0.28839020917E+01  0.13715770962E+03  0.12500392580E+03 0.  0.
         25    2    1    2    0    0 -0.45952002484E+02  0.32655051967E+02  0.14464766223E+03  0.19931465702E+03  0.12500178944E+03 0.  0.
          5    1    3    3  501    0 -0.17223219896E+02 -0.36373007822E+02 -0.45339759959E+02  0.60806404554E+02  0.47000000000E+01 0.  1.
         -5    1    3    3    0  501  0.63175222381E+02  0.37179558551E+01  0.42455857867E+02  0.76351305070E+02  0.47000000000E+01 0.  1.
          5    1    4    4  502    0 -0.36213301960E+02 -0.30558487593E+02  0.78887475874E+01  0.48265378288E+02  0.47000000000E+01 0. -1.
         -5    1    4    4    0  502 -0.97387005244E+01  0.63213539560E+02  0.13675891464E+03  0.15104927873E+03  0.47000000000E+01 0. -1.
<mgrwt>
<rscale>  0 0.30515027E+03</rscale>
<asrwt>0</asrwt>
<pdfrwt beam="1">  1       21 0.36787394E-01 0.30515027E+03</pdfrwt>
<pdfrwt beam="2">  1       21 0.14977585E-01 0.30515027E+03</pdfrwt>
<totfact> 0.27291025E+05</totfact>
</mgrwt>
</event>
<event>
 8    1  0.4760912E-006  0.2692494E+03  0.7546771E-02  0.1101710E+00
         21   -1    0    0  504  503  0.00000000000E+00  0.00000000000E+00  0.68787737676E+02  0.68787737676E+02  0.00000000000E+00 0. -1.
         21   -1    0    0  503  504 -0.00000000000E+00 -0.00000000000E+00 -0.26347446120E+03  0.26347446120E+03  0.00000000000E+00 0. -1.
         25    2    1    2    0    0 -0.13014087282E+02  0.27954481772E+02 -0.14586896291E+03  0.19457048297E+03  0.12501639487E+03 0.  0.
         25    2    1    2    0    0  0.13014087282E+02 -0.27954481772E+02 -0.48817760614E+02  0.13769171590E+03  0.12500006143E+03 0.  0.
          5    1    3    3  501    0  0.25001619045E+02 -0.23944856772E+02 -0.12015277276E+03  0.12512879733E+03  0.47000000000E+01 0. -1.
         -5    1    3    3    0  501 -0.38015706327E+02  0.51899338544E+02 -0.25716190147E+02  0.69441685640E+02  0.47000000000E+01 0. -1.
          5    1    4    4  502    0  0.21931876241E+02 -0.60196246717E+02  0.14564189091E+02  0.65869575057E+02  0.47000000000E+01 0. -1.
         -5    1    4    4    0  502 -0.89177889590E+01  0.32241764945E+02 -0.63381949704E+02  0.71822140841E+02  0.47000000000E+01 0. -1.
<mgrwt>
<rscale>  0 0.26924942E+03</rscale>
<asrwt>0</asrwt>
<pdfrwt beam="1">  1       21 0.10582729E-01 0.26924942E+03</pdfrwt>
<pdfrwt beam="2">  1       21 0.40534533E-01 0.26924942E+03</pdfrwt>
<totfact> 0.42356418E+05</totfact>
</mgrwt>
</event>
<event>
 8    1  0.4760912E-006  0.3382777E+03  0.7546771E-02  0.1067532E+00
         21   -1    0    0  504  503  0.00000000000E+00  0.00000000000E+00  0.72246304978E+03  0.72246304978E+03  0.00000000000E+00 0. -1.
         21   -1    0    0  503  504 -0.00000000000E+00 -0.00000000000E+00 -0.39597814227E+02  0.39597814227E+02  0.00000000000E+00 0. -1.
         25    2    1    2    0    0  0.89523114082E+02  0.69785608134E+02  0.31870095841E+03  0.36065548735E+03  0.12497063898E+03 0.  0.
         25    2    1    2    0    0 -0.89523114082E+02 -0.69785608134E+02  0.36416427715E+03  0.40140537666E+03  0.12500494632E+03 0.  0.
          5    1    3    3  501    0  0.44228045902E+02 -0.20115790541E+02  0.36359180776E+02  0.60867438751E+02  0.47000000000E+01 0. -1.
         -5    1    3    3    0  501  0.45295068180E+02  0.89901398674E+02  0.28234177763E+03  0.29978804860E+03  0.47000000000E+01 0. -1.
          5    1    4    4  502    0 -0.48855464148E+02 -0.17920138387E+02  0.28936517984E+02  0.59727713919E+02  0.47000000000E+01 0.  1.
         -5    1    4    4    0  502 -0.40667649934E+02 -0.51865469747E+02  0.33522775916E+03  0.34167766274E+03  0.47000000000E+01 0.  1.
<mgrwt>
<rscale>  0 0.33827774E+03</rscale>
<asrwt>0</asrwt>
<pdfrwt beam="1">  1       21 0.11114815E+00 0.33827774E+03</pdfrwt>
<pdfrwt beam="2">  1       21 0.60919720E-02 0.33827774E+03</pdfrwt>
<totfact> 0.11653966E+05</totfact>
</mgrwt>
</event>
<event>
 8    1  0.4760912E-006  0.2672074E+03  0.7546771E-02  0.1102889E+00
         21   -1    0    0  504  503  0.00000000000E+00  0.00000000000E+00  0.46507833487E+02  0.46507833487E+02  0.00000000000E+00 0.  1.
         21   -1    0    0  503  504 -0.00000000000E+00 -0.00000000000E+00 -0.38380529992E+03  0.38380529992E+03  0.00000000000E+00 0.  1.
         25    2    1    2    0    0 -0.18104678329E+02  0.22927167644E+02 -0.10899297366E+03  0.16839771401E+03  0.12499954953E+03 0.  0.
         25    2    1    2    0    0  0.18104678329E+02 -0.22927167644E+02 -0.22830449277E+03  0.26191541940E+03  0.12499324424E+03 0.  0.
          5    1    3    3  501    0 -0.58396298832E+02 -0.92777392962E+01 -0.15164683756E+02  0.61223049557E+02  0.47000000000E+01 0. -1.
         -5    1    3    3    0  501  0.40291620502E+02  0.32204906940E+02 -0.93828289907E+02  0.10717466445E+03  0.47000000000E+01 0. -1.
          5    1    4    4  502    0  0.52462171946E+02 -0.58347447630E+02 -0.13305154343E+03  0.15453642722E+03  0.47000000000E+01 0.  1.
         -5    1    4    4    0  502 -0.34357493617E+02  0.35420279987E+02 -0.95252949344E+02  0.10737899218E+03  0.47000000000E+01 0.  1.
<mgrwt>
<rscale>  0 0.26720743E+03</rscale>
<asrwt>0</asrwt>
<pdfrwt beam="1">  1       21 0.71550516E-02 0.26720743E+03</pdfrwt>
<pdfrwt beam="2">  1       21 0.59046967E-01 0.26720743E+03</pdfrwt>
<totfact> 0.38398352E+05</totfact>
</mgrwt>
</event>
<event>
 8    1  0.4760912E-006  0.3420049E+03  0.7546771E-02  0.1065945E+00
         21   -1    0    0  504  503  0.00000000000E+00  0.00000000000E+00  0.80709934698E+02  0.80709934698E+02  0.00000000000E+00 0. -1.
         21   -1    0    0  503  504 -0.00000000000E+00 -0.00000000000E+00 -0.36230780950E+03  0.36230780950E+03  0.00000000000E+00 0. -1.
         25    2    1    2    0    0  0.26321513604E+02 -0.14651233943E+02  0.52303826142E+01  0.12868926697E+03  0.12500435911E+03 0.  0.
         25    2    1    2    0    0 -0.26321513604E+02  0.14651233943E+02 -0.28682825741E+03  0.31432847722E+03  0.12499784641E+03 0.  0.
          5    1    3    3  501    0  0.61987081843E+02 -0.36562431387E+02 -0.25558306844E+02  0.76514879292E+02  0.47000000000E+01 0.  1.
         -5    1    3    3    0  501 -0.35665568239E+02  0.21911197444E+02  0.30788689459E+02  0.52174387680E+02  0.47000000000E+01 0.  1.
          5    1    4    4  502    0 -0.71795292990E+02  0.21047317115E+02 -0.22506358217E+03  0.23721985514E+03  0.47000000000E+01 0. -1.
         -5    1    4    4    0  502  0.45473779386E+02 -0.63960831724E+01 -0.61764675240E+02  0.77108622080E+02  0.47000000000E+01 0. -1.
<mgrwt>
<rscale>  0 0.34200491E+03</rscale>
<asrwt>0</asrwt>
<pdfrwt beam="1">  1       21 0.12416913E-01 0.34200491E+03</pdfrwt>
<pdfrwt beam="2">  1       21 0.55739664E-01 0.34200491E+03</pdfrwt>
<totfact> 0.16062958E+05</totfact>
</mgrwt>
</event>
<event>
 8    1  0.4760912E-006  0.2823834E+03  0.7546771E-02  0.1094394E+00
         21   -1    0    0  504  503  0.00000000000E+00  0.00000000000E+00  0.12391983437E+03  0.12391983437E+03  0.00000000000E+00 0. -1.
         21   -1    0    0  503  504 -0.00000000000E+00 -0.00000000000E+00 -0.16087094438E+03  0.16087094438E+03  0.00000000000E+00 0. -1.
         25    2    1    2    0    0 -0.42477714716E+02  0.10061471331E+02  0.30976392928E+02  0.13597849603E+03  0.12500010004E+03 0.  0.
         25    2    1    2    0    0  0.42477714716E+02 -0.10061471331E+02 -0.67927502940E+02  0.14881228272E+03  0.12500144151E+03 0.  0.
          5    1    3    3  501    0 -0.64512791932E+02 -0.39572094748E+02  0.29753322285E+02  0.81456744303E+02  0.47000000000E+01 0. -1.
         -5    1    3    3    0  501  0.22035077215E+02  0.49633566079E+02  0.12230706430E+01  0.54521751727E+02  0.47000000000E+01 0. -1.
          5    1    4    4  502    0 -0.23143865578E+02  0.16513893017E+02 -0.72190708868E+02  0.77729888867E+02  0.47000000000E+01 0.  1.
         -5    1    4    4    0  502  0.65621580294E+02 -0.26575364347E+02  0.42632059275E+01  0.71082393849E+02  0.47000000000E+01 0.  1.
<mgrwt>
<rscale>  0 0.28238343E+03</rscale>
<asrwt>0</asrwt>
<pdfrwt beam="1">  1       21 0.19064590E-01 0.28238343E+03</pdfrwt>
<pdfrwt beam="2">  1       21 0.24749376E-01 0.28238343E+03</pdfrwt>
<totfact> 0.38236494E+05</totfact>
</mgrwt>
</event>
<event>
 8    1  0.4760912E-006  0.3265843E+03  0.7546771E-02  0.1072658E+00
         21   -1    0    0  504  503  0.00000000000E+00  0.00000000000E+00  0.16264126252E+04  0.16264126252E+04  0.00000000000E+00 0.  1.
         21   -1    0    0  503  504 -0.00000000000E+00 -0.00000000000E+00 -0.16394560473E+02  0.16394560473E+02  0.00000000000E+00 0.  1.
         25    2    1    2    0    0  0.38870394069E+02  0.54110790358E+02  0.12135263501E+04  0.12217651941E+04  0.12500040833E+03 0.  0.
         25    2    1    2    0    0 -0.38870394069E+02 -0.54110790358E+02  0.39649171460E+03  0.42104199150E+03  0.12502717180E+03 0.  0.
          5    1    3    3  501    0  0.53033113953E+02 -0.10252153655E+02  0.88509565648E+03  0.88675477385E+03  0.47000000000E+01 0. -1.
         -5    1    3    3    0  501 -0.14162719884E+02  0.64362944013E+02  0.32843069362E+03  0.33501042030E+03  0.47000000000E+01 0. -1.
          5    1    4    4  502    0  0.18515067498E+02 -0.70784142908E+02  0.28698921843E+03  0.29620618512E+03  0.47000000000E+01 0.  1.
         -5    1    4    4    0  502 -0.57385461567E+02  0.16673352551E+02  0.10950249618E+03  0.12483580638E+03  0.47000000000E+01 0.  1.
<mgrwt>
<rscale>  0 0.32658426E+03</rscale>
<asrwt>0</asrwt>
<pdfrwt beam="1">  1       21 0.25021720E+00 0.32658426E+03</pdfrwt>
<pdfrwt beam="2">  1       21 0.25222414E-02 0.32658426E+03</pdfrwt>
<totfact> 0.51557038E+04</totfact>
</mgrwt>
</event>
<event>
 8    1  0.4760912E-006  0.3094977E+03  0.7546771E-02  0.1080587E+00
         21   -1    0    0  504  503  0.00000000000E+00  0.00000000000E+00  0.11885793193E+03  0.11885793193E+03  0.00000000000E+00 0. -1.
         21   -1    0    0  503  504 -0.00000000000E+00 -0.00000000000E+00 -0.20147756883E+03  0.20147756883E+03  0.00000000000E+00 0. -1.
         25    2    1    2    0    0  0.14203825035E+02 -0.65202588350E+02 -0.10569353599E+03  0.17677872700E+03  0.12500587426E+03 0.  0.
         25    2    1    2    0    0 -0.14203825035E+02  0.65202588350E+02  0.23073899092E+02  0.14355677375E+03  0.12499206494E+03 0.  0.
          5    1    3    3  501    0  0.65719838782E+02 -0.11407072423E+02 -0.54672665489E+02  0.86373658383E+02  0.47000000000E+01 0.  1.
         -5    1    3    3    0  501 -0.51516013747E+02 -0.53795515927E+02 -0.51020870497E+02  0.90405068622E+02  0.47000000000E+01 0.  1.
          5    1    4    4  502    0  0.33211433500E+02  0.16630941279E+02 -0.37112804161E+02  0.52716579513E+02  0.47000000000E+01 0. -1.
         -5    1    4    4    0  502 -0.47415258534E+02  0.48571647071E+02  0.60186703252E+02  0.90840194239E+02  0.47000000000E+01 0. -1.
<mgrwt>
<rscale>  0 0.30949770E+03</rscale>
<asrwt>0</asrwt>
<pdfrwt beam="1">  1       21 0.18285836E-01 0.30949770E+03</pdfrwt>
<pdfrwt beam="2">  1       21 0.30996549E-01 0.30949770E+03</pdfrwt>
<totfact> 0.26514406E+05</totfact>
</mgrwt>
</event>
<event>
 8    1  0.4760912E-006  0.2815696E+03  0.7546771E-02  0.1094835E+00
         21   -1    0    0  504  503  0.00000000000E+00  0.00000000000E+00  0.73221555473E+03  0.73221555473E+03  0.00000000000E+00 0. -1.
         21   -1    0    0  503  504 -0.00000000000E+00 -0.00000000000E+00 -0.27069027129E+02  0.27069027129E+02  0.00000000000E+00 0. -1.
         25    2    1    2    0    0  0.45281434752E+02 -0.38499653628E+02  0.42200637478E+03  0.44412524430E+03  0.12500088242E+03 0.  0.
         25    2    1    2    0    0 -0.45281434752E+02  0.38499653628E+02  0.28314015281E+03  0.31515933755E+03  0.12499772097E+03 0.  0.
          5    1    3    3  501    0  0.51560663436E+02 -0.51878599049E+02  0.42230072413E+03  0.42861390861E+03  0.47000000000E+01 0.  1.
         -5    1    3    3    0  501 -0.62792286840E+01  0.13378945420E+02 -0.29434934727E+00  0.15511335692E+02  0.47000000000E+01 0.  1.
          5    1    4    4  502    0 -0.16705074413E+02 -0.20708969798E+02  0.22693365836E+03  0.22853642212E+03  0.47000000000E+01 0.  1.
         -5    1    4    4    0  502 -0.28576360338E+02  0.59208623426E+02  0.56206494455E+02  0.86622915427E+02  0.47000000000E+01 0.  1.
<mgrwt>
<rscale>  0 0.28156962E+03</rscale>
<asrwt>0</asrwt>
<pdfrwt beam="1">  1       21 0.11264853E+00 0.28156962E+03</pdfrwt>
<pdfrwt beam="2">  1       21 0.41644663E-02 0.28156962E+03</pdfrwt>
<totfact> 0.21961234E+05</totfact>
</mgrwt>
</event>
<event>
 8    1  0.4760912E-006  0.4059714E+03  0.7546771E-02  0.1041731E+00
         21   -1    0    0  504  503  0.00000000000E+00  0.00000000000E+00  0.17307115121E+03  0.17307115121E+03  0.00000000000E+00 0. -1.
         21   -1    0    0  503  504 -0.00000000000E+00 -0.00000000000E+00 -0.23807081972E+03  0.23807081972E+03  0.00000000000E+00 0. -1.
         25    2    1    2    0    0 -0.13449266510E+03 -0.78339106770E+02 -0.69751294648E+02  0.21146073843E+03  0.12500043271E+03 0.  0.
         25    2    1    2    0    0  0.13449266510E+03  0.78339106770E+02  0.47516261430E+01  0.19968123251E+03  0.12499889619E+03 0.  0.
          5    1    3    3  501    0 -0.68646038413E+02 -0.31633095955E+02  0.31379914530E+02  0.81973900635E+02  0.47000000000E+01 0.  1.
         -5    1    3    3    0  501 -0.65846626686E+02 -0.46706010815E+02 -0.10113120918E+03  0.12948683779E+03  0.47000000000E+01 0.  1.
          5    1    4    4  502    0  0.21751811901E+02 -0.12923453209E+02  0.42538517879E+02  0.49716923348E+02  0.47000000000E+01 0.  1.
         -5    1    4    4    0  502  0.11274085320E+03  0.91262559979E+02 -0.37786891737E+02  0.14996430916E+03  0.47000000000E+01 0.  1.
<mgrwt>
<rscale>  0 0.40597138E+03</rscale>
<asrwt>0</asrwt>
<pdfrwt beam="1">  1       21 0.26626331E-01 0.40597138E+03</pdfrwt>
<pdfrwt beam="2">  1       21 0.36626280E-01 0.40597138E+03</pdfrwt>
<totfact> 0.90687334E+04</totfact>
</mgrwt>
</event>
<event>
 8    1  0.4760912E-006  0.2531129E+03  0.7546771E-02  0.1111353E+00
         21   -1    0    0  504  503  0.00000000000E+00  0.00000000000E+00  0.86571728258E+02  0.86571728258E+02  0.00000000000E+00 0.  1.
         21   -1    0    0  503  504 -0.00000000000E+00 -0.00000000000E+00 -0.18500881334E+03  0.18500881334E+03  0.00000000000E+00 0.  1.
         25    2    1    2    0    0 -0.16242190553E+02 -0.14411257749E+01 -0.37205169204E+02  0.13143837782E+03  0.12500374775E+03 0.  0.
         25    2    1    2    0    0  0.16242190553E+02  0.14411257749E+01 -0.61231915882E+02  0.14014216378E+03  0.12499837179E+03 0.  0.
          5    1    3    3  501    0 -0.40563646140E+02 -0.28138008688E+02 -0.67712577321E+02  0.83929971098E+02  0.47000000000E+01 0.  1.
         -5    1    3    3    0  501  0.24321455587E+02  0.26696882913E+02  0.30507408117E+02  0.47508406720E+02  0.47000000000E+01 0.  1.
          5    1    4    4  502    0 -0.29193726817E+02 -0.37576160687E+02 -0.64135675668E+02  0.79998227673E+02  0.47000000000E+01 0. -1.
         -5    1    4    4    0  502  0.45435917370E+02  0.39017286462E+02  0.29037597856E+01  0.60143936111E+02  0.47000000000E+01 0. -1.
<mgrwt>
<rscale>  0 0.25311288E+03</rscale>
<asrwt>0</asrwt>
<pdfrwt beam="1">  1       21 0.13318727E-01 0.25311288E+03</pdfrwt>
<pdfrwt beam="2">  1       21 0.28462894E-01 0.25311288E+03</pdfrwt>
<totfact> 0.56803664E+05</totfact>
</mgrwt>
</event>
<event>
 8    1  0.4760912E-006  0.3411520E+03  0.7546771E-02  0.1066306E+00
         21   -1    0    0  504  503  0.00000000000E+00  0.00000000000E+00  0.21300259216E+03  0.21300259216E+03  0.00000000000E+00 0. -1.
         21   -1    0    0  503  504 -0.00000000000E+00 -0.00000000000E+00 -0.13660011606E+03  0.13660011606E+03  0.00000000000E+00 0. -1.
         25    2    1    2    0    0 -0.60133093436E+02  0.84001741749E+02 -0.15988712536E+02  0.16296564366E+03  0.12501952065E+03 0.  0.
         25    2    1    2    0    0  0.60133093436E+02 -0.84001741749E+02  0.92391188632E+02  0.18663706456E+03  0.12499992235E+03 0.  0.
          5    1    3    3  501    0 -0.37180100263E+02 -0.27819389785E+02 -0.13894123446E+02  0.48697176201E+02  0.47000000000E+01 0.  1.
         -5    1    3    3    0  501 -0.22952993172E+02  0.11182113153E+03 -0.20945890905E+01  0.11426846746E+03  0.47000000000E+01 0.  1.
          5    1    4    4  502    0 -0.53269979728E+01 -0.85949125855E+02  0.84097355483E+02  0.12045781146E+03  0.47000000000E+01 0. -1.
         -5    1    4    4    0  502  0.65460091409E+02  0.19473841059E+01  0.82938331491E+01  0.66179253096E+02  0.47000000000E+01 0. -1.
<mgrwt>
<rscale>  0 0.34115204E+03</rscale>
<asrwt>0</asrwt>
<pdfrwt beam="1">  1       21 0.32769630E-01 0.34115204E+03</pdfrwt>
<pdfrwt beam="2">  1       21 0.21015402E-01 0.34115204E+03</pdfrwt>
<totfact> 0.18143999E+05</totfact>
</mgrwt>
</event>
<event>
 8    1  0.4760912E-006  0.3785361E+03  0.7546771E-02  0.1051476E+00
         21   -1    0    0  504  503  0.00000000000E+00  0.00000000000E+00  0.24371654744E+02  0.24371654744E+02  0.00000000000E+00 0. -1.
         21   -1    0    0  503  504 -0.00000000000E+00 -0.00000000000E+00 -0.14698383040E+04  0.14698383040E+04  0.00000000000E+00 0. -1.
         25    2    1    2    0    0  0.23279812103E+02  0.11197199355E+03 -0.10557359695E+04  0.10692464918E+04  0.12501978194E+03 0.  0.
         25    2    1    2    0    0 -0.23279812103E+02 -0.11197199355E+03 -0.38973067970E+03  0.42496346692E+03  0.12499707407E+03 0.  0.
          5    1    3    3  501    0 -0.33830977234E+02 -0.66761232531E+01 -0.15049966607E+03  0.15447117897E+03  0.47000000000E+01 0. -1.
         -5    1    3    3    0  501  0.57110789337E+02  0.11864811680E+03 -0.90523630346E+03  0.91477531284E+03  0.47000000000E+01 0. -1.
          5    1    4    4  502    0 -0.31076558975E+02 -0.10616652214E+03 -0.39686591042E+03  0.41202150890E+03  0.47000000000E+01 0.  1.
         -5    1    4    4    0  502  0.77967468723E+01 -0.58054714007E+01  0.71352307191E+01  0.12941958020E+02  0.47000000000E+01 0.  1.
<mgrwt>
<rscale>  0 0.37853608E+03</rscale>
<asrwt>0</asrwt>
<pdfrwt beam="1">  1       21 0.37494841E-02 0.37853608E+03</pdfrwt>
<pdfrwt beam="2">  1       21 0.22612905E+00 0.37853608E+03</pdfrwt>
<totfact> 0.36496356E+04</totfact>
</mgrwt>
</event>
<event>
 8    1  0.4760912E-006  0.2540129E+03  0.7546771E-02  0.1110795E+00
         21   -1    0    0  504  503  0.00000000000E+00  0.00000000000E+00  0.34751427233E+03  0.34751427233E+03  0.00000000000E+00 0.  1.
         21   -1    0    0  503  504 -0.00000000000E+00 -0.00000000000E+00 -0.46417180253E+02  0.46417180253E+02  0.00000000000E+00 0.  1.
         25    2    1    2    0    0 -0.11718704969E+01  0.21389860408E+02  0.16103102603E+03  0.20497451551E+03  0.12499864502E+03 0.  0.
         25    2    1    2    0    0  0.11718704969E+01 -0.21389860408E+02  0.14006606605E+03  0.18895693707E+03  0.12500928686E+03 0.  0.
          5    1    3    3  501    0  0.34956871306E+02  0.58534962494E+02  0.12234514645E+03  0.14013832290E+03  0.47000000000E+01 0.  1.
         -5    1    3    3    0  501 -0.36128741803E+02 -0.37145102086E+02  0.38685879577E+02  0.64836192608E+02  0.47000000000E+01 0.  1.
          5    1    4    4  502    0 -0.23804046745E+02  0.38545036760E+02  0.10624320861E+03  0.11559438514E+03  0.47000000000E+01 0. -1.
         -5    1    4    4    0  502  0.24975917242E+02 -0.59934897169E+02  0.33822857438E+02  0.73362551932E+02  0.47000000000E+01 0. -1.
<mgrwt>
<rscale>  0 0.25401285E+03</rscale>
<asrwt>0</asrwt>
<pdfrwt beam="1">  1       21 0.53463733E-01 0.25401285E+03</pdfrwt>
<pdfrwt beam="2">  1       21 0.71411049E-02 0.25401285E+03</pdfrwt>
<totfact> 0.47775025E+05</totfact>
</mgrwt>
</event>
<event>
 8    1  0.4760912E-006  0.2870366E+03  0.7546771E-02  0.1091907E+00
         21   -1    0    0  504  503  0.00000000000E+00  0.00000000000E+00  0.24199969876E+03  0.24199969876E+03  0.00000000000E+00 0. -1.
         21   -1    0    0  503  504 -0.00000000000E+00 -0.00000000000E+00 -0.85113725751E+02  0.85113725751E+02  0.00000000000E+00 0. -1.
         25    2    1    2    0    0  0.68251910838E+02 -0.15317994867E+02  0.68277214105E+02  0.15868026756E+03  0.12499874018E+03 0.  0.
         25    2    1    2    0    0 -0.68251910838E+02  0.15317994867E+02  0.88608758908E+02  0.16843315696E+03  0.12500100763E+03 0.  0.
          5    1    3    3  501    0  0.49176548373E+02 -0.69653737027E+02  0.38319676916E+02  0.93597348416E+02  0.47000000000E+01 0. -1.
         -5    1    3    3    0  501  0.19075362465E+02  0.54335742160E+02  0.29957537189E+02  0.65082919140E+02  0.47000000000E+01 0. -1.
          5    1    4    4  502    0 -0.46063965165E+02 -0.20920471765E+01 -0.24039097015E+02  0.52213348230E+02  0.47000000000E+01 0.  1.
         -5    1    4    4    0  502 -0.22187945673E+02  0.17410042043E+02  0.11264785592E+03  0.11621980873E+03  0.47000000000E+01 0.  1.
<mgrwt>
<rscale>  0 0.28703656E+03</rscale>
<asrwt>0</asrwt>
<pdfrwt beam="1">  1       21 0.37230723E-01 0.28703656E+03</pdfrwt>
<pdfrwt beam="2">  1       21 0.13094419E-01 0.28703656E+03</pdfrwt>
<totfact> 0.34180141E+05</totfact>
</mgrwt>
</event>
<event>
 8    1  0.4760912E-006  0.2989006E+03  0.7546771E-02  0.1085791E+00
         21   -1    0    0  504  503  0.00000000000E+00  0.00000000000E+00  0.19939873672E+02  0.19939873672E+02  0.00000000000E+00 0.  1.
         21   -1    0    0  503  504 -0.00000000000E+00 -0.00000000000E+00 -0.11201374216E+04  0.11201374216E+04  0.00000000000E+00 0.  1.
         25    2    1    2    0    0 -0.35286662084E+02 -0.35840732105E+02 -0.30349691492E+03  0.33206335904E+03  0.12500396173E+03 0.  0.
         25    2    1    2    0    0  0.35286662084E+02  0.35840732105E+02 -0.79670063300E+03  0.80801393623E+03  0.12499966368E+03 0.  0.
          5    1    3    3  501    0 -0.68366647982E+02 -0.58845507528E+02 -0.16956470482E+03  0.19212254275E+03  0.47000000000E+01 0. -1.
         -5    1    3    3    0  501  0.33079985898E+02  0.23004775423E+02 -0.13393221011E+03  0.13994081629E+03  0.47000000000E+01 0. -1.
          5    1    4    4  502    0 -0.60505646479E+01 -0.43452921857E+02 -0.31298506325E+03  0.31607990378E+03  0.47000000000E+01 0. -1.
         -5    1    4    4    0  502  0.41337226732E+02  0.79293653962E+02 -0.48371556975E+03  0.49193403246E+03  0.47000000000E+01 0. -1.
<mgrwt>
<rscale>  0 0.29890064E+03</rscale>
<asrwt>0</asrwt>
<pdfrwt beam="1">  1       21 0.30676728E-02 0.29890064E+03</pdfrwt>
<pdfrwt beam="2">  1       21 0.17232884E+00 0.29890064E+03</pdfrwt>
<totfact> 0.11981632E+05</totfact>
</mgrwt>
</event>
<event>
 8    1  0.4760912E-006  0.3096386E+03  0.7546771E-02  0.1080519E+00
         21   -1    0    0  504  503  0.00000000000E+00  0.00000000000E+00  0.20531726793E+03  0.20531726793E+03  0.00000000000E+00 0.  1.
         21   -1    0    0  503  504 -0.00000000000E+00 -0.00000000000E+00 -0.11674138570E+03  0.11674138570E+03  0.00000000000E+00 0.  1.
         25    2    1    2    0    0 -0.97458807020E+01  0.87969715976E+02  0.67753323864E+02  0.16747738590E+03  0.12499803509E+03 0.  0.
         25    2    1    2    0    0  0.97458807020E+01 -0.87969715976E+02  0.20822558370E+02  0.15458126772E+03  0.12501254446E+03 0.  0.
          5    1    3    3  501    0  0.31419379983E+02 -0.12615534390E+02 -0.77608679552E+01  0.35052107182E+02  0.47000000000E+01 0. -1.
         -5    1    3    3    0  501 -0.41165260685E+02  0.10058525037E+03  0.75514191819E+02  0.13242527872E+03  0.47000000000E+01 0. -1.
          5    1    4    4  502    0 -0.19788654235E+02 -0.65685565368E+02 -0.42683896689E+02  0.80933240209E+02  0.47000000000E+01 0.  1.
         -5    1    4    4    0  502  0.29534534937E+02 -0.22284150607E+02  0.63506455059E+02  0.73648027512E+02  0.47000000000E+01 0.  1.
<mgrwt>
<rscale>  0 0.30963864E+03</rscale>
<asrwt>0</asrwt>
<pdfrwt beam="1">  1       21 0.31587272E-01 0.30963864E+03</pdfrwt>
<pdfrwt beam="2">  1       21 0.17960213E-01 0.30963864E+03</pdfrwt>
<totfact> 0.26413487E+05</totfact>
</mgrwt>
</event>
<event>
 8    1  0.4760912E-006  0.3351714E+03  0.7546771E-02  0.1068871E+00
         21   -1    0    0  504  503  0.00000000000E+00  0.00000000000E+00  0.22039389301E+02  0.22039389301E+02  0.00000000000E+00 0. -1.
         21   -1    0    0  503  504 -0.00000000000E+00 -0.00000000000E+00 -0.12743082299E+04  0.12743082299E+04  0.00000000000E+00 0. -1.
         25    2    1    2    0    0 -0.17407512087E+02 -0.82809065386E+02 -0.90780213649E+03  0.92026587151E+03  0.12499676986E+03 0.  0.
         25    2    1    2    0    0  0.17407512087E+02  0.82809065386E+02 -0.34446670408E+03  0.37608174766E+03  0.12497922993E+03 0.  0.
          5    1    3    3  501    0 -0.28824720957E+02 -0.73532140707E+02 -0.24868293734E+03  0.26096577090E+03  0.47000000000E+01 0. -1.
         -5    1    3    3    0  501  0.11417208871E+02 -0.92769246790E+01 -0.65911919915E+03  0.65930010062E+03  0.47000000000E+01 0. -1.
          5    1    4    4  502    0  0.18516362306E+02  0.63420362374E+02 -0.55468216292E+02  0.86393350758E+02  0.47000000000E+01 0. -1.
         -5    1    4    4    0  502 -0.11088502188E+01  0.19388703013E+02 -0.28899848779E+03  0.28968839690E+03  0.47000000000E+01 0. -1.
<mgrwt>
<rscale>  0 0.33517145E+03</rscale>
<asrwt>0</asrwt>
<pdfrwt beam="1">  1       21 0.33906747E-02 0.33517145E+03</pdfrwt>
<pdfrwt beam="2">  1       21 0.19604745E+00 0.33517145E+03</pdfrwt>
<totfact> 0.68712073E+04</totfact>
</mgrwt>
</event>
<event>
 8    1  0.4760912E-006  0.3207466E+03  0.7546771E-02  0.1075306E+00
         21   -1    0    0  504  503  0.00000000000E+00  0.00000000000E+00  0.21862220981E+02  0.21862220981E+02  0.00000000000E+00 0. -1.
         21   -1    0    0  503  504 -0.00000000000E+00 -0.00000000000E+00 -0.11764405037E+04  0.11764405037E+04  0.00000000000E+00 0. -1.
         25    2    1    2    0    0  0.95732834976E+02 -0.21825661721E+02 -0.49769432029E+03  0.52246017776E+03  0.12499546267E+03 0.  0.
         25    2    1    2    0    0 -0.95732834976E+02  0.21825661721E+02 -0.65688396244E+03  0.67584254694E+03  0.12500189174E+03 0.  0.
          5    1    3    3  501    0  0.82768513625E+02 -0.50088873780E+02 -0.19097878102E+03  0.21413665479E+03  0.47000000000E+01 0. -1.
         -5    1    3    3    0  501  0.12964321351E+02  0.28263212059E+02 -0.30671553927E+03  0.30832352296E+03  0.47000000000E+01 0. -1.
          5    1    4    4  502    0 -0.56762457694E+02 -0.14574327225E+02 -0.57509279805E+03  0.57809013483E+03  0.47000000000E+01 0.  1.
         -5    1    4    4    0  502 -0.38970377283E+02  0.36399988946E+02 -0.81791164388E+02  0.97752412108E+02  0.47000000000E+01 0.  1.
<mgrwt>
<rscale>  0 0.32074664E+03</rscale>
<asrwt>0</asrwt>
<pdfrwt beam="1">  1       21 0.33634184E-02 0.32074664E+03</pdfrwt>
<pdfrwt beam="2">  1       21 0.18099086E+00 0.32074664E+03</pdfrwt>
<totfact> 0.88585213E+04</totfact>
</mgrwt>
</event>
<event>
 8    1  0.4760912E-006  0.6505439E+03  0.7546771E-02  0.9805759E-01
         21   -1    0    0  504  503  0.00000000000E+00  0.00000000000E+00  0.48529604715E+03  0.48529604715E+03  0.00000000000E+00 0.  1.
         21   -1    0    0  503  504 -0.00000000000E+00 -0.00000000000E+00 -0.21801505944E+03  0.21801505944E+03  0.00000000000E+00 0.  1.
         25    2    1    2    0    0 -0.87150036886E+02 -0.22402011942E+03 -0.60971661193E+02  0.27768954271E+03  0.12495517527E+03 0.  0.
         25    2    1    2    0    0  0.87150036886E+02  0.22402011942E+03  0.32825264890E+03  0.42562156389E+03  0.12499508511E+03 0.  0.
          5    1    3    3  501    0  0.26434848990E+02 -0.10531607155E+02 -0.98467023029E+01  0.30475622006E+02  0.47000000000E+01 0. -1.
         -5    1    3    3    0  501 -0.11358488588E+03 -0.21348851226E+03 -0.51124958890E+02  0.24721392070E+03  0.47000000000E+01 0. -1.
          5    1    4    4  502    0  0.70269082252E+01 -0.55349238629E+00  0.83368964198E+02  0.83798317313E+02  0.47000000000E+01 0. -1.
         -5    1    4    4    0  502  0.80123128661E+02  0.22457361180E+03  0.24488368470E+03  0.34182324658E+03  0.47000000000E+01 0. -1.
<mgrwt>
<rscale>  0 0.65054392E+03</rscale>
<asrwt>0</asrwt>
<pdfrwt beam="1">  1       21 0.74660930E-01 0.65054392E+03</pdfrwt>
<pdfrwt beam="2">  1       21 0.33540779E-01 0.65054392E+03</pdfrwt>
<totfact> 0.11748782E+04</totfact>
</mgrwt>
</event>
<event>
 8    1  0.4760912E-006  0.2631324E+03  0.7546771E-02  0.1105276E+00
         21   -1    0    0  504  503  0.00000000000E+00  0.00000000000E+00  0.83003103962E+03  0.83003103962E+03  0.00000000000E+00 0. -1.
         21   -1    0    0  503  504 -0.00000000000E+00 -0.00000000000E+00 -0.20854237685E+02  0.20854237685E+02  0.00000000000E+00 0. -1.
         25    2    1    2    0    0  0.27799121744E+01 -0.39949401135E+02  0.43273530554E+03  0.45221585576E+03  0.12504260467E+03 0.  0.
         25    2    1    2    0    0 -0.27799121744E+01  0.39949401135E+02  0.37644149639E+03  0.39866942154E+03  0.12500169958E+03 0.  0.
          5    1    3    3  501    0 -0.45594442792E+02 -0.40086764458E+02  0.35748934610E+03  0.36263828324E+03  0.47000000000E+01 0.  1.
         -5    1    3    3    0  501  0.48374354966E+02  0.13736332284E+00  0.75245959440E+02  0.89577572523E+02  0.47000000000E+01 0.  1.
          5    1    4    4  502    0 -0.39567828321E+02  0.65219640666E+02  0.30394178842E+03  0.31340375766E+03  0.47000000000E+01 0.  1.
         -5    1    4    4    0  502  0.36787916147E+02 -0.25270239530E+02  0.72499707971E+02  0.85265663876E+02  0.47000000000E+01 0.  1.
<mgrwt>
<rscale>  0 0.26313240E+03</rscale>
<asrwt>0</asrwt>
<pdfrwt beam="1">  1       21 0.12769706E+00 0.26313240E+03</pdfrwt>
<pdfrwt beam="2">  1       21 0.32083449E-02 0.26313240E+03</pdfrwt>
<totfact> 0.25017363E+05</totfact>
</mgrwt>
</event>
<event>
 8    1  0.4760912E-006  0.2553118E+03  0.7546771E-02  0.1109993E+00
         21   -1    0    0  504  503  0.00000000000E+00  0.00000000000E+00  0.23770776461E+03  0.23770776461E+03  0.00000000000E+00 0. -1.
         21   -1    0    0  503  504 -0.00000000000E+00 -0.00000000000E+00 -0.68554860502E+02  0.68554860502E+02  0.00000000000E+00 0. -1.
         25    2    1    2    0    0  0.19799254945E+02 -0.11373450675E+02  0.69841711789E+02  0.14498452968E+03  0.12498513217E+03 0.  0.
         25    2    1    2    0    0 -0.19799254945E+02  0.11373450675E+02  0.99311192316E+02  0.16127809543E+03  0.12500618093E+03 0.  0.
          5    1    3    3  501    0  0.65568640134E+02  0.16332560563E+02  0.17432482588E+02  0.69942694778E+02  0.47000000000E+01 0.  1.
         -5    1    3    3    0  501 -0.45769385189E+02 -0.27706011238E+02  0.52409229201E+02  0.75041834898E+02  0.47000000000E+01 0.  1.
          5    1    4    4  502    0 -0.10122773778E+02  0.54922528772E+02  0.10195333105E+03  0.11634228134E+03  0.47000000000E+01 0. -1.
         -5    1    4    4    0  502 -0.96764811671E+01 -0.43549078097E+02 -0.26421387347E+01  0.44935814091E+02  0.47000000000E+01 0. -1.
<mgrwt>
<rscale>  0 0.25531175E+03</rscale>
<asrwt>0</asrwt>
<pdfrwt beam="1">  1       21 0.36570425E-01 0.25531175E+03</pdfrwt>
<pdfrwt beam="2">  1       21 0.10546902E-01 0.25531175E+03</pdfrwt>
<totfact> 0.52615853E+05</totfact>
</mgrwt>
</event>
<event>
 8    1  0.4760912E-006  0.3330702E+03  0.7546771E-02  0.1069786E+00
         21   -1    0    0  504  503  0.00000000000E+00  0.00000000000E+00  0.17035501472E+02  0.17035501472E+02  0.00000000000E+00 0.  1.
         21   -1    0    0  503  504 -0.00000000000E+00 -0.00000000000E+00 -0.16280086474E+04  0.16280086474E+04  0.00000000000E+00 0.  1.
         25    2    1    2    0    0 -0.78381691182E+02  0.30069196709E+02 -0.45412128105E+03  0.47843377233E+03  0.12499956200E+03 0.  0.
         25    2    1    2    0    0  0.78381691182E+02 -0.30069196709E+02 -0.11568518649E+04  0.11666103765E+04  0.12500274908E+03 0.  0.
          5    1    3    3  501    0 -0.11013009469E+03  0.12368975909E+02 -0.37816266555E+03  0.39409481212E+03  0.47000000000E+01 0.  1.
         -5    1    3    3    0  501  0.31748403504E+02  0.17700220799E+02 -0.75958615493E+02  0.84338960209E+02  0.47000000000E+01 0.  1.
          5    1    4    4  502    0  0.56561421936E+02 -0.76190356895E+02 -0.87463484015E+03  0.87977972160E+03  0.47000000000E+01 0.  1.
         -5    1    4    4    0  502  0.21820269247E+02  0.46121160187E+02 -0.28221702473E+03  0.28683065494E+03  0.47000000000E+01 0.  1.
<mgrwt>
<rscale>  0 0.33307023E+03</rscale>
<asrwt>0</asrwt>
<pdfrwt beam="1">  1       21 0.26208466E-02 0.33307023E+03</pdfrwt>
<pdfrwt beam="2">  1       21 0.25046285E+00 0.33307023E+03</pdfrwt>
<totfact> 0.48061888E+04</totfact>
</mgrwt>
</event>
<event>
 8    1  0.4760912E-006  0.3177642E+03  0.7546771E-02  0.1076683E+00
         21   -1    0    0  504  503  0.00000000000E+00  0.00000000000E+00  0.81461174484E+03  0.81461174484E+03  0.00000000000E+00 0. -1.
         21   -1    0    0  503  504 -0.00000000000E+00 -0.00000000000E+00 -0.30988406838E+02  0.30988406838E+02  0.00000000000E+00 0. -1.
         25    2    1    2    0    0 -0.63292368266E+02  0.56505875422E+02  0.26072713193E+03  0.30132757391E+03  0.12498332545E+03 0.  0.
         25    2    1    2    0    0  0.63292368266E+02 -0.56505875422E+02  0.52289620607E+03  0.54427257776E+03  0.12495342628E+03 0.  0.
          5    1    3    3  501    0 -0.39183707968E+02 -0.36517062950E+02  0.11128226756E+03  0.12359082462E+03  0.47000000000E+01 0. -1.
         -5    1    3    3    0  501 -0.24108660299E+02  0.93022938372E+02  0.14944486437E+03  0.17773674929E+03  0.47000000000E+01 0. -1.
          5    1    4    4  502    0  0.10138765671E+02 -0.29243932106E+01 -0.38115750881E+01  0.12164076193E+02  0.47000000000E+01 0. -1.
         -5    1    4    4    0  502  0.53153602595E+02 -0.53581482212E+02  0.52670778116E+03  0.53210850157E+03  0.47000000000E+01 0. -1.
<mgrwt>
<rscale>  0 0.31776419E+03</rscale>
<asrwt>0</asrwt>
<pdfrwt beam="1">  1       21 0.12532487E+00 0.31776419E+03</pdfrwt>
<pdfrwt beam="2">  1       21 0.47674478E-02 0.31776419E+03</pdfrwt>
<totfact> 0.13232700E+05</totfact>
</mgrwt>
</event>
<event>
 8    1  0.4760912E-006  0.4429268E+03  0.7546771E-02  0.1029853E+00
         21   -1    0    0  504  503  0.00000000000E+00  0.00000000000E+00  0.47277358905E+03  0.47277358905E+03  0.00000000000E+00 0. -1.
         21   -1    0    0  503  504 -0.00000000000E+00 -0.00000000000E+00 -0.10374105327E+03  0.10374105327E+03  0.00000000000E+00 0. -1.
         25    2    1    2    0    0  0.91877471746E+02 -0.15470138288E+03  0.14238784090E+03  0.26129337955E+03  0.12500378106E+03 0.  0.
         25    2    1    2    0    0 -0.91877471746E+02  0.15470138288E+03  0.22664469488E+03  0.31522126277E+03  0.12499055606E+03 0.  0.
          5    1    3    3  501    0  0.84457114239E+02 -0.15849601276E+03  0.16043671262E+03  0.24086514684E+03  0.47000000000E+01 0.  1.
         -5    1    3    3    0  501  0.74203575070E+01  0.37946298762E+01 -0.18048871716E+02  0.20428232710E+02  0.47000000000E+01 0.  1.
          5    1    4    4  502    0 -0.42355628603E+02  0.16229268334E+03  0.16133652919E+03  0.23277560008E+03  0.47000000000E+01 0.  1.
         -5    1    4    4    0  502 -0.49521843143E+02 -0.75913004553E+01  0.65308165694E+02  0.82445662695E+02  0.47000000000E+01 0.  1.
<mgrwt>
<rscale>  0 0.44292677E+03</rscale>
<asrwt>0</asrwt>
<pdfrwt beam="1">  1       21 0.72734397E-01 0.44292677E+03</pdfrwt>
<pdfrwt beam="2">  1       21 0.15960162E-01 0.44292677E+03</pdfrwt>
<totfact> 0.55014565E+04</totfact>
</mgrwt>
</event>
<event>
 8    1  0.4760912E-006  0.2747351E+03  0.7546771E-02  0.1098600E+00
         21   -1    0    0  504  503  0.00000000000E+00  0.00000000000E+00  0.10139464921E+03  0.10139464921E+03  0.00000000000E+00 0.  1.
         21   -1    0    0  503  504 -0.00000000000E+00 -0.00000000000E+00 -0.18610298815E+03  0.18610298815E+03  0.00000000000E+00 0.  1.
         25    2    1    2    0    0  0.29165215165E+02 -0.46332292912E+02 -0.58839601146E+02  0.14860436511E+03  0.12499547001E+03 0.  0.
         25    2    1    2    0    0 -0.29165215165E+02  0.46332292912E+02 -0.25868737798E+02  0.13889327225E+03  0.12499943336E+03 0.  0.
          5    1    3    3  501    0 -0.21072407352E+02  0.15879729878E+02 -0.62929035954E+02  0.68398579946E+02  0.47000000000E+01 0. -1.
         -5    1    3    3    0  501  0.50237622517E+02 -0.62212022791E+02  0.40894348080E+01  0.80205785159E+02  0.47000000000E+01 0. -1.
          5    1    4    4  502    0 -0.60095403858E+02 -0.18040875834E+02 -0.39393942982E+00  0.62921983075E+02  0.47000000000E+01 0.  1.
         -5    1    4    4    0  502  0.30930188694E+02  0.64373168747E+02 -0.25474798368E+02  0.75971289176E+02  0.47000000000E+01 0.  1.
<mgrwt>
<rscale>  0 0.27473512E+03</rscale>
<asrwt>0</asrwt>
<pdfrwt beam="1">  1       21 0.15599177E-01 0.27473512E+03</pdfrwt>
<pdfrwt beam="2">  1       21 0.28631229E-01 0.27473512E+03</pdfrwt>
<totfact> 0.41904004E+05</totfact>
</mgrwt>
</event>
<event>
 8    1  0.4760912E-006  0.3216630E+03  0.7546771E-02  0.1074886E+00
         21   -1    0    0  504  503  0.00000000000E+00  0.00000000000E+00  0.57941127446E+03  0.57941127446E+03  0.00000000000E+00 0. -1.
         21   -1    0    0  503  504 -0.00000000000E+00 -0.00000000000E+00 -0.44643204268E+02  0.44643204268E+02  0.00000000000E+00 0. -1.
         25    2    1    2    0    0 -0.80373680984E+02 -0.37857356759E+02  0.17336506278E+03  0.23146096834E+03  0.12500250723E+03 0.  0.
         25    2    1    2    0    0  0.80373680984E+02  0.37857356759E+02  0.36140300741E+03  0.39259351039E+03  0.12499769030E+03 0.  0.
          5    1    3    3  501    0 -0.10650488541E+03 -0.31215330708E+01  0.10084749882E+03  0.14678331854E+03  0.47000000000E+01 0. -1.
         -5    1    3    3    0  501  0.26131204422E+02 -0.34735823689E+02  0.72517563968E+02  0.84677649800E+02  0.47000000000E+01 0. -1.
          5    1    4    4  502    0 -0.11135087127E+02  0.23429007453E+02  0.23136701163E+03  0.23286410764E+03  0.47000000000E+01 0.  1.
         -5    1    4    4    0  502  0.91508768111E+02  0.14428349306E+02  0.13003599578E+03  0.15972940275E+03  0.47000000000E+01 0.  1.
<mgrwt>
<rscale>  0 0.32166303E+03</rscale>
<asrwt>0</asrwt>
<pdfrwt beam="1">  1       21 0.89140191E-01 0.32166303E+03</pdfrwt>
<pdfrwt beam="2">  1       21 0.68681857E-02 0.32166303E+03</pdfrwt>
<totfact> 0.16153880E+05</totfact>
</mgrwt>
</event>
<event>
 8    1  0.4760912E-006  0.3036481E+03  0.7546771E-02  0.1083431E+00
         21   -1    0    0  504  503  0.00000000000E+00  0.00000000000E+00  0.49171618211E+03  0.49171618211E+03  0.00000000000E+00 0.  1.
         21   -1    0    0  503  504 -0.00000000000E+00 -0.00000000000E+00 -0.46877750745E+02  0.46877750745E+02  0.00000000000E+00 0.  1.
         25    2    1    2    0    0  0.15350682475E+02  0.81405457606E+02  0.18029602677E+03  0.23450801603E+03  0.12499944134E+03 0.  0.
         25    2    1    2    0    0 -0.15350682475E+02 -0.81405457606E+02  0.26454240460E+03  0.30408591682E+03  0.12499227575E+03 0.  0.
          5    1    3    3  501    0 -0.60060102644E+00  0.65198580430E+02  0.14326529531E+02  0.66922007293E+02  0.47000000000E+01 0. -1.
         -5    1    3    3    0  501  0.15951283501E+02  0.16206877176E+02  0.16596949724E+03  0.16758600874E+03  0.47000000000E+01 0. -1.
          5    1    4    4  502    0  0.24525774029E+02 -0.96261228601E+02  0.22417555019E+03  0.24524376654E+03  0.47000000000E+01 0.  1.
         -5    1    4    4    0  502 -0.39876456504E+02  0.14855770994E+02  0.40366854412E+02  0.58842150286E+02  0.47000000000E+01 0.  1.
<mgrwt>
<rscale>  0 0.30364814E+03</rscale>
<asrwt>0</asrwt>
<pdfrwt beam="1">  1       21 0.75648640E-01 0.30364814E+03</pdfrwt>
<pdfrwt beam="2">  1       21 0.72119620E-02 0.30364814E+03</pdfrwt>
<totfact> 0.21734013E+05</totfact>
</mgrwt>
</event>
<event>
 8    1  0.4760912E-006  0.3705000E+03  0.7546771E-02  0.1054502E+00
         21   -1    0    0  504  503  0.00000000000E+00  0.00000000000E+00  0.10158586530E+03  0.10158586530E+03  0.00000000000E+00 0. -1.
         21   -1    0    0  503  504 -0.00000000000E+00 -0.00000000000E+00 -0.33781825085E+03  0.33781825085E+03  0.00000000000E+00 0. -1.
         25    2    1    2    0    0  0.70228115857E+02  0.72291928401E+02 -0.22767917407E+03  0.27860570928E+03  0.12500089507E+03 0.  0.
         25    2    1    2    0    0 -0.70228115857E+02 -0.72291928401E+02 -0.85532114813E+01  0.16079840687E+03  0.12499943623E+03 0.  0.
          5    1    3    3  501    0  0.78540382935E+02  0.99255148143E+02 -0.15292409425E+03  0.19856496364E+03  0.47000000000E+01 0. -1.
         -5    1    3    3    0  501 -0.83122670787E+01 -0.26963219741E+02 -0.74755079821E+02  0.80040745635E+02  0.47000000000E+01 0. -1.
          5    1    4    4  502    0  0.24871338148E+02 -0.33695156830E+01 -0.32000666339E+02  0.40939830768E+02  0.47000000000E+01 0.  1.
         -5    1    4    4    0  502 -0.95099454005E+02 -0.68922412718E+02  0.23447454857E+02  0.11985857611E+03  0.47000000000E+01 0.  1.
<mgrwt>
<rscale>  0 0.37049998E+03</rscale>
<asrwt>0</asrwt>
<pdfrwt beam="1">  1       21 0.15628595E-01 0.37049998E+03</pdfrwt>
<pdfrwt beam="2">  1       21 0.51972038E-01 0.37049998E+03</pdfrwt>
<totfact> 0.12158218E+05</totfact>
</mgrwt>
</event>
<event>
 8    1  0.4760912E-006  0.3227932E+03  0.7546771E-02  0.1074371E+00
         21   -1    0    0  504  503  0.00000000000E+00  0.00000000000E+00  0.33050022542E+02  0.33050022542E+02  0.00000000000E+00 0. -1.
         21   -1    0    0  503  504 -0.00000000000E+00 -0.00000000000E+00 -0.78816487504E+03  0.78816487504E+03  0.00000000000E+00 0. -1.
         25    2    1    2    0    0 -0.69465678464E+02  0.10993143596E+02 -0.18926489300E+03  0.23747027223E+03  0.12499840311E+03 0.  0.
         25    2    1    2    0    0  0.69465678464E+02 -0.10993143596E+02 -0.56584995950E+03  0.58374462535E+03  0.12500112509E+03 0.  0.
          5    1    3    3  501    0  0.17378530608E+01  0.36835457013E+02 -0.14483090951E+03  0.14952576158E+03  0.47000000000E+01 0.  1.
         -5    1    3    3    0  501 -0.71203531525E+02 -0.25842313417E+02 -0.44433983487E+02  0.87944510647E+02  0.47000000000E+01 0.  1.
          5    1    4    4  502    0 -0.40616580185E+01  0.33398115014E+02 -0.48032762390E+02  0.58831687169E+02  0.47000000000E+01 0.  1.
         -5    1    4    4    0  502  0.73527336483E+02 -0.44391258610E+02 -0.51781719711E+03  0.52491293818E+03  0.47000000000E+01 0.  1.
<mgrwt>
<rscale>  0 0.32279323E+03</rscale>
<asrwt>0</asrwt>
<pdfrwt beam="1">  1       21 0.50846185E-02 0.32279323E+03</pdfrwt>
<pdfrwt beam="2">  1       21 0.12125614E+00 0.32279323E+03</pdfrwt>
<totfact> 0.12867912E+05</totfact>
</mgrwt>
</event>
<event>
 8    1  0.4760912E-006  0.3320043E+03  0.7546771E-02  0.1070253E+00
         21   -1    0    0  504  503  0.00000000000E+00  0.00000000000E+00  0.52348823041E+02  0.52348823041E+02  0.00000000000E+00 0.  1.
         21   -1    0    0  503  504 -0.00000000000E+00 -0.00000000000E+00 -0.52640567426E+03  0.52640567426E+03  0.00000000000E+00 0.  1.
         25    2    1    2    0    0  0.10884367261E+03 -0.35657982236E+01 -0.25183371556E+03  0.30150409230E+03  0.12499934958E+03 0.  0.
         25    2    1    2    0    0 -0.10884367261E+03  0.35657982236E+01 -0.22222313566E+03  0.27725040500E+03  0.12500002028E+03 0.  0.
          5    1    3    3  501    0  0.54558746220E+02 -0.23197788235E+01 -0.12732036821E+02  0.56269289355E+02  0.47000000000E+01 0. -1.
         -5    1    3    3    0  501  0.54284926390E+02 -0.12460194001E+01 -0.23910167874E+03  0.24523480294E+03  0.47000000000E+01 0. -1.
          5    1    4    4  502    0  0.23593884855E+02 -0.16463499829E+02 -0.22961707003E+02  0.37108600319E+02  0.47000000000E+01 0. -1.
         -5    1    4    4    0  502 -0.13243755747E+03  0.20029298053E+02 -0.19926142865E+03  0.24014180468E+03  0.47000000000E+01 0. -1.
<mgrwt>
<rscale>  0 0.33200432E+03</rscale>
<asrwt>0</asrwt>
<pdfrwt beam="1">  1       21 0.80536652E-02 0.33200432E+03</pdfrwt>
<pdfrwt beam="2">  1       21 0.80985488E-01 0.33200432E+03</pdfrwt>
<totfact> 0.15228739E+05</totfact>
</mgrwt>
</event>
<event>
 8    1  0.4760912E-006  0.2591150E+03  0.7546771E-02  0.1107676E+00
         21   -1    0    0  504  503  0.00000000000E+00  0.00000000000E+00  0.64454040278E+02  0.64454040278E+02  0.00000000000E+00 0.  1.
         21   -1    0    0  503  504 -0.00000000000E+00 -0.00000000000E+00 -0.26042036072E+03  0.26042036072E+03  0.00000000000E+00 0.  1.
         25    2    1    2    0    0 -0.80109587391E+01 -0.30604793417E+02 -0.11370166254E+03  0.17192808544E+03  0.12502147679E+03 0.  0.
         25    2    1    2    0    0  0.80109587391E+01  0.30604793417E+02 -0.82264657906E+02  0.15294631556E+03  0.12499709062E+03 0.  0.
          5    1    3    3  501    0 -0.78555159066E+01 -0.38367387317E+02 -0.13929556231E+03  0.14477261211E+03  0.47000000000E+01 0. -1.
         -5    1    3    3    0  501 -0.15544283243E+00  0.77625938998E+01  0.25593899766E+02  0.27155473330E+02  0.47000000000E+01 0. -1.
          5    1    4    4  502    0  0.36464189178E+02  0.55712713377E+02 -0.52437593869E+01  0.66956183708E+02  0.47000000000E+01 0. -1.
         -5    1    4    4    0  502 -0.28453230438E+02 -0.25107919960E+02 -0.77020898519E+02  0.85990131851E+02  0.47000000000E+01 0. -1.
<mgrwt>
<rscale>  0 0.25911499E+03</rscale>
<asrwt>0</asrwt>
<pdfrwt beam="1">  1       21 0.99160062E-02 0.25911499E+03</pdfrwt>
<pdfrwt beam="2">  1       21 0.40064671E-01 0.25911499E+03</pdfrwt>
<totfact> 0.48798378E+05</totfact>
</mgrwt>
</event>
<event>
 8    1  0.4760912E-006  0.3568088E+03  0.7546771E-02  0.1059855E+00
         21   -1    0    0  504  503  0.00000000000E+00  0.00000000000E+00  0.21671607314E+03  0.21671607314E+03  0.00000000000E+00 0.  1.
         21   -1    0    0  503  504 -0.00000000000E+00 -0.00000000000E+00 -0.14686560190E+03  0.14686560190E+03  0.00000000000E+00 0.  1.
         25    2    1    2    0    0  0.68698900564E+02  0.68959719472E+02 -0.48661485233E+02  0.16573431932E+03  0.12499977043E+03 0.  0.
         25    2    1    2    0    0 -0.68698900564E+02 -0.68959719472E+02  0.11851195647E+03  0.19784735572E+03  0.12499404182E+03 0.  0.
          5    1    3    3  501    0 -0.13563421235E+02  0.64957995917E+01  0.31289125591E+02  0.35032287795E+02  0.47000000000E+01 0.  1.
         -5    1    3    3    0  501  0.82262321799E+02  0.62463919880E+02 -0.79950610824E+02  0.13070203153E+03  0.47000000000E+01 0.  1.
          5    1    4    4  502    0  0.20880668478E+02 -0.61347729034E+02  0.29885426044E+02  0.71517654209E+02  0.47000000000E+01 0.  1.
         -5    1    4    4    0  502 -0.89579569042E+02 -0.76119904382E+01  0.88626530424E+02  0.12632970151E+03  0.47000000000E+01 0.  1.
<mgrwt>
<rscale>  0 0.35680884E+03</rscale>
<asrwt>0</asrwt>
<pdfrwt beam="1">  1       21 0.33340934E-01 0.35680884E+03</pdfrwt>
<pdfrwt beam="2">  1       21 0.22594708E-01 0.35680884E+03</pdfrwt>
<totfact> 0.15214731E+05</totfact>
</mgrwt>
</event>
<event>
 8    1  0.4760912E-006  0.2931343E+03  0.7546771E-02  0.1088724E+00
         21   -1    0    0  504  503  0.00000000000E+00  0.00000000000E+00  0.30960008730E+02  0.30960008730E+02  0.00000000000E+00 0. -1.
         21   -1    0    0  503  504 -0.00000000000E+00 -0.00000000000E+00 -0.69386044268E+03  0.69386044268E+03  0.00000000000E+00 0. -1.
         25    2    1    2    0    0  0.25587830276E+02 -0.26624576539E+02 -0.49719980231E+03  0.51400023115E+03  0.12499995629E+03 0.  0.
         25    2    1    2    0    0 -0.25587830276E+02  0.26624576539E+02 -0.16570063164E+03  0.21082022026E+03  0.12499944324E+03 0.  0.
          5    1    3    3  501    0 -0.25500631950E+01 -0.36046105074E+02 -0.47561024798E+03  0.47700421643E+03  0.47000000000E+01 0. -1.
         -5    1    3    3    0  501  0.28137893471E+02  0.94215285349E+01 -0.21589554335E+02  0.36996014722E+02  0.47000000000E+01 0. -1.
          5    1    4    4  502    0 -0.76371366698E+02  0.14393839896E+02 -0.96594354888E+02  0.12406581993E+03  0.47000000000E+01 0. -1.
         -5    1    4    4    0  502  0.50783536421E+02  0.12230736643E+02 -0.69106276755E+02  0.86754400333E+02  0.47000000000E+01 0. -1.
<mgrwt>
<rscale>  0 0.29313427E+03</rscale>
<asrwt>0</asrwt>
<pdfrwt beam="1">  1       21 0.47630784E-02 0.29313427E+03</pdfrwt>
<pdfrwt beam="2">  1       21 0.10674776E+00 0.29313427E+03</pdfrwt>
<totfact> 0.19879339E+05</totfact>
</mgrwt>
</event>
<event>
 8    1  0.4760912E-006  0.5710593E+03  0.7546771E-02  0.9967337E-01
         21   -1    0    0  504  503  0.00000000000E+00  0.00000000000E+00  0.13338367961E+03  0.13338367961E+03  0.00000000000E+00 0.  1.
         21   -1    0    0  503  504 -0.00000000000E+00 -0.00000000000E+00 -0.61122316564E+03  0.61122316564E+03  0.00000000000E+00 0.  1.
         25    2    1    2    0    0  0.16051668097E+03  0.18755989571E+03 -0.14710905618E+03  0.31338446862E+03  0.12499772565E+03 0.  0.
         25    2    1    2    0    0 -0.16051668097E+03 -0.18755989571E+03 -0.33073042985E+03  0.43122237663E+03  0.12500320606E+03 0.  0.
          5    1    3    3  501    0  0.12258616862E+03  0.54971246935E+02 -0.45129975548E+02  0.14180272007E+03  0.47000000000E+01 0. -1.
         -5    1    3    3    0  501  0.37930512348E+02  0.13258864877E+03 -0.10197908063E+03  0.17158174855E+03  0.47000000000E+01 0. -1.
          5    1    4    4  502    0 -0.14490848464E+03 -0.75853273333E+02 -0.20362006614E+03  0.26121908302E+03  0.47000000000E+01 0. -1.
         -5    1    4    4    0  502 -0.15608196324E+02 -0.11170662237E+03 -0.12711036371E+03  0.17000329361E+03  0.47000000000E+01 0. -1.
<mgrwt>
<rscale>  0 0.57105935E+03</rscale>
<asrwt>0</asrwt>
<pdfrwt beam="1">  1       21 0.20520566E-01 0.57105935E+03</pdfrwt>
<pdfrwt beam="2">  1       21 0.94034333E-01 0.57105935E+03</pdfrwt>
<totfact> 0.18274175E+04</totfact>
</mgrwt>
</event>
<event>
 8    1  0.4760912E-006  0.3412974E+03  0.7546771E-02  0.1066245E+00
         21   -1    0    0  504  503  0.00000000000E+00  0.00000000000E+00  0.32263538468E+02  0.32263538468E+02  0.00000000000E+00 0. -1.
         21   -1    0    0  503  504 -0.00000000000E+00 -0.00000000000E+00 -0.90259701949E+03  0.90259701949E+03  0.00000000000E+00 0. -1.
         25    2    1    2    0    0 -0.47677970640E+01  0.27264938711E+02 -0.74420403261E+03  0.75514011736E+03  0.12502338151E+03 0.  0.
         25    2    1    2    0    0  0.47677970640E+01 -0.27264938711E+02 -0.12612944842E+03  0.17972044060E+03  0.12499876095E+03 0.  0.
          5    1    3    3  501    0  0.10321001444E+01 -0.29123292383E+02 -0.59069185956E+03  0.59142894276E+03  0.47000000000E+01 0. -1.
         -5    1    3    3    0  501 -0.57998972084E+01  0.56388231093E+02 -0.15351217305E+03  0.16371117460E+03  0.47000000000E+01 0. -1.
          5    1    4    4  502    0  0.61407971670E+02 -0.29771329810E+02 -0.87001606997E+02  0.11067357717E+03  0.47000000000E+01 0.  1.
         -5    1    4    4    0  502 -0.56640174606E+02  0.25063910990E+01 -0.39127841421E+02  0.69046863433E+02  0.47000000000E+01 0.  1.
<mgrwt>
<rscale>  0 0.34129737E+03</rscale>
<asrwt>0</asrwt>
<pdfrwt beam="1">  1       21 0.49636213E-02 0.34129737E+03</pdfrwt>
<pdfrwt beam="2">  1       21 0.13886108E+00 0.34129737E+03</pdfrwt>
<totfact> 0.94141834E+04</totfact>
</mgrwt>
</event>
<event>
 8    1  0.4760912E-006  0.2793662E+03  0.7546771E-02  0.1096036E+00
         21   -1    0    0  504  503  0.00000000000E+00  0.00000000000E+00  0.30053830127E+02  0.30053830127E+02  0.00000000000E+00 0.  1.
         21   -1    0    0  503  504 -0.00000000000E+00 -0.00000000000E+00 -0.64921397352E+03  0.64921397352E+03  0.00000000000E+00 0.  1.
         25    2    1    2    0    0  0.15114817472E+01  0.36920774899E+02 -0.43166896163E+03  0.45091988939E+03  0.12500090407E+03 0.  0.
         25    2    1    2    0    0 -0.15114817472E+01 -0.36920774899E+02 -0.18749118176E+03  0.22834791425E+03  0.12499759401E+03 0.  0.
          5    1    3    3  501    0 -0.45809258841E+02  0.55889879517E+02 -0.17858254115E+03  0.19270698180E+03  0.47000000000E+01 0.  1.
         -5    1    3    3    0  501  0.47320740588E+02 -0.18969104618E+02 -0.25308642048E+03  0.25821290760E+03  0.47000000000E+01 0.  1.
          5    1    4    4  502    0 -0.29670197525E+02  0.34272836418E+02 -0.11113902784E+03  0.12012044558E+03  0.47000000000E+01 0.  1.
         -5    1    4    4    0  502  0.28158715778E+02 -0.71193611317E+02 -0.76352153922E+02  0.10822746867E+03  0.47000000000E+01 0.  1.
<mgrwt>
<rscale>  0 0.27936619E+03</rscale>
<asrwt>0</asrwt>
<pdfrwt beam="1">  1       21 0.46236659E-02 0.27936619E+03</pdfrwt>
<pdfrwt beam="2">  1       21 0.99879078E-01 0.27936619E+03</pdfrwt>
<totfact> 0.24651990E+05</totfact>
</mgrwt>
</event>
<event>
 8    1  0.4760912E-006  0.2968081E+03  0.7546771E-02  0.1086847E+00
         21   -1    0    0  504  503  0.00000000000E+00  0.00000000000E+00  0.40510143421E+02  0.40510143421E+02  0.00000000000E+00 0. -1.
         21   -1    0    0  503  504 -0.00000000000E+00 -0.00000000000E+00 -0.54366028416E+03  0.54366028416E+03  0.00000000000E+00 0. -1.
         25    2    1    2    0    0 -0.49686185356E+02 -0.47322475056E+02 -0.33251550870E+03  0.36180031920E+03  0.12499909515E+03 0.  0.
         25    2    1    2    0    0  0.49686185356E+02  0.47322475056E+02 -0.17063463204E+03  0.22237010838E+03  0.12499661511E+03 0.  0.
          5    1    3    3  501    0 -0.84685147506E+02 -0.48275011162E+02 -0.29285747986E+03  0.30869020785E+03  0.47000000000E+01 0. -1.
         -5    1    3    3    0  501  0.34998962150E+02  0.95253610645E+00 -0.39658028837E+02  0.53110111352E+02  0.47000000000E+01 0. -1.
          5    1    4    4  502    0  0.43593754531E+01  0.23755286530E+02 -0.16926977528E+03  0.17104872000E+03  0.47000000000E+01 0. -1.
         -5    1    4    4    0  502  0.45326809903E+02  0.23567188526E+02 -0.13648567636E+01  0.51321388378E+02  0.47000000000E+01 0. -1.
<mgrwt>
<rscale>  0 0.29680806E+03</rscale>
<asrwt>0</asrwt>
<pdfrwt beam="1">  1       21 0.62323304E-02 0.29680806E+03</pdfrwt>
<pdfrwt beam="2">  1       21 0.83640035E-01 0.29680806E+03</pdfrwt>
<totfact> 0.22309137E+05</totfact>
</mgrwt>
</event>
<event>
 8    1  0.4760912E-006  0.3011558E+03  0.7546771E-02  0.1084664E+00
         21   -1    0    0  504  503  0.00000000000E+00  0.00000000000E+00  0.30721942070E+02  0.30721942070E+02  0.00000000000E+00 0. -1.
         21   -1    0    0  503  504 -0.00000000000E+00 -0.00000000000E+00 -0.73802956951E+03  0.73802956951E+03  0.00000000000E+00 0. -1.
         25    2    1    2    0    0 -0.30576712747E+02  0.60339508063E+02 -0.48056338459E+03  0.50114464384E+03  0.12501598233E+03 0.  0.
         25    2    1    2    0    0  0.30576712747E+02 -0.60339508063E+02 -0.22674424284E+03  0.26760686774E+03  0.12499876961E+03 0.  0.
          5    1    3    3  501    0  0.43050801083E+02  0.15209721949E+02 -0.26382441452E+03  0.26778745082E+03  0.47000000000E+01 0. -1.
         -5    1    3    3    0  501 -0.73627513829E+02  0.45129786114E+02 -0.21673897007E+03  0.23335719302E+03  0.47000000000E+01 0. -1.
          5    1    4    4  502    0  0.32353968540E+02 -0.95949020742E+02 -0.19439331562E+03  0.21923468024E+03  0.47000000000E+01 0. -1.
         -5    1    4    4    0  502 -0.17772557930E+01  0.35609512679E+02 -0.32350927222E+02  0.48372187500E+02  0.47000000000E+01 0. -1.
<mgrwt>
<rscale>  0 0.30115578E+03</rscale>
<asrwt>0</asrwt>
<pdfrwt beam="1">  1       21 0.47264529E-02 0.30115578E+03</pdfrwt>
<pdfrwt beam="2">  1       21 0.11354300E+00 0.30115578E+03</pdfrwt>
<totfact> 0.17277546E+05</totfact>
</mgrwt>
</event>
<event>
 8    1  0.4760912E-006  0.8925897E+03  0.7546771E-02  0.9434892E-01
         21   -1    0    0  504  503  0.00000000000E+00  0.00000000000E+00  0.79614874595E+03  0.79614874595E+03  0.00000000000E+00 0.  1.
         21   -1    0    0  503  504 -0.00000000000E+00 -0.00000000000E+00 -0.25017822441E+03  0.25017822441E+03  0.00000000000E+00 0.  1.
         25    2    1    2    0    0  0.40430768073E+02 -0.41037784488E+03  0.40922228071E+03  0.59425347011E+03  0.12501875516E+03 0.  0.
         25    2    1    2    0    0 -0.40430768073E+02  0.41037784488E+03  0.13674824083E+03  0.45207350025E+03  0.12500298269E+03 0.  0.
          5    1    3    3  501    0  0.33652548603E+02 -0.36446757897E+02  0.88444098685E+02  0.10151506677E+03  0.47000000000E+01 0. -1.
         -5    1    3    3    0  501  0.67782194703E+01 -0.37393108698E+03  0.32077818202E+03  0.49273840335E+03  0.47000000000E+01 0. -1.
          5    1    4    4  502    0 -0.18071801804E+02  0.17481599856E+03 -0.55920541150E+01  0.17589935885E+03  0.47000000000E+01 0.  1.
         -5    1    4    4    0  502 -0.22358966269E+02  0.23556184632E+03  0.14234029495E+03  0.27617414140E+03  0.47000000000E+01 0.  1.
<mgrwt>
<rscale>  0 0.89258967E+03</rscale>
<asrwt>0</asrwt>
<pdfrwt beam="1">  1       21 0.12248442E+00 0.89258967E+03</pdfrwt>
<pdfrwt beam="2">  1       21 0.38488958E-01 0.89258967E+03</pdfrwt>
<totfact> 0.25319661E+03</totfact>
</mgrwt>
</event>
<event>
 8    1  0.4760912E-006  0.2653960E+03  0.7546771E-02  0.1103944E+00
         21   -1    0    0  504  503  0.00000000000E+00  0.00000000000E+00  0.78528212136E+02  0.78528212136E+02  0.00000000000E+00 0. -1.
         21   -1    0    0  503  504 -0.00000000000E+00 -0.00000000000E+00 -0.22423473401E+03  0.22423473401E+03  0.00000000000E+00 0. -1.
         25    2    1    2    0    0  0.26869913907E+02 -0.32653437684E+02 -0.56889182145E+02  0.14369592733E+03  0.12499560480E+03 0.  0.
         25    2    1    2    0    0 -0.26869913907E+02  0.32653437684E+02 -0.88817339729E+02  0.15906701882E+03  0.12500222947E+03 0.  0.
          5    1    3    3  501    0 -0.15816707949E+02 -0.50306995325E+02  0.17709796093E+02  0.55827313267E+02  0.47000000000E+01 0. -1.
         -5    1    3    3    0  501  0.42686621855E+02  0.17653557640E+02 -0.74598978239E+02  0.87868614061E+02  0.47000000000E+01 0. -1.
          5    1    4    4  502    0  0.47838531308E+02 -0.46346858604E+01 -0.30625323588E+02  0.57183964847E+02  0.47000000000E+01 0. -1.
         -5    1    4    4    0  502 -0.74708445215E+02  0.37288123545E+02 -0.58192016141E+02  0.10188305397E+03  0.47000000000E+01 0. -1.
<mgrwt>
<rscale>  0 0.26539595E+03</rscale>
<asrwt>0</asrwt>
<pdfrwt beam="1">  1       21 0.12081263E-01 0.26539595E+03</pdfrwt>
<pdfrwt beam="2">  1       21 0.34497651E-01 0.26539595E+03</pdfrwt>
<totfact> 0.46270410E+05</totfact>
</mgrwt>
</event>
<event>
 8    1  0.4760912E-006  0.3183946E+03  0.7546771E-02  0.1076391E+00
         21   -1    0    0  504  503  0.00000000000E+00  0.00000000000E+00  0.44742469129E+02  0.44742469129E+02  0.00000000000E+00 0.  1.
         21   -1    0    0  503  504 -0.00000000000E+00 -0.00000000000E+00 -0.56643677814E+03  0.56643677814E+03  0.00000000000E+00 0.  1.
         25    2    1    2    0    0  0.58343106038E+02  0.54243028394E+02 -0.37231888782E+03  0.40074006941E+03  0.12500009940E+03 0.  0.
         25    2    1    2    0    0 -0.58343106038E+02 -0.54243028394E+02 -0.14937542118E+03  0.21043917785E+03  0.12500162787E+03 0.  0.
          5    1    3    3  501    0  0.68654305469E+02  0.81128987357E+02 -0.34402323237E+03  0.36009637691E+03  0.47000000000E+01 0. -1.
         -5    1    3    3    0  501 -0.10311199432E+02 -0.26885958963E+02 -0.28295655451E+02  0.40643692506E+02  0.47000000000E+01 0. -1.
          5    1    4    4  502    0 -0.25115841056E+02 -0.91410583917E+02 -0.75939251905E+02  0.12155476257E+03  0.47000000000E+01 0. -1.
         -5    1    4    4    0  502 -0.33227264981E+02  0.37167555523E+02 -0.73436169278E+02  0.88884415281E+02  0.47000000000E+01 0. -1.
<mgrwt>
<rscale>  0 0.31839460E+03</rscale>
<asrwt>0</asrwt>
<pdfrwt beam="1">  1       21 0.68834567E-02 0.31839460E+03</pdfrwt>
<pdfrwt beam="2">  1       21 0.87144121E-01 0.31839460E+03</pdfrwt>
<totfact> 0.16979328E+05</totfact>
</mgrwt>
</event>
<event>
 8    1  0.4760912E-006  0.2700432E+03  0.7546771E-02  0.1101255E+00
         21   -1    0    0  504  503  0.00000000000E+00  0.00000000000E+00  0.31450872997E+03  0.31450872997E+03  0.00000000000E+00 0. -1.
         21   -1    0    0  503  504 -0.00000000000E+00 -0.00000000000E+00 -0.57966049516E+02  0.57966049516E+02  0.00000000000E+00 0. -1.
         25    2    1    2    0    0  0.11792766909E+02 -0.25110468280E+02  0.18736294281E+03  0.22693592839E+03  0.12500175313E+03 0.  0.
         25    2    1    2    0    0 -0.11792766909E+02  0.25110468280E+02  0.69179737645E+02  0.14553885110E+03  0.12500446436E+03 0.  0.
          5    1    3    3  501    0  0.52746452960E+02 -0.19723657096E+02  0.29609893392E+02  0.63796917917E+02  0.47000000000E+01 0.  1.
         -5    1    3    3    0  501 -0.40953686051E+02 -0.53868111843E+01  0.15775304942E+03  0.16313901047E+03  0.47000000000E+01 0.  1.
          5    1    4    4  502    0  0.27918125608E+02  0.19056504976E+02 -0.25487494675E+02  0.42594301311E+02  0.47000000000E+01 0. -1.
         -5    1    4    4    0  502 -0.39710892517E+02  0.60539633044E+01  0.94667232320E+02  0.10294454979E+03  0.47000000000E+01 0. -1.
<mgrwt>
<rscale>  0 0.27004317E+03</rscale>
<asrwt>0</asrwt>
<pdfrwt beam="1">  1       21 0.48385958E-01 0.27004317E+03</pdfrwt>
<pdfrwt beam="2">  1       21 0.89178539E-02 0.27004317E+03</pdfrwt>
<totfact> 0.39815519E+05</totfact>
</mgrwt>
</event>
<event>
 8    1  0.4760912E-006  0.2831940E+03  0.7546771E-02  0.1093957E+00
         21   -1    0    0  504  503  0.00000000000E+00  0.00000000000E+00  0.35249389819E+03  0.35249389819E+03  0.00000000000E+00 0. -1.
         21   -1    0    0  503  504 -0.00000000000E+00 -0.00000000000E+00 -0.56879609055E+02  0.56879609055E+02  0.00000000000E+00 0. -1.
         25    2    1    2    0    0  0.35478443670E+02 -0.41235061943E+02  0.92468060982E+02  0.16472622546E+03  0.12500134701E+03 0.  0.
         25    2    1    2    0    0 -0.35478443670E+02  0.41235061943E+02  0.20314622816E+03  0.24464728178E+03  0.12499940868E+03 0.  0.
          5    1    3    3  501    0  0.70191486971E+02  0.74449676406E+01  0.73045988754E+02  0.10168617831E+03  0.47000000000E+01 0.  1.
         -5    1    3    3    0  501 -0.34713043301E+02 -0.48680029584E+02  0.19422072228E+02  0.63040047154E+02  0.47000000000E+01 0.  1.
          5    1    4    4  502    0  0.37172406146E+02 -0.30803816594E+01  0.11932049827E+03  0.12510294895E+03  0.47000000000E+01 0. -1.
         -5    1    4    4    0  502 -0.72650849815E+02  0.44315443603E+02  0.83825729888E+02  0.11954433283E+03  0.47000000000E+01 0. -1.
<mgrwt>
<rscale>  0 0.28319403E+03</rscale>
<asrwt>0</asrwt>
<pdfrwt beam="1">  1       21 0.54229829E-01 0.28319403E+03</pdfrwt>
<pdfrwt beam="2">  1       21 0.87507092E-02 0.28319403E+03</pdfrwt>
<totfact> 0.32275608E+05</totfact>
</mgrwt>
</event>
<event>
 8    1  0.4760912E-006  0.2587920E+03  0.7546771E-02  0.1107871E+00
         21   -1    0    0  504  503  0.00000000000E+00  0.00000000000E+00  0.22516947900E+03  0.22516947900E+03  0.00000000000E+00 0.  1.
         21   -1    0    0  503  504 -0.00000000000E+00 -0.00000000000E+00 -0.74358772053E+02  0.74358772053E+02  0.00000000000E+00 0.  1.
         25    2    1    2    0    0  0.27382488361E+02 -0.16608698631E+02  0.86484719300E+02  0.15533682516E+03  0.12499709213E+03 0.  0.
         25    2    1    2    0    0 -0.27382488361E+02  0.16608698631E+02  0.64325987645E+02  0.14419142589E+03  0.12501073984E+03 0.  0.
          5    1    3    3  501    0 -0.48941913152E+02 -0.16432748864E+02  0.43105228070E+02  0.67420299504E+02  0.47000000000E+01 0.  1.
         -5    1    3    3    0  501  0.76324401513E+02 -0.17594976686E+00  0.43379491230E+02  0.87916525660E+02  0.47000000000E+01 0.  1.
          5    1    4    4  502    0  0.28079920168E+02  0.24669626311E+02 -0.20137407374E+02  0.42716244623E+02  0.47000000000E+01 0.  1.
         -5    1    4    4    0  502 -0.55462408529E+02 -0.80609276798E+01  0.84463395018E+02  0.10147518127E+03  0.47000000000E+01 0.  1.
<mgrwt>
<rscale>  0 0.25879201E+03</rscale>
<asrwt>0</asrwt>
<pdfrwt beam="1">  1       21 0.34641458E-01 0.25879201E+03</pdfrwt>
<pdfrwt beam="2">  1       21 0.11439811E-01 0.25879201E+03</pdfrwt>
<totfact> 0.50678678E+05</totfact>
</mgrwt>
</event>
<event>
 8    1  0.4760912E-006  0.3491259E+03  0.7546771E-02  0.1062974E+00
         21   -1    0    0  504  503  0.00000000000E+00  0.00000000000E+00  0.54167660821E+03  0.54167660821E+03  0.00000000000E+00 0.  1.
         21   -1    0    0  503  504 -0.00000000000E+00 -0.00000000000E+00 -0.56255382485E+02  0.56255382485E+02  0.00000000000E+00 0.  1.
         25    2    1    2    0    0 -0.15578388894E+02  0.11090959634E+03  0.32492123350E+03  0.36570736451E+03  0.12499777484E+03 0.  0.
         25    2    1    2    0    0  0.15578388894E+02 -0.11090959634E+03  0.16049999222E+03  0.23222462618E+03  0.12499761894E+03 0.  0.
          5    1    3    3  501    0 -0.63480803016E+02  0.94073362416E+02  0.18861930761E+03  0.22017934297E+03  0.47000000000E+01 0. -1.
         -5    1    3    3    0  501  0.47902414122E+02  0.16836233926E+02  0.13630192588E+03  0.14552802153E+03  0.47000000000E+01 0. -1.
          5    1    4    4  502    0  0.33273001759E+02 -0.13303533226E+03  0.11824229571E+03  0.18113205892E+03  0.47000000000E+01 0. -1.
         -5    1    4    4    0  502 -0.17694612864E+02  0.22125735920E+02  0.42257696517E+02  0.51092567261E+02  0.47000000000E+01 0. -1.
<mgrwt>
<rscale>  0 0.34912591E+03</rscale>
<asrwt>0</asrwt>
<pdfrwt beam="1">  1       21 0.83334859E-01 0.34912591E+03</pdfrwt>
<pdfrwt beam="2">  1       21 0.86546746E-02 0.34912591E+03</pdfrwt>
<totfact> 0.12503988E+05</totfact>
</mgrwt>
</event>
<event>
 8    1  0.4760912E-006  0.5122859E+03  0.7546771E-02  0.1010621E+00
         21   -1    0    0  504  503  0.00000000000E+00  0.00000000000E+00  0.71828606667E+02  0.71828606667E+02  0.00000000000E+00 0. -1.
         21   -1    0    0  503  504 -0.00000000000E+00 -0.00000000000E+00 -0.91341331011E+03  0.91341331011E+03  0.00000000000E+00 0. -1.
         25    2    1    2    0    0 -0.11657739206E+03  0.16221742443E+03 -0.22769156729E+03  0.32768040979E+03  0.12500487997E+03 0.  0.
         25    2    1    2    0    0  0.11657739206E+03 -0.16221742443E+03 -0.61389313615E+03  0.65756150698E+03  0.12497028339E+03 0.  0.
          5    1    3    3  501    0  0.16421942587E+02 -0.43875163871E+01 -0.29531479576E+01  0.17881319337E+02  0.47000000000E+01 0. -1.
         -5    1    3    3    0  501 -0.13299933464E+03  0.16660494082E+03 -0.22473841934E+03  0.30979909046E+03  0.47000000000E+01 0. -1.
          5    1    4    4  502    0  0.84879874768E+02 -0.34171343446E+02 -0.35915511601E+03  0.37065720175E+03  0.47000000000E+01 0. -1.
         -5    1    4    4    0  502  0.31697517287E+02 -0.12804608099E+03 -0.25473802014E+03  0.28690430523E+03  0.47000000000E+01 0. -1.
<mgrwt>
<rscale>  0 0.51228588E+03</rscale>
<asrwt>0</asrwt>
<pdfrwt beam="1">  1       21 0.11050556E-01 0.51228588E+03</pdfrwt>
<pdfrwt beam="2">  1       21 0.14052511E+00 0.51228588E+03</pdfrwt>
<totfact> 0.21251521E+04</totfact>
</mgrwt>
</event>
<event>
 8    1  0.4760912E-006  0.3147077E+03  0.7546771E-02  0.1078111E+00
         21   -1    0    0  504  503  0.00000000000E+00  0.00000000000E+00  0.26430230900E+03  0.26430230900E+03  0.00000000000E+00 0.  1.
         21   -1    0    0  503  504 -0.00000000000E+00 -0.00000000000E+00 -0.93681518878E+02  0.93681518878E+02  0.00000000000E+00 0.  1.
         25    2    1    2    0    0  0.93453666919E+02 -0.17230416994E+02  0.96838751045E+02  0.18448114308E+03  0.12500029327E+03 0.  0.
         25    2    1    2    0    0 -0.93453666919E+02  0.17230416994E+02  0.73782039078E+02  0.17350268480E+03  0.12501566787E+03 0.  0.
          5    1    3    3  501    0  0.98842381925E+02 -0.57084185890E+02  0.56966146994E+02  0.12765442666E+03  0.47000000000E+01 0.  1.
         -5    1    3    3    0  501 -0.53887150057E+01  0.39853768896E+02  0.39872604051E+02  0.56826716414E+02  0.47000000000E+01 0.  1.
          5    1    4    4  502    0 -0.84009402388E+02  0.54653264284E+02  0.12752333288E+02  0.10113985857E+03  0.47000000000E+01 0. -1.
         -5    1    4    4    0  502 -0.94442645315E+01 -0.37422847290E+02  0.61029705791E+02  0.72362826235E+02  0.47000000000E+01 0. -1.
<mgrwt>
<rscale>  0 0.31470775E+03</rscale>
<asrwt>0</asrwt>
<pdfrwt beam="1">  1       21 0.40661893E-01 0.31470775E+03</pdfrwt>
<pdfrwt beam="2">  1       21 0.14412541E-01 0.31470775E+03</pdfrwt>
<totfact> 0.23847712E+05</totfact>
</mgrwt>
</event>
<event>
 8    1  0.4760912E-006  0.3820782E+03  0.7546771E-02  0.1050168E+00
         21   -1    0    0  504  503  0.00000000000E+00  0.00000000000E+00  0.38413721382E+03  0.38413721382E+03  0.00000000000E+00 0. -1.
         21   -1    0    0  503  504 -0.00000000000E+00 -0.00000000000E+00 -0.95007562386E+02  0.95007562386E+02  0.00000000000E+00 0. -1.
         25    2    1    2    0    0 -0.97547359732E+02 -0.10600664056E+03  0.15811685690E+03  0.24775243658E+03  0.12500973626E+03 0.  0.
         25    2    1    2    0    0  0.97547359732E+02  0.10600664056E+03  0.13101279453E+03  0.23139233962E+03  0.12500066909E+03 0.  0.
          5    1    3    3  501    0 -0.64075845268E+01  0.23701502226E+02  0.49723912759E+02  0.55654073052E+02  0.47000000000E+01 0. -1.
         -5    1    3    3    0  501 -0.91139775205E+02 -0.12970814279E+03  0.10839294414E+03  0.19209836353E+03  0.47000000000E+01 0. -1.
          5    1    4    4  502    0  0.77101435622E+02 -0.49719597918E+01  0.60513508878E+02  0.98251343583E+02  0.47000000000E+01 0.  1.
         -5    1    4    4    0  502  0.20445924110E+02  0.11097860035E+03  0.70499285653E+02  0.13314099604E+03  0.47000000000E+01 0.  1.
<mgrwt>
<rscale>  0 0.38207821E+03</rscale>
<asrwt>0</asrwt>
<pdfrwt beam="1">  1       21 0.59098032E-01 0.38207821E+03</pdfrwt>
<pdfrwt beam="2">  1       21 0.14616548E-01 0.38207821E+03</pdfrwt>
<totfact> 0.10408655E+05</totfact>
</mgrwt>
</event>
<event>
 8    1  0.4760912E-006  0.2945549E+03  0.7546771E-02  0.1087995E+00
         21   -1    0    0  504  503  0.00000000000E+00  0.00000000000E+00  0.14926246940E+02  0.14926246940E+02  0.00000000000E+00 0.  1.
         21   -1    0    0  503  504 -0.00000000000E+00 -0.00000000000E+00 -0.14531887675E+04  0.14531887675E+04  0.00000000000E+00 0.  1.
         25    2    1    2    0    0 -0.50587050998E+02 -0.56963658609E+02 -0.63845733038E+03  0.65502287330E+03  0.12499317461E+03 0.  0.
         25    2    1    2    0    0  0.50587050998E+02  0.56963658609E+02 -0.79980519022E+03  0.81309214118E+03  0.12500631830E+03 0.  0.
          5    1    3    3  501    0 -0.33212430564E+02  0.27161899188E+02 -0.89482207566E+02  0.99347822232E+02  0.47000000000E+01 0.  1.
         -5    1    3    3    0  501 -0.17374620434E+02 -0.84125557796E+02 -0.54897512281E+03  0.55567505106E+03  0.47000000000E+01 0.  1.
          5    1    4    4  502    0  0.51440885254E+02  0.88338382351E+02 -0.43349512579E+03  0.44540986581E+03  0.47000000000E+01 0. -1.
         -5    1    4    4    0  502 -0.85383425512E+00 -0.31374723742E+02 -0.36631006443E+03  0.36768227538E+03  0.47000000000E+01 0. -1.
<mgrwt>
<rscale>  0 0.29455495E+03</rscale>
<asrwt>0</asrwt>
<pdfrwt beam="1">  1       21 0.22963450E-02 0.29455495E+03</pdfrwt>
<pdfrwt beam="2">  1       21 0.22356757E+00 0.29455495E+03</pdfrwt>
<totfact> 0.88986998E+04</totfact>
</mgrwt>
</event>
<event>
 8    1  0.4760912E-006  0.3085435E+03  0.7546771E-02  0.1081046E+00
         21   -1    0    0  504  503  0.00000000000E+00  0.00000000000E+00  0.99815737855E+03  0.99815737855E+03  0.00000000000E+00 0. -1.
         21   -1    0    0  503  504 -0.00000000000E+00 -0.00000000000E+00 -0.23843711920E+02  0.23843711920E+02  0.00000000000E+00 0. -1.
         25    2    1    2    0    0 -0.30443746370E+02 -0.83407937282E+02  0.43081494135E+03  0.45728578456E+03  0.12500027752E+03 0.  0.
         25    2    1    2    0    0  0.30443746370E+02  0.83407937282E+02  0.54349872528E+03  0.56471530590E+03  0.12501522566E+03 0.  0.
          5    1    3    3  501    0  0.41740794988E+02 -0.11985329479E+02  0.20563614562E+03  0.21022430039E+03  0.47000000000E+01 0. -1.
         -5    1    3    3    0  501 -0.72184541358E+02 -0.71422607802E+02  0.22517879573E+03  0.24706148418E+03  0.47000000000E+01 0. -1.
          5    1    4    4  502    0  0.59671968242E+02  0.45110493667E+02  0.47477973845E+03  0.48065953696E+03  0.47000000000E+01 0.  1.
         -5    1    4    4    0  502 -0.29228221872E+02  0.38297443615E+02  0.68718986832E+02  0.84055768942E+02  0.47000000000E+01 0.  1.
<mgrwt>
<rscale>  0 0.30854353E+03</rscale>
<asrwt>0</asrwt>
<pdfrwt beam="1">  1       21 0.15356264E+00 0.30854353E+03</pdfrwt>
<pdfrwt beam="2">  1       21 0.36682641E-02 0.30854353E+03</pdfrwt>
<totfact> 0.12162031E+05</totfact>
</mgrwt>
</event>
<event>
 8    1  0.4760912E-006  0.2561736E+03  0.7546771E-02  0.1109464E+00
         21   -1    0    0  504  503  0.00000000000E+00  0.00000000000E+00  0.11939679718E+02  0.11939679718E+02  0.00000000000E+00 0. -1.
         21   -1    0    0  503  504 -0.00000000000E+00 -0.00000000000E+00 -0.13740930282E+04  0.13740930282E+04  0.00000000000E+00 0. -1.
         25    2    1    2    0    0  0.15071999828E+02  0.49170720293E+01 -0.55652688913E+03  0.57061306944E+03  0.12500301558E+03 0.  0.
         25    2    1    2    0    0 -0.15071999828E+02 -0.49170720293E+01 -0.80562645935E+03  0.81541963848E+03  0.12499540810E+03 0.  0.
          5    1    3    3  501    0 -0.15743902151E+02  0.52350913697E+02 -0.14223737020E+03  0.15245342929E+03  0.47000000000E+01 0.  1.
         -5    1    3    3    0  501  0.30815901979E+02 -0.47433841668E+02 -0.41428951893E+03  0.41815964015E+03  0.47000000000E+01 0.  1.
          5    1    4    4  502    0 -0.39175600463E+01  0.59499274129E+02 -0.34358458471E+03  0.34875201469E+03  0.47000000000E+01 0.  1.
         -5    1    4    4    0  502 -0.11154439782E+02 -0.64416346158E+02 -0.46204187464E+03  0.46666762379E+03  0.47000000000E+01 0.  1.
<mgrwt>
<rscale>  0 0.25617362E+03</rscale>
<asrwt>0</asrwt>
<pdfrwt beam="1">  1       21 0.18368744E-02 0.25617362E+03</pdfrwt>
<pdfrwt beam="2">  1       21 0.21139885E+00 0.25617362E+03</pdfrwt>
<totfact> 0.15569787E+05</totfact>
</mgrwt>
</event>
<event>
 8    1  0.4760912E-006  0.2958517E+03  0.7546771E-02  0.1087333E+00
         21   -1    0    0  504  503  0.00000000000E+00  0.00000000000E+00  0.16961892539E+02  0.16961892539E+02  0.00000000000E+00 0. -1.
         21   -1    0    0  503  504 -0.00000000000E+00 -0.00000000000E+00 -0.12900717082E+04  0.12900717082E+04  0.00000000000E+00 0. -1.
         25    2    1    2    0    0  0.22830946676E+02  0.57088540143E+02 -0.41671878118E+03  0.43938636059E+03  0.12500191098E+03 0.  0.
         25    2    1    2    0    0 -0.22830946676E+02 -0.57088540143E+02 -0.85639103447E+03  0.86764724013E+03  0.12500310334E+03 0.  0.
          5    1    3    3  501    0  0.70707848594E+02  0.56706940129E+02 -0.28849356989E+03  0.30243330964E+03  0.47000000000E+01 0. -1.
         -5    1    3    3    0  501 -0.47876901918E+02  0.38160001466E+00 -0.12822521129E+03  0.13695305095E+03  0.47000000000E+01 0. -1.
          5    1    4    4  502    0 -0.59417376254E+02 -0.77010351013E+02 -0.59671721302E+03  0.60461106596E+03  0.47000000000E+01 0.  1.
         -5    1    4    4    0  502  0.36586429578E+02  0.19921810870E+02 -0.25967382145E+03  0.26303617417E+03  0.47000000000E+01 0.  1.
<mgrwt>
<rscale>  0 0.29585170E+03</rscale>
<asrwt>0</asrwt>
<pdfrwt beam="1">  1       21 0.26095230E-02 0.29585170E+03</pdfrwt>
<pdfrwt beam="2">  1       21 0.19847249E+00 0.29585170E+03</pdfrwt>
<totfact> 0.10412230E+05</totfact>
</mgrwt>
</event>
<event>
 8    1  0.4760912E-006  0.2699378E+03  0.7546771E-02  0.1101315E+00
         21   -1    0    0  504  503  0.00000000000E+00  0.00000000000E+00  0.60463635968E+02  0.60463635968E+02  0.00000000000E+00 0. -1.
         21   -1    0    0  503  504 -0.00000000000E+00 -0.00000000000E+00 -0.30128189806E+03  0.30128189806E+03  0.00000000000E+00 0. -1.
         25    2    1    2    0    0 -0.40311556245E+02  0.22028083921E+02 -0.14980242321E+03  0.20043587924E+03  0.12499407042E+03 0.  0.
         25    2    1    2    0    0  0.40311556245E+02 -0.22028083921E+02 -0.91015838880E+02  0.16130965478E+03  0.12500665483E+03 0.  0.
          5    1    3    3  501    0 -0.78811181258E+02  0.15883934754E+01 -0.55739660762E+02  0.96657772926E+02  0.47000000000E+01 0. -1.
         -5    1    3    3    0  501  0.38499625012E+02  0.20439690445E+02 -0.94062762446E+02  0.10377810632E+03  0.47000000000E+01 0. -1.
          5    1    4    4  502    0  0.39332327746E+02 -0.72414837960E+02 -0.54928917174E+02  0.99147449310E+02  0.47000000000E+01 0.  1.
         -5    1    4    4    0  502  0.97922849886E+00  0.50386754039E+02 -0.36086921706E+02  0.62162205473E+02  0.47000000000E+01 0.  1.
<mgrwt>
<rscale>  0 0.26993776E+03</rscale>
<asrwt>0</asrwt>
<pdfrwt beam="1">  1       21 0.93020977E-02 0.26993776E+03</pdfrwt>
<pdfrwt beam="2">  1       21 0.46351062E-01 0.26993776E+03</pdfrwt>
<totfact> 0.40417617E+05</totfact>
</mgrwt>
</event>
<event>
 8    1  0.4760912E-006  0.2940128E+03  0.7546771E-02  0.1088272E+00
         21   -1    0    0  504  503  0.00000000000E+00  0.00000000000E+00  0.15364349773E+04  0.15364349773E+04  0.00000000000E+00 0.  1.
         21   -1    0    0  503  504 -0.00000000000E+00 -0.00000000000E+00 -0.14065598484E+02  0.14065598484E+02  0.00000000000E+00 0.  1.
         25    2    1    2    0    0  0.33767356380E+02  0.60752387824E+02  0.94093308038E+03  0.95174114989E+03  0.12500027064E+03 0.  0.
         25    2    1    2    0    0 -0.33767356380E+02 -0.60752387824E+02  0.58143629848E+03  0.59875942594E+03  0.12495436757E+03 0.  0.
          5    1    3    3  501    0  0.64906978574E+02  0.82219599569E+02  0.67830765634E+03  0.68636458611E+03  0.47000000000E+01 0.  1.
         -5    1    3    3    0  501 -0.31139622194E+02 -0.21467211745E+02  0.26262542405E+03  0.26537656378E+03  0.47000000000E+01 0.  1.
          5    1    4    4  502    0 -0.25746554990E+02 -0.99655139298E+01  0.18734124456E+02  0.33693530252E+02  0.47000000000E+01 0. -1.
         -5    1    4    4    0  502 -0.80208013904E+01 -0.50786873894E+02  0.56270217402E+03  0.56506589568E+03  0.47000000000E+01 0. -1.
<mgrwt>
<rscale>  0 0.29401277E+03</rscale>
<asrwt>0</asrwt>
<pdfrwt beam="1">  1       21 0.23637448E+00 0.29401277E+03</pdfrwt>
<pdfrwt beam="2">  1       21 0.21639394E-02 0.29401277E+03</pdfrwt>
<totfact> 0.81840460E+04</totfact>
</mgrwt>
</event>
<event>
 8    1  0.4760912E-006  0.3090399E+03  0.7546771E-02  0.1080807E+00
         21   -1    0    0  504  503  0.00000000000E+00  0.00000000000E+00  0.51387554894E+03  0.51387554894E+03  0.00000000000E+00 0.  1.
         21   -1    0    0  503  504 -0.00000000000E+00 -0.00000000000E+00 -0.46463409434E+02  0.46463409434E+02  0.00000000000E+00 0.  1.
         25    2    1    2    0    0  0.19134859955E+02 -0.49811298579E+02  0.36699451140E+03  0.39135333740E+03  0.12500061985E+03 0.  0.
         25    2    1    2    0    0 -0.19134859955E+02  0.49811298579E+02  0.10041762811E+03  0.16898562098E+03  0.12500052692E+03 0.  0.
          5    1    3    3  501    0 -0.40842777967E+02  0.17234972041E+02  0.97646217661E+02  0.10734081515E+03  0.47000000000E+01 0. -1.
         -5    1    3    3    0  501  0.59977637922E+02 -0.67046270620E+02  0.26934829374E+03  0.28401252225E+03  0.47000000000E+01 0. -1.
          5    1    4    4  502    0 -0.45264305073E+02  0.63597203653E+02  0.11225911152E+03  0.13681249850E+03  0.47000000000E+01 0. -1.
         -5    1    4    4    0  502  0.26129445118E+02 -0.13785905074E+02 -0.11841483409E+02  0.32173122482E+02  0.47000000000E+01 0. -1.
<mgrwt>
<rscale>  0 0.30903987E+03</rscale>
<asrwt>0</asrwt>
<pdfrwt beam="1">  1       21 0.79057773E-01 0.30903987E+03</pdfrwt>
<pdfrwt beam="2">  1       21 0.71482172E-02 0.30903987E+03</pdfrwt>
<totfact> 0.19944669E+05</totfact>
</mgrwt>
</event>
<event>
 8    1  0.4760912E-006  0.3209328E+03  0.7546771E-02  0.1075221E+00
         21   -1    0    0  504  503  0.00000000000E+00  0.00000000000E+00  0.15449659817E+03  0.15449659817E+03  0.00000000000E+00 0.  1.
         21   -1    0    0  503  504 -0.00000000000E+00 -0.00000000000E+00 -0.16666690100E+03  0.16666690100E+03  0.00000000000E+00 0.  1.
         25    2    1    2    0    0 -0.24824156033E+00  0.93423253438E+01 -0.10631018947E+03  0.16436250158E+03  0.12500333946E+03 0.  0.
         25    2    1    2    0    0  0.24824156033E+00 -0.93423253438E+01  0.94139886635E+02  0.15680099758E+03  0.12504756663E+03 0.  0.
          5    1    3    3  501    0  0.46981847482E+02  0.45107931495E+02 -0.47465155417E+02  0.80728250665E+02  0.47000000000E+01 0. -1.
         -5    1    3    3    0  501 -0.47230089042E+02 -0.35765606151E+02 -0.58845034052E+02  0.83634250920E+02  0.47000000000E+01 0. -1.
          5    1    4    4  502    0  0.43912464346E+02  0.39811906704E+02  0.46119744609E+02  0.75249008520E+02  0.47000000000E+01 0.  1.
         -5    1    4    4    0  502 -0.43664222786E+02 -0.49154232048E+02  0.48020142026E+02  0.81551989062E+02  0.47000000000E+01 0.  1.
<mgrwt>
<rscale>  0 0.32093282E+03</rscale>
<asrwt>0</asrwt>
<pdfrwt beam="1">  1       21 0.23768707E-01 0.32093282E+03</pdfrwt>
<pdfrwt beam="2">  1       21 0.25641062E-01 0.32093282E+03</pdfrwt>
<totfact> 0.23320514E+05</totfact>
</mgrwt>
</event>
<event>
 8    1  0.4760912E-006  0.2709071E+03  0.7546771E-02  0.1100762E+00
         21   -1    0    0  504  503  0.00000000000E+00  0.00000000000E+00  0.12374368185E+04  0.12374368185E+04  0.00000000000E+00 0.  1.
         21   -1    0    0  503  504 -0.00000000000E+00 -0.00000000000E+00 -0.14827156932E+02  0.14827156932E+02  0.00000000000E+00 0.  1.
         25    2    1    2    0    0  0.49351525942E+02 -0.10267904463E+02  0.54909899729E+03  0.56539981832E+03  0.12500497093E+03 0.  0.
         25    2    1    2    0    0 -0.49351525942E+02  0.10267904463E+02  0.67351066432E+03  0.68686415716E+03  0.12499900981E+03 0.  0.
          5    1    3    3  501    0  0.10811878309E+02 -0.61595353903E+02  0.36565608769E+03  0.37099507921E+03  0.47000000000E+01 0. -1.
         -5    1    3    3    0  501  0.38539647632E+02  0.51327449439E+02  0.18344290960E+03  0.19440473911E+03  0.47000000000E+01 0. -1.
          5    1    4    4  502    0 -0.57639519981E+02  0.58481567411E+02  0.34320726285E+03  0.35292452913E+03  0.47000000000E+01 0.  1.
         -5    1    4    4    0  502  0.82879940390E+01 -0.48213662948E+02  0.33030340147E+03  0.33393962802E+03  0.47000000000E+01 0.  1.
<mgrwt>
<rscale>  0 0.27090714E+03</rscale>
<asrwt>0</asrwt>
<pdfrwt beam="1">  1       21 0.19037481E+00 0.27090714E+03</pdfrwt>
<pdfrwt beam="2">  1       21 0.22811020E-02 0.27090714E+03</pdfrwt>
<totfact> 0.14862663E+05</totfact>
</mgrwt>
</event>
<event>
 8    1  0.4760912E-006  0.2969702E+03  0.7546771E-02  0.1086765E+00
         21   -1    0    0  504  503  0.00000000000E+00  0.00000000000E+00  0.24170085517E+03  0.24170085517E+03  0.00000000000E+00 0. -1.
         21   -1    0    0  503  504 -0.00000000000E+00 -0.00000000000E+00 -0.91219460353E+02  0.91219460353E+02  0.00000000000E+00 0. -1.
         25    2    1    2    0    0 -0.33195385051E+02 -0.18214131471E+02 -0.39527311772E+01  0.13066056025E+03  0.12499147870E+03 0.  0.
         25    2    1    2    0    0  0.33195385051E+02  0.18214131471E+02  0.15443412599E+03  0.20225975527E+03  0.12500168461E+03 0.  0.
          5    1    3    3  501    0  0.32838018538E+02 -0.92853391816E+01 -0.41577208687E+02  0.53993585428E+02  0.47000000000E+01 0. -1.
         -5    1    3    3    0  501 -0.66033403588E+02 -0.89287922897E+01  0.37624477509E+02  0.76666974827E+02  0.47000000000E+01 0. -1.
          5    1    4    4  502    0 -0.33397548842E+02  0.82611215866E+01  0.11156020211E+01  0.34741574035E+02  0.47000000000E+01 0.  1.
         -5    1    4    4    0  502  0.66592933893E+02  0.99530098846E+01  0.15331852397E+03  0.16751818123E+03  0.47000000000E+01 0.  1.
<mgrwt>
<rscale>  0 0.29697018E+03</rscale>
<asrwt>0</asrwt>
<pdfrwt beam="1">  1       21 0.37184747E-01 0.29697018E+03</pdfrwt>
<pdfrwt beam="2">  1       21 0.14033763E-01 0.29697018E+03</pdfrwt>
<totfact> 0.30140524E+05</totfact>
</mgrwt>
</event>
<event>
 8    1  0.4760912E-006  0.2805780E+03  0.7546771E-02  0.1095374E+00
         21   -1    0    0  504  503  0.00000000000E+00  0.00000000000E+00  0.19898998757E+03  0.19898998757E+03  0.00000000000E+00 0.  1.
         21   -1    0    0  503  504 -0.00000000000E+00 -0.00000000000E+00 -0.98904499656E+02  0.98904499656E+02  0.00000000000E+00 0.  1.
         25    2    1    2    0    0 -0.61720099762E+02  0.12181293483E+02  0.60580608700E+02  0.15248765019E+03  0.12499887473E+03 0.  0.
         25    2    1    2    0    0  0.61720099762E+02 -0.12181293483E+02  0.39504879210E+02  0.14540683703E+03  0.12499903259E+03 0.  0.
          5    1    3    3  501    0  0.34366728195E+02  0.23132915939E+02  0.85152217606E+01  0.42553528741E+02  0.47000000000E+01 0. -1.
         -5    1    3    3    0  501 -0.96086827957E+02 -0.10951622456E+02  0.52065386940E+02  0.10993412145E+03  0.47000000000E+01 0. -1.
          5    1    4    4  502    0  0.85826641881E+02 -0.43677210730E+02  0.42473652622E+02  0.10535659619E+03  0.47000000000E+01 0. -1.
         -5    1    4    4    0  502 -0.24106542119E+02  0.31495917247E+02 -0.29687734118E+01  0.40050240845E+02  0.47000000000E+01 0. -1.
<mgrwt>
<rscale>  0 0.28057801E+03</rscale>
<asrwt>0</asrwt>
<pdfrwt beam="1">  1       21 0.30613844E-01 0.28057801E+03</pdfrwt>
<pdfrwt beam="2">  1       21 0.15216077E-01 0.28057801E+03</pdfrwt>
<totfact> 0.38422757E+05</totfact>
</mgrwt>
</event>
<event>
 8    1  0.4760912E-006  0.3772384E+03  0.7546771E-02  0.1051959E+00
         21   -1    0    0  504  503  0.00000000000E+00  0.00000000000E+00  0.72737868905E+02  0.72737868905E+02  0.00000000000E+00 0.  1.
         21   -1    0    0  503  504 -0.00000000000E+00 -0.00000000000E+00 -0.48911536700E+03  0.48911536700E+03  0.00000000000E+00 0.  1.
         25    2    1    2    0    0  0.18071991858E+02  0.81396662965E+02 -0.38389325607E+02  0.15510009311E+03  0.12502113793E+03 0.  0.
         25    2    1    2    0    0 -0.18071991858E+02 -0.81396662965E+02 -0.37798817249E+03  0.40675314279E+03  0.12498418701E+03 0.  0.
          5    1    3    3  501    0 -0.10423376566E+02  0.33628732780E+02 -0.78634801743E+02  0.86284763965E+02  0.47000000000E+01 0. -1.
         -5    1    3    3    0  501  0.28495368424E+02  0.47767930185E+02  0.40245476136E+02  0.68815329144E+02  0.47000000000E+01 0. -1.
          5    1    4    4  502    0 -0.64907830110E+02 -0.64502919482E+02 -0.17316510493E+03  0.19591298220E+03  0.47000000000E+01 0. -1.
         -5    1    4    4    0  502  0.46835838252E+02 -0.16893743484E+02 -0.20482306756E+03  0.21084016059E+03  0.47000000000E+01 0. -1.
<mgrwt>
<rscale>  0 0.37723844E+03</rscale>
<asrwt>0</asrwt>
<pdfrwt beam="1">  1       21 0.11190441E-01 0.37723844E+03</pdfrwt>
<pdfrwt beam="2">  1       21 0.75248518E-01 0.37723844E+03</pdfrwt>
<totfact> 0.99133820E+04</totfact>
</mgrwt>
</event>
<event>
 8    1  0.4760912E-006  0.9281792E+03  0.7546771E-02  0.9391026E-01
         21   -1    0    0  504  503  0.00000000000E+00  0.00000000000E+00  0.74064087523E+03  0.74064087523E+03  0.00000000000E+00 0. -1.
         21   -1    0    0  503  504 -0.00000000000E+00 -0.00000000000E+00 -0.29080105455E+03  0.29080105455E+03  0.00000000000E+00 0. -1.
         25    2    1    2    0    0  0.33553081062E+03  0.24249012791E+03  0.41210059421E+03  0.59735498105E+03  0.12499474641E+03 0.  0.
         25    2    1    2    0    0 -0.33553081062E+03 -0.24249012791E+03  0.37739226467E+02  0.43408694873E+03  0.12499937134E+03 0.  0.
          5    1    3    3  501    0  0.95409126558E+02  0.80717434506E+02  0.52436787135E+02  0.13560941084E+03  0.47000000000E+01 0. -1.
         -5    1    3    3    0  501  0.24012168406E+03  0.16177269341E+03  0.35966380708E+03  0.46174557021E+03  0.47000000000E+01 0. -1.
          5    1    4    4  502    0 -0.27613936505E+02 -0.50920687220E+02  0.41464242263E+02  0.71392011196E+02  0.47000000000E+01 0. -1.
         -5    1    4    4    0  502 -0.30791687411E+03 -0.19156944069E+03 -0.37250157952E+01  0.36269493753E+03  0.47000000000E+01 0. -1.
<mgrwt>
<rscale>  0 0.92817918E+03</rscale>
<asrwt>0</asrwt>
<pdfrwt beam="1">  1       21 0.11394475E+00 0.92817918E+03</pdfrwt>
<pdfrwt beam="2">  1       21 0.44738624E-01 0.92817918E+03</pdfrwt>
<totfact> 0.22096278E+03</totfact>
</mgrwt>
</event>
<event>
 8    1  0.4760912E-006  0.3617888E+03  0.7546771E-02  0.1057878E+00
         21   -1    0    0  504  503  0.00000000000E+00  0.00000000000E+00  0.15908614774E+03  0.15908614774E+03  0.00000000000E+00 0.  1.
         21   -1    0    0  503  504 -0.00000000000E+00 -0.00000000000E+00 -0.20569228314E+03  0.20569228314E+03  0.00000000000E+00 0.  1.
         25    2    1    2    0    0  0.64196343177E+02 -0.91817645098E+02  0.44682181781E+02  0.17370154917E+03  0.12499632150E+03 0.  0.
         25    2    1    2    0    0 -0.64196343177E+02  0.91817645098E+02 -0.91288317188E+02  0.19107688171E+03  0.12500066975E+03 0.  0.
          5    1    3    3  501    0  0.43093594186E+02 -0.52315839588E+01  0.68591433366E+02  0.81309913675E+02  0.47000000000E+01 0. -1.
         -5    1    3    3    0  501  0.21102748991E+02 -0.86586061139E+02 -0.23909251584E+02  0.92391635498E+02  0.47000000000E+01 0. -1.
          5    1    4    4  502    0 -0.31708285348E+02  0.11066989737E+03 -0.99622861157E+02  0.15231561315E+03  0.47000000000E+01 0. -1.
         -5    1    4    4    0  502 -0.32488057830E+02 -0.18852252270E+02  0.83345439690E+01  0.38761268560E+02  0.47000000000E+01 0. -1.
<mgrwt>
<rscale>  0 0.36178885E+03</rscale>
<asrwt>0</asrwt>
<pdfrwt beam="1">  1       21 0.24474792E-01 0.36178885E+03</pdfrwt>
<pdfrwt beam="2">  1       21 0.31644966E-01 0.36178885E+03</pdfrwt>
<totfact> 0.14463233E+05</totfact>
</mgrwt>
</event>
<event>
 8    1  0.4760912E-006  0.5681919E+03  0.7546771E-02  0.9973688E-01
         21   -1    0    0  504  503  0.00000000000E+00  0.00000000000E+00  0.15333808806E+03  0.15333808806E+03  0.00000000000E+00 0.  1.
         21   -1    0    0  503  504 -0.00000000000E+00 -0.00000000000E+00 -0.52635654239E+03  0.52635654239E+03  0.00000000000E+00 0.  1.
         25    2    1    2    0    0  0.58086396395E+02  0.23790179222E+03 -0.27205489344E+03  0.38679433406E+03  0.12499879853E+03 0.  0.
         25    2    1    2    0    0 -0.58086396395E+02 -0.23790179222E+03 -0.10096356089E+03  0.29290029639E+03  0.12500260321E+03 0.  0.
          5    1    3    3  501    0  0.44043115128E+02  0.22434569864E+02 -0.16771691490E+02  0.52406922735E+02  0.47000000000E+01 0.  1.
         -5    1    3    3    0  501  0.14043281267E+02  0.21546722236E+03 -0.25528320194E+03  0.33438741133E+03  0.47000000000E+01 0.  1.
          5    1    4    4  502    0 -0.52757684041E+02 -0.23488198613E+02 -0.58690807740E+01  0.58237486283E+02  0.47000000000E+01 0.  1.
         -5    1    4    4    0  502 -0.53287123547E+01 -0.21441359361E+03 -0.95094480120E+02  0.23466281011E+03  0.47000000000E+01 0.  1.
<mgrwt>
<rscale>  0 0.56819189E+03</rscale>
<asrwt>0</asrwt>
<pdfrwt beam="1">  1       21 0.23590475E-01 0.56819189E+03</pdfrwt>
<pdfrwt beam="2">  1       21 0.80977929E-01 0.56819189E+03</pdfrwt>
<totfact> 0.19901338E+04</totfact>
</mgrwt>
</event>
<event>
 8    1  0.4760912E-006  0.4265501E+03  0.7546771E-02  0.1034955E+00
         21   -1    0    0  504  503  0.00000000000E+00  0.00000000000E+00  0.95541296421E+03  0.95541296421E+03  0.00000000000E+00 0.  1.
         21   -1    0    0  503  504 -0.00000000000E+00 -0.00000000000E+00 -0.47608990685E+02  0.47608990685E+02  0.00000000000E+00 0.  1.
         25    2    1    2    0    0  0.17082723469E+03  0.50616779096E+01  0.51404577291E+03  0.55594664335E+03  0.12500419555E+03 0.  0.
         25    2    1    2    0    0 -0.17082723469E+03 -0.50616779096E+01  0.39375820061E+03  0.44707531154E+03  0.12499299559E+03 0.  0.
          5    1    3    3  501    0  0.47704189696E+02 -0.51687489996E+02  0.11963302079E+03  0.13885761052E+03  0.47000000000E+01 0. -1.
         -5    1    3    3    0  501  0.12312304500E+03  0.56749167905E+02  0.39441275212E+03  0.41708903283E+03  0.47000000000E+01 0. -1.
          5    1    4    4  502    0  0.17698959779E+02  0.68003131630E+01  0.18384277550E+02  0.26824785133E+02  0.47000000000E+01 0.  1.
         -5    1    4    4    0  502 -0.18852619447E+03 -0.11861991073E+02  0.37537392306E+03  0.42025052641E+03  0.47000000000E+01 0.  1.
<mgrwt>
<rscale>  0 0.42655010E+03</rscale>
<asrwt>0</asrwt>
<pdfrwt beam="1">  1       21 0.14698660E+00 0.42655010E+03</pdfrwt>
<pdfrwt beam="2">  1       21 0.73244608E-02 0.42655010E+03</pdfrwt>
<totfact> 0.40177221E+04</totfact>
</mgrwt>
</event>
<event>
 8    1  0.4760912E-006  0.3049469E+03  0.7546771E-02  0.1082794E+00
         21   -1    0    0  504  503  0.00000000000E+00  0.00000000000E+00  0.98453351076E+03  0.98453351076E+03  0.00000000000E+00 0. -1.
         21   -1    0    0  503  504 -0.00000000000E+00 -0.00000000000E+00 -0.23613376529E+02  0.23613376529E+02  0.00000000000E+00 0. -1.
         25    2    1    2    0    0 -0.50486567167E+02  0.46737331850E+02  0.65821289739E+03  0.67349963523E+03  0.12499707482E+03 0.  0.
         25    2    1    2    0    0  0.50486567167E+02 -0.46737331850E+02  0.30270723684E+03  0.33464725206E+03  0.12499536160E+03 0.  0.
          5    1    3    3  501    0 -0.84506647130E+02  0.33106225057E+02  0.30207591290E+03  0.31545101474E+03  0.47000000000E+01 0.  1.
         -5    1    3    3    0  501  0.34020079963E+02  0.13631106794E+02  0.35613698448E+03  0.35804862048E+03  0.47000000000E+01 0.  1.
          5    1    4    4  502    0  0.55167021592E+02 -0.81214767935E+02  0.26723227843E+03  0.28473570102E+03  0.47000000000E+01 0.  1.
         -5    1    4    4    0  502 -0.46804544251E+01  0.34477436084E+02  0.35474958413E+02  0.49911551037E+02  0.47000000000E+01 0.  1.
<mgrwt>
<rscale>  0 0.30494695E+03</rscale>
<asrwt>0</asrwt>
<pdfrwt beam="1">  1       21 0.15146666E+00 0.30494695E+03</pdfrwt>
<pdfrwt beam="2">  1       21 0.36328279E-02 0.30494695E+03</pdfrwt>
<totfact> 0.12843058E+05</totfact>
</mgrwt>
</event>
<event>
 8    1  0.4760912E-006  0.2926938E+03  0.7546771E-02  0.1088951E+00
         21   -1    0    0  504  503  0.00000000000E+00  0.00000000000E+00  0.18003747080E+03  0.18003747080E+03  0.00000000000E+00 0. -1.
         21   -1    0    0  503  504 -0.00000000000E+00 -0.00000000000E+00 -0.11896084677E+03  0.11896084677E+03  0.00000000000E+00 0. -1.
         25    2    1    2    0    0  0.22311811583E+02 -0.72371938909E+02  0.22698014716E+02  0.14789329124E+03  0.12498684429E+03 0.  0.
         25    2    1    2    0    0 -0.22311811583E+02  0.72371938909E+02  0.38378609318E+02  0.15110502632E+03  0.12499718736E+03 0.  0.
          5    1    3    3  501    0  0.39363913564E+02 -0.93044683460E+02 -0.14114097749E+02  0.10211820879E+03  0.47000000000E+01 0. -1.
         -5    1    3    3    0  501 -0.17052101981E+02  0.20672744552E+02  0.36812112466E+02  0.45775082451E+02  0.47000000000E+01 0. -1.
          5    1    4    4  502    0 -0.27279082134E+01  0.52879887940E+01 -0.43040987594E+02  0.43703786127E+02  0.47000000000E+01 0.  1.
         -5    1    4    4    0  502 -0.19583903370E+02  0.67083950115E+02  0.81419596912E+02  0.10740124020E+03  0.47000000000E+01 0.  1.
<mgrwt>
<rscale>  0 0.29269376E+03</rscale>
<asrwt>0</asrwt>
<pdfrwt beam="1">  1       21 0.27698072E-01 0.29269376E+03</pdfrwt>
<pdfrwt beam="2">  1       21 0.18301669E-01 0.29269376E+03</pdfrwt>
<totfact> 0.33126335E+05</totfact>
</mgrwt>
</event>
<event>
 8    1  0.4760912E-006  0.2638900E+03  0.7546771E-02  0.1104828E+00
         21   -1    0    0  504  503  0.00000000000E+00  0.00000000000E+00  0.81515041728E+01  0.81515041728E+01  0.00000000000E+00 0. -1.
         21   -1    0    0  503  504 -0.00000000000E+00 -0.00000000000E+00 -0.21357393224E+04  0.21357393224E+04  0.00000000000E+00 0. -1.
         25    2    1    2    0    0 -0.40785744967E+02 -0.75380055500E+01 -0.11287108534E+04  0.11363693397E+04  0.12500714788E+03 0.  0.
         25    2    1    2    0    0  0.40785744967E+02  0.75380055500E+01 -0.99887696477E+03  0.10075214869E+04  0.12499622875E+03 0.  0.
          5    1    3    3  501    0  0.38672014164E+02  0.50207310981E+01 -0.62694102539E+03  0.62817025696E+03  0.47000000000E+01 0. -1.
         -5    1    3    3    0  501 -0.79457759131E+02 -0.12558736648E+02 -0.50176982806E+03  0.50819908275E+03  0.47000000000E+01 0. -1.
          5    1    4    4  502    0  0.72077653882E+02 -0.32229997842E+02 -0.68587312055E+03  0.69041870516E+03  0.47000000000E+01 0.  1.
         -5    1    4    4    0  502 -0.31291908915E+02  0.39768003392E+02 -0.31300384423E+03  0.31710278169E+03  0.47000000000E+01 0.  1.
<mgrwt>
<rscale>  0 0.26389004E+03</rscale>
<asrwt>0</asrwt>
<pdfrwt beam="1">  1       21 0.12540783E-02 0.26389004E+03</pdfrwt>
<pdfrwt beam="2">  1       21 0.32857509E+00 0.26389004E+03</pdfrwt>
<totfact> 0.57563448E+04</totfact>
</mgrwt>
</event>
<event>
 8    1  0.4760912E-006  0.2885405E+03  0.7546771E-02  0.1091114E+00
         21   -1    0    0  504  503  0.00000000000E+00  0.00000000000E+00  0.29371975516E+03  0.29371975516E+03  0.00000000000E+00 0.  1.
         21   -1    0    0  503  504 -0.00000000000E+00 -0.00000000000E+00 -0.70863126722E+02  0.70863126722E+02  0.00000000000E+00 0.  1.
         25    2    1    2    0    0 -0.21224146927E+02  0.23565350439E+02  0.19315422938E+03  0.23224876671E+03  0.12500057263E+03 0.  0.
         25    2    1    2    0    0  0.21224146927E+02 -0.23565350439E+02  0.29702399061E+02  0.13233411517E+03  0.12499718146E+03 0.  0.
          5    1    3    3  501    0 -0.58326967961E+02 -0.22135676006E+02  0.60439917773E+02  0.86989062555E+02  0.47000000000E+01 0. -1.
         -5    1    3    3    0  501  0.37102821034E+02  0.45701026445E+02  0.13271431160E+03  0.14525970415E+03  0.47000000000E+01 0. -1.
          5    1    4    4  502    0 -0.41139329618E+02  0.19731488822E+02 -0.93782109470E+01  0.46816844545E+02  0.47000000000E+01 0. -1.
         -5    1    4    4    0  502  0.62363476545E+02 -0.43296839261E+02  0.39080610008E+02  0.85517270626E+02  0.47000000000E+01 0. -1.
<mgrwt>
<rscale>  0 0.28854047E+03</rscale>
<asrwt>0</asrwt>
<pdfrwt beam="1">  1       21 0.45187654E-01 0.28854047E+03</pdfrwt>
<pdfrwt beam="2">  1       21 0.10902020E-01 0.28854047E+03</pdfrwt>
<totfact> 0.31995544E+05</totfact>
</mgrwt>
</event>
<event>
 8    1  0.4760912E-006  0.2993545E+03  0.7546771E-02  0.1085564E+00
         21   -1    0    0  504  503  0.00000000000E+00  0.00000000000E+00  0.28884520674E+02  0.28884520674E+02  0.00000000000E+00 0.  1.
         21   -1    0    0  503  504 -0.00000000000E+00 -0.00000000000E+00 -0.77561522325E+03  0.77561522325E+03  0.00000000000E+00 0.  1.
         25    2    1    2    0    0  0.73824249485E+02 -0.35094601106E+02 -0.40125107243E+03  0.42812027530E+03  0.12491155333E+03 0.  0.
         25    2    1    2    0    0 -0.73824249485E+02  0.35094601106E+02 -0.34547963014E+03  0.37637946862E+03  0.12499471476E+03 0.  0.
          5    1    3    3  501    0 -0.66659434689E+01  0.81893777838E+01  0.43307348694E+01  0.12342851183E+02  0.47000000000E+01 0.  1.
         -5    1    3    3    0  501  0.80490192954E+02 -0.43283978890E+02 -0.40558180730E+03  0.41577742412E+03  0.47000000000E+01 0.  1.
          5    1    4    4  502    0 -0.19308369723E+02  0.51521788347E+02 -0.47100033659E+02  0.72579687148E+02  0.47000000000E+01 0. -1.
         -5    1    4    4    0  502 -0.54515879762E+02 -0.16427187241E+02 -0.29837959648E+03  0.30379978147E+03  0.47000000000E+01 0. -1.
<mgrwt>
<rscale>  0 0.29935447E+03</rscale>
<asrwt>0</asrwt>
<pdfrwt beam="1">  1       21 0.44437719E-02 0.29935447E+03</pdfrwt>
<pdfrwt beam="2">  1       21 0.11932543E+00 0.29935447E+03</pdfrwt>
<totfact> 0.16974923E+05</totfact>
</mgrwt>
</event>
<event>
 8    1  0.4760912E-006  0.3350331E+03  0.7546771E-02  0.1068931E+00
         21   -1    0    0  504  503  0.00000000000E+00  0.00000000000E+00  0.34812122230E+02  0.34812122230E+02  0.00000000000E+00 0. -1.
         21   -1    0    0  503  504 -0.00000000000E+00 -0.00000000000E+00 -0.80609238669E+03  0.80609238669E+03  0.00000000000E+00 0. -1.
         25    2    1    2    0    0 -0.19720068755E+02  0.10669511681E+03 -0.32087984695E+03  0.36105723891E+03  0.12500289809E+03 0.  0.
         25    2    1    2    0    0  0.19720068755E+02 -0.10669511681E+03 -0.45040041751E+03  0.47984727001E+03  0.12498054800E+03 0.  0.
          5    1    3    3  501    0 -0.38361235718E+02  0.12335193175E+03 -0.20449220232E+03  0.24192237243E+03  0.47000000000E+01 0.  1.
         -5    1    3    3    0  501  0.18641166963E+02 -0.16656814942E+02 -0.11638764463E+03  0.11913486648E+03  0.47000000000E+01 0.  1.
          5    1    4    4  502    0  0.19593665193E+02  0.12044719853E+02 -0.13511934080E+02  0.27085962317E+02  0.47000000000E+01 0. -1.
         -5    1    4    4    0  502  0.12640356176E+00 -0.11873983666E+03 -0.43688848343E+03  0.45276130769E+03  0.47000000000E+01 0. -1.
<mgrwt>
<rscale>  0 0.33503305E+03</rscale>
<asrwt>0</asrwt>
<pdfrwt beam="1">  1       21 0.53557116E-02 0.33503305E+03</pdfrwt>
<pdfrwt beam="2">  1       21 0.12401420E+00 0.33503305E+03</pdfrwt>
<totfact> 0.11079158E+05</totfact>
</mgrwt>
</event>
<event>
 8    1  0.4760912E-006  0.2799919E+03  0.7546771E-02  0.1095693E+00
         21   -1    0    0  504  503  0.00000000000E+00  0.00000000000E+00  0.73799671255E+02  0.73799671255E+02  0.00000000000E+00 0. -1.
         21   -1    0    0  503  504 -0.00000000000E+00 -0.00000000000E+00 -0.26556850141E+03  0.26556850141E+03  0.00000000000E+00 0. -1.
         25    2    1    2    0    0  0.11034966930E+02  0.31503168677E+02 -0.16070494095E+03  0.20631194181E+03  0.12499727659E+03 0.  0.
         25    2    1    2    0    0 -0.11034966930E+02 -0.31503168677E+02 -0.31063889205E+02  0.13305623086E+03  0.12499910090E+03 0.  0.
          5    1    3    3  501    0  0.63941590925E+02  0.39878521720E+02 -0.97874099382E+02  0.12361331997E+03  0.47000000000E+01 0. -1.
         -5    1    3    3    0  501 -0.52906623995E+02 -0.83753530430E+01 -0.62830841572E+02  0.82698621837E+02  0.47000000000E+01 0. -1.
          5    1    4    4  502    0  0.56249228120E+02 -0.64722363422E+01 -0.72580590602E+01  0.57276827153E+02  0.47000000000E+01 0. -1.
         -5    1    4    4    0  502 -0.67284195050E+02 -0.25030932335E+02 -0.23805830144E+02  0.75779403706E+02  0.47000000000E+01 0. -1.
<mgrwt>
<rscale>  0 0.27999191E+03</rscale>
<asrwt>0</asrwt>
<pdfrwt beam="1">  1       21 0.11353796E-01 0.27999191E+03</pdfrwt>
<pdfrwt beam="2">  1       21 0.40856692E-01 0.27999191E+03</pdfrwt>
<totfact> 0.36668380E+05</totfact>
</mgrwt>
</event>
<event>
 8    1  0.4760912E-006  0.2580832E+03  0.7546771E-02  0.1108300E+00
         21   -1    0    0  504  503  0.00000000000E+00  0.00000000000E+00  0.76813859064E+02  0.76813859064E+02  0.00000000000E+00 0.  1.
         21   -1    0    0  503  504 -0.00000000000E+00 -0.00000000000E+00 -0.21678031344E+03  0.21678031344E+03  0.00000000000E+00 0.  1.
         25    2    1    2    0    0  0.31489063699E+02 -0.60001417767E+01 -0.70553596510E+02  0.14707141999E+03  0.12499851904E+03 0.  0.
         25    2    1    2    0    0 -0.31489063699E+02  0.60001417767E+01 -0.69412857870E+02  0.14652275252E+03  0.12499283713E+03 0.  0.
          5    1    3    3  501    0  0.12505964782E+02 -0.41834391797E+02 -0.91274919679E+02  0.10129025844E+03  0.47000000000E+01 0.  1.
         -5    1    3    3    0  501  0.18983098917E+02  0.35834250020E+02  0.20721323169E+02  0.45781161550E+02  0.47000000000E+01 0.  1.
          5    1    4    4  502    0  0.21761552339E+02 -0.18039009749E+02 -0.81748371540E+02  0.86624807546E+02  0.47000000000E+01 0.  1.
         -5    1    4    4    0  502 -0.53250616038E+02  0.24039151526E+02  0.12335513669E+02  0.59897944973E+02  0.47000000000E+01 0.  1.
<mgrwt>
<rscale>  0 0.25808318E+03</rscale>
<asrwt>0</asrwt>
<pdfrwt beam="1">  1       21 0.11817517E-01 0.25808318E+03</pdfrwt>
<pdfrwt beam="2">  1       21 0.33350817E-01 0.25808318E+03</pdfrwt>
<totfact> 0.51567023E+05</totfact>
</mgrwt>
</event>
<event>
 8    1  0.4760912E-006  0.4227173E+03  0.7546771E-02  0.1036186E+00
         21   -1    0    0  504  503  0.00000000000E+00  0.00000000000E+00  0.30522644665E+02  0.30522644665E+02  0.00000000000E+00 0. -1.
         21   -1    0    0  503  504 -0.00000000000E+00 -0.00000000000E+00 -0.14635850871E+04  0.14635850871E+04  0.00000000000E+00 0. -1.
         25    2    1    2    0    0  0.26011851476E+02 -0.15248589024E+03 -0.46371021935E+03  0.50455961531E+03  0.12499869891E+03 0.  0.
         25    2    1    2    0    0 -0.26011851476E+02  0.15248589024E+03 -0.96935222308E+03  0.98954811645E+03  0.12503271271E+03 0.  0.
          5    1    3    3  501    0  0.30813564877E+02  0.10630735103E+02 -0.11323092583E+03  0.11792294465E+03  0.47000000000E+01 0. -1.
         -5    1    3    3    0  501 -0.48017134002E+01 -0.16311662534E+03 -0.35047929352E+03  0.38663667066E+03  0.47000000000E+01 0. -1.
          5    1    4    4  502    0 -0.24003080533E+02  0.16677013160E+03 -0.70923676052E+03  0.72899060155E+03  0.47000000000E+01 0. -1.
         -5    1    4    4    0  502 -0.20087709438E+01 -0.14284241363E+02 -0.26011546256E+03  0.26055751491E+03  0.47000000000E+01 0. -1.
<mgrwt>
<rscale>  0 0.42271734E+03</rscale>
<asrwt>0</asrwt>
<pdfrwt beam="1">  1       21 0.46957911E-02 0.42271734E+03</pdfrwt>
<pdfrwt beam="2">  1       21 0.22516696E+00 0.42271734E+03</pdfrwt>
<totfact> 0.24796234E+04</totfact>
</mgrwt>
</event>
<event>
 8    1  0.4760912E-006  0.3644077E+03  0.7546771E-02  0.1056852E+00
         21   -1    0    0  504  503  0.00000000000E+00  0.00000000000E+00  0.76209813534E+03  0.76209813534E+03  0.00000000000E+00 0.  1.
         21   -1    0    0  503  504 -0.00000000000E+00 -0.00000000000E+00 -0.43561643112E+02  0.43561643112E+02  0.00000000000E+00 0.  1.
         25    2    1    2    0    0  0.14897771001E+02  0.12625007382E+03  0.27620752414E+03  0.32875137704E+03  0.12500338713E+03 0.  0.
         25    2    1    2    0    0 -0.14897771001E+02 -0.12625007382E+03  0.44232896809E+03  0.47690840141E+03  0.12500273039E+03 0.  0.
          5    1    3    3  501    0  0.42723743102E+02  0.13643842842E+03  0.19251481925E+03  0.23984330011E+03  0.47000000000E+01 0.  1.
         -5    1    3    3    0  501 -0.27825972101E+02 -0.10188354597E+02  0.83692704888E+02  0.88908076934E+02  0.47000000000E+01 0.  1.
          5    1    4    4  502    0 -0.18037983814E+02 -0.63399555656E+02  0.38815516052E+03  0.39374025849E+03  0.47000000000E+01 0.  1.
         -5    1    4    4    0  502  0.31402128127E+01 -0.62850518167E+02  0.54173807565E+02  0.83168142918E+02  0.47000000000E+01 0.  1.
<mgrwt>
<rscale>  0 0.36440772E+03</rscale>
<asrwt>0</asrwt>
<pdfrwt beam="1">  1       21 0.11724586E+00 0.36440772E+03</pdfrwt>
<pdfrwt beam="2">  1       21 0.67017918E-02 0.36440772E+03</pdfrwt>
<totfact> 0.85880304E+04</totfact>
</mgrwt>
</event>
<event>
 8    1  0.4760912E-006  0.4413491E+03  0.7546771E-02  0.1030334E+00
         21   -1    0    0  504  503  0.00000000000E+00  0.00000000000E+00  0.17282612629E+03  0.17282612629E+03  0.00000000000E+00 0. -1.
         21   -1    0    0  503  504 -0.00000000000E+00 -0.00000000000E+00 -0.28177024249E+03  0.28177024249E+03  0.00000000000E+00 0. -1.
         25    2    1    2    0    0  0.27743919645E+02  0.14813337321E+03  0.50371240162E+02  0.20217171771E+03  0.12499168080E+03 0.  0.
         25    2    1    2    0    0 -0.27743919645E+02 -0.14813337321E+03 -0.15931535636E+03  0.25242465107E+03  0.12499440131E+03 0.  0.
          5    1    3    3  501    0  0.51391173866E+02  0.14601886237E+03  0.10114374082E+02  0.15519971482E+03  0.47000000000E+01 0.  1.
         -5    1    3    3    0  501 -0.23647254221E+02  0.21145108459E+01  0.40256866080E+02  0.46972002883E+02  0.47000000000E+01 0.  1.
          5    1    4    4  502    0  0.23211590634E+02  0.12476993247E+02 -0.16115897884E+02  0.31245247076E+02  0.47000000000E+01 0.  1.
         -5    1    4    4    0  502 -0.50955510279E+02 -0.16061036646E+03 -0.14319945848E+03  0.22117940399E+03  0.47000000000E+01 0.  1.
<mgrwt>
<rscale>  0 0.44134911E+03</rscale>
<asrwt>0</asrwt>
<pdfrwt beam="1">  1       21 0.26588635E-01 0.44134911E+03</pdfrwt>
<pdfrwt beam="2">  1       21 0.43349268E-01 0.44134911E+03</pdfrwt>
<totfact> 0.63831647E+04</totfact>
</mgrwt>
</event>
<event>
 8    1  0.4760912E-006  0.3914371E+03  0.7546771E-02  0.1046786E+00
         21   -1    0    0  504  503  0.00000000000E+00  0.00000000000E+00  0.10148675879E+03  0.10148675879E+03  0.00000000000E+00 0. -1.
         21   -1    0    0  503  504 -0.00000000000E+00 -0.00000000000E+00 -0.37744581356E+03  0.37744581356E+03  0.00000000000E+00 0. -1.
         25    2    1    2    0    0 -0.72597241202E+02 -0.10416032441E+03 -0.38884499427E+02  0.18237103232E+03  0.12500982570E+03 0.  0.
         25    2    1    2    0    0  0.72597241202E+02  0.10416032441E+03 -0.23707455534E+03  0.29656154004E+03  0.12499867850E+03 0.  0.
          5    1    3    3  501    0  0.13893795838E+02 -0.64043608211E+02  0.21839018035E+02  0.69236219020E+02  0.47000000000E+01 0. -1.
         -5    1    3    3    0  501 -0.86491037040E+02 -0.40116716201E+02 -0.60723517462E+02  0.11313481330E+03  0.47000000000E+01 0. -1.
          5    1    4    4  502    0 -0.29348901836E+02  0.59206348965E+02 -0.78828704344E+02  0.10296992000E+03  0.47000000000E+01 0. -1.
         -5    1    4    4    0  502  0.10194614304E+03  0.44953975447E+02 -0.15824585100E+03  0.19359162003E+03  0.47000000000E+01 0. -1.
<mgrwt>
<rscale>  0 0.39143711E+03</rscale>
<asrwt>0</asrwt>
<pdfrwt beam="1">  1       21 0.15613348E-01 0.39143711E+03</pdfrwt>
<pdfrwt beam="2">  1       21 0.58068586E-01 0.39143711E+03</pdfrwt>
<totfact> 0.95521034E+04</totfact>
</mgrwt>
</event>
<event>
 8    1  0.4760912E-006  0.3219360E+03  0.7546771E-02  0.1074762E+00
         21   -1    0    0  504  503  0.00000000000E+00  0.00000000000E+00  0.85333368074E+02  0.85333368074E+02  0.00000000000E+00 0. -1.
         21   -1    0    0  503  504 -0.00000000000E+00 -0.00000000000E+00 -0.30364094075E+03  0.30364094075E+03  0.00000000000E+00 0. -1.
         25    2    1    2    0    0 -0.79521465681E+02  0.15441321476E+02 -0.18287871047E+03  0.23586374590E+03  0.12499994389E+03 0.  0.
         25    2    1    2    0    0  0.79521465681E+02 -0.15441321476E+02 -0.35428862204E+02  0.15311056292E+03  0.12500216913E+03 0.  0.
          5    1    3    3  501    0 -0.77842504969E+02 -0.43748531710E+02 -0.10491553227E+03  0.13785045708E+03  0.47000000000E+01 0.  1.
         -5    1    3    3    0  501 -0.16789607118E+01  0.59189853186E+02 -0.77963178203E+02  0.98013288817E+02  0.47000000000E+01 0.  1.
          5    1    4    4  502    0  0.11146297636E+03  0.33111583585E+01 -0.25875557753E+02  0.11457134614E+03  0.47000000000E+01 0. -1.
         -5    1    4    4    0  502 -0.31941510674E+02 -0.18752479835E+02 -0.95533044503E+01  0.38539216780E+02  0.47000000000E+01 0. -1.
<mgrwt>
<rscale>  0 0.32193604E+03</rscale>
<asrwt>0</asrwt>
<pdfrwt beam="1">  1       21 0.13128211E-01 0.32193604E+03</pdfrwt>
<pdfrwt beam="2">  1       21 0.46713991E-01 0.32193604E+03</pdfrwt>
<totfact> 0.21195716E+05</totfact>
</mgrwt>
</event>
<event>
 8    1  0.4760912E-006  0.2745585E+03  0.7546771E-02  0.1098699E+00
         21   -1    0    0  504  503  0.00000000000E+00  0.00000000000E+00  0.11647792779E+04  0.11647792779E+04  0.00000000000E+00 0. -1.
         21   -1    0    0  503  504 -0.00000000000E+00 -0.00000000000E+00 -0.16179537638E+02  0.16179537638E+02  0.00000000000E+00 0. -1.
         25    2    1    2    0    0 -0.29582504387E+02  0.38467096141E+02  0.70093891612E+03  0.71364657836E+03  0.12498492957E+03 0.  0.
         25    2    1    2    0    0  0.29582504387E+02 -0.38467096141E+02  0.44766082411E+03  0.46731223715E+03  0.12500268595E+03 0.  0.
          5    1    3    3  501    0  0.35614363014E+02 -0.24114416924E+02  0.20444621074E+03  0.20897423535E+03  0.47000000000E+01 0. -1.
         -5    1    3    3    0  501 -0.65196867401E+02  0.62581513065E+02  0.49649270538E+03  0.50467234300E+03  0.47000000000E+01 0. -1.
          5    1    4    4  502    0  0.49493003510E+01  0.37644450138E+02  0.26631994411E+03  0.26905390321E+03  0.47000000000E+01 0.  1.
         -5    1    4    4    0  502  0.24633204036E+02 -0.76111546279E+02  0.18134088000E+03  0.19825833394E+03  0.47000000000E+01 0.  1.
<mgrwt>
<rscale>  0 0.27455848E+03</rscale>
<asrwt>0</asrwt>
<pdfrwt beam="1">  1       21 0.17919675E+00 0.27455848E+03</pdfrwt>
<pdfrwt beam="2">  1       21 0.24891605E-02 0.27455848E+03</pdfrwt>
<totfact> 0.15309124E+05</totfact>
</mgrwt>
</event>
<event>
 8    1  0.4760912E-006  0.3141445E+03  0.7546771E-02  0.1078376E+00
         21   -1    0    0  504  503  0.00000000000E+00  0.00000000000E+00  0.66217139792E+02  0.66217139792E+02  0.00000000000E+00 0. -1.
         21   -1    0    0  503  504 -0.00000000000E+00 -0.00000000000E+00 -0.37258771384E+03  0.37258771384E+03  0.00000000000E+00 0. -1.
         25    2    1    2    0    0  0.21805019736E+02 -0.36772661646E+02 -0.27186283338E+03  0.30226244275E+03  0.12500198636E+03 0.  0.
         25    2    1    2    0    0 -0.21805019736E+02  0.36772661646E+02 -0.34507740666E+02  0.13654241088E+03  0.12500143308E+03 0.  0.
          5    1    3    3  501    0  0.12197346430E+02 -0.55487134077E+02 -0.40573096539E+02  0.69970447124E+02  0.47000000000E+01 0. -1.
         -5    1    3    3    0  501  0.96076733060E+01  0.18714472431E+02 -0.23128973684E+03  0.23229199563E+03  0.47000000000E+01 0. -1.
          5    1    4    4  502    0  0.45139809717E+01  0.79993752295E+02 -0.12775609350E+02  0.81269198499E+02  0.47000000000E+01 0.  1.
         -5    1    4    4    0  502 -0.26319000708E+02 -0.43221090649E+02 -0.21732131316E+02  0.55273212379E+02  0.47000000000E+01 0.  1.
<mgrwt>
<rscale>  0 0.31414451E+03</rscale>
<asrwt>0</asrwt>
<pdfrwt beam="1">  1       21 0.10187252E-01 0.31414451E+03</pdfrwt>
<pdfrwt beam="2">  1       21 0.57321187E-01 0.31414451E+03</pdfrwt>
<totfact> 0.21734916E+05</totfact>
</mgrwt>
</event>
<event>
 8    1  0.4760912E-006  0.2972833E+03  0.7546771E-02  0.1086607E+00
         21   -1    0    0  504  503  0.00000000000E+00  0.00000000000E+00  0.42382453070E+03  0.42382453070E+03  0.00000000000E+00 0. -1.
         21   -1    0    0  503  504 -0.00000000000E+00 -0.00000000000E+00 -0.52130860897E+02  0.52130860897E+02  0.00000000000E+00 0. -1.
         25    2    1    2    0    0 -0.60062532307E+02 -0.28081602039E+02  0.11296061390E+03  0.18105968447E+03  0.12500569942E+03 0.  0.
         25    2    1    2    0    0  0.60062532307E+02  0.28081602039E+02  0.25873305591E+03  0.29489570714E+03  0.12499839882E+03 0.  0.
          5    1    3    3  501    0  0.11219702621E+02 -0.57955643183E+02  0.26155158458E+02  0.64737320130E+02  0.47000000000E+01 0.  1.
         -5    1    3    3    0  501 -0.71282234928E+02  0.29874041144E+02  0.86805455439E+02  0.11632236434E+03  0.47000000000E+01 0.  1.
          5    1    4    4  502    0  0.69277481742E+02  0.56211023936E+02  0.10318029799E+03  0.13648191302E+03  0.47000000000E+01 0. -1.
         -5    1    4    4    0  502 -0.92149494350E+01 -0.28129421897E+02  0.15555275792E+03  0.15841379412E+03  0.47000000000E+01 0. -1.
<mgrwt>
<rscale>  0 0.29728328E+03</rscale>
<asrwt>0</asrwt>
<pdfrwt beam="1">  1       21 0.65203772E-01 0.29728328E+03</pdfrwt>
<pdfrwt beam="2">  1       21 0.80201327E-02 0.29728328E+03</pdfrwt>
<totfact> 0.25172473E+05</totfact>
</mgrwt>
</event>
<event>
 8    1  0.4760912E-006  0.2963226E+03  0.7546771E-02  0.1087094E+00
         21   -1    0    0  504  503  0.00000000000E+00  0.00000000000E+00  0.41083010829E+03  0.41083010829E+03  0.00000000000E+00 0. -1.
         21   -1    0    0  503  504 -0.00000000000E+00 -0.00000000000E+00 -0.53432707987E+02  0.53432707987E+02  0.00000000000E+00 0. -1.
         25    2    1    2    0    0 -0.29482859371E+02 -0.37393844372E+02  0.78875251118E+02  0.15528466470E+03  0.12499793302E+03 0.  0.
         25    2    1    2    0    0  0.29482859371E+02  0.37393844372E+02  0.27852214919E+03  0.30897815158E+03  0.12500148788E+03 0.  0.
          5    1    3    3  501    0  0.38930328923E+02 -0.94862508995E+01 -0.80126773412E+01  0.41132134206E+02  0.47000000000E+01 0. -1.
         -5    1    3    3    0  501 -0.68413188294E+02 -0.27907593473E+02  0.86887928460E+02  0.11415253049E+03  0.47000000000E+01 0. -1.
          5    1    4    4  502    0  0.35552399566E+01 -0.40549327851E+02  0.15674081971E+03  0.16200821671E+03  0.47000000000E+01 0. -1.
         -5    1    4    4    0  502  0.25927619415E+02  0.77943172223E+02  0.12178132948E+03  0.14696993487E+03  0.47000000000E+01 0. -1.
<mgrwt>
<rscale>  0 0.29632256E+03</rscale>
<asrwt>0</asrwt>
<pdfrwt beam="1">  1       21 0.63204630E-01 0.29632256E+03</pdfrwt>
<pdfrwt beam="2">  1       21 0.82204169E-02 0.29632256E+03</pdfrwt>
<totfact> 0.25814717E+05</totfact>
</mgrwt>
</event>
<event>
 8    1  0.4760912E-006  0.2808514E+03  0.7546771E-02  0.1095225E+00
         21   -1    0    0  504  503  0.00000000000E+00  0.00000000000E+00  0.97011177322E+03  0.97011177322E+03  0.00000000000E+00 0. -1.
         21   -1    0    0  503  504 -0.00000000000E+00 -0.00000000000E+00 -0.20326909135E+02  0.20326909135E+02  0.00000000000E+00 0. -1.
         25    2    1    2    0    0 -0.63071095777E+02  0.23224590073E+01  0.43740245086E+03  0.45926968174E+03  0.12499751843E+03 0.  0.
         25    2    1    2    0    0  0.63071095777E+02 -0.23224590073E+01  0.51238241322E+03  0.53116900061E+03  0.12498565072E+03 0.  0.
          5    1    3    3  501    0 -0.95511798706E+02  0.10183621050E+00  0.39027891554E+03  0.40182363790E+03  0.47000000000E+01 0. -1.
         -5    1    3    3    0  501  0.32440702930E+02  0.22206227968E+01  0.47123535319E+02  0.57446043842E+02  0.47000000000E+01 0. -1.
          5    1    4    4  502    0 -0.22083059791E+02  0.13829020207E+02  0.26020095832E+02  0.37121943871E+02  0.47000000000E+01 0.  1.
         -5    1    4    4    0  502  0.85154155568E+02 -0.16151479215E+02  0.48636231739E+03  0.49404705674E+03  0.47000000000E+01 0.  1.
<mgrwt>
<rscale>  0 0.28085138E+03</rscale>
<asrwt>0</asrwt>
<pdfrwt beam="1">  1       21 0.14924793E+00 0.28085138E+03</pdfrwt>
<pdfrwt beam="2">  1       21 0.31272175E-02 0.28085138E+03</pdfrwt>
<totfact> 0.17310547E+05</totfact>
</mgrwt>
</event>
<event>
 8    1  0.4760912E-006  0.3362734E+03  0.7546771E-02  0.1068394E+00
         21   -1    0    0  504  503  0.00000000000E+00  0.00000000000E+00  0.23663701895E+03  0.23663701895E+03  0.00000000000E+00 0. -1.
         21   -1    0    0  503  504 -0.00000000000E+00 -0.00000000000E+00 -0.11946544400E+03  0.11946544400E+03  0.00000000000E+00 0. -1.
         25    2    1    2    0    0 -0.10793852269E+03 -0.48899071182E+01  0.25597165241E+02  0.16719709616E+03  0.12500007290E+03 0.  0.
         25    2    1    2    0    0  0.10793852269E+03  0.48899071182E+01  0.91574409706E+02  0.18890536679E+03  0.12499891686E+03 0.  0.
          5    1    3    3  501    0 -0.81710832890E+02  0.39946983661E+02 -0.25091037588E+02  0.94467305892E+02  0.47000000000E+01 0. -1.
         -5    1    3    3    0  501 -0.26227689798E+02 -0.44836890779E+02  0.50688202828E+02  0.72729790271E+02  0.47000000000E+01 0. -1.
          5    1    4    4  502    0 -0.94183671964E+01  0.39132631761E+02  0.37259983570E+02  0.55049658353E+02  0.47000000000E+01 0.  1.
         -5    1    4    4    0  502  0.11735688988E+03 -0.34242724643E+02  0.54314426136E+02  0.13385570844E+03  0.47000000000E+01 0.  1.
<mgrwt>
<rscale>  0 0.33627338E+03</rscale>
<asrwt>0</asrwt>
<pdfrwt beam="1">  1       21 0.36405695E-01 0.33627338E+03</pdfrwt>
<pdfrwt beam="2">  1       21 0.18379299E-01 0.33627338E+03</pdfrwt>
<totfact> 0.18938751E+05</totfact>
</mgrwt>
</event>
<event>
 8    1  0.4760912E-006  0.4356037E+03  0.7546771E-02  0.1032104E+00
         21   -1    0    0  504  503  0.00000000000E+00  0.00000000000E+00  0.87049287820E+02  0.87049287820E+02  0.00000000000E+00 0. -1.
         21   -1    0    0  503  504 -0.00000000000E+00 -0.00000000000E+00 -0.54495155894E+03  0.54495155894E+03  0.00000000000E+00 0. -1.
         25    2    1    2    0    0 -0.64368508577E+02 -0.15334843827E+03 -0.32246988925E+03  0.38375831209E+03  0.12499825684E+03 0.  0.
         25    2    1    2    0    0  0.64368508577E+02  0.15334843827E+03 -0.13543238188E+03  0.24824253467E+03  0.12499351001E+03 0.  0.
          5    1    3    3  501    0  0.32350014154E+02 -0.14210875475E+02 -0.34545944938E+02  0.49638540562E+02  0.47000000000E+01 0.  1.
         -5    1    3    3    0  501 -0.96718522731E+02 -0.13913756279E+03 -0.28792394431E+03  0.33411977153E+03  0.47000000000E+01 0.  1.
          5    1    4    4  502    0 -0.28978748083E+02  0.47167242247E+01 -0.65675358479E+01  0.30450580536E+02  0.47000000000E+01 0. -1.
         -5    1    4    4    0  502  0.93347256660E+02  0.14863171404E+03 -0.12886484603E+03  0.21779195414E+03  0.47000000000E+01 0. -1.
<mgrwt>
<rscale>  0 0.43560370E+03</rscale>
<asrwt>0</asrwt>
<pdfrwt beam="1">  1       21 0.13392198E-01 0.43560370E+03</pdfrwt>
<pdfrwt beam="2">  1       21 0.83838700E-01 0.43560370E+03</pdfrwt>
<totfact> 0.54999078E+04</totfact>
</mgrwt>
</event>
<event>
 8    1  0.4760912E-006  0.2759220E+03  0.7546771E-02  0.1097937E+00
         21   -1    0    0  504  503  0.00000000000E+00  0.00000000000E+00  0.26559008871E+02  0.26559008871E+02  0.00000000000E+00 0. -1.
         21   -1    0    0  503  504 -0.00000000000E+00 -0.00000000000E+00 -0.71663985980E+03  0.71663985980E+03  0.00000000000E+00 0. -1.
         25    2    1    2    0    0 -0.54403135770E+02 -0.74392842513E+01 -0.29166126981E+03  0.32203483755E+03  0.12500038463E+03 0.  0.
         25    2    1    2    0    0  0.54403135770E+02  0.74392842513E+01 -0.39841958112E+03  0.42116403113E+03  0.12500373738E+03 0.  0.
          5    1    3    3  501    0  0.28042168619E+02  0.33840484776E+02 -0.95966219066E+02  0.10565579413E+03  0.47000000000E+01 0.  1.
         -5    1    3    3    0  501 -0.82445304389E+02 -0.41279769028E+02 -0.19569505074E+03  0.21637904342E+03  0.47000000000E+01 0.  1.
          5    1    4    4  502    0 -0.83966683230E+01  0.66221194659E+01  0.51095148090E+01  0.12749652808E+02  0.47000000000E+01 0.  1.
         -5    1    4    4    0  502  0.62799804093E+02  0.81716478540E+00 -0.40352909593E+03  0.40841437832E+03  0.47000000000E+01 0.  1.
<mgrwt>
<rscale>  0 0.27592205E+03</rscale>
<asrwt>0</asrwt>
<pdfrwt beam="1">  1       21 0.40860011E-02 0.27592205E+03</pdfrwt>
<pdfrwt beam="2">  1       21 0.11025229E+00 0.27592205E+03</pdfrwt>
<totfact> 0.23943716E+05</totfact>
</mgrwt>
</event>
<event>
 8    1  0.4760912E-006  0.2896193E+03  0.7546771E-02  0.1090548E+00
         21   -1    0    0  504  503  0.00000000000E+00  0.00000000000E+00  0.12555261630E+04  0.12555261630E+04  0.00000000000E+00 0. -1.
         21   -1    0    0  503  504 -0.00000000000E+00 -0.00000000000E+00 -0.16702033607E+02  0.16702033607E+02  0.00000000000E+00 0. -1.
         25    2    1    2    0    0 -0.26216506417E+02 -0.14345022459E+02  0.91250291088E+03  0.92150843482E+03  0.12499259253E+03 0.  0.
         25    2    1    2    0    0  0.26216506417E+02  0.14345022459E+02  0.32632121853E+03  0.35071976182E+03  0.12500291511E+03 0.  0.
          5    1    3    3  501    0 -0.38496439903E+02 -0.63644935257E+02  0.44108685261E+03  0.44733919481E+03  0.47000000000E+01 0. -1.
         -5    1    3    3    0  501  0.12279933486E+02  0.49299912798E+02  0.47141605828E+03  0.47416924001E+03  0.47000000000E+01 0. -1.
          5    1    4    4  502    0 -0.11816509747E+02  0.38597158029E+02  0.28940045799E+03  0.29223977415E+03  0.47000000000E+01 0. -1.
         -5    1    4    4    0  502  0.38033016164E+02 -0.24252135571E+02  0.36920760544E+02  0.58479987666E+02  0.47000000000E+01 0. -1.
<mgrwt>
<rscale>  0 0.28961934E+03</rscale>
<asrwt>0</asrwt>
<pdfrwt beam="1">  1       21 0.19315780E+00 0.28961934E+03</pdfrwt>
<pdfrwt beam="2">  1       21 0.25695446E-02 0.28961934E+03</pdfrwt>
<totfact> 0.11611648E+05</totfact>
</mgrwt>
</event>
<event>
 8    1  0.4760912E-006  0.2699857E+03  0.7546771E-02  0.1101288E+00
         21   -1    0    0  504  503  0.00000000000E+00  0.00000000000E+00  0.63962905036E+03  0.63962905036E+03  0.00000000000E+00 0. -1.
         21   -1    0    0  503  504 -0.00000000000E+00 -0.00000000000E+00 -0.28490056236E+02  0.28490056236E+02  0.00000000000E+00 0. -1.
         25    2    1    2    0    0 -0.18778349146E+02  0.47362612105E+02  0.30921651666E+03  0.33739530039E+03  0.12499956450E+03 0.  0.
         25    2    1    2    0    0  0.18778349146E+02 -0.47362612105E+02  0.30192247746E+03  0.33072380621E+03  0.12500084070E+03 0.  0.
          5    1    3    3  501    0  0.25436914420E+02  0.55004254594E+02  0.64785884718E+02  0.88835834534E+02  0.47000000000E+01 0. -1.
         -5    1    3    3    0  501 -0.44215263566E+02 -0.76416424890E+01  0.24443063195E+03  0.24855946586E+03  0.47000000000E+01 0. -1.
          5    1    4    4  502    0 -0.53411100569E+02 -0.15829845287E+02  0.13328859469E+03  0.14453812348E+03  0.47000000000E+01 0. -1.
         -5    1    4    4    0  502  0.72189449716E+02 -0.31532766818E+02  0.16863388277E+03  0.18618568273E+03  0.47000000000E+01 0. -1.
<mgrwt>
<rscale>  0 0.26998569E+03</rscale>
<asrwt>0</asrwt>
<pdfrwt beam="1">  1       21 0.98404458E-01 0.26998569E+03</pdfrwt>
<pdfrwt beam="2">  1       21 0.43830861E-02 0.26998569E+03</pdfrwt>
<totfact> 0.28036905E+05</totfact>
</mgrwt>
</event>
<event>
 8    1  0.4760912E-006  0.2518008E+03  0.7546771E-02  0.1112172E+00
         21   -1    0    0  504  503  0.00000000000E+00  0.00000000000E+00  0.78261954208E+02  0.78261954208E+02  0.00000000000E+00 0. -1.
         21   -1    0    0  503  504 -0.00000000000E+00 -0.00000000000E+00 -0.20253661467E+03  0.20253661467E+03  0.00000000000E+00 0. -1.
         25    2    1    2    0    0 -0.10228896391E+02 -0.76815237075E+01 -0.53407585294E+02  0.13653115715E+03  0.12499900231E+03 0.  0.
         25    2    1    2    0    0  0.10228896391E+02  0.76815237075E+01 -0.70867075167E+02  0.14426741173E+03  0.12500923012E+03 0.  0.
          5    1    3    3  501    0 -0.57869086031E+02  0.13313495034E+02  0.29805454620E+01  0.59641042238E+02  0.47000000000E+01 0. -1.
         -5    1    3    3    0  501  0.47640189639E+02 -0.20995018741E+02 -0.56388130756E+02  0.76890114911E+02  0.47000000000E+01 0. -1.
          5    1    4    4  502    0  0.24558511588E+00 -0.52161482119E+02 -0.20621700399E+01  0.52413958772E+02  0.47000000000E+01 0.  1.
         -5    1    4    4    0  502  0.99833112755E+01  0.59843005826E+02 -0.68804905127E+02  0.91853452956E+02  0.47000000000E+01 0.  1.
<mgrwt>
<rscale>  0 0.25180080E+03</rscale>
<asrwt>0</asrwt>
<pdfrwt beam="1">  1       21 0.12040301E-01 0.25180080E+03</pdfrwt>
<pdfrwt beam="2">  1       21 0.31159479E-01 0.25180080E+03</pdfrwt>
<totfact> 0.57100482E+05</totfact>
</mgrwt>
</event>
<event>
 8    1  0.4760912E-006  0.2709145E+03  0.7546771E-02  0.1100757E+00
         21   -1    0    0  504  503  0.00000000000E+00  0.00000000000E+00  0.10666965585E+03  0.10666965585E+03  0.00000000000E+00 0. -1.
         21   -1    0    0  503  504 -0.00000000000E+00 -0.00000000000E+00 -0.17201390879E+03  0.17201390879E+03  0.00000000000E+00 0. -1.
         25    2    1    2    0    0 -0.47553392289E+02 -0.21419937926E+02 -0.34264871333E+02  0.13971657293E+03  0.12500600180E+03 0.  0.
         25    2    1    2    0    0  0.47553392289E+02  0.21419937926E+02 -0.31079381604E+02  0.13896699171E+03  0.12500303182E+03 0.  0.
          5    1    3    3  501    0 -0.16094206217E+02 -0.38506688069E+02 -0.74582238502E+02  0.85594326913E+02  0.47000000000E+01 0. -1.
         -5    1    3    3    0  501 -0.31459186072E+02  0.17086750143E+02  0.40317367169E+02  0.54122246020E+02  0.47000000000E+01 0. -1.
          5    1    4    4  502    0  0.51447078986E+02 -0.43847341012E+02 -0.28074411600E+02  0.73346123528E+02  0.47000000000E+01 0.  1.
         -5    1    4    4    0  502 -0.38936866963E+01  0.65267278938E+02 -0.30049700033E+01  0.65620868181E+02  0.47000000000E+01 0.  1.
<mgrwt>
<rscale>  0 0.27091448E+03</rscale>
<asrwt>0</asrwt>
<pdfrwt beam="1">  1       21 0.16410716E-01 0.27091448E+03</pdfrwt>
<pdfrwt beam="2">  1       21 0.26463678E-01 0.27091448E+03</pdfrwt>
<totfact> 0.44507336E+05</totfact>
</mgrwt>
</event>
<event>
 8    1  0.4760912E-006  0.2562906E+03  0.7546771E-02  0.1109393E+00
         21   -1    0    0  504  503  0.00000000000E+00  0.00000000000E+00  0.57414315810E+03  0.57414315810E+03  0.00000000000E+00 0.  1.
         21   -1    0    0  503  504 -0.00000000000E+00 -0.00000000000E+00 -0.28601249168E+02  0.28601249168E+02  0.00000000000E+00 0.  1.
         25    2    1    2    0    0 -0.18072292148E+01  0.18178976044E+02  0.32352778964E+03  0.34731636719E+03  0.12499874800E+03 0.  0.
         25    2    1    2    0    0  0.18072292148E+01 -0.18178976044E+02  0.22201411929E+03  0.25542804008E+03  0.12497789102E+03 0.  0.
          5    1    3    3  501    0 -0.15316025638E+00  0.64350294994E+02  0.99951190144E+02  0.11896770291E+03  0.47000000000E+01 0.  1.
         -5    1    3    3    0  501 -0.16540689584E+01 -0.46171318950E+02  0.22357659950E+03  0.22834866429E+03  0.47000000000E+01 0.  1.
          5    1    4    4  502    0  0.94468271116E+01 -0.45561441354E+02  0.22173425632E+03  0.22661257226E+03  0.47000000000E+01 0. -1.
         -5    1    4    4    0  502 -0.76395978968E+01  0.27382465309E+02  0.27986297658E+00  0.28815467821E+02  0.47000000000E+01 0. -1.
<mgrwt>
<rscale>  0 0.25629055E+03</rscale>
<asrwt>0</asrwt>
<pdfrwt beam="1">  1       21 0.88329708E-01 0.25629055E+03</pdfrwt>
<pdfrwt beam="2">  1       21 0.44001926E-02 0.25629055E+03</pdfrwt>
<totfact> 0.36028711E+05</totfact>
</mgrwt>
</event>
<event>
 8    1  0.4760912E-006  0.2615045E+03  0.7546771E-02  0.1106243E+00
         21   -1    0    0  504  503  0.00000000000E+00  0.00000000000E+00  0.54768645287E+02  0.54768645287E+02  0.00000000000E+00 0. -1.
         21   -1    0    0  503  504 -0.00000000000E+00 -0.00000000000E+00 -0.31215215074E+03  0.31215215074E+03  0.00000000000E+00 0. -1.
         25    2    1    2    0    0  0.15726585668E+02  0.48621165571E+00 -0.17775806464E+03  0.21787946344E+03  0.12500387653E+03 0.  0.
         25    2    1    2    0    0 -0.15726585668E+02 -0.48621165571E+00 -0.79625440819E+02  0.14904133259E+03  0.12500218436E+03 0.  0.
          5    1    3    3  501    0 -0.10238328150E+02  0.34689074925E+02 -0.16059919977E+01  0.36507868916E+02  0.47000000000E+01 0.  1.
         -5    1    3    3    0  501  0.25964913818E+02 -0.34202863269E+02 -0.17615207264E+03  0.18137159453E+03  0.47000000000E+01 0.  1.
          5    1    4    4  502    0  0.90261682977E+01  0.18376616900E+02 -0.10594850678E+03  0.10801086913E+03  0.47000000000E+01 0. -1.
         -5    1    4    4    0  502 -0.24752753966E+02 -0.18862828555E+02  0.26323065958E+02  0.41030463456E+02  0.47000000000E+01 0. -1.
<mgrwt>
<rscale>  0 0.26150450E+03</rscale>
<asrwt>0</asrwt>
<pdfrwt beam="1">  1       21 0.84259454E-02 0.26150450E+03</pdfrwt>
<pdfrwt beam="2">  1       21 0.48023408E-01 0.26150450E+03</pdfrwt>
<totfact> 0.44771692E+05</totfact>
</mgrwt>
</event>
<event>
 8    1  0.4760912E-006  0.4919424E+03  0.7546771E-02  0.1015904E+00
         21   -1    0    0  504  503  0.00000000000E+00  0.00000000000E+00  0.31018016533E+03  0.31018016533E+03  0.00000000000E+00 0. -1.
         21   -1    0    0  503  504 -0.00000000000E+00 -0.00000000000E+00 -0.19505382995E+03  0.19505382995E+03  0.00000000000E+00 0. -1.
         25    2    1    2    0    0 -0.17245533429E+03 -0.35335157875E+02 -0.63464466939E+02  0.22503934782E+03  0.12500221516E+03 0.  0.
         25    2    1    2    0    0  0.17245533429E+03  0.35335157875E+02  0.17859080232E+03  0.28019464746E+03  0.12499980034E+03 0.  0.
          5    1    3    3  501    0 -0.98553248359E+02  0.40562813499E+02 -0.12557695477E+02  0.10741447908E+03  0.47000000000E+01 0. -1.
         -5    1    3    3    0  501 -0.73902085930E+02 -0.75897971374E+02 -0.50906771463E+02  0.11762486873E+03  0.47000000000E+01 0. -1.
          5    1    4    4  502    0  0.18123523761E+03  0.18071825745E+02  0.11963663886E+03  0.21796288123E+03  0.47000000000E+01 0. -1.
         -5    1    4    4    0  502 -0.87799033199E+01  0.17263332131E+02  0.58954163462E+02  0.62231766230E+02  0.47000000000E+01 0. -1.
<mgrwt>
<rscale>  0 0.49194239E+03</rscale>
<asrwt>0</asrwt>
<pdfrwt beam="1">  1       21 0.47720025E-01 0.49194239E+03</pdfrwt>
<pdfrwt beam="2">  1       21 0.30008282E-01 0.49194239E+03</pdfrwt>
<totfact> 0.40654667E+04</totfact>
</mgrwt>
</event>
<event>
 8    1  0.4760912E-006  0.3428428E+03  0.7546771E-02  0.1065592E+00
         21   -1    0    0  504  503  0.00000000000E+00  0.00000000000E+00  0.38692652414E+03  0.38692652414E+03  0.00000000000E+00 0.  1.
         21   -1    0    0  503  504 -0.00000000000E+00 -0.00000000000E+00 -0.75945413539E+02  0.75945413539E+02  0.00000000000E+00 0.  1.
         25    2    1    2    0    0  0.96043309877E+02 -0.41572445837E+01  0.24620639383E+03  0.29239651502E+03  0.12504612580E+03 0.  0.
         25    2    1    2    0    0 -0.96043309877E+02  0.41572445837E+01  0.64774716771E+02  0.17047542266E+03  0.12499802296E+03 0.  0.
          5    1    3    3  501    0  0.86309200098E+02 -0.32251266008E+01  0.58603898371E+02  0.10448055497E+03  0.47000000000E+01 0. -1.
         -5    1    3    3    0  501  0.97341097793E+01 -0.93211798287E+00  0.18760249546E+03  0.18791596005E+03  0.47000000000E+01 0. -1.
          5    1    4    4  502    0 -0.44505936799E+02  0.28847296037E+02  0.92542196201E+02  0.10676653491E+03  0.47000000000E+01 0. -1.
         -5    1    4    4    0  502 -0.51537373078E+02 -0.24690051453E+02 -0.27767479430E+02  0.63708887751E+02  0.47000000000E+01 0. -1.
<mgrwt>
<rscale>  0 0.34284279E+03</rscale>
<asrwt>0</asrwt>
<pdfrwt beam="1">  1       21 0.59527156E-01 0.34284279E+03</pdfrwt>
<pdfrwt beam="2">  1       21 0.11683910E-01 0.34284279E+03</pdfrwt>
<totfact> 0.15555993E+05</totfact>
</mgrwt>
</event>
<event>
 8    1  0.4760912E-006  0.2729766E+03  0.7546771E-02  0.1099588E+00
         21   -1    0    0  504  503  0.00000000000E+00  0.00000000000E+00  0.78821782388E+02  0.78821782388E+02  0.00000000000E+00 0. -1.
         21   -1    0    0  503  504 -0.00000000000E+00 -0.00000000000E+00 -0.23634401207E+03  0.23634401207E+03  0.00000000000E+00 0. -1.
         25    2    1    2    0    0  0.76177611174E+01 -0.40789498677E+02 -0.37444377233E+02  0.13694061061E+03  0.12501534290E+03 0.  0.
         25    2    1    2    0    0 -0.76177611174E+01  0.40789498677E+02 -0.12007785245E+03  0.17822518384E+03  0.12499484798E+03 0.  0.
          5    1    3    3  501    0  0.86254065840E+01 -0.61281795366E+01 -0.80573546085E+02  0.81401096749E+02  0.47000000000E+01 0.  1.
         -5    1    3    3    0  501 -0.10076454665E+01 -0.34661319140E+02  0.43129168853E+02  0.55539513860E+02  0.47000000000E+01 0.  1.
          5    1    4    4  502    0  0.76494096656E+01 -0.20798519427E+02 -0.11178944350E+03  0.11406165682E+03  0.47000000000E+01 0.  1.
         -5    1    4    4    0  502 -0.15267170783E+02  0.61588018104E+02 -0.82884089500E+01  0.64163527028E+02  0.47000000000E+01 0.  1.
<mgrwt>
<rscale>  0 0.27297660E+03</rscale>
<asrwt>0</asrwt>
<pdfrwt beam="1">  1       21 0.12126428E-01 0.27297660E+03</pdfrwt>
<pdfrwt beam="2">  1       21 0.36360616E-01 0.27297660E+03</pdfrwt>
<totfact> 0.41306361E+05</totfact>
</mgrwt>
</event>
<event>
 8    1  0.4760912E-006  0.3682698E+03  0.7546771E-02  0.1055356E+00
         21   -1    0    0  504  503  0.00000000000E+00  0.00000000000E+00  0.64054358821E+02  0.64054358821E+02  0.00000000000E+00 0. -1.
         21   -1    0    0  503  504 -0.00000000000E+00 -0.00000000000E+00 -0.52932651333E+03  0.52932651333E+03  0.00000000000E+00 0. -1.
         25    2    1    2    0    0  0.11677879695E+03 -0.88159894188E+01 -0.12368144126E+03  0.21126280524E+03  0.12497945783E+03 0.  0.
         25    2    1    2    0    0 -0.11677879695E+03  0.88159894188E+01 -0.34159071325E+03  0.38211806691E+03  0.12495996397E+03 0.  0.
          5    1    3    3  501    0  0.16276688312E+02  0.98793069629E+01  0.24373198176E+02  0.31283767002E+02  0.47000000000E+01 0.  1.
         -5    1    3    3    0  501  0.10050210864E+03 -0.18695296382E+02 -0.14805463943E+03  0.17997903824E+03  0.47000000000E+01 0.  1.
          5    1    4    4  502    0  0.15910154607E+02  0.11802552232E+01 -0.12063109283E+01  0.16675467252E+02  0.47000000000E+01 0. -1.
         -5    1    4    4    0  502 -0.13268895155E+03  0.76357341956E+01 -0.34038440232E+03  0.36544259966E+03  0.47000000000E+01 0. -1.
<mgrwt>
<rscale>  0 0.36826985E+03</rscale>
<asrwt>0</asrwt>
<pdfrwt beam="1">  1       21 0.98545162E-02 0.36826985E+03</pdfrwt>
<pdfrwt beam="2">  1       21 0.81434853E-01 0.36826985E+03</pdfrwt>
<totfact> 0.10419154E+05</totfact>
</mgrwt>
</event>
<event>
 8    1  0.4760912E-006  0.5974630E+03  0.7546771E-02  0.9910683E-01
         21   -1    0    0  504  503  0.00000000000E+00  0.00000000000E+00  0.48446477063E+02  0.48446477063E+02  0.00000000000E+00 0.  1.
         21   -1    0    0  503  504 -0.00000000000E+00 -0.00000000000E+00 -0.18420435897E+04  0.18420435897E+04  0.00000000000E+00 0.  1.
         25    2    1    2    0    0  0.40306773314E+02  0.26692193993E+03 -0.81052087695E+03  0.86338941630E+03  0.12500093682E+03 0.  0.
         25    2    1    2    0    0 -0.40306773314E+02 -0.26692193993E+03 -0.98307623566E+03  0.10271006504E+04  0.12499961213E+03 0.  0.
          5    1    3    3  501    0  0.20524457114E+02  0.24316078096E+03 -0.55937541670E+03  0.61030432207E+03  0.47000000000E+01 0.  1.
         -5    1    3    3    0  501  0.19782316200E+02  0.23761158964E+02 -0.25114546026E+03  0.25308509422E+03  0.47000000000E+01 0.  1.
          5    1    4    4  502    0 -0.39076297944E+02 -0.19419466067E+03 -0.87211398433E+03  0.89433965301E+03  0.47000000000E+01 0.  1.
         -5    1    4    4    0  502 -0.12304753700E+01 -0.72727279255E+02 -0.11096225133E+03  0.13276099743E+03  0.47000000000E+01 0.  1.
<mgrwt>
<rscale>  0 0.59746304E+03</rscale>
<asrwt>0</asrwt>
<pdfrwt beam="1">  1       21 0.74533041E-02 0.59746304E+03</pdfrwt>
<pdfrwt beam="2">  1       21 0.28339132E+00 0.59746304E+03</pdfrwt>
<totfact> 0.45541087E+03</totfact>
</mgrwt>
</event>
<event>
 8    1  0.4760912E-006  0.2978855E+03  0.7546771E-02  0.1086302E+00
         21   -1    0    0  504  503  0.00000000000E+00  0.00000000000E+00  0.29791540322E+02  0.29791540322E+02  0.00000000000E+00 0.  1.
         21   -1    0    0  503  504 -0.00000000000E+00 -0.00000000000E+00 -0.74463900362E+03  0.74463900362E+03  0.00000000000E+00 0.  1.
         25    2    1    2    0    0 -0.68240918213E+02 -0.40913813019E+02 -0.39673102622E+03  0.42349829102E+03  0.12499812928E+03 0.  0.
         25    2    1    2    0    0  0.68240918213E+02  0.40913813019E+02 -0.31811643708E+03  0.35093225291E+03  0.12499846232E+03 0.  0.
          5    1    3    3  501    0  0.33601927575E+01 -0.52831677078E+02 -0.28679163103E+03  0.29167448744E+03  0.47000000000E+01 0.  1.
         -5    1    3    3    0  501 -0.71601110970E+02  0.11917864060E+02 -0.10993939519E+03  0.13182380358E+03  0.47000000000E+01 0.  1.
          5    1    4    4  502    0  0.26891752016E+02  0.14545822584E+02 -0.29481598266E+03  0.29643431129E+03  0.47000000000E+01 0.  1.
         -5    1    4    4    0  502  0.41349166196E+02  0.26367990434E+02 -0.23300454420E+02  0.54497941620E+02  0.47000000000E+01 0.  1.
<mgrwt>
<rscale>  0 0.29788550E+03</rscale>
<asrwt>0</asrwt>
<pdfrwt beam="1">  1       21 0.45833138E-02 0.29788550E+03</pdfrwt>
<pdfrwt beam="2">  1       21 0.11455985E+00 0.29788550E+03</pdfrwt>
<totfact> 0.17827042E+05</totfact>
</mgrwt>
</event>
<event>
 8    1  0.4760912E-006  0.2804616E+03  0.7546771E-02  0.1095437E+00
         21   -1    0    0  504  503  0.00000000000E+00  0.00000000000E+00  0.58315325991E+03  0.58315325991E+03  0.00000000000E+00 0.  1.
         21   -1    0    0  503  504 -0.00000000000E+00 -0.00000000000E+00 -0.33721286465E+02  0.33721286465E+02  0.00000000000E+00 0.  1.
         25    2    1    2    0    0 -0.25075882632E+02 -0.14935149256E+02  0.39888718194E+03  0.41903310117E+03  0.12500358948E+03 0.  0.
         25    2    1    2    0    0  0.25075882632E+02  0.14935149256E+02  0.15054479150E+03  0.19784144521E+03  0.12500257845E+03 0.  0.
          5    1    3    3  501    0 -0.61879392480E+02 -0.19311327825E+02  0.35715928422E+03  0.36302455964E+03  0.47000000000E+01 0. -1.
         -5    1    3    3    0  501  0.36803509848E+02  0.43761785688E+01  0.41727897723E+02  0.56008541531E+02  0.47000000000E+01 0. -1.
          5    1    4    4  502    0  0.34851250985E+02  0.19094172509E+02  0.17029220762E+03  0.17493062366E+03  0.47000000000E+01 0. -1.
         -5    1    4    4    0  502 -0.97753683535E+01 -0.41590232526E+01 -0.19747416113E+02  0.22910821548E+02  0.47000000000E+01 0. -1.
<mgrwt>
<rscale>  0 0.28046161E+03</rscale>
<asrwt>0</asrwt>
<pdfrwt beam="1">  1       21 0.89715879E-01 0.28046161E+03</pdfrwt>
<pdfrwt beam="2">  1       21 0.51878907E-02 0.28046161E+03</pdfrwt>
<totfact> 0.26096057E+05</totfact>
</mgrwt>
</event>
<event>
 8    1  0.4760912E-006  0.2691961E+03  0.7546771E-02  0.1101741E+00
         21   -1    0    0  504  503  0.00000000000E+00  0.00000000000E+00  0.15805994999E+04  0.15805994999E+04  0.00000000000E+00 0. -1.
         21   -1    0    0  503  504 -0.00000000000E+00 -0.00000000000E+00 -0.11461877496E+02  0.11461877496E+02  0.00000000000E+00 0. -1.
         25    2    1    2    0    0 -0.26538750982E+02  0.17232278524E+02  0.55614736480E+03  0.57089754583E+03  0.12499143865E+03 0.  0.
         25    2    1    2    0    0  0.26538750982E+02 -0.17232278524E+02  0.10129902576E+04  0.10211638316E+04  0.12500020867E+03 0.  0.
          5    1    3    3  501    0 -0.40229999936E+02  0.36933551982E+01  0.54793643048E+03  0.54944382389E+03  0.47000000000E+01 0.  1.
         -5    1    3    3    0  501  0.13691248953E+02  0.13538923325E+02  0.82109343237E+01  0.21453721942E+02  0.47000000000E+01 0.  1.
          5    1    4    4  502    0  0.48438075005E+02 -0.19479001512E+02  0.97895848123E+03  0.98036089099E+03  0.47000000000E+01 0. -1.
         -5    1    4    4    0  502 -0.21899324022E+02  0.22467229879E+01  0.34031776408E+02  0.40802940609E+02  0.47000000000E+01 0. -1.
<mgrwt>
<rscale>  0 0.26919612E+03</rscale>
<asrwt>0</asrwt>
<pdfrwt beam="1">  1       21 0.24316898E+00 0.26919612E+03</pdfrwt>
<pdfrwt beam="2">  1       21 0.17633670E-02 0.26919612E+03</pdfrwt>
<totfact> 0.10534717E+05</totfact>
</mgrwt>
</event>
<event>
 8    1  0.4760912E-006  0.3328023E+03  0.7546771E-02  0.1069904E+00
         21   -1    0    0  504  503  0.00000000000E+00  0.00000000000E+00  0.28243010080E+03  0.28243010080E+03  0.00000000000E+00 0.  1.
         21   -1    0    0  503  504 -0.00000000000E+00 -0.00000000000E+00 -0.98039655714E+02  0.98039655714E+02  0.00000000000E+00 0.  1.
         25    2    1    2    0    0  0.94655717119E+02 -0.54843626098E+02  0.80915415191E+02  0.18476583641E+03  0.12499432700E+03 0.  0.
         25    2    1    2    0    0 -0.94655717119E+02  0.54843626098E+02  0.10347502990E+03  0.19570392011E+03  0.12500165769E+03 0.  0.
          5    1    3    3  501    0  0.96156476436E+02  0.36331918327E+01  0.81331129551E+02  0.12607977902E+03  0.47000000000E+01 0.  1.
         -5    1    3    3    0  501 -0.15007593175E+01 -0.58476817930E+02 -0.41571435988E+00  0.58686057392E+02  0.47000000000E+01 0.  1.
          5    1    4    4  502    0 -0.10250417217E+03  0.78808064548E+02  0.54449574173E+02  0.14037329689E+03  0.47000000000E+01 0. -1.
         -5    1    4    4    0  502  0.78484550546E+01 -0.23964438451E+02  0.49025455725E+02  0.55330623221E+02  0.47000000000E+01 0. -1.
<mgrwt>
<rscale>  0 0.33280234E+03</rscale>
<asrwt>0</asrwt>
<pdfrwt beam="1">  1       21 0.43450784E-01 0.33280234E+03</pdfrwt>
<pdfrwt beam="2">  1       21 0.15083024E-01 0.33280234E+03</pdfrwt>
<totfact> 0.19062029E+05</totfact>
</mgrwt>
</event>
<event>
 8    1  0.4760912E-006  0.3253093E+03  0.7546771E-02  0.1073231E+00
         21   -1    0    0  504  503  0.00000000000E+00  0.00000000000E+00  0.12139850940E+04  0.12139850940E+04  0.00000000000E+00 0.  1.
         21   -1    0    0  503  504 -0.00000000000E+00 -0.00000000000E+00 -0.21793124820E+02  0.21793124820E+02  0.00000000000E+00 0.  1.
         25    2    1    2    0    0  0.20369199587E+02  0.88014265844E+02  0.39979398065E+03  0.42851039304E+03  0.12499805875E+03 0.  0.
         25    2    1    2    0    0 -0.20369199587E+02 -0.88014265844E+02  0.79239798856E+03  0.80726782581E+03  0.12500142014E+03 0.  0.
          5    1    3    3  501    0 -0.32644849961E+02  0.93007570592E+02  0.29132125791E+03  0.30758130588E+03  0.47000000000E+01 0.  1.
         -5    1    3    3    0  501  0.53014049548E+02 -0.49933047477E+01  0.10847272274E+03  0.12092908716E+03  0.47000000000E+01 0.  1.
          5    1    4    4  502    0 -0.80281919017E+01 -0.85176008479E+02  0.24229015537E+03  0.25699418996E+03  0.47000000000E+01 0.  1.
         -5    1    4    4    0  502 -0.12341007685E+02 -0.28382573652E+01  0.55010783319E+03  0.55027363585E+03  0.47000000000E+01 0.  1.
<mgrwt>
<rscale>  0 0.32530926E+03</rscale>
<asrwt>0</asrwt>
<pdfrwt beam="1">  1       21 0.18676688E+00 0.32530926E+03</pdfrwt>
<pdfrwt beam="2">  1       21 0.33527894E-02 0.32530926E+03</pdfrwt>
<totfact> 0.81147708E+04</totfact>
</mgrwt>
</event>
<event>
 8    1  0.4760912E-006  0.2696432E+03  0.7546771E-02  0.1101484E+00
         21   -1    0    0  504  503  0.00000000000E+00  0.00000000000E+00  0.96796695712E+02  0.96796695712E+02  0.00000000000E+00 0.  1.
         21   -1    0    0  503  504 -0.00000000000E+00 -0.00000000000E+00 -0.18778386755E+03  0.18778386755E+03  0.00000000000E+00 0.  1.
         25    2    1    2    0    0 -0.17958940804E+02 -0.46076544596E+02 -0.56643596973E+02  0.14583508136E+03  0.12495520142E+03 0.  0.
         25    2    1    2    0    0  0.17958940804E+02  0.46076544596E+02 -0.34343574865E+02  0.13874548190E+03  0.12500102438E+03 0.  0.
          5    1    3    3  501    0 -0.68459009109E+02 -0.57045687299E+01 -0.21718664727E+02  0.72200889399E+02  0.47000000000E+01 0. -1.
         -5    1    3    3    0  501  0.50500068305E+02 -0.40371975866E+02 -0.34924932246E+02  0.73634191966E+02  0.47000000000E+01 0. -1.
          5    1    4    4  502    0 -0.63875603846E+01 -0.27061776176E+02  0.27815825011E+02  0.39609983318E+02  0.47000000000E+01 0. -1.
         -5    1    4    4    0  502  0.24346501189E+02  0.73138320771E+02 -0.62159399877E+02  0.99135498578E+02  0.47000000000E+01 0. -1.
<mgrwt>
<rscale>  0 0.26964316E+03</rscale>
<asrwt>0</asrwt>
<pdfrwt beam="1">  1       21 0.14891799E-01 0.26964316E+03</pdfrwt>
<pdfrwt beam="2">  1       21 0.28889826E-01 0.26964316E+03</pdfrwt>
<totfact> 0.44879795E+05</totfact>
</mgrwt>
</event>
<event>
 8    1  0.4760912E-006  0.3076170E+03  0.7546771E-02  0.1081494E+00
         21   -1    0    0  504  503  0.00000000000E+00  0.00000000000E+00  0.32911030903E+03  0.32911030903E+03  0.00000000000E+00 0. -1.
         21   -1    0    0  503  504 -0.00000000000E+00 -0.00000000000E+00 -0.71881849147E+02  0.71881849147E+02  0.00000000000E+00 0. -1.
         25    2    1    2    0    0 -0.45031283340E+02 -0.66104535553E+02  0.75914742079E+02  0.16669153141E+03  0.12500156990E+03 0.  0.
         25    2    1    2    0    0  0.45031283340E+02  0.66104535553E+02  0.18131371780E+03  0.23430062677E+03  0.12499797335E+03 0.  0.
          5    1    3    3  501    0 -0.11318641168E+02  0.58078130400E+01 -0.30758431798E+02  0.33615672786E+02  0.47000000000E+01 0.  1.
         -5    1    3    3    0  501 -0.33712642172E+02 -0.71912348593E+02  0.10667317388E+03  0.13307585862E+03  0.47000000000E+01 0.  1.
          5    1    4    4  502    0 -0.97959380677E+01  0.86434292377E+02  0.12924232680E+03  0.15586056697E+03  0.47000000000E+01 0. -1.
         -5    1    4    4    0  502  0.54827221408E+02 -0.20329756824E+02  0.52071391005E+02  0.78440059797E+02  0.47000000000E+01 0. -1.
<mgrwt>
<rscale>  0 0.30761702E+03</rscale>
<asrwt>0</asrwt>
<pdfrwt beam="1">  1       21 0.50632354E-01 0.30761702E+03</pdfrwt>
<pdfrwt beam="2">  1       21 0.11058746E-01 0.30761702E+03</pdfrwt>
<totfact> 0.24480929E+05</totfact>
</mgrwt>
</event>
<event>
 8    1  0.4760912E-006  0.3183954E+03  0.7546771E-02  0.1076390E+00
         21   -1    0    0  504  503  0.00000000000E+00  0.00000000000E+00  0.11553288422E+03  0.11553288422E+03  0.00000000000E+00 0.  1.
         21   -1    0    0  503  504 -0.00000000000E+00 -0.00000000000E+00 -0.21936524962E+03  0.21936524962E+03  0.00000000000E+00 0.  1.
         25    2    1    2    0    0  0.86357209232E+02  0.18230265754E+02 -0.98051322538E+02  0.18174351238E+03  0.12500692886E+03 0.  0.
         25    2    1    2    0    0 -0.86357209232E+02 -0.18230265754E+02 -0.57810428619E+01  0.15315462147E+03  0.12503202568E+03 0.  0.
          5    1    3    3  501    0  0.84467165783E+02  0.46493693007E+02 -0.20005666030E+02  0.98583377190E+02  0.47000000000E+01 0. -1.
         -5    1    3    3    0  501  0.18900434487E+01 -0.28263427253E+02 -0.78045656508E+02  0.83160135185E+02  0.47000000000E+01 0. -1.
          5    1    4    4  502    0 -0.44706194006E+02 -0.30738501930E+02 -0.61611900174E+02  0.82229043083E+02  0.47000000000E+01 0.  1.
         -5    1    4    4    0  502 -0.41651015226E+02  0.12508236176E+02  0.55830857312E+02  0.70925578389E+02  0.47000000000E+01 0.  1.
<mgrwt>
<rscale>  0 0.31839535E+03</rscale>
<asrwt>0</asrwt>
<pdfrwt beam="1">  1       21 0.17774290E-01 0.31839535E+03</pdfrwt>
<pdfrwt beam="2">  1       21 0.33748499E-01 0.31839535E+03</pdfrwt>
<totfact> 0.23566206E+05</totfact>
</mgrwt>
</event>
<event>
 8    1  0.4760912E-006  0.2953053E+03  0.7546771E-02  0.1087611E+00
         21   -1    0    0  504  503  0.00000000000E+00  0.00000000000E+00  0.34160240815E+02  0.34160240815E+02  0.00000000000E+00 0.  1.
         21   -1    0    0  503  504 -0.00000000000E+00 -0.00000000000E+00 -0.63820714822E+03  0.63820714822E+03  0.00000000000E+00 0.  1.
         25    2    1    2    0    0 -0.45549110042E+02  0.40331797643E+02 -0.18875058796E+03  0.23442165025E+03  0.12500140129E+03 0.  0.
         25    2    1    2    0    0  0.45549110042E+02 -0.40331797643E+02 -0.41529631945E+03  0.43794573879E+03  0.12499624734E+03 0.  0.
          5    1    3    3  501    0  0.18976143197E+02  0.26132362645E+02  0.18020668506E+01  0.32685345844E+02  0.47000000000E+01 0.  1.
         -5    1    3    3    0  501 -0.64525253240E+02  0.14199434999E+02 -0.19055265481E+03  0.20173630441E+03  0.47000000000E+01 0.  1.
          5    1    4    4  502    0  0.71831788526E+02  0.11825952031E+02 -0.15749793015E+03  0.17357231054E+03  0.47000000000E+01 0. -1.
         -5    1    4    4    0  502 -0.26282678483E+02 -0.52157749674E+02 -0.25779838930E+03  0.26437342825E+03  0.47000000000E+01 0. -1.
<mgrwt>
<rscale>  0 0.29530533E+03</rscale>
<asrwt>0</asrwt>
<pdfrwt beam="1">  1       21 0.52554217E-02 0.29530533E+03</pdfrwt>
<pdfrwt beam="2">  1       21 0.98185715E-01 0.29530533E+03</pdfrwt>
<totfact> 0.20551354E+05</totfact>
</mgrwt>
</event>
<event>
 8    1  0.4760912E-006  0.3185955E+03  0.7546771E-02  0.1076298E+00
         21   -1    0    0  504  503  0.00000000000E+00  0.00000000000E+00  0.89209792669E+02  0.89209792669E+02  0.00000000000E+00 0. -1.
         21   -1    0    0  503  504 -0.00000000000E+00 -0.00000000000E+00 -0.28445047651E+03  0.28445047651E+03  0.00000000000E+00 0. -1.
         25    2    1    2    0    0  0.75383222519E+02 -0.48291932610E+02 -0.48652076468E+02  0.16126520034E+03  0.12499879721E+03 0.  0.
         25    2    1    2    0    0 -0.75383222519E+02  0.48291932610E+02 -0.14658860737E+03  0.21239506883E+03  0.12493480084E+03 0.  0.
          5    1    3    3  501    0  0.45993426973E+02 -0.41924753050E+02  0.35483775380E+02  0.71793234767E+02  0.47000000000E+01 0.  1.
         -5    1    3    3    0  501  0.29389795546E+02 -0.63671795602E+01 -0.84135851848E+02  0.89471965576E+02  0.47000000000E+01 0.  1.
          5    1    4    4  502    0 -0.80208810404E+02 -0.26991857547E+01 -0.13876396385E+03  0.16036915705E+03  0.47000000000E+01 0. -1.
         -5    1    4    4    0  502  0.48255878846E+01  0.50991118365E+02 -0.78246435211E+01  0.52025911782E+02  0.47000000000E+01 0. -1.
<mgrwt>
<rscale>  0 0.31859547E+03</rscale>
<asrwt>0</asrwt>
<pdfrwt beam="1">  1       21 0.13724583E-01 0.31859547E+03</pdfrwt>
<pdfrwt beam="2">  1       21 0.43761612E-01 0.31859547E+03</pdfrwt>
<totfact> 0.22402860E+05</totfact>
</mgrwt>
</event>
<event>
 8    1  0.4760912E-006  0.3091766E+03  0.7546771E-02  0.1080741E+00
         21   -1    0    0  504  503  0.00000000000E+00  0.00000000000E+00  0.12663731597E+03  0.12663731597E+03  0.00000000000E+00 0.  1.
         21   -1    0    0  503  504 -0.00000000000E+00 -0.00000000000E+00 -0.18870855125E+03  0.18870855125E+03  0.00000000000E+00 0.  1.
         25    2    1    2    0    0 -0.48494994362E+01  0.86352129600E+02 -0.59763888116E+02  0.16332513212E+03  0.12499267389E+03 0.  0.
         25    2    1    2    0    0  0.48494994362E+01 -0.86352129600E+02 -0.23073471599E+01  0.15202073510E+03  0.12499908847E+03 0.  0.
          5    1    3    3  501    0 -0.60699330528E+02  0.36302364742E+02 -0.51737313265E+02  0.87755968437E+02  0.47000000000E+01 0.  1.
         -5    1    3    3    0  501  0.55849831092E+02  0.50049764858E+02 -0.80265748514E+01  0.75569163679E+02  0.47000000000E+01 0.  1.
          5    1    4    4  502    0  0.58256040648E+02 -0.67246233170E+02  0.19265129497E+02  0.91154030970E+02  0.47000000000E+01 0. -1.
         -5    1    4    4    0  502 -0.53406541211E+02 -0.19105896429E+02 -0.21572476657E+02  0.60866704130E+02  0.47000000000E+01 0. -1.
<mgrwt>
<rscale>  0 0.30917661E+03</rscale>
<asrwt>0</asrwt>
<pdfrwt beam="1">  1       21 0.19482664E-01 0.30917661E+03</pdfrwt>
<pdfrwt beam="2">  1       21 0.29032085E-01 0.30917661E+03</pdfrwt>
<totfact> 0.26782236E+05</totfact>
</mgrwt>
</event>
<event>
 8    1  0.4760912E-006  0.3907398E+03  0.7546771E-02  0.1047034E+00
         21   -1    0    0  504  503  0.00000000000E+00  0.00000000000E+00  0.23186658714E+03  0.23186658714E+03  0.00000000000E+00 0.  1.
         21   -1    0    0  503  504 -0.00000000000E+00 -0.00000000000E+00 -0.16461794846E+03  0.16461794846E+03  0.00000000000E+00 0.  1.
         25    2    1    2    0    0  0.65761790692E+02 -0.65328207395E+02  0.15347835137E+03  0.21857277574E+03  0.12500426457E+03 0.  0.
         25    2    1    2    0    0 -0.65761790692E+02  0.65328207395E+02 -0.86229712689E+02  0.17791175986E+03  0.12499857259E+03 0.  0.
          5    1    3    3  501    0 -0.62549972916E+01 -0.73901020814E+02  0.11338983421E+03  0.13557223304E+03  0.47000000000E+01 0.  1.
         -5    1    3    3    0  501  0.72016787984E+02  0.85728134195E+01  0.40088517157E+02  0.83000542705E+02  0.47000000000E+01 0.  1.
          5    1    4    4  502    0 -0.57028914318E+02  0.96050801566E+02 -0.34628809104E+02  0.11704400014E+03  0.47000000000E+01 0.  1.
         -5    1    4    4    0  502 -0.87328763746E+01 -0.30722594172E+02 -0.51600903586E+02  0.60867759719E+02  0.47000000000E+01 0.  1.
<mgrwt>
<rscale>  0 0.39073982E+03</rscale>
<asrwt>0</asrwt>
<pdfrwt beam="1">  1       21 0.35671783E-01 0.39073982E+03</pdfrwt>
<pdfrwt beam="2">  1       21 0.25325838E-01 0.39073982E+03</pdfrwt>
<totfact> 0.10581443E+05</totfact>
</mgrwt>
</event>
<event>
 8    1  0.4760912E-006  0.3841773E+03  0.7546771E-02  0.1049401E+00
         21   -1    0    0  504  503  0.00000000000E+00  0.00000000000E+00  0.34255250502E+03  0.34255250502E+03  0.00000000000E+00 0. -1.
         21   -1    0    0  503  504 -0.00000000000E+00 -0.00000000000E+00 -0.10771500613E+03  0.10771500613E+03  0.00000000000E+00 0. -1.
         25    2    1    2    0    0  0.91482171662E+02  0.66858444243E+02  0.97855813275E+01  0.16899676930E+03  0.12500044453E+03 0.  0.
         25    2    1    2    0    0 -0.91482171662E+02 -0.66858444243E+02  0.22505191755E+03  0.28127074185E+03  0.12500330127E+03 0.  0.
          5    1    3    3  501    0 -0.12370310553E+02 -0.76693792401E+01 -0.31142047490E+02  0.34695260238E+02  0.47000000000E+01 0. -1.
         -5    1    3    3    0  501  0.10385248222E+03  0.74527823483E+02  0.40927628818E+02  0.13430150906E+03  0.47000000000E+01 0. -1.
          5    1    4    4  502    0 -0.78496498921E+02 -0.91165946339E+02  0.22276866123E+03  0.25322104285E+03  0.47000000000E+01 0. -1.
         -5    1    4    4    0  502 -0.12985672741E+02  0.24307502096E+02  0.22832563235E+01  0.28049699003E+02  0.47000000000E+01 0. -1.
<mgrwt>
<rscale>  0 0.38417728E+03</rscale>
<asrwt>0</asrwt>
<pdfrwt beam="1">  1       21 0.52700385E-01 0.38417728E+03</pdfrwt>
<pdfrwt beam="2">  1       21 0.16571540E-01 0.38417728E+03</pdfrwt>
<totfact> 0.10553663E+05</totfact>
</mgrwt>
</event>
<event>
 8    1  0.4760912E-006  0.2789611E+03  0.7546771E-02  0.1096258E+00
         21   -1    0    0  504  503  0.00000000000E+00  0.00000000000E+00  0.27754775802E+04  0.27754775802E+04  0.00000000000E+00 0. -1.
         21   -1    0    0  503  504 -0.00000000000E+00 -0.00000000000E+00 -0.70095401024E+01  0.70095401024E+01  0.00000000000E+00 0. -1.
         25    2    1    2    0    0  0.43649438979E+02  0.43735436712E+02  0.14192626419E+04  0.14260957284E+04  0.12499807234E+03 0.  0.
         25    2    1    2    0    0 -0.43649438979E+02 -0.43735436712E+02  0.13492053982E+04  0.13563913919E+04  0.12499735754E+03 0.  0.
          5    1    3    3  501    0  0.62639635196E+01  0.81902366888E+02  0.10076992311E+04  0.10110524542E+04  0.47000000000E+01 0.  1.
         -5    1    3    3    0  501  0.37385475459E+02 -0.38166930176E+02  0.41156341081E+03  0.41504327420E+03  0.47000000000E+01 0.  1.
          5    1    4    4  502    0  0.43443198240E+02 -0.24331004791E+02  0.46373646923E+03  0.46642567699E+03  0.47000000000E+01 0. -1.
         -5    1    4    4    0  502 -0.87092637219E+02 -0.19404431921E+02  0.88546892900E+03  0.88996571488E+03  0.47000000000E+01 0. -1.
<mgrwt>
<rscale>  0 0.27896108E+03</rscale>
<asrwt>0</asrwt>
<pdfrwt beam="1">  1       21 0.42699567E+00 0.27896108E+03</pdfrwt>
<pdfrwt beam="2">  1       21 0.10783930E-02 0.27896108E+03</pdfrwt>
<totfact> 0.17887914E+04</totfact>
</mgrwt>
</event>
<event>
 8    1  0.4760912E-006  0.2771169E+03  0.7546771E-02  0.1097274E+00
         21   -1    0    0  504  503  0.00000000000E+00  0.00000000000E+00  0.40044915141E+03  0.40044915141E+03  0.00000000000E+00 0. -1.
         21   -1    0    0  503  504 -0.00000000000E+00 -0.00000000000E+00 -0.47942265262E+02  0.47942265262E+02  0.00000000000E+00 0. -1.
         25    2    1    2    0    0 -0.34692316544E+02  0.77250271887E+00  0.97489677425E+02  0.16227378993E+03  0.12499756840E+03 0.  0.
         25    2    1    2    0    0  0.34692316544E+02 -0.77250271887E+00  0.25501720873E+03  0.28611762674E+03  0.12500146399E+03 0.  0.
          5    1    3    3  501    0 -0.65035381093E+02 -0.41504113067E+02  0.62345879524E+02  0.99304032592E+02  0.47000000000E+01 0. -1.
         -5    1    3    3    0  501  0.30343064549E+02  0.42276615786E+02  0.35143797901E+02  0.62969757340E+02  0.47000000000E+01 0. -1.
          5    1    4    4  502    0  0.38312810263E+02  0.99528957091E+01  0.10404460960E+02  0.41197989891E+02  0.47000000000E+01 0. -1.
         -5    1    4    4    0  502 -0.36204937187E+01 -0.10725398428E+02  0.24461274777E+03  0.24491963685E+03  0.47000000000E+01 0. -1.
<mgrwt>
<rscale>  0 0.27711687E+03</rscale>
<asrwt>0</asrwt>
<pdfrwt beam="1">  1       21 0.61607560E-01 0.27711687E+03</pdfrwt>
<pdfrwt beam="2">  1       21 0.73757334E-02 0.27711687E+03</pdfrwt>
<totfact> 0.33147822E+05</totfact>
</mgrwt>
</event>
<event>
 8    1  0.4760912E-006  0.2690502E+03  0.7546771E-02  0.1101824E+00
         21   -1    0    0  504  503  0.00000000000E+00  0.00000000000E+00  0.37946471495E+02  0.37946471495E+02  0.00000000000E+00 0. -1.
         21   -1    0    0  503  504 -0.00000000000E+00 -0.00000000000E+00 -0.47690868000E+03  0.47690868000E+03  0.00000000000E+00 0. -1.
         25    2    1    2    0    0  0.30182829482E+02 -0.30865655461E+02 -0.26666183597E+03  0.29765318636E+03  0.12500077081E+03 0.  0.
         25    2    1    2    0    0 -0.30182829482E+02  0.30865655461E+02 -0.17230037253E+03  0.21720196513E+03  0.12500233358E+03 0.  0.
          5    1    3    3  501    0  0.20979639965E+01 -0.54542037015E+02 -0.25189704268E+03  0.25778565780E+03  0.47000000000E+01 0.  1.
         -5    1    3    3    0  501  0.28084865485E+02  0.23676381554E+02 -0.14764793291E+02  0.39867528563E+02  0.47000000000E+01 0.  1.
          5    1    4    4  502    0  0.37278508560E+02 -0.22654696003E+01 -0.11934862826E+03  0.12514393561E+03  0.47000000000E+01 0.  1.
         -5    1    4    4    0  502 -0.67461338042E+02  0.33131125062E+02 -0.52951744276E+02  0.92058029526E+02  0.47000000000E+01 0.  1.
<mgrwt>
<rscale>  0 0.26905019E+03</rscale>
<asrwt>0</asrwt>
<pdfrwt beam="1">  1       21 0.58379179E-02 0.26905019E+03</pdfrwt>
<pdfrwt beam="2">  1       21 0.73370576E-01 0.26905019E+03</pdfrwt>
<totfact> 0.33854842E+05</totfact>
</mgrwt>
</event>
<event>
 8    1  0.4760912E-006  0.2749901E+03  0.7546771E-02  0.1098457E+00
         21   -1    0    0  504  503  0.00000000000E+00  0.00000000000E+00  0.84674227982E+02  0.84674227982E+02  0.00000000000E+00 0. -1.
         21   -1    0    0  503  504 -0.00000000000E+00 -0.00000000000E+00 -0.22326619424E+03  0.22326619424E+03  0.00000000000E+00 0. -1.
         25    2    1    2    0    0  0.52315496174E+02  0.23252317084E+02 -0.70573375243E+02  0.15454358209E+03  0.12500214431E+03 0.  0.
         25    2    1    2    0    0 -0.52315496174E+02 -0.23252317084E+02 -0.68018591010E+02  0.15339684013E+03  0.12500592165E+03 0.  0.
          5    1    3    3  501    0  0.67852534290E+02  0.15663325723E+02 -0.98886329501E+02  0.12103678096E+03  0.47000000000E+01 0.  1.
         -5    1    3    3    0  501 -0.15537038116E+02  0.75889913602E+01  0.28312954258E+02  0.33506801132E+02  0.47000000000E+01 0.  1.
          5    1    4    4  502    0  0.39672873419E+02  0.31973191463E+01 -0.30986406190E+02  0.50659718748E+02  0.47000000000E+01 0. -1.
         -5    1    4    4    0  502 -0.91988369593E+02 -0.26449636230E+02 -0.37032184820E+02  0.10273712138E+03  0.47000000000E+01 0. -1.
<mgrwt>
<rscale>  0 0.27499013E+03</rscale>
<asrwt>0</asrwt>
<pdfrwt beam="1">  1       21 0.13026805E-01 0.27499013E+03</pdfrwt>
<pdfrwt beam="2">  1       21 0.34348645E-01 0.27499013E+03</pdfrwt>
<totfact> 0.40654773E+05</totfact>
</mgrwt>
</event>
<event>
 8    1  0.4760912E-006  0.2734149E+03  0.7546771E-02  0.1099341E+00
         21   -1    0    0  504  503  0.00000000000E+00  0.00000000000E+00  0.33766764505E+02  0.33766764505E+02  0.00000000000E+00 0.  1.
         21   -1    0    0  503  504 -0.00000000000E+00 -0.00000000000E+00 -0.55347112372E+03  0.55347112372E+03  0.00000000000E+00 0.  1.
         25    2    1    2    0    0 -0.86616531233E+01  0.11668872798E+02 -0.14515176106E+03  0.19210745439E+03  0.12500021387E+03 0.  0.
         25    2    1    2    0    0  0.86616531233E+01 -0.11668872798E+02 -0.37455259815E+03  0.39513043383E+03  0.12500889619E+03 0.  0.
          5    1    3    3  501    0  0.18829677039E+02 -0.52160210101E+02 -0.73302637598E+02  0.92035921977E+02  0.47000000000E+01 0.  1.
         -5    1    3    3    0  501 -0.27491330163E+02  0.63829082899E+02 -0.71849123459E+02  0.10007153241E+03  0.47000000000E+01 0.  1.
          5    1    4    4  502    0  0.10723341646E+02 -0.40871217408E+02 -0.37244132763E+02  0.56521340162E+02  0.47000000000E+01 0.  1.
         -5    1    4    4    0  502 -0.20616885227E+01  0.29202344610E+02 -0.33730846539E+03  0.33860909367E+03  0.47000000000E+01 0.  1.
<mgrwt>
<rscale>  0 0.27341492E+03</rscale>
<asrwt>0</asrwt>
<pdfrwt beam="1">  1       21 0.51948871E-02 0.27341492E+03</pdfrwt>
<pdfrwt beam="2">  1       21 0.85149400E-01 0.27341492E+03</pdfrwt>
<totfact> 0.29445604E+05</totfact>
</mgrwt>
</event>
<event>
 8    1  0.4760912E-006  0.3509279E+03  0.7546771E-02  0.1062235E+00
         21   -1    0    0  504  503  0.00000000000E+00  0.00000000000E+00  0.19148416809E+03  0.19148416809E+03  0.00000000000E+00 0.  1.
         21   -1    0    0  503  504 -0.00000000000E+00 -0.00000000000E+00 -0.16078401738E+03  0.16078401738E+03  0.00000000000E+00 0.  1.
         25    2    1    2    0    0  0.61808211580E+02 -0.86897274114E+02  0.77162447505E+02  0.18152196582E+03  0.12499915800E+03 0.  0.
         25    2    1    2    0    0 -0.61808211580E+02  0.86897274114E+02 -0.46462296785E+02  0.17074621965E+03  0.12499654090E+03 0.  0.
          5    1    3    3  501    0 -0.89110795163E+01 -0.51159835164E+02  0.87112302125E+02  0.10152526412E+03  0.47000000000E+01 0. -1.
         -5    1    3    3    0  501  0.70719291096E+02 -0.35737438950E+02 -0.99498546202E+01  0.79996701700E+02  0.47000000000E+01 0. -1.
          5    1    4    4  502    0 -0.28415626435E+02  0.85776639170E+02 -0.81735785811E+02  0.12193403272E+03  0.47000000000E+01 0. -1.
         -5    1    4    4    0  502 -0.33392585146E+02  0.11206349440E+01  0.35273489026E+02  0.48812186936E+02  0.47000000000E+01 0. -1.
<mgrwt>
<rscale>  0 0.35092788E+03</rscale>
<asrwt>0</asrwt>
<pdfrwt beam="1">  1       21 0.29459103E-01 0.35092788E+03</pdfrwt>
<pdfrwt beam="2">  1       21 0.24736003E-01 0.35092788E+03</pdfrwt>
<totfact> 0.16364487E+05</totfact>
</mgrwt>
</event>
<event>
 8    1  0.4760912E-006  0.3252770E+03  0.7546771E-02  0.1073246E+00
         21   -1    0    0  504  503  0.00000000000E+00  0.00000000000E+00  0.51192756148E+02  0.51192756148E+02  0.00000000000E+00 0.  1.
         21   -1    0    0  503  504 -0.00000000000E+00 -0.00000000000E+00 -0.51669958404E+03  0.51669958404E+03  0.00000000000E+00 0.  1.
         25    2    1    2    0    0  0.55180913771E+02  0.22195812219E+02 -0.83709954353E+02  0.16177435726E+03  0.12500399547E+03 0.  0.
         25    2    1    2    0    0 -0.55180913771E+02 -0.22195812219E+02 -0.38179687354E+03  0.40611798293E+03  0.12500150435E+03 0.  0.
          5    1    3    3  501    0 -0.25811314633E+02 -0.27356596353E+02 -0.47609248459E+01  0.38201619500E+02  0.47000000000E+01 0. -1.
         -5    1    3    3    0  501  0.80992228404E+02  0.49552408571E+02 -0.78949029507E+02  0.12357273776E+03  0.47000000000E+01 0. -1.
          5    1    4    4  502    0 -0.88744138715E+02  0.12427729441E+02 -0.25931059163E+03  0.27439760120E+03  0.47000000000E+01 0.  1.
         -5    1    4    4    0  502  0.33563224944E+02 -0.34623541660E+02 -0.12248628191E+03  0.13172038172E+03  0.47000000000E+01 0.  1.
<mgrwt>
<rscale>  0 0.32527696E+03</rscale>
<asrwt>0</asrwt>
<pdfrwt beam="1">  1       21 0.78758091E-02 0.32527696E+03</pdfrwt>
<pdfrwt beam="2">  1       21 0.79492239E-01 0.32527696E+03</pdfrwt>
<totfact> 0.16556063E+05</totfact>
</mgrwt>
</event>
<event>
 8    1  0.4760912E-006  0.2903092E+03  0.7546771E-02  0.1090188E+00
         21   -1    0    0  504  503  0.00000000000E+00  0.00000000000E+00  0.17347828805E+03  0.17347828805E+03  0.00000000000E+00 0. -1.
         21   -1    0    0  503  504 -0.00000000000E+00 -0.00000000000E+00 -0.12145528357E+03  0.12145528357E+03  0.00000000000E+00 0. -1.
         25    2    1    2    0    0 -0.11216121356E+01 -0.87796278194E+01  0.10042732892E+03  0.16059459936E+03  0.12500654812E+03 0.  0.
         25    2    1    2    0    0  0.11216121356E+01  0.87796278194E+01 -0.48404324436E+02  0.13433897226E+03  0.12500256384E+03 0.  0.
          5    1    3    3  501    0  0.30404356156E+02 -0.49982697006E+02  0.90033793819E+02  0.10747496873E+03  0.47000000000E+01 0. -1.
         -5    1    3    3    0  501 -0.31525968291E+02  0.41203069187E+02  0.10393535097E+02  0.53119630636E+02  0.47000000000E+01 0. -1.
          5    1    4    4  502    0 -0.18524623713E+02  0.59520235325E+02 -0.49462598092E+02  0.79714858758E+02  0.47000000000E+01 0. -1.
         -5    1    4    4    0  502  0.19646235849E+02 -0.50740607505E+02  0.10582736560E+01  0.54624113505E+02  0.47000000000E+01 0. -1.
<mgrwt>
<rscale>  0 0.29030918E+03</rscale>
<asrwt>0</asrwt>
<pdfrwt beam="1">  1       21 0.26688967E-01 0.29030918E+03</pdfrwt>
<pdfrwt beam="2">  1       21 0.18685428E-01 0.29030918E+03</pdfrwt>
<totfact> 0.34266368E+05</totfact>
</mgrwt>
</event>
<event>
 8    1  0.4760912E-006  0.2830632E+03  0.7546771E-02  0.1094028E+00
         21   -1    0    0  504  503  0.00000000000E+00  0.00000000000E+00  0.13903517784E+03  0.13903517784E+03  0.00000000000E+00 0.  1.
         21   -1    0    0  503  504 -0.00000000000E+00 -0.00000000000E+00 -0.14407289146E+03  0.14407289146E+03  0.00000000000E+00 0.  1.
         25    2    1    2    0    0  0.23905491684E+02  0.23495500642E+02  0.54780324241E+02  0.14053733038E+03  0.12500538478E+03 0.  0.
         25    2    1    2    0    0 -0.23905491684E+02 -0.23495500642E+02 -0.59818037860E+02  0.14257073892E+03  0.12499882743E+03 0.  0.
          5    1    3    3  501    0  0.51819574279E+02  0.40919408402E+02 -0.10746860692E+02  0.67061548425E+02  0.47000000000E+01 0.  1.
         -5    1    3    3    0  501 -0.27914082595E+02 -0.17423907760E+02  0.65527184933E+02  0.73475781956E+02  0.47000000000E+01 0.  1.
          5    1    4    4  502    0 -0.48991309766E+02  0.20225496847E+02  0.12150709437E+02  0.54579748030E+02  0.47000000000E+01 0.  1.
         -5    1    4    4    0  502  0.25085818081E+02 -0.43720997489E+02 -0.71968747296E+02  0.87990990889E+02  0.47000000000E+01 0.  1.
<mgrwt>
<rscale>  0 0.28306324E+03</rscale>
<asrwt>0</asrwt>
<pdfrwt beam="1">  1       21 0.21390027E-01 0.28306324E+03</pdfrwt>
<pdfrwt beam="2">  1       21 0.22165060E-01 0.28306324E+03</pdfrwt>
<totfact> 0.38000524E+05</totfact>
</mgrwt>
</event>
<event>
 8    1  0.4760912E-006  0.2944944E+03  0.7546771E-02  0.1088026E+00
         21   -1    0    0  504  503  0.00000000000E+00  0.00000000000E+00  0.16884631338E+03  0.16884631338E+03  0.00000000000E+00 0.  1.
         21   -1    0    0  503  504 -0.00000000000E+00 -0.00000000000E+00 -0.12841107217E+03  0.12841107217E+03  0.00000000000E+00 0.  1.
         25    2    1    2    0    0  0.14750544097E+02 -0.10594397087E+02  0.96607252197E+02  0.15902084744E+03  0.12499939576E+03 0.  0.
         25    2    1    2    0    0 -0.14750544097E+02  0.10594397087E+02 -0.56172010983E+02  0.13823653812E+03  0.12499690337E+03 0.  0.
          5    1    3    3  501    0  0.32748490195E+02 -0.61476632197E+02  0.39113588642E+02  0.80023763550E+02  0.47000000000E+01 0.  1.
         -5    1    3    3    0  501 -0.17997946098E+02  0.50882235109E+02  0.57493663556E+02  0.78997083886E+02  0.47000000000E+01 0.  1.
          5    1    4    4  502    0  0.44023740779E+02  0.24159944472E+02 -0.59059501187E+02  0.77665354886E+02  0.47000000000E+01 0. -1.
         -5    1    4    4    0  502 -0.58774284876E+02 -0.13565547385E+02  0.28874902038E+01  0.60571183233E+02  0.47000000000E+01 0. -1.
<mgrwt>
<rscale>  0 0.29449439E+03</rscale>
<asrwt>0</asrwt>
<pdfrwt beam="1">  1       21 0.25976356E-01 0.29449439E+03</pdfrwt>
<pdfrwt beam="2">  1       21 0.19755550E-01 0.29449439E+03</pdfrwt>
<totfact> 0.32498309E+05</totfact>
</mgrwt>
</event>
<event>
 8    1  0.4760912E-006  0.2621350E+03  0.7546771E-02  0.1105867E+00
         21   -1    0    0  504  503  0.00000000000E+00  0.00000000000E+00  0.24476074275E+03  0.24476074275E+03  0.00000000000E+00 0. -1.
         21   -1    0    0  503  504 -0.00000000000E+00 -0.00000000000E+00 -0.70185636603E+02  0.70185636603E+02  0.00000000000E+00 0. -1.
         25    2    1    2    0    0 -0.27106655252E+02 -0.22583184639E+02  0.65734094590E+02  0.14550267452E+03  0.12492111957E+03 0.  0.
         25    2    1    2    0    0  0.27106655252E+02  0.22583184639E+02  0.10884101156E+03  0.16944370483E+03  0.12498012772E+03 0.  0.
          5    1    3    3  501    0 -0.65277460783E+02 -0.65596185519E+01 -0.21989036922E+01  0.65811098298E+02  0.47000000000E+01 0. -1.
         -5    1    3    3    0  501  0.38170805531E+02 -0.16023566087E+02  0.67932998282E+02  0.79691576221E+02  0.47000000000E+01 0. -1.
          5    1    4    4  502    0  0.64660488468E+02  0.43592488584E+02  0.39103553377E+02  0.87363961200E+02  0.47000000000E+01 0. -1.
         -5    1    4    4    0  502 -0.37553833217E+02 -0.21009303945E+02  0.69737458181E+02  0.82079743634E+02  0.47000000000E+01 0. -1.
<mgrwt>
<rscale>  0 0.26213499E+03</rscale>
<asrwt>0</asrwt>
<pdfrwt beam="1">  1       21 0.37655498E-01 0.26213499E+03</pdfrwt>
<pdfrwt beam="2">  1       21 0.10797790E-01 0.26213499E+03</pdfrwt>
<totfact> 0.47510082E+05</totfact>
</mgrwt>
</event>
<event>
 8    1  0.4760912E-006  0.4425925E+03  0.7546771E-02  0.1029954E+00
         21   -1    0    0  504  503  0.00000000000E+00  0.00000000000E+00  0.50132243358E+03  0.50132243358E+03  0.00000000000E+00 0. -1.
         21   -1    0    0  503  504 -0.00000000000E+00 -0.00000000000E+00 -0.97685708384E+02  0.97685708384E+02  0.00000000000E+00 0. -1.
         25    2    1    2    0    0  0.10409442592E+03  0.40560084702E+02  0.63087448218E+01  0.16775940066E+03  0.12499058472E+03 0.  0.
         25    2    1    2    0    0 -0.10409442592E+03 -0.40560084702E+02  0.39732798038E+03  0.43124874131E+03  0.12500073165E+03 0.  0.
          5    1    3    3  501    0  0.34637732304E+02 -0.88012172333E+01 -0.52812587594E+02  0.63941327264E+02  0.47000000000E+01 0.  1.
         -5    1    3    3    0  501  0.69456693614E+02  0.49361301936E+02  0.59121332416E+02  0.10381807339E+03  0.47000000000E+01 0.  1.
          5    1    4    4  502    0 -0.66150074691E+02 -0.47682017383E+01  0.59000485054E+02  0.88891593338E+02  0.47000000000E+01 0.  1.
         -5    1    4    4    0  502 -0.37944351226E+02 -0.35791882964E+02  0.33832749532E+03  0.34235714797E+03  0.47000000000E+01 0.  1.
<mgrwt>
<rscale>  0 0.44259253E+03</rscale>
<asrwt>0</asrwt>
<pdfrwt beam="1">  1       21 0.77126527E-01 0.44259253E+03</pdfrwt>
<pdfrwt beam="2">  1       21 0.15028571E-01 0.44259253E+03</pdfrwt>
<totfact> 0.53829897E+04</totfact>
</mgrwt>
</event>
<event>
 8    1  0.4760912E-006  0.4098502E+03  0.7546771E-02  0.1040421E+00
         21   -1    0    0  504  503  0.00000000000E+00  0.00000000000E+00  0.10589282248E+03  0.10589282248E+03  0.00000000000E+00 0. -1.
         21   -1    0    0  503  504 -0.00000000000E+00 -0.00000000000E+00 -0.39657361678E+03  0.39657361678E+03  0.00000000000E+00 0. -1.
         25    2    1    2    0    0  0.26831604651E+02 -0.35581244591E+01  0.50956066480E+02  0.13767445247E+03  0.12500055558E+03 0.  0.
         25    2    1    2    0    0 -0.26831604651E+02  0.35581244591E+01 -0.34163686077E+03  0.36479198678E+03  0.12499941490E+03 0.  0.
          5    1    3    3  501    0  0.52771379260E+02  0.46685275357E+02  0.34531297726E+02  0.78605559134E+02  0.47000000000E+01 0.  1.
         -5    1    3    3    0  501 -0.25939774609E+02 -0.50243399816E+02  0.16424768753E+02  0.59068893340E+02  0.47000000000E+01 0.  1.
          5    1    4    4  502    0  0.19649737351E+02 -0.19283417744E+02 -0.29056385696E+03  0.29190307869E+03  0.47000000000E+01 0.  1.
         -5    1    4    4    0  502 -0.46481342002E+02  0.22841542203E+02 -0.51073003812E+02  0.72888908093E+02  0.47000000000E+01 0.  1.
<mgrwt>
<rscale>  0 0.40985021E+03</rscale>
<asrwt>0</asrwt>
<pdfrwt beam="1">  1       21 0.16291203E-01 0.40985021E+03</pdfrwt>
<pdfrwt beam="2">  1       21 0.61011326E-01 0.40985021E+03</pdfrwt>
<totfact> 0.78915034E+04</totfact>
</mgrwt>
</event>
<event>
 8    1  0.4760912E-006  0.3193180E+03  0.7546771E-02  0.1075964E+00
         21   -1    0    0  504  503  0.00000000000E+00  0.00000000000E+00  0.26932427208E+02  0.26932427208E+02  0.00000000000E+00 0. -1.
         21   -1    0    0  503  504 -0.00000000000E+00 -0.00000000000E+00 -0.94647972552E+03  0.94647972552E+03  0.00000000000E+00 0. -1.
         25    2    1    2    0    0  0.58018907196E+02 -0.46937510495E+02 -0.25994331734E+03  0.29793337642E+03  0.12499778025E+03 0.  0.
         25    2    1    2    0    0 -0.58018907196E+02  0.46937510495E+02 -0.65960398097E+03  0.67547877631E+03  0.12499936822E+03 0.  0.
          5    1    3    3  501    0 -0.33870360724E+02 -0.30475172094E+02 -0.48281357951E+02  0.66551611365E+02  0.47000000000E+01 0.  1.
         -5    1    3    3    0  501  0.91889267919E+02 -0.16462338401E+02 -0.21166195939E+03  0.23138176505E+03  0.47000000000E+01 0.  1.
          5    1    4    4  502    0 -0.62156319476E+02  0.24503187823E+02 -0.13839939277E+03  0.15375401192E+03  0.47000000000E+01 0. -1.
         -5    1    4    4    0  502  0.41374122800E+01  0.22434322672E+02 -0.52120458820E+03  0.52172476439E+03  0.47000000000E+01 0. -1.
<mgrwt>
<rscale>  0 0.31931800E+03</rscale>
<asrwt>0</asrwt>
<pdfrwt beam="1">  1       21 0.41434498E-02 0.31931800E+03</pdfrwt>
<pdfrwt beam="2">  1       21 0.14561228E+00 0.31931800E+03</pdfrwt>
<totfact> 0.11373934E+05</totfact>
</mgrwt>
</event>
<event>
 8    1  0.4760912E-006  0.3168544E+03  0.7546771E-02  0.1077106E+00
         21   -1    0    0  504  503  0.00000000000E+00  0.00000000000E+00  0.28289177534E+03  0.28289177534E+03  0.00000000000E+00 0. -1.
         21   -1    0    0  503  504 -0.00000000000E+00 -0.00000000000E+00 -0.88723629355E+02  0.88723629355E+02  0.00000000000E+00 0. -1.
         25    2    1    2    0    0 -0.33973342320E+02 -0.62127893754E+02  0.18746454146E+02  0.14487547135E+03  0.12499363778E+03 0.  0.
         25    2    1    2    0    0  0.33973342320E+02  0.62127893754E+02  0.17542169184E+03  0.22673993334E+03  0.12499665689E+03 0.  0.
          5    1    3    3  501    0 -0.10163109234E+02 -0.82705751338E+02  0.52411684912E+02  0.98552548465E+02  0.47000000000E+01 0.  1.
         -5    1    3    3    0  501 -0.23810233086E+02  0.20577857584E+02 -0.33665230765E+02  0.46322922887E+02  0.47000000000E+01 0.  1.
          5    1    4    4  502    0 -0.29844508022E+02  0.56512012752E+02  0.36649070611E+02  0.73821044568E+02  0.47000000000E+01 0. -1.
         -5    1    4    4    0  502  0.63817850342E+02  0.56158810015E+01  0.13877262122E+03  0.15291888877E+03  0.47000000000E+01 0. -1.
<mgrwt>
<rscale>  0 0.31685445E+03</rscale>
<asrwt>0</asrwt>
<pdfrwt beam="1">  1       21 0.43521811E-01 0.31685445E+03</pdfrwt>
<pdfrwt beam="2">  1       21 0.13649789E-01 0.31685445E+03</pdfrwt>
<totfact> 0.22894728E+05</totfact>
</mgrwt>
</event>
<event>
 8    1  0.4760912E-006  0.2879424E+03  0.7546771E-02  0.1091428E+00
         21   -1    0    0  504  503  0.00000000000E+00  0.00000000000E+00  0.76726571343E+02  0.76726571343E+02  0.00000000000E+00 0.  1.
         21   -1    0    0  503  504 -0.00000000000E+00 -0.00000000000E+00 -0.27015026581E+03  0.27015026581E+03  0.00000000000E+00 0.  1.
         25    2    1    2    0    0 -0.40522847222E+02 -0.55567196411E+02 -0.73461719403E+02  0.16047521726E+03  0.12500342665E+03 0.  0.
         25    2    1    2    0    0  0.40522847222E+02  0.55567196411E+02 -0.11996197506E+03  0.18640161989E+03  0.12499949589E+03 0.  0.
          5    1    3    3  501    0  0.36201514770E+02 -0.10937385866E+02  0.90798685818E+01  0.39175376127E+02  0.47000000000E+01 0.  1.
         -5    1    3    3    0  501 -0.76724361992E+02 -0.44629810545E+02 -0.82541587984E+02  0.12129984113E+03  0.47000000000E+01 0.  1.
          5    1    4    4  502    0  0.48531301886E+02 -0.24943776001E+02 -0.21406957709E+02  0.58803291254E+02  0.47000000000E+01 0.  1.
         -5    1    4    4    0  502 -0.80084546639E+01  0.80510972411E+02 -0.98555017351E+02  0.12759832863E+03  0.47000000000E+01 0.  1.
<mgrwt>
<rscale>  0 0.28794238E+03</rscale>
<asrwt>0</asrwt>
<pdfrwt beam="1">  1       21 0.11804088E-01 0.28794238E+03</pdfrwt>
<pdfrwt beam="2">  1       21 0.41561580E-01 0.28794238E+03</pdfrwt>
<totfact> 0.32961088E+05</totfact>
</mgrwt>
</event>
<event>
 8    1  0.4760912E-006  0.2746084E+03  0.7546771E-02  0.1098671E+00
         21   -1    0    0  504  503  0.00000000000E+00  0.00000000000E+00  0.14216036585E+02  0.14216036585E+02  0.00000000000E+00 0.  1.
         21   -1    0    0  503  504 -0.00000000000E+00 -0.00000000000E+00 -0.13261394458E+04  0.13261394458E+04  0.00000000000E+00 0.  1.
         25    2    1    2    0    0  0.29110204832E+02 -0.20122994122E+02 -0.43884235977E+03  0.45766934810E+03  0.12500510607E+03 0.  0.
         25    2    1    2    0    0 -0.29110204832E+02  0.20122994122E+02 -0.87308104941E+03  0.88268613425E+03  0.12494780446E+03 0.  0.
          5    1    3    3  501    0  0.70604918689E+02 -0.30313058116E+02 -0.35721406824E+03  0.36541471862E+03  0.47000000000E+01 0. -1.
         -5    1    3    3    0  501 -0.41494713857E+02  0.10190063994E+02 -0.81628291527E+02  0.92254629477E+02  0.47000000000E+01 0. -1.
          5    1    4    4  502    0 -0.12052838742E+02  0.52407511655E+02 -0.78965860007E+03  0.79150149265E+03  0.47000000000E+01 0.  1.
         -5    1    4    4    0  502 -0.17057366089E+02 -0.32284517533E+02 -0.83422449347E+02  0.91184641608E+02  0.47000000000E+01 0.  1.
<mgrwt>
<rscale>  0 0.27460843E+03</rscale>
<asrwt>0</asrwt>
<pdfrwt beam="1">  1       21 0.21870825E-02 0.27460843E+03</pdfrwt>
<pdfrwt beam="2">  1       21 0.20402146E+00 0.27460843E+03</pdfrwt>
<totfact> 0.12936341E+05</totfact>
</mgrwt>
</event>
<event>
 8    1  0.4760912E-006  0.3110016E+03  0.7546771E-02  0.1079867E+00
         21   -1    0    0  504  503  0.00000000000E+00  0.00000000000E+00  0.18465741900E+03  0.18465741900E+03  0.00000000000E+00 0. -1.
         21   -1    0    0  503  504 -0.00000000000E+00 -0.00000000000E+00 -0.13094791919E+03  0.13094791919E+03  0.00000000000E+00 0. -1.
         25    2    1    2    0    0 -0.43476868098E+02  0.62492923497E+02  0.80163289331E+02  0.16687379571E+03  0.12500042877E+03 0.  0.
         25    2    1    2    0    0  0.43476868098E+02 -0.62492923497E+02 -0.26453789523E+02  0.14873154248E+03  0.12500266077E+03 0.  0.
          5    1    3    3  501    0  0.31358287306E+02  0.59857122583E+02  0.19784219206E+02  0.70567149838E+02  0.47000000000E+01 0. -1.
         -5    1    3    3    0  501 -0.74835155404E+02  0.26358009145E+01  0.60379070125E+02  0.96306645877E+02  0.47000000000E+01 0. -1.
          5    1    4    4  502    0 -0.48831157762E+01 -0.75137636429E+02  0.22380745740E+02  0.78692420268E+02  0.47000000000E+01 0.  1.
         -5    1    4    4    0  502  0.48359983874E+02  0.12644712931E+02 -0.48834535264E+02  0.70039122209E+02  0.47000000000E+01 0.  1.
<mgrwt>
<rscale>  0 0.31100164E+03</rscale>
<asrwt>0</asrwt>
<pdfrwt beam="1">  1       21 0.28408834E-01 0.31100164E+03</pdfrwt>
<pdfrwt beam="2">  1       21 0.20145834E-01 0.31100164E+03</pdfrwt>
<totfact> 0.26226885E+05</totfact>
</mgrwt>
</event>
<event>
 8    1  0.4760912E-006  0.3301067E+03  0.7546771E-02  0.1071090E+00
         21   -1    0    0  504  503  0.00000000000E+00  0.00000000000E+00  0.75727794426E+03  0.75727794426E+03  0.00000000000E+00 0. -1.
         21   -1    0    0  503  504 -0.00000000000E+00 -0.00000000000E+00 -0.35974391761E+02  0.35974391761E+02  0.00000000000E+00 0. -1.
         25    2    1    2    0    0  0.60539792246E+02  0.17093345475E+02  0.57097396448E+03  0.58787213317E+03  0.12500051175E+03 0.  0.
         25    2    1    2    0    0 -0.60539792246E+02 -0.17093345475E+02  0.15032958802E+03  0.20538020285E+03  0.12499917514E+03 0.  0.
          5    1    3    3  501    0  0.13428609460E+02 -0.25434538031E+02  0.45206671698E+03  0.45300513228E+03  0.47000000000E+01 0. -1.
         -5    1    3    3    0  501  0.47111182786E+02  0.42527883507E+02  0.11890724750E+03  0.13486700088E+03  0.47000000000E+01 0. -1.
          5    1    4    4  502    0 -0.30636034088E+02  0.40011337497E+02  0.11005246867E+02  0.51794586315E+02  0.47000000000E+01 0. -1.
         -5    1    4    4    0  502 -0.29903758158E+02 -0.57104682972E+02  0.13932434115E+03  0.15358561654E+03  0.47000000000E+01 0. -1.
<mgrwt>
<rscale>  0 0.33010673E+03</rscale>
<asrwt>0</asrwt>
<pdfrwt beam="1">  1       21 0.11650429E+00 0.33010673E+03</pdfrwt>
<pdfrwt beam="2">  1       21 0.55345224E-02 0.33010673E+03</pdfrwt>
<totfact> 0.12270870E+05</totfact>
</mgrwt>
</event>
<event>
 8    1  0.4760912E-006  0.2764658E+03  0.7546771E-02  0.1097635E+00
         21   -1    0    0  504  503  0.00000000000E+00  0.00000000000E+00  0.19891665801E+03  0.19891665801E+03  0.00000000000E+00 0.  1.
         21   -1    0    0  503  504 -0.00000000000E+00 -0.00000000000E+00 -0.96061980683E+02  0.96061980683E+02  0.00000000000E+00 0.  1.
         25    2    1    2    0    0  0.23845592843E+02 -0.59070355619E+01 -0.58401169402E+01  0.12752704489E+03  0.12500213937E+03 0.  0.
         25    2    1    2    0    0 -0.23845592843E+02  0.59070355619E+01  0.10869479426E+03  0.16745159380E+03  0.12498788980E+03 0.  0.
          5    1    3    3  501    0  0.24664870257E+01 -0.63279435339E+02 -0.15498709586E+02  0.65365667548E+02  0.47000000000E+01 0. -1.
         -5    1    3    3    0  501  0.21379105817E+02  0.57372399777E+02  0.96585926462E+01  0.62161377347E+02  0.47000000000E+01 0. -1.
          5    1    4    4  502    0 -0.25256901646E+02  0.20915581252E+02 -0.19397873463E+02  0.38389322927E+02  0.47000000000E+01 0.  1.
         -5    1    4    4    0  502  0.14113088035E+01 -0.15008545691E+02  0.12809266773E+03  0.12906227087E+03  0.47000000000E+01 0.  1.
<mgrwt>
<rscale>  0 0.27646575E+03</rscale>
<asrwt>0</asrwt>
<pdfrwt beam="1">  1       21 0.30602563E-01 0.27646575E+03</pdfrwt>
<pdfrwt beam="2">  1       21 0.14778766E-01 0.27646575E+03</pdfrwt>
<totfact> 0.40596091E+05</totfact>
</mgrwt>
</event>
<event>
 8    1  0.4760912E-006  0.5825890E+03  0.7546771E-02  0.9942202E-01
         21   -1    0    0  504  503  0.00000000000E+00  0.00000000000E+00  0.85824193413E+03  0.85824193413E+03  0.00000000000E+00 0. -1.
         21   -1    0    0  503  504 -0.00000000000E+00 -0.00000000000E+00 -0.98867778319E+02  0.98867778319E+02  0.00000000000E+00 0. -1.
         25    2    1    2    0    0  0.14296419911E+03  0.40872607535E+02  0.73629688123E+03  0.76148892976E+03  0.12499184203E+03 0.  0.
         25    2    1    2    0    0 -0.14296419911E+03 -0.40872607535E+02  0.23077274588E+02  0.19562078269E+03  0.12500239095E+03 0.  0.
          5    1    3    3  501    0 -0.73224428184E+01  0.31961672799E+02  0.25582365420E+03  0.25795929669E+03  0.47000000000E+01 0. -1.
         -5    1    3    3    0  501  0.15028664193E+03  0.89109347366E+01  0.48047322702E+03  0.50352963308E+03  0.47000000000E+01 0. -1.
          5    1    4    4  502    0 -0.12570498103E+03  0.22587417014E+02  0.21965827538E+02  0.12967853038E+03  0.47000000000E+01 0.  1.
         -5    1    4    4    0  502 -0.17259218086E+02 -0.63460024549E+02  0.11114470504E+01  0.65942252306E+02  0.47000000000E+01 0.  1.
<mgrwt>
<rscale>  0 0.58258896E+03</rscale>
<asrwt>0</asrwt>
<pdfrwt beam="1">  1       21 0.13203722E+00 0.58258896E+03</pdfrwt>
<pdfrwt beam="2">  1       21 0.15210428E-01 0.58258896E+03</pdfrwt>
<totfact> 0.13688966E+04</totfact>
</mgrwt>
</event>
<event>
 8    1  0.4760912E-006  0.2500988E+03  0.7546771E-02  0.1113242E+00
         21   -1    0    0  504  503  0.00000000000E+00  0.00000000000E+00  0.16795506329E+03  0.16795506329E+03  0.00000000000E+00 0. -1.
         21   -1    0    0  503  504 -0.00000000000E+00 -0.00000000000E+00 -0.93104408170E+02  0.93104408170E+02  0.00000000000E+00 0. -1.
         25    2    1    2    0    0  0.92493138917E+00  0.13328973058E+01  0.36141121527E+02  0.13015261658E+03  0.12502356108E+03 0.  0.
         25    2    1    2    0    0 -0.92493138917E+00 -0.13328973058E+01  0.38709533595E+02  0.13090685488E+03  0.12504217109E+03 0.  0.
          5    1    3    3  501    0  0.24840837460E+02  0.34116976819E+02  0.66745914671E+02  0.79108422044E+02  0.47000000000E+01 0. -1.
         -5    1    3    3    0  501 -0.23915906071E+02 -0.32784079513E+02 -0.30604793143E+02  0.51044194539E+02  0.47000000000E+01 0. -1.
          5    1    4    4  502    0  0.23550865672E+02  0.44964782794E+02 -0.17539864562E+02  0.53909292469E+02  0.47000000000E+01 0. -1.
         -5    1    4    4    0  502 -0.24475797061E+02 -0.46297680100E+02  0.56249398157E+02  0.76997562412E+02  0.47000000000E+01 0. -1.
<mgrwt>
<rscale>  0 0.25009883E+03</rscale>
<asrwt>0</asrwt>
<pdfrwt beam="1">  1       21 0.25839241E-01 0.25009883E+03</pdfrwt>
<pdfrwt beam="2">  1       21 0.14323755E-01 0.25009883E+03</pdfrwt>
<totfact> 0.60048887E+05</totfact>
</mgrwt>
</event>
<event>
 8    1  0.4760912E-006  0.2887469E+03  0.7546771E-02  0.1091005E+00
         21   -1    0    0  504  503  0.00000000000E+00  0.00000000000E+00  0.46158194323E+03  0.46158194323E+03  0.00000000000E+00 0. -1.
         21   -1    0    0  503  504 -0.00000000000E+00 -0.00000000000E+00 -0.45157074936E+02  0.45157074936E+02  0.00000000000E+00 0. -1.
         25    2    1    2    0    0 -0.14394499561E+02  0.51678115320E+00  0.33238073485E+03  0.35542595709E+03  0.12507273640E+03 0.  0.
         25    2    1    2    0    0  0.14394499561E+02 -0.51678115320E+00  0.84044133447E+02  0.15131306108E+03  0.12499902963E+03 0.  0.
          5    1    3    3  501    0 -0.61853773774E+02  0.17770211184E+02  0.25399880780E+03  0.26206707939E+03  0.47000000000E+01 0.  1.
         -5    1    3    3    0  501  0.47459274213E+02 -0.17253430031E+02  0.78381927054E+02  0.93358877700E+02  0.47000000000E+01 0.  1.
          5    1    4    4  502    0  0.67939846753E+02  0.22931907703E+01  0.28179852264E+02  0.73737884255E+02  0.47000000000E+01 0.  1.
         -5    1    4    4    0  502 -0.53545347192E+02 -0.28099719235E+01  0.55864281183E+02  0.77575176830E+02  0.47000000000E+01 0.  1.
<mgrwt>
<rscale>  0 0.28874688E+03</rscale>
<asrwt>0</asrwt>
<pdfrwt beam="1">  1       21 0.71012603E-01 0.28874688E+03</pdfrwt>
<pdfrwt beam="2">  1       21 0.69472426E-02 0.28874688E+03</pdfrwt>
<totfact> 0.26833010E+05</totfact>
</mgrwt>
</event>
<event>
 8    1  0.4760912E-006  0.3239553E+03  0.7546771E-02  0.1073843E+00
         21   -1    0    0  504  503  0.00000000000E+00  0.00000000000E+00  0.33370504108E+02  0.33370504108E+02  0.00000000000E+00 0.  1.
         21   -1    0    0  503  504 -0.00000000000E+00 -0.00000000000E+00 -0.78622616410E+03  0.78622616410E+03  0.00000000000E+00 0.  1.
         25    2    1    2    0    0 -0.74524516524E+02 -0.68472602544E+02 -0.32786864199E+03  0.36519509456E+03  0.12500883899E+03 0.  0.
         25    2    1    2    0    0  0.74524516524E+02  0.68472602544E+02 -0.42498701800E+03  0.45440157365E+03  0.12499769520E+03 0.  0.
          5    1    3    3  501    0 -0.22530123221E+02  0.34848790175E+02 -0.12281545626E+03  0.12972189840E+03  0.47000000000E+01 0. -1.
         -5    1    3    3    0  501 -0.51994393304E+02 -0.10332139272E+03 -0.20505318574E+03  0.23547319616E+03  0.47000000000E+01 0. -1.
          5    1    4    4  502    0 -0.47671372819E+01  0.68635351011E+02 -0.28715946842E+03  0.29532386851E+03  0.47000000000E+01 0. -1.
         -5    1    4    4    0  502  0.79291653806E+02 -0.16274846664E+00 -0.13782754958E+03  0.15907770514E+03  0.47000000000E+01 0. -1.
<mgrwt>
<rscale>  0 0.32395533E+03</rscale>
<asrwt>0</asrwt>
<pdfrwt beam="1">  1       21 0.51339239E-02 0.32395533E+03</pdfrwt>
<pdfrwt beam="2">  1       21 0.12095787E+00 0.32395533E+03</pdfrwt>
<totfact> 0.12731562E+05</totfact>
</mgrwt>
</event>
<event>
 8    1  0.4760912E-006  0.4950347E+03  0.7546771E-02  0.1015083E+00
         21   -1    0    0  504  503  0.00000000000E+00  0.00000000000E+00  0.56272584260E+02  0.56272584260E+02  0.00000000000E+00 0.  1.
         21   -1    0    0  503  504 -0.00000000000E+00 -0.00000000000E+00 -0.10887156626E+04  0.10887156626E+04  0.00000000000E+00 0.  1.
         25    2    1    2    0    0 -0.31615927021E+02  0.16687316368E+03 -0.21649411781E+03  0.30222898567E+03  0.12500574839E+03 0.  0.
         25    2    1    2    0    0  0.31615927021E+02 -0.16687316368E+03 -0.81594896052E+03  0.84275926119E+03  0.12499698615E+03 0.  0.
          5    1    3    3  501    0 -0.77895818602E+02  0.12918606688E+03 -0.15895233184E+03  0.21919108611E+03  0.47000000000E+01 0. -1.
         -5    1    3    3    0  501  0.46279891580E+02  0.37687096799E+02 -0.57541785969E+02  0.83037899554E+02  0.47000000000E+01 0. -1.
          5    1    4    4  502    0  0.23341558368E+02 -0.16791594748E+03 -0.52626766435E+03  0.55291982990E+03  0.47000000000E+01 0.  1.
         -5    1    4    4    0  502  0.82743686534E+01  0.10427837951E+01 -0.28968129617E+03  0.28983943128E+03  0.47000000000E+01 0.  1.
<mgrwt>
<rscale>  0 0.49503472E+03</rscale>
<asrwt>0</asrwt>
<pdfrwt beam="1">  1       21 0.86573205E-02 0.49503472E+03</pdfrwt>
<pdfrwt beam="2">  1       21 0.16749472E+00 0.49503472E+03</pdfrwt>
<totfact> 0.20427448E+04</totfact>
</mgrwt>
</event>
<event>
 8    1  0.4760912E-006  0.2944918E+03  0.7546771E-02  0.1088027E+00
         21   -1    0    0  504  503  0.00000000000E+00  0.00000000000E+00  0.35322223104E+02  0.35322223104E+02  0.00000000000E+00 0.  1.
         21   -1    0    0  503  504 -0.00000000000E+00 -0.00000000000E+00 -0.61381643984E+03  0.61381643984E+03  0.00000000000E+00 0.  1.
         25    2    1    2    0    0  0.53723346897E+02  0.54978830211E+02 -0.31615524393E+03  0.34854600681E+03  0.12498524243E+03 0.  0.
         25    2    1    2    0    0 -0.53723346897E+02 -0.54978830211E+02 -0.26233897281E+03  0.30059265614E+03  0.12500135398E+03 0.  0.
          5    1    3    3  501    0  0.65245742398E+02  0.87102319497E+02 -0.20457745074E+03  0.23177110328E+03  0.47000000000E+01 0.  1.
         -5    1    3    3    0  501 -0.11522395501E+02 -0.32123489286E+02 -0.11157779319E+03  0.11677490353E+03  0.47000000000E+01 0.  1.
          5    1    4    4  502    0  0.26458305594E+02 -0.40142485595E+01 -0.69237660669E+01  0.28038984699E+02  0.47000000000E+01 0.  1.
         -5    1    4    4    0  502 -0.80181652491E+02 -0.50964581652E+02 -0.25541520674E+03  0.27255367144E+03  0.47000000000E+01 0.  1.
<mgrwt>
<rscale>  0 0.29449184E+03</rscale>
<asrwt>0</asrwt>
<pdfrwt beam="1">  1       21 0.54341881E-02 0.29449184E+03</pdfrwt>
<pdfrwt beam="2">  1       21 0.94433300E-01 0.29449184E+03</pdfrwt>
<totfact> 0.21291824E+05</totfact>
</mgrwt>
</event>
<event>
 8    1  0.4760912E-006  0.3743836E+03  0.7546771E-02  0.1053029E+00
         21   -1    0    0  504  503  0.00000000000E+00  0.00000000000E+00  0.25054583628E+03  0.25054583628E+03  0.00000000000E+00 0.  1.
         21   -1    0    0  503  504 -0.00000000000E+00 -0.00000000000E+00 -0.13985775164E+03  0.13985775164E+03  0.00000000000E+00 0.  1.
         25    2    1    2    0    0 -0.86636345908E+02 -0.62623697487E+02  0.14853801079E+03  0.22162586498E+03  0.12500759761E+03 0.  0.
         25    2    1    2    0    0  0.86636345908E+02  0.62623697487E+02 -0.37849926147E+02  0.16877772293E+03  0.12500287568E+03 0.  0.
          5    1    3    3  501    0  0.22687749183E+02 -0.91813522538E+01 -0.52415690239E+01  0.25467533018E+02  0.47000000000E+01 0.  1.
         -5    1    3    3    0  501 -0.10932409509E+03 -0.53442345233E+02  0.15377957981E+03  0.19615833196E+03  0.47000000000E+01 0.  1.
          5    1    4    4  502    0  0.58755779464E+02  0.96519918104E+02 -0.48995907462E+02  0.12325187690E+03  0.47000000000E+01 0. -1.
         -5    1    4    4    0  502  0.27880566443E+02 -0.33896220618E+02  0.11145981316E+02  0.45525846031E+02  0.47000000000E+01 0. -1.
<mgrwt>
<rscale>  0 0.37438364E+03</rscale>
<asrwt>0</asrwt>
<pdfrwt beam="1">  1       21 0.38545513E-01 0.37438364E+03</pdfrwt>
<pdfrwt beam="2">  1       21 0.21516577E-01 0.37438364E+03</pdfrwt>
<totfact> 0.12416507E+05</totfact>
</mgrwt>
</event>
<event>
 8    1  0.4760912E-006  0.3301525E+03  0.7546771E-02  0.1071069E+00
         21   -1    0    0  504  503  0.00000000000E+00  0.00000000000E+00  0.14707295973E+03  0.14707295973E+03  0.00000000000E+00 0.  1.
         21   -1    0    0  503  504 -0.00000000000E+00 -0.00000000000E+00 -0.18528328281E+03  0.18528328281E+03  0.00000000000E+00 0.  1.
         25    2    1    2    0    0 -0.88098519308E+02  0.49746831888E+02  0.18409413964E+02  0.16186266047E+03  0.12499807176E+03 0.  0.
         25    2    1    2    0    0  0.88098519308E+02 -0.49746831888E+02 -0.56619737050E+02  0.17049358208E+03  0.12500468199E+03 0.  0.
          5    1    3    3  501    0 -0.33162571538E+02  0.92011701605E+01  0.68666747605E+02  0.76952127391E+02  0.47000000000E+01 0.  1.
         -5    1    3    3    0  501 -0.54935947770E+02  0.40545661727E+02 -0.50257333642E+02  0.84910533075E+02  0.47000000000E+01 0.  1.
          5    1    4    4  502    0  0.35278605377E+02 -0.17438790384E+02 -0.91185161939E+02  0.99425928033E+02  0.47000000000E+01 0. -1.
         -5    1    4    4    0  502  0.52819913931E+02 -0.32308041504E+02  0.34565424889E+02  0.71067654043E+02  0.47000000000E+01 0. -1.
<mgrwt>
<rscale>  0 0.33015245E+03</rscale>
<asrwt>0</asrwt>
<pdfrwt beam="1">  1       21 0.22626609E-01 0.33015245E+03</pdfrwt>
<pdfrwt beam="2">  1       21 0.28505121E-01 0.33015245E+03</pdfrwt>
<totfact> 0.20811911E+05</totfact>
</mgrwt>
</event>
<event>
 8    1  0.4760912E-006  0.3291310E+03  0.7546771E-02  0.1071522E+00
         21   -1    0    0  504  503  0.00000000000E+00  0.00000000000E+00  0.25000027001E+03  0.25000027001E+03  0.00000000000E+00 0.  1.
         21   -1    0    0  503  504 -0.00000000000E+00 -0.00000000000E+00 -0.10832710224E+03  0.10832710224E+03  0.00000000000E+00 0.  1.
         25    2    1    2    0    0  0.37688187957E+02  0.67061569704E+02 -0.10203554827E+02  0.14712160882E+03  0.12499200618E+03 0.  0.
         25    2    1    2    0    0 -0.37688187957E+02 -0.67061569704E+02  0.15187672259E+03  0.21120576342E+03  0.12499472787E+03 0.  0.
          5    1    3    3  501    0  0.80062470840E+02  0.60782136032E+02  0.66472879736E+01  0.10085010528E+03  0.47000000000E+01 0.  1.
         -5    1    3    3    0  501 -0.42374282883E+02  0.62794336721E+01 -0.16850842801E+02  0.46271503544E+02  0.47000000000E+01 0.  1.
          5    1    4    4  502    0 -0.19169931368E+02 -0.95350093300E+02  0.14756949554E+03  0.17679924370E+03  0.47000000000E+01 0.  1.
         -5    1    4    4    0  502 -0.18518256589E+02  0.28288523596E+02  0.43072270549E+01  0.34406519720E+02  0.47000000000E+01 0.  1.
<mgrwt>
<rscale>  0 0.32913101E+03</rscale>
<asrwt>0</asrwt>
<pdfrwt beam="1">  1       21 0.38461580E-01 0.32913101E+03</pdfrwt>
<pdfrwt beam="2">  1       21 0.16665708E-01 0.32913101E+03</pdfrwt>
<totfact> 0.20369690E+05</totfact>
</mgrwt>
</event>
<event>
 8    1  0.4760912E-006  0.2673719E+03  0.7546771E-02  0.1102793E+00
         21   -1    0    0  504  503  0.00000000000E+00  0.00000000000E+00  0.16980071733E+03  0.16980071733E+03  0.00000000000E+00 0. -1.
         21   -1    0    0  503  504 -0.00000000000E+00 -0.00000000000E+00 -0.10525239050E+03  0.10525239050E+03  0.00000000000E+00 0. -1.
         25    2    1    2    0    0 -0.22128320689E+02 -0.28807921371E+02  0.63593035252E+02  0.14487528661E+03  0.12500086251E+03 0.  0.
         25    2    1    2    0    0  0.22128320689E+02  0.28807921371E+02  0.95529157718E+00  0.13017782122E+03  0.12500317454E+03 0.  0.
          5    1    3    3  501    0  0.11518385112E+02  0.43959705417E+02  0.60610645432E+01  0.46086390609E+02  0.47000000000E+01 0.  1.
         -5    1    3    3    0  501 -0.33646705801E+02 -0.72767626789E+02  0.57531970709E+02  0.98788896002E+02  0.47000000000E+01 0.  1.
          5    1    4    4  502    0 -0.31982115158E+02  0.53554143487E+02 -0.21883883823E+02  0.66271384065E+02  0.47000000000E+01 0.  1.
         -5    1    4    4    0  502  0.54110435847E+02 -0.24746222116E+02  0.22839175400E+02  0.63906437153E+02  0.47000000000E+01 0.  1.
<mgrwt>
<rscale>  0 0.26737189E+03</rscale>
<asrwt>0</asrwt>
<pdfrwt beam="1">  1       21 0.26123187E-01 0.26737189E+03</pdfrwt>
<pdfrwt beam="2">  1       21 0.16192676E-01 0.26737189E+03</pdfrwt>
<totfact> 0.46807079E+05</totfact>
</mgrwt>
</event>
<event>
 8    1  0.4760912E-006  0.3604575E+03  0.7546771E-02  0.1058403E+00
         21   -1    0    0  504  503  0.00000000000E+00  0.00000000000E+00  0.21561740632E+03  0.21561740632E+03  0.00000000000E+00 0.  1.
         21   -1    0    0  503  504 -0.00000000000E+00 -0.00000000000E+00 -0.15064832521E+03  0.15064832521E+03  0.00000000000E+00 0.  1.
         25    2    1    2    0    0 -0.15817960033E+02 -0.11482122381E+03 -0.26967414530E+02  0.17258622369E+03  0.12499856745E+03 0.  0.
         25    2    1    2    0    0  0.15817960033E+02  0.11482122381E+03  0.91936495643E+02  0.19367950784E+03  0.12500124491E+03 0.  0.
          5    1    3    3  501    0 -0.21573735794E+02 -0.80905892849E+02  0.43171526755E+02  0.94324229634E+02  0.47000000000E+01 0.  1.
         -5    1    3    3    0  501  0.57557757601E+01 -0.33915330965E+02 -0.70138941284E+02  0.78261994056E+02  0.47000000000E+01 0.  1.
          5    1    4    4  502    0 -0.22996689578E+02 -0.10640135833E+02 -0.97137770322E+01  0.27541018251E+02  0.47000000000E+01 0. -1.
         -5    1    4    4    0  502  0.38814649611E+02  0.12546135965E+03  0.10165027268E+03  0.16613848959E+03  0.47000000000E+01 0. -1.
<mgrwt>
<rscale>  0 0.36045749E+03</rscale>
<asrwt>0</asrwt>
<pdfrwt beam="1">  1       21 0.33171909E-01 0.36045749E+03</pdfrwt>
<pdfrwt beam="2">  1       21 0.23176665E-01 0.36045749E+03</pdfrwt>
<totfact> 0.14627135E+05</totfact>
</mgrwt>
</event>
<event>
 8    1  0.4760912E-006  0.3397986E+03  0.7546771E-02  0.1066882E+00
         21   -1    0    0  504  503  0.00000000000E+00  0.00000000000E+00  0.14128845019E+04  0.14128845019E+04  0.00000000000E+00 0.  1.
         21   -1    0    0  503  504 -0.00000000000E+00 -0.00000000000E+00 -0.20430389298E+02  0.20430389298E+02  0.00000000000E+00 0.  1.
         25    2    1    2    0    0  0.61663564674E+02  0.59549687147E+02  0.37248127520E+03  0.40214165476E+03  0.12500819843E+03 0.  0.
         25    2    1    2    0    0 -0.61663564674E+02 -0.59549687147E+02  0.10199728374E+04  0.10311732364E+04  0.12500037620E+03 0.  0.
          5    1    3    3  501    0  0.13495615365E+02  0.79586123867E+02  0.12283847069E+03  0.14706278464E+03  0.47000000000E+01 0.  1.
         -5    1    3    3    0  501  0.48167949309E+02 -0.20036436720E+02  0.24964280451E+03  0.25507887012E+03  0.47000000000E+01 0.  1.
          5    1    4    4  502    0 -0.34437359043E+02 -0.92745941905E+02  0.52072409063E+03  0.53005981738E+03  0.47000000000E+01 0.  1.
         -5    1    4    4    0  502 -0.27226205631E+02  0.33196254758E+02  0.49924874672E+03  0.50111341901E+03  0.47000000000E+01 0.  1.
<mgrwt>
<rscale>  0 0.33979865E+03</rscale>
<asrwt>0</asrwt>
<pdfrwt beam="1">  1       21 0.21736677E+00 0.33979865E+03</pdfrwt>
<pdfrwt beam="2">  1       21 0.31431379E-02 0.33979865E+03</pdfrwt>
<totfact> 0.56653239E+04</totfact>
</mgrwt>
</event>
<event>
 8    1  0.4760912E-006  0.3776586E+03  0.7546771E-02  0.1051803E+00
         21   -1    0    0  504  503  0.00000000000E+00  0.00000000000E+00  0.13129412497E+03  0.13129412497E+03  0.00000000000E+00 0.  1.
         21   -1    0    0  503  504 -0.00000000000E+00 -0.00000000000E+00 -0.27157735127E+03  0.27157735127E+03  0.00000000000E+00 0.  1.
         25    2    1    2    0    0 -0.12388477543E+03 -0.67924853325E+02 -0.61236941028E+02  0.19833768276E+03  0.12500660053E+03 0.  0.
         25    2    1    2    0    0  0.12388477543E+03  0.67924853325E+02 -0.79046285278E+02  0.20453379348E+03  0.12499813669E+03 0.  0.
          5    1    3    3  501    0 -0.59905152169E+02 -0.98651751301E+02 -0.23729669101E+02  0.11792362989E+03  0.47000000000E+01 0. -1.
         -5    1    3    3    0  501 -0.63979623263E+02  0.30726897976E+02 -0.37507271926E+02  0.80414052873E+02  0.47000000000E+01 0. -1.
          5    1    4    4  502    0  0.12483305878E+02  0.75628610387E+02 -0.35118388980E+02  0.84444720849E+02  0.47000000000E+01 0. -1.
         -5    1    4    4    0  502  0.11140146955E+03 -0.77037570626E+01 -0.43927896299E+02  0.12008907263E+03  0.47000000000E+01 0. -1.
<mgrwt>
<rscale>  0 0.37765863E+03</rscale>
<asrwt>0</asrwt>
<pdfrwt beam="1">  1       21 0.20199096E-01 0.37765863E+03</pdfrwt>
<pdfrwt beam="2">  1       21 0.41781131E-01 0.37765863E+03</pdfrwt>
<totfact> 0.11859693E+05</totfact>
</mgrwt>
</event>
<event>
 8    1  0.4760912E-006  0.2888044E+03  0.7546771E-02  0.1090975E+00
         21   -1    0    0  504  503  0.00000000000E+00  0.00000000000E+00  0.28802680233E+02  0.28802680233E+02  0.00000000000E+00 0.  1.
         21   -1    0    0  503  504 -0.00000000000E+00 -0.00000000000E+00 -0.72396022110E+03  0.72396022110E+03  0.00000000000E+00 0.  1.
         25    2    1    2    0    0  0.63638078018E+02 -0.13909523076E+02 -0.26609147721E+03  0.30113496609E+03  0.12503724946E+03 0.  0.
         25    2    1    2    0    0 -0.63638078018E+02  0.13909523076E+02 -0.42906606366E+03  0.45162793524E+03  0.12500730020E+03 0.  0.
          5    1    3    3  501    0  0.44706848755E+02 -0.22551883266E+02 -0.27385256040E+03  0.27843240581E+03  0.47000000000E+01 0.  1.
         -5    1    3    3    0  501  0.18931229263E+02  0.86423601904E+01  0.77610831939E+01  0.22702560283E+02  0.47000000000E+01 0.  1.
          5    1    4    4  502    0 -0.52480804552E+02 -0.51211799847E+02 -0.19553082379E+03  0.20888101001E+03  0.47000000000E+01 0. -1.
         -5    1    4    4    0  502 -0.11157273465E+02  0.65121322923E+02 -0.23353523987E+03  0.24274692524E+03  0.47000000000E+01 0. -1.
<mgrwt>
<rscale>  0 0.28880440E+03</rscale>
<asrwt>0</asrwt>
<pdfrwt beam="1">  1       21 0.44311819E-02 0.28880440E+03</pdfrwt>
<pdfrwt beam="2">  1       21 0.11137849E+00 0.28880440E+03</pdfrwt>
<totfact> 0.20285531E+05</totfact>
</mgrwt>
</event>
<event>
 8    1  0.4760912E-006  0.3565722E+03  0.7546771E-02  0.1059949E+00
         21   -1    0    0  504  503  0.00000000000E+00  0.00000000000E+00  0.11816525215E+03  0.11816525215E+03  0.00000000000E+00 0. -1.
         21   -1    0    0  503  504 -0.00000000000E+00 -0.00000000000E+00 -0.26899555155E+03  0.26899555155E+03  0.00000000000E+00 0. -1.
         25    2    1    2    0    0 -0.10379600605E+03  0.31581878418E+02 -0.34482825106E+01  0.16554968402E+03  0.12499512514E+03 0.  0.
         25    2    1    2    0    0  0.10379600605E+03 -0.31581878418E+02 -0.14738201689E+03  0.22161111968E+03  0.12497601189E+03 0.  0.
          5    1    3    3  501    0 -0.37196399615E+02  0.20608324164E+01 -0.61651774680E+02  0.72186220955E+02  0.47000000000E+01 0.  1.
         -5    1    3    3    0  501 -0.66599606436E+02  0.29521046002E+02  0.58203492170E+02  0.93363463063E+02  0.47000000000E+01 0.  1.
          5    1    4    4  502    0  0.10263110233E+03 -0.99692042514E+01 -0.16409790536E+03  0.19386268527E+03  0.47000000000E+01 0.  1.
         -5    1    4    4    0  502  0.11649037229E+01 -0.21612674167E+02  0.16715888463E+02  0.27748434414E+02  0.47000000000E+01 0.  1.
<mgrwt>
<rscale>  0 0.35657216E+03</rscale>
<asrwt>0</asrwt>
<pdfrwt beam="1">  1       21 0.18179270E-01 0.35657216E+03</pdfrwt>
<pdfrwt beam="2">  1       21 0.41383931E-01 0.35657216E+03</pdfrwt>
<totfact> 0.14822062E+05</totfact>
</mgrwt>
</event>
<event>
 8    1  0.4760912E-006  0.3007712E+03  0.7546771E-02  0.1084856E+00
         21   -1    0    0  504  503  0.00000000000E+00  0.00000000000E+00  0.17297410156E+03  0.17297410156E+03  0.00000000000E+00 0. -1.
         21   -1    0    0  503  504 -0.00000000000E+00 -0.00000000000E+00 -0.13074692069E+03  0.13074692069E+03  0.00000000000E+00 0. -1.
         25    2    1    2    0    0  0.59518544235E+02 -0.40262458782E+02  0.64292036864E+02  0.15786178556E+03  0.12499341840E+03 0.  0.
         25    2    1    2    0    0 -0.59518544235E+02  0.40262458782E+02 -0.22064856002E+02  0.14585923669E+03  0.12499814543E+03 0.  0.
          5    1    3    3  501    0 -0.23772053695E+02 -0.22269528750E+02  0.64621803513E+02  0.72519721020E+02  0.47000000000E+01 0. -1.
         -5    1    3    3    0  501  0.83290597930E+02 -0.17992930032E+02 -0.32976664832E+00  0.85342064544E+02  0.47000000000E+01 0. -1.
          5    1    4    4  502    0 -0.78301512656E+02 -0.16507479767E+02  0.44394132742E+01  0.80283386592E+02  0.47000000000E+01 0. -1.
         -5    1    4    4    0  502  0.18782968421E+02  0.56769938549E+02 -0.26504269276E+02  0.65575850093E+02  0.47000000000E+01 0. -1.
<mgrwt>
<rscale>  0 0.30077122E+03</rscale>
<asrwt>0</asrwt>
<pdfrwt beam="1">  1       21 0.26611400E-01 0.30077122E+03</pdfrwt>
<pdfrwt beam="2">  1       21 0.20114911E-01 0.30077122E+03</pdfrwt>
<totfact> 0.29938875E+05</totfact>
</mgrwt>
</event>
<event>
 8    1  0.4760912E-006  0.3597769E+03  0.7546771E-02  0.1058672E+00
         21   -1    0    0  504  503  0.00000000000E+00  0.00000000000E+00  0.27735281589E+02  0.27735281589E+02  0.00000000000E+00 0.  1.
         21   -1    0    0  503  504 -0.00000000000E+00 -0.00000000000E+00 -0.11667396409E+04  0.11667396409E+04  0.00000000000E+00 0.  1.
         25    2    1    2    0    0  0.11994600107E+03  0.31900661809E+02 -0.44878772206E+03  0.48212317807E+03  0.12501057539E+03 0.  0.
         25    2    1    2    0    0 -0.11994600107E+03 -0.31900661809E+02 -0.69021663724E+03  0.71235174441E+03  0.12506520720E+03 0.  0.
          5    1    3    3  501    0  0.72846619059E+02 -0.43461076564E+02 -0.18126010026E+03  0.20018193982E+03  0.47000000000E+01 0. -1.
         -5    1    3    3    0  501  0.47099382007E+02  0.75361738373E+02 -0.26752762180E+03  0.28194123825E+03  0.47000000000E+01 0. -1.
          5    1    4    4  502    0  0.76533098526E+01 -0.68715132397E+01 -0.14480826421E+01  0.11400780203E+02  0.47000000000E+01 0.  1.
         -5    1    4    4    0  502 -0.12759931092E+03 -0.25029148569E+02 -0.68876855460E+03  0.70095096421E+03  0.47000000000E+01 0.  1.
<mgrwt>
<rscale>  0 0.35977689E+03</rscale>
<asrwt>0</asrwt>
<pdfrwt beam="1">  1       21 0.42669664E-02 0.35977689E+03</pdfrwt>
<pdfrwt beam="2">  1       21 0.17949841E+00 0.35977689E+03</pdfrwt>
<totfact> 0.59856599E+04</totfact>
</mgrwt>
</event>
<event>
 8    1  0.4760912E-006  0.3078761E+03  0.7546771E-02  0.1081368E+00
         21   -1    0    0  504  503  0.00000000000E+00  0.00000000000E+00  0.96841184285E+02  0.96841184285E+02  0.00000000000E+00 0. -1.
         21   -1    0    0  503  504 -0.00000000000E+00 -0.00000000000E+00 -0.24469874087E+03  0.24469874087E+03  0.00000000000E+00 0. -1.
         25    2    1    2    0    0  0.58623263056E+02 -0.64934630206E+02 -0.96890943586E+02  0.18073880691E+03  0.12500187280E+03 0.  0.
         25    2    1    2    0    0 -0.58623263056E+02  0.64934630206E+02 -0.50966612995E+02  0.16080111824E+03  0.12492482066E+03 0.  0.
          5    1    3    3  501    0  0.67938173053E+02 -0.14619319502E+02 -0.10766967197E+03  0.12823481634E+03  0.47000000000E+01 0.  1.
         -5    1    3    3    0  501 -0.93149099979E+01 -0.50315310704E+02  0.10778728385E+02  0.52503990564E+02  0.47000000000E+01 0.  1.
          5    1    4    4  502    0 -0.52031147853E+02  0.69154142830E+02  0.20248224271E+02  0.89003462874E+02  0.47000000000E+01 0. -1.
         -5    1    4    4    0  502 -0.65921152023E+01 -0.42195126246E+01 -0.71214837267E+02  0.71797655370E+02  0.47000000000E+01 0. -1.
<mgrwt>
<rscale>  0 0.30787605E+03</rscale>
<asrwt>0</asrwt>
<pdfrwt beam="1">  1       21 0.14898643E-01 0.30787605E+03</pdfrwt>
<pdfrwt beam="2">  1       21 0.37645961E-01 0.30787605E+03</pdfrwt>
<totfact> 0.26287278E+05</totfact>
</mgrwt>
</event>
<event>
 8    1  0.4760912E-006  0.3260724E+03  0.7546771E-02  0.1072888E+00
         21   -1    0    0  504  503  0.00000000000E+00  0.00000000000E+00  0.79796742310E+02  0.79796742310E+02  0.00000000000E+00 0.  1.
         21   -1    0    0  503  504 -0.00000000000E+00 -0.00000000000E+00 -0.33310631283E+03  0.33310631283E+03  0.00000000000E+00 0.  1.
         25    2    1    2    0    0  0.67637277561E+02  0.65068660575E+02 -0.67970133827E+02  0.17044590623E+03  0.12499254359E+03 0.  0.
         25    2    1    2    0    0 -0.67637277561E+02 -0.65068660575E+02 -0.18533943669E+03  0.24245714891E+03  0.12500412136E+03 0.  0.
          5    1    3    3  501    0 -0.23428395137E+02  0.41544993704E+02 -0.58756403102E+02  0.75824014046E+02  0.47000000000E+01 0. -1.
         -5    1    3    3    0  501  0.91065672698E+02  0.23523666871E+02 -0.92137307244E+01  0.94621892186E+02  0.47000000000E+01 0. -1.
          5    1    4    4  502    0 -0.10174310018E+02 -0.90123033660E+02 -0.13077271636E+03  0.15921454433E+03  0.47000000000E+01 0.  1.
         -5    1    4    4    0  502 -0.57462967544E+02  0.25054373085E+02 -0.54566720330E+02  0.83242604580E+02  0.47000000000E+01 0.  1.
<mgrwt>
<rscale>  0 0.32607238E+03</rscale>
<asrwt>0</asrwt>
<pdfrwt beam="1">  1       21 0.12276422E-01 0.32607238E+03</pdfrwt>
<pdfrwt beam="2">  1       21 0.51247126E-01 0.32607238E+03</pdfrwt>
<totfact> 0.19686490E+05</totfact>
</mgrwt>
</event>
<event>
 8    1  0.4760912E-006  0.3673644E+03  0.7546771E-02  0.1055705E+00
         21   -1    0    0  504  503  0.00000000000E+00  0.00000000000E+00  0.83090902457E+02  0.83090902457E+02  0.00000000000E+00 0. -1.
         21   -1    0    0  503  504 -0.00000000000E+00 -0.00000000000E+00 -0.40605102642E+03  0.40605102642E+03  0.00000000000E+00 0. -1.
         25    2    1    2    0    0  0.14665775132E+02 -0.22945557285E+02 -0.33697693541E+03  0.36044393505E+03  0.12499916702E+03 0.  0.
         25    2    1    2    0    0 -0.14665775132E+02  0.22945557285E+02  0.14016811447E+02  0.12869799383E+03  0.12500047621E+03 0.  0.
          5    1    3    3  501    0 -0.10460658536E+02  0.46823414954E+02 -0.84765898440E+02  0.97515153199E+02  0.47000000000E+01 0. -1.
         -5    1    3    3    0  501  0.25126433667E+02 -0.69768972239E+02 -0.25221103697E+03  0.26292878185E+03  0.47000000000E+01 0. -1.
          5    1    4    4  502    0  0.32085064422E+01  0.73616502120E+02  0.11275173578E+02  0.74692057391E+02  0.47000000000E+01 0.  1.
         -5    1    4    4    0  502 -0.17874281574E+02 -0.50670944835E+02  0.27416378688E+01  0.54005936438E+02  0.47000000000E+01 0.  1.
<mgrwt>
<rscale>  0 0.36736438E+03</rscale>
<asrwt>0</asrwt>
<pdfrwt beam="1">  1       21 0.12783216E-01 0.36736438E+03</pdfrwt>
<pdfrwt beam="2">  1       21 0.62469389E-01 0.36736438E+03</pdfrwt>
<totfact> 0.11826716E+05</totfact>
</mgrwt>
</event>
<event>
 8    1  0.4760912E-006  0.3312467E+03  0.7546771E-02  0.1070587E+00
         21   -1    0    0  504  503  0.00000000000E+00  0.00000000000E+00  0.51914191742E+02  0.51914191742E+02  0.00000000000E+00 0.  1.
         21   -1    0    0  503  504 -0.00000000000E+00 -0.00000000000E+00 -0.52839284497E+03  0.52839284497E+03  0.00000000000E+00 0.  1.
         25    2    1    2    0    0 -0.81922340632E+02  0.70432031143E+02 -0.25841557966E+03  0.30672050582E+03  0.12500766365E+03 0.  0.
         25    2    1    2    0    0  0.81922340632E+02 -0.70432031143E+02 -0.21806307357E+03  0.27358653089E+03  0.12500457963E+03 0.  0.
          5    1    3    3  501    0 -0.92877733561E+01 -0.35311422691E+02 -0.60333947759E+02  0.70678388200E+02  0.47000000000E+01 0. -1.
         -5    1    3    3    0  501 -0.72634567276E+02  0.10574345383E+03 -0.19808163190E+03  0.23604211762E+03  0.47000000000E+01 0. -1.
          5    1    4    4  502    0  0.96310711138E+02 -0.12736475580E+02 -0.90892587626E+02  0.13312221218E+03  0.47000000000E+01 0.  1.
         -5    1    4    4    0  502 -0.14388370506E+02 -0.57695555563E+02 -0.12717048594E+03  0.14046431871E+03  0.47000000000E+01 0.  1.
<mgrwt>
<rscale>  0 0.33124666E+03</rscale>
<asrwt>0</asrwt>
<pdfrwt beam="1">  1       21 0.79867988E-02 0.33124666E+03</pdfrwt>
<pdfrwt beam="2">  1       21 0.81291207E-01 0.33124666E+03</pdfrwt>
<totfact> 0.15323474E+05</totfact>
</mgrwt>
</event>
<event>
 8    1  0.4760912E-006  0.3513381E+03  0.7546771E-02  0.1062067E+00
         21   -1    0    0  504  503  0.00000000000E+00  0.00000000000E+00  0.11796178573E+03  0.11796178573E+03  0.00000000000E+00 0.  1.
         21   -1    0    0  503  504 -0.00000000000E+00 -0.00000000000E+00 -0.26160684761E+03  0.26160684761E+03  0.00000000000E+00 0.  1.
         25    2    1    2    0    0  0.13190637945E+02 -0.12074679104E+03 -0.48146225711E+02  0.18082221965E+03  0.12499934237E+03 0.  0.
         25    2    1    2    0    0 -0.13190637945E+02  0.12074679104E+03 -0.95498836171E+02  0.19874641370E+03  0.12500531497E+03 0.  0.
          5    1    3    3  501    0  0.20559093874E+02 -0.23497820777E+02  0.38839547805E+02  0.50054214566E+02  0.47000000000E+01 0. -1.
         -5    1    3    3    0  501 -0.73684559290E+01 -0.97248970261E+02 -0.86985773516E+02  0.13076800508E+03  0.47000000000E+01 0. -1.
          5    1    4    4  502    0  0.15144586449E+02 -0.18127999630E+02  0.54231492596E+01  0.24687717942E+02  0.47000000000E+01 0.  1.
         -5    1    4    4    0  502 -0.28335224394E+02  0.13887479067E+03 -0.10092198543E+03  0.17405869575E+03  0.47000000000E+01 0.  1.
<mgrwt>
<rscale>  0 0.35133808E+03</rscale>
<asrwt>0</asrwt>
<pdfrwt beam="1">  1       21 0.18147967E-01 0.35133808E+03</pdfrwt>
<pdfrwt beam="2">  1       21 0.40247207E-01 0.35133808E+03</pdfrwt>
<totfact> 0.15763390E+05</totfact>
</mgrwt>
</event>
<event>
 8    1  0.4760912E-006  0.4687275E+03  0.7546771E-02  0.1022280E+00
         21   -1    0    0  504  503  0.00000000000E+00  0.00000000000E+00  0.25425116345E+02  0.25425116345E+02  0.00000000000E+00 0.  1.
         21   -1    0    0  503  504 -0.00000000000E+00 -0.00000000000E+00 -0.21603196123E+04  0.21603196123E+04  0.00000000000E+00 0.  1.
         25    2    1    2    0    0  0.11444737329E+03  0.72504567157E+02 -0.39250903965E+03  0.43363557440E+03  0.12498540581E+03 0.  0.
         25    2    1    2    0    0 -0.11444737329E+03 -0.72504567157E+02 -0.17423854563E+04  0.17521091543E+04  0.12499718614E+03 0.  0.
          5    1    3    3  501    0  0.67865379690E+02 -0.17184750084E+02 -0.86757666972E+02  0.11157960465E+03  0.47000000000E+01 0. -1.
         -5    1    3    3    0  501  0.46581993596E+02  0.89689317242E+02 -0.30575137268E+03  0.32205596975E+03  0.47000000000E+01 0. -1.
          5    1    4    4  502    0 -0.65882145827E+02  0.22850743652E+02 -0.94183096731E+03  0.94442060259E+03  0.47000000000E+01 0.  1.
         -5    1    4    4    0  502 -0.48565227459E+02 -0.95355310810E+02 -0.80055448903E+03  0.80768855169E+03  0.47000000000E+01 0.  1.
<mgrwt>
<rscale>  0 0.46872754E+03</rscale>
<asrwt>0</asrwt>
<pdfrwt beam="1">  1       21 0.39115550E-02 0.46872754E+03</pdfrwt>
<pdfrwt beam="2">  1       21 0.33235698E+00 0.46872754E+03</pdfrwt>
<totfact> 0.74096500E+03</totfact>
</mgrwt>
</event>
<event>
 8    1  0.4760912E-006  0.5269960E+03  0.7546771E-02  0.1006963E+00
         21   -1    0    0  504  503  0.00000000000E+00  0.00000000000E+00  0.43596158108E+03  0.43596158108E+03  0.00000000000E+00 0.  1.
         21   -1    0    0  503  504 -0.00000000000E+00 -0.00000000000E+00 -0.15925991323E+03  0.15925991323E+03  0.00000000000E+00 0.  1.
         25    2    1    2    0    0  0.35586463833E+02 -0.20414225516E+03  0.20619367591E+02  0.24287885678E+03  0.12499809599E+03 0.  0.
         25    2    1    2    0    0 -0.35586463833E+02  0.20414225516E+03  0.25608230026E+03  0.35234263753E+03  0.12500693169E+03 0.  0.
          5    1    3    3  501    0  0.19778629259E+02 -0.36090703499E+02  0.56689458055E+02  0.70210524204E+02  0.47000000000E+01 0.  1.
         -5    1    3    3    0  501  0.15807834574E+02 -0.16805155166E+03 -0.36070090464E+02  0.17266833258E+03  0.47000000000E+01 0.  1.
          5    1    4    4  502    0 -0.36698650899E+01  0.16008912329E+03  0.25064821797E+03  0.29747035899E+03  0.47000000000E+01 0. -1.
         -5    1    4    4    0  502 -0.31916598743E+02  0.44053131863E+02  0.54340822909E+01  0.54872278544E+02  0.47000000000E+01 0. -1.
<mgrwt>
<rscale>  0 0.52699603E+03</rscale>
<asrwt>0</asrwt>
<pdfrwt beam="1">  1       21 0.67071012E-01 0.52699603E+03</pdfrwt>
<pdfrwt beam="2">  1       21 0.24501525E-01 0.52699603E+03</pdfrwt>
<totfact> 0.28675800E+04</totfact>
</mgrwt>
</event>
<event>
 8    1  0.4760912E-006  0.2547767E+03  0.7546771E-02  0.1110323E+00
         21   -1    0    0  504  503  0.00000000000E+00  0.00000000000E+00  0.25131262545E+03  0.25131262545E+03  0.00000000000E+00 0. -1.
         21   -1    0    0  503  504 -0.00000000000E+00 -0.00000000000E+00 -0.64572148504E+02  0.64572148504E+02  0.00000000000E+00 0. -1.
         25    2    1    2    0    0 -0.12639257456E+02  0.18053950865E+02  0.79912872539E+02  0.14998726249E+03  0.12499766294E+03 0.  0.
         25    2    1    2    0    0  0.12639257456E+02 -0.18053950865E+02  0.10682760441E+03  0.16589751146E+03  0.12499660506E+03 0.  0.
          5    1    3    3  501    0  0.29563997286E+02  0.21375524637E+02  0.97269921068E+02  0.10399264654E+03  0.47000000000E+01 0. -1.
         -5    1    3    3    0  501 -0.42203254742E+02 -0.33215737719E+01 -0.17357048528E+02  0.45994615954E+02  0.47000000000E+01 0. -1.
          5    1    4    4  502    0 -0.38560887962E+01 -0.24097732789E+02  0.13229196420E+03  0.13460618091E+03  0.47000000000E+01 0.  1.
         -5    1    4    4    0  502  0.16495346253E+02  0.60437819242E+01 -0.25464359797E+02  0.31291330554E+02  0.47000000000E+01 0.  1.
<mgrwt>
<rscale>  0 0.25477673E+03</rscale>
<asrwt>0</asrwt>
<pdfrwt beam="1">  1       21 0.38663480E-01 0.25477673E+03</pdfrwt>
<pdfrwt beam="2">  1       21 0.99341768E-02 0.25477673E+03</pdfrwt>
<totfact> 0.52324376E+05</totfact>
</mgrwt>
</event>
<event>
 8    1  0.4760912E-006  0.3959631E+03  0.7546771E-02  0.1045187E+00
         21   -1    0    0  504  503  0.00000000000E+00  0.00000000000E+00  0.13862440224E+03  0.13862440224E+03  0.00000000000E+00 0. -1.
         21   -1    0    0  503  504 -0.00000000000E+00 -0.00000000000E+00 -0.28275467108E+03  0.28275467108E+03  0.00000000000E+00 0. -1.
         25    2    1    2    0    0 -0.98026773941E+02  0.23454842771E+02 -0.19531396409E+03  0.25284409269E+03  0.12499285011E+03 0.  0.
         25    2    1    2    0    0  0.98026773941E+02 -0.23454842771E+02  0.51183695255E+02  0.16853498064E+03  0.12499956392E+03 0.  0.
          5    1    3    3  501    0 -0.90161261920E+02 -0.15866564247E+02 -0.19147575919E+03  0.21228720491E+03  0.47000000000E+01 0. -1.
         -5    1    3    3    0  501 -0.78655120213E+01  0.39321407018E+02 -0.38382049042E+01  0.40556887777E+02  0.47000000000E+01 0. -1.
          5    1    4    4  502    0  0.96373598450E+02 -0.14103543000E+02  0.87308750914E+02  0.13088807581E+03  0.47000000000E+01 0.  1.
         -5    1    4    4    0  502  0.16531754913E+01 -0.93512997715E+01 -0.36125055659E+02  0.37646904826E+02  0.47000000000E+01 0.  1.
<mgrwt>
<rscale>  0 0.39596312E+03</rscale>
<asrwt>0</asrwt>
<pdfrwt beam="1">  1       21 0.21326831E-01 0.39596312E+03</pdfrwt>
<pdfrwt beam="2">  1       21 0.43500718E-01 0.39596312E+03</pdfrwt>
<totfact> 0.97989609E+04</totfact>
</mgrwt>
</event>
<event>
 8    1  0.4760912E-006  0.2706318E+03  0.7546771E-02  0.1100919E+00
         21   -1    0    0  504  503  0.00000000000E+00  0.00000000000E+00  0.43225772579E+03  0.43225772579E+03  0.00000000000E+00 0. -1.
         21   -1    0    0  503  504 -0.00000000000E+00 -0.00000000000E+00 -0.42359897563E+02  0.42359897563E+02  0.00000000000E+00 0. -1.
         25    2    1    2    0    0  0.28761378921E+02  0.29918277358E+02  0.14034770769E+03  0.19246983812E+03  0.12499935718E+03 0.  0.
         25    2    1    2    0    0 -0.28761378921E+02 -0.29918277358E+02  0.24955012054E+03  0.28214778523E+03  0.12493914444E+03 0.  0.
          5    1    3    3  501    0  0.16841032387E+02 -0.41183186753E+02  0.10039174897E+03  0.10991027479E+03  0.47000000000E+01 0.  1.
         -5    1    3    3    0  501  0.11920346534E+02  0.71101464110E+02  0.39955958717E+02  0.82559563329E+02  0.47000000000E+01 0.  1.
          5    1    4    4  502    0  0.42812995361E+02  0.49811368296E+01  0.14049597676E+03  0.14703392051E+03  0.47000000000E+01 0. -1.
         -5    1    4    4    0  502 -0.71574374282E+02 -0.34899414187E+02  0.10905414378E+03  0.13511386472E+03  0.47000000000E+01 0. -1.
<mgrwt>
<rscale>  0 0.27063180E+03</rscale>
<asrwt>0</asrwt>
<pdfrwt beam="1">  1       21 0.66501186E-01 0.27063180E+03</pdfrwt>
<pdfrwt beam="2">  1       21 0.65169076E-02 0.27063180E+03</pdfrwt>
<totfact> 0.34822871E+05</totfact>
</mgrwt>
</event>
<event>
 8    1  0.4760912E-006  0.2642986E+03  0.7546771E-02  0.1104588E+00
         21   -1    0    0  504  503  0.00000000000E+00  0.00000000000E+00  0.40630859989E+02  0.40630859989E+02  0.00000000000E+00 0. -1.
         21   -1    0    0  503  504 -0.00000000000E+00 -0.00000000000E+00 -0.42980738166E+03  0.42980738166E+03  0.00000000000E+00 0. -1.
         25    2    1    2    0    0  0.17702733265E+02  0.24375993376E+02 -0.14030149175E+03  0.19031355939E+03  0.12500866563E+03 0.  0.
         25    2    1    2    0    0 -0.17702733265E+02 -0.24375993376E+02 -0.24887502992E+03  0.28012468226E+03  0.12499392495E+03 0.  0.
          5    1    3    3  501    0 -0.24202919646E+02  0.67324237027E+01  0.14168379331E+02  0.29222248735E+02  0.47000000000E+01 0.  1.
         -5    1    3    3    0  501  0.41905652911E+02  0.17643569673E+02 -0.15446987108E+03  0.16109131065E+03  0.47000000000E+01 0.  1.
          5    1    4    4  502    0 -0.38026591811E+02 -0.18804222912E+02 -0.25430416790E+03  0.25786104843E+03  0.47000000000E+01 0.  1.
         -5    1    4    4    0  502  0.20323858545E+02 -0.55717704641E+01  0.54291379777E+01  0.22263633833E+02  0.47000000000E+01 0.  1.
<mgrwt>
<rscale>  0 0.26429865E+03</rscale>
<asrwt>0</asrwt>
<pdfrwt beam="1">  1       21 0.62509016E-02 0.26429865E+03</pdfrwt>
<pdfrwt beam="2">  1       21 0.66124212E-01 0.26429865E+03</pdfrwt>
<totfact> 0.37948814E+05</totfact>
</mgrwt>
</event>
<event>
 8    1  0.4760912E-006  0.3734903E+03  0.7546771E-02  0.1053366E+00
         21   -1    0    0  504  503  0.00000000000E+00  0.00000000000E+00  0.88153627036E+02  0.88153627036E+02  0.00000000000E+00 0.  1.
         21   -1    0    0  503  504 -0.00000000000E+00 -0.00000000000E+00 -0.39560195006E+03  0.39560195006E+03  0.00000000000E+00 0.  1.
         25    2    1    2    0    0  0.23510881474E+02 -0.10872718215E+03 -0.46330921243E+02  0.17362385647E+03  0.12499731032E+03 0.  0.
         25    2    1    2    0    0 -0.23510881474E+02  0.10872718215E+03 -0.26111740178E+03  0.31013172062E+03  0.12500009975E+03 0.  0.
          5    1    3    3  501    0 -0.14572880981E+02 -0.10516103027E+03 -0.71055416536E+02  0.12783651030E+03  0.47000000000E+01 0. -1.
         -5    1    3    3    0  501  0.38083762455E+02 -0.35661518853E+01  0.24724495293E+02  0.45787346172E+02  0.47000000000E+01 0. -1.
          5    1    4    4  502    0 -0.58423479858E+02  0.60602667305E+02 -0.68923294771E+02  0.10889672560E+03  0.47000000000E+01 0. -1.
         -5    1    4    4    0  502  0.34912598384E+02  0.48124514845E+02 -0.19219410701E+03  0.20123499503E+03  0.47000000000E+01 0. -1.
<mgrwt>
<rscale>  0 0.37349028E+03</rscale>
<asrwt>0</asrwt>
<pdfrwt beam="1">  1       21 0.13562096E-01 0.37349028E+03</pdfrwt>
<pdfrwt beam="2">  1       21 0.60861839E-01 0.37349028E+03</pdfrwt>
<totfact> 0.11223591E+05</totfact>
</mgrwt>
</event>
<event>
 8    1  0.4760912E-006  0.2740006E+03  0.7546771E-02  0.1099012E+00
         21   -1    0    0  504  503  0.00000000000E+00  0.00000000000E+00  0.15847873122E+04  0.15847873122E+04  0.00000000000E+00 0. -1.
         21   -1    0    0  503  504 -0.00000000000E+00 -0.00000000000E+00 -0.11843285398E+02  0.11843285398E+02  0.00000000000E+00 0. -1.
         25    2    1    2    0    0 -0.54962746202E+02 -0.94200869714E+01  0.75226228468E+03  0.76461305020E+03  0.12499972032E+03 0.  0.
         25    2    1    2    0    0  0.54962746202E+02  0.94200869714E+01  0.82068174212E+03  0.83201754739E+03  0.12500014324E+03 0.  0.
          5    1    3    3  501    0  0.36601650584E+02 -0.19261025055E+02  0.31461586082E+03  0.31735768116E+03  0.47000000000E+01 0.  1.
         -5    1    3    3    0  501 -0.91564396785E+02  0.98409380838E+01  0.43764642385E+03  0.44725536904E+03  0.47000000000E+01 0.  1.
          5    1    4    4  502    0 -0.56022774335E+01 -0.18461553147E+02  0.18767626616E+02  0.27322669449E+02  0.47000000000E+01 0. -1.
         -5    1    4    4    0  502  0.60565023635E+02  0.27881640118E+02  0.80191411550E+03  0.80469487794E+03  0.47000000000E+01 0. -1.
<mgrwt>
<rscale>  0 0.27400065E+03</rscale>
<asrwt>0</asrwt>
<pdfrwt beam="1">  1       21 0.24381327E+00 0.27400065E+03</pdfrwt>
<pdfrwt beam="2">  1       21 0.18220452E-02 0.27400065E+03</pdfrwt>
<totfact> 0.98734873E+04</totfact>
</mgrwt>
</event>
<event>
 8    1  0.4760912E-006  0.3142196E+03  0.7546771E-02  0.1078341E+00
         21   -1    0    0  504  503  0.00000000000E+00  0.00000000000E+00  0.14956013817E+03  0.14956013817E+03  0.00000000000E+00 0.  1.
         21   -1    0    0  503  504 -0.00000000000E+00 -0.00000000000E+00 -0.16504052559E+03  0.16504052559E+03  0.00000000000E+00 0.  1.
         25    2    1    2    0    0 -0.75854992222E+02 -0.37741038181E+02  0.35689944106E+02  0.15516342406E+03  0.12499420085E+03 0.  0.
         25    2    1    2    0    0  0.75854992222E+02  0.37741038181E+02 -0.51170331529E+02  0.15943723970E+03  0.12499385892E+03 0.  0.
          5    1    3    3  501    0 -0.10192027169E+03 -0.86483011209E+01  0.49152498270E+02  0.11358077734E+03  0.47000000000E+01 0. -1.
         -5    1    3    3    0  501  0.26065279472E+02 -0.29092737060E+02 -0.13462554165E+02  0.41582646720E+02  0.47000000000E+01 0. -1.
          5    1    4    4  502    0  0.65387409529E+02  0.20932772993E+01  0.28415957273E+02  0.71480429228E+02  0.47000000000E+01 0.  1.
         -5    1    4    4    0  502  0.10467582693E+02  0.35647760882E+02 -0.79586288803E+02  0.87956810474E+02  0.47000000000E+01 0.  1.
<mgrwt>
<rscale>  0 0.31421957E+03</rscale>
<asrwt>0</asrwt>
<pdfrwt beam="1">  1       21 0.23009252E-01 0.31421957E+03</pdfrwt>
<pdfrwt beam="2">  1       21 0.25390850E-01 0.31421957E+03</pdfrwt>
<totfact> 0.25328386E+05</totfact>
</mgrwt>
</event>
<event>
 8    1  0.4760912E-006  0.2864832E+03  0.7546771E-02  0.1092200E+00
         21   -1    0    0  504  503  0.00000000000E+00  0.00000000000E+00  0.25312841575E+02  0.25312841575E+02  0.00000000000E+00 0.  1.
         21   -1    0    0  503  504 -0.00000000000E+00 -0.00000000000E+00 -0.81058296198E+03  0.81058296198E+03  0.00000000000E+00 0.  1.
         25    2    1    2    0    0 -0.12123684466E+02  0.62892738608E+02 -0.31055584495E+03  0.34083982718E+03  0.12499749865E+03 0.  0.
         25    2    1    2    0    0  0.12123684466E+02 -0.62892738608E+02 -0.47471427546E+03  0.49505597637E+03  0.12499718446E+03 0.  0.
          5    1    3    3  501    0 -0.44515310372E+02  0.69010337338E+02 -0.10901290401E+03  0.13656479326E+03  0.47000000000E+01 0. -1.
         -5    1    3    3    0  501  0.32391625907E+02 -0.61175987298E+01 -0.20154294094E+03  0.20427503393E+03  0.47000000000E+01 0. -1.
          5    1    4    4  502    0  0.33868783829E+02  0.28892471629E+02 -0.12340720161E+03  0.13127565213E+03  0.47000000000E+01 0. -1.
         -5    1    4    4    0  502 -0.21745099363E+02 -0.91785210237E+02 -0.35130707385E+03  0.36378032424E+03  0.47000000000E+01 0. -1.
<mgrwt>
<rscale>  0 0.28648321E+03</rscale>
<asrwt>0</asrwt>
<pdfrwt beam="1">  1       21 0.38942829E-02 0.28648321E+03</pdfrwt>
<pdfrwt beam="2">  1       21 0.12470508E+00 0.28648321E+03</pdfrwt>
<totfact> 0.19061553E+05</totfact>
</mgrwt>
</event>
<event>
 8    1  0.4760912E-006  0.2928909E+03  0.7546771E-02  0.1088849E+00
         21   -1    0    0  504  503  0.00000000000E+00  0.00000000000E+00  0.17739519260E+03  0.17739519260E+03  0.00000000000E+00 0. -1.
         21   -1    0    0  503  504 -0.00000000000E+00 -0.00000000000E+00 -0.12089545550E+03  0.12089545550E+03  0.00000000000E+00 0. -1.
         25    2    1    2    0    0  0.33357831743E+02 -0.54928139130E+01 -0.41406763626E+02  0.13595293140E+03  0.12500305411E+03 0.  0.
         25    2    1    2    0    0 -0.33357831743E+02  0.54928139130E+01  0.97906500728E+02  0.16233771671E+03  0.12499974175E+03 0.  0.
          5    1    3    3  501    0  0.45527623749E+02  0.35885325832E+02 -0.64462136829E+02  0.86821530848E+02  0.47000000000E+01 0. -1.
         -5    1    3    3    0  501 -0.12169792006E+02 -0.41378139745E+02  0.23055373203E+02  0.49131400548E+02  0.47000000000E+01 0. -1.
          5    1    4    4  502    0 -0.48624865732E+02  0.19875205030E+02  0.12026617201E+03  0.13132190782E+03  0.47000000000E+01 0.  1.
         -5    1    4    4    0  502  0.15267033989E+02 -0.14382391117E+02 -0.22359671284E+02  0.31015808889E+02  0.47000000000E+01 0.  1.
<mgrwt>
<rscale>  0 0.29289092E+03</rscale>
<asrwt>0</asrwt>
<pdfrwt beam="1">  1       21 0.27291568E-01 0.29289092E+03</pdfrwt>
<pdfrwt beam="2">  1       21 0.18599301E-01 0.29289092E+03</pdfrwt>
<totfact> 0.33080008E+05</totfact>
</mgrwt>
</event>
<event>
 8    1  0.4760912E-006  0.4149105E+03  0.7546771E-02  0.1038736E+00
         21   -1    0    0  504  503  0.00000000000E+00  0.00000000000E+00  0.76572034606E+02  0.76572034606E+02  0.00000000000E+00 0.  1.
         21   -1    0    0  503  504 -0.00000000000E+00 -0.00000000000E+00 -0.56205489804E+03  0.56205489804E+03  0.00000000000E+00 0.  1.
         25    2    1    2    0    0 -0.15152187030E+03  0.30233599079E+02 -0.15116362099E+03  0.24969636330E+03  0.12499954335E+03 0.  0.
         25    2    1    2    0    0  0.15152187030E+03 -0.30233599079E+02 -0.33431924244E+03  0.38893056935E+03  0.12499873684E+03 0.  0.
          5    1    3    3  501    0 -0.97809409278E+02 -0.11626998184E+02 -0.18257625329E+02  0.10028608335E+03  0.47000000000E+01 0.  1.
         -5    1    3    3    0  501 -0.53712461026E+02  0.41860597263E+02 -0.13290599566E+03  0.14941027995E+03  0.47000000000E+01 0.  1.
          5    1    4    4  502    0  0.55480072037E+02  0.15835098349E+02 -0.27449477522E+02  0.64065221057E+02  0.47000000000E+01 0. -1.
         -5    1    4    4    0  502  0.96041798267E+02 -0.46068697428E+02 -0.30686976492E+03  0.32486534829E+03  0.47000000000E+01 0. -1.
<mgrwt>
<rscale>  0 0.41491053E+03</rscale>
<asrwt>0</asrwt>
<pdfrwt beam="1">  1       21 0.11780313E-01 0.41491053E+03</pdfrwt>
<pdfrwt beam="2">  1       21 0.86469983E-01 0.41491053E+03</pdfrwt>
<totfact> 0.64977285E+04</totfact>
</mgrwt>
</event>
<event>
 8    1  0.4760912E-006  0.3232132E+03  0.7546771E-02  0.1074180E+00
         21   -1    0    0  504  503  0.00000000000E+00  0.00000000000E+00  0.20848028230E+02  0.20848028230E+02  0.00000000000E+00 0. -1.
         21   -1    0    0  503  504 -0.00000000000E+00 -0.00000000000E+00 -0.12527175256E+04  0.12527175256E+04  0.00000000000E+00 0. -1.
         25    2    1    2    0    0 -0.35951338453E+02  0.35389166741E+02 -0.96719890064E+03  0.97654715274E+03  0.12500294500E+03 0.  0.
         25    2    1    2    0    0  0.35951338453E+02 -0.35389166741E+02 -0.26467059672E+03  0.29701840108E+03  0.12499805581E+03 0.  0.
          5    1    3    3  501    0 -0.40056360552E+02 -0.29086784354E+02 -0.69377632673E+03  0.69555606142E+03  0.47000000000E+01 0. -1.
         -5    1    3    3    0  501  0.41050220989E+01  0.64475951095E+02 -0.27342257391E+03  0.28099109132E+03  0.47000000000E+01 0. -1.
          5    1    4    4  502    0 -0.12421313252E+02  0.33706142277E+02 -0.28194233689E+02  0.45906403295E+02  0.47000000000E+01 0.  1.
         -5    1    4    4    0  502  0.48372651705E+02 -0.69095309019E+02 -0.23647636303E+03  0.25111199779E+03  0.47000000000E+01 0.  1.
<mgrwt>
<rscale>  0 0.32321318E+03</rscale>
<asrwt>0</asrwt>
<pdfrwt beam="1">  1       21 0.32073890E-02 0.32321318E+03</pdfrwt>
<pdfrwt beam="2">  1       21 0.19272577E+00 0.32321318E+03</pdfrwt>
<totfact> 0.79748082E+04</totfact>
</mgrwt>
</event>
<event>
 8    1  0.4760912E-006  0.3048530E+03  0.7546771E-02  0.1082839E+00
         21   -1    0    0  504  503  0.00000000000E+00  0.00000000000E+00  0.31386053835E+02  0.31386053835E+02  0.00000000000E+00 0.  1.
         21   -1    0    0  503  504 -0.00000000000E+00 -0.00000000000E+00 -0.74026001894E+03  0.74026001894E+03  0.00000000000E+00 0.  1.
         25    2    1    2    0    0  0.92749303207E+01 -0.14879196735E+01 -0.13495083065E+03  0.18419376633E+03  0.12500951414E+03 0.  0.
         25    2    1    2    0    0 -0.92749303207E+01  0.14879196735E+01 -0.57392313445E+03  0.58745230644E+03  0.12499683933E+03 0.  0.
          5    1    3    3  501    0 -0.37765295223E+02 -0.28612949854E+02 -0.11113539768E+02  0.48892935980E+02  0.47000000000E+01 0.  1.
         -5    1    3    3    0  501  0.47040225543E+02  0.27125030180E+02 -0.12383729088E+03  0.13530083035E+03  0.47000000000E+01 0.  1.
          5    1    4    4  502    0  0.38173384502E+02  0.28595741998E+02 -0.10607115991E+03  0.11639632601E+03  0.47000000000E+01 0.  1.
         -5    1    4    4    0  502 -0.47448314822E+02 -0.27107822325E+02 -0.46785197454E+03  0.47105598043E+03  0.47000000000E+01 0.  1.
<mgrwt>
<rscale>  0 0.30485302E+03</rscale>
<asrwt>0</asrwt>
<pdfrwt beam="1">  1       21 0.48286236E-02 0.30485302E+03</pdfrwt>
<pdfrwt beam="2">  1       21 0.11388616E+00 0.30485302E+03</pdfrwt>
<totfact> 0.16518056E+05</totfact>
</mgrwt>
</event>
<event>
 8    1  0.4760912E-006  0.3040610E+03  0.7546771E-02  0.1083228E+00
         21   -1    0    0  504  503  0.00000000000E+00  0.00000000000E+00  0.19063901659E+03  0.19063901659E+03  0.00000000000E+00 0.  1.
         21   -1    0    0  503  504 -0.00000000000E+00 -0.00000000000E+00 -0.12124101826E+03  0.12124101826E+03  0.00000000000E+00 0.  1.
         25    2    1    2    0    0  0.52959570991E+02 -0.27003562612E+02 -0.29783626847E+02  0.14160014582E+03  0.12501851189E+03 0.  0.
         25    2    1    2    0    0 -0.52959570991E+02  0.27003562612E+02  0.99181625177E+02  0.17027988903E+03  0.12499734910E+03 0.  0.
          5    1    3    3  501    0  0.41243355138E+02 -0.69700227790E+02 -0.47124472471E+02  0.93818665535E+02  0.47000000000E+01 0. -1.
         -5    1    3    3    0  501  0.11716215853E+02  0.42696665178E+02  0.17340845624E+02  0.47781480285E+02  0.47000000000E+01 0. -1.
          5    1    4    4  502    0 -0.59792508167E+02 -0.31898709364E+02  0.19179993051E+02  0.70587773909E+02  0.47000000000E+01 0. -1.
         -5    1    4    4    0  502  0.68329371756E+01  0.58902271976E+02  0.80001632125E+02  0.99692115120E+02  0.47000000000E+01 0. -1.
<mgrwt>
<rscale>  0 0.30406097E+03</rscale>
<asrwt>0</asrwt>
<pdfrwt beam="1">  1       21 0.29329079E-01 0.30406097E+03</pdfrwt>
<pdfrwt beam="2">  1       21 0.18652464E-01 0.30406097E+03</pdfrwt>
<totfact> 0.28519536E+05</totfact>
</mgrwt>
</event>
<event>
 8    1  0.4760912E-006  0.3059464E+03  0.7546771E-02  0.1082305E+00
         21   -1    0    0  504  503  0.00000000000E+00  0.00000000000E+00  0.32250387435E+04  0.32250387435E+04  0.00000000000E+00 0.  1.
         21   -1    0    0  503  504 -0.00000000000E+00 -0.00000000000E+00 -0.72559759410E+01  0.72559759410E+01  0.00000000000E+00 0.  1.
         25    2    1    2    0    0 -0.10599308652E+02  0.12299666249E+02  0.69317104114E+03  0.70453869673E+03  0.12500022311E+03 0.  0.
         25    2    1    2    0    0  0.10599308652E+02 -0.12299666249E+02  0.25246117265E+04  0.25277560227E+04  0.12499005584E+03 0.  0.
          5    1    3    3  501    0  0.44349929066E+01 -0.42121969232E+02  0.10044378347E+03  0.10910991290E+03  0.47000000000E+01 0. -1.
         -5    1    3    3    0  501 -0.15034301559E+02  0.54421635481E+02  0.59272725767E+03  0.59542878383E+03  0.47000000000E+01 0. -1.
          5    1    4    4  502    0 -0.56254347327E+02 -0.15306456974E+02  0.12847848673E+04  0.12861155020E+04  0.47000000000E+01 0. -1.
         -5    1    4    4    0  502  0.66853655979E+02  0.30067907254E+01  0.12398268591E+04  0.12416405208E+04  0.47000000000E+01 0. -1.
<mgrwt>
<rscale>  0 0.30594642E+03</rscale>
<asrwt>0</asrwt>
<pdfrwt beam="1">  1       21 0.49615866E+00 0.30594642E+03</pdfrwt>
<pdfrwt beam="2">  1       21 0.11163066E-02 0.30594642E+03</pdfrwt>
<totfact> 0.56082317E+03</totfact>
</mgrwt>
</event>
<event>
 8    1  0.4760912E-006  0.3457116E+03  0.7546771E-02  0.1064389E+00
         21   -1    0    0  504  503  0.00000000000E+00  0.00000000000E+00  0.17840463848E+02  0.17840463848E+02  0.00000000000E+00 0. -1.
         21   -1    0    0  503  504 -0.00000000000E+00 -0.00000000000E+00 -0.16747949833E+04  0.16747949833E+04  0.00000000000E+00 0. -1.
         25    2    1    2    0    0 -0.75120816462E+02 -0.29754936468E+02 -0.39803792357E+03  0.42495303918E+03  0.12498961396E+03 0.  0.
         25    2    1    2    0    0  0.75120816462E+02  0.29754936468E+02 -0.12589165959E+04  0.12676824080E+04  0.12497679294E+03 0.  0.
          5    1    3    3  501    0 -0.10304021733E+03 -0.46096412967E+02 -0.26741300159E+03  0.29029979176E+03  0.47000000000E+01 0.  1.
         -5    1    3    3    0  501  0.27919400865E+02  0.16341476499E+02 -0.13062492198E+03  0.13465324742E+03  0.47000000000E+01 0.  1.
          5    1    4    4  502    0  0.56119257424E+02  0.42146665099E+02 -0.28715542360E+03  0.29564512466E+03  0.47000000000E+01 0.  1.
         -5    1    4    4    0  502  0.19001559039E+02 -0.12391728631E+02 -0.97176117228E+03  0.97203728331E+03  0.47000000000E+01 0.  1.
<mgrwt>
<rscale>  0 0.34571155E+03</rscale>
<asrwt>0</asrwt>
<pdfrwt beam="1">  1       21 0.27446864E-02 0.34571155E+03</pdfrwt>
<pdfrwt beam="2">  1       21 0.25766080E+00 0.34571155E+03</pdfrwt>
<totfact> 0.40033784E+04</totfact>
</mgrwt>
</event>
<event>
 8    1  0.4760912E-006  0.3819831E+03  0.7546771E-02  0.1050203E+00
         21   -1    0    0  504  503  0.00000000000E+00  0.00000000000E+00  0.12680865474E+03  0.12680865474E+03  0.00000000000E+00 0. -1.
         21   -1    0    0  503  504 -0.00000000000E+00 -0.00000000000E+00 -0.28765993370E+03  0.28765993370E+03  0.00000000000E+00 0. -1.
         25    2    1    2    0    0 -0.14077387865E+03 -0.29873438265E+02 -0.67387901420E+02  0.20217521502E+03  0.12499592428E+03 0.  0.
         25    2    1    2    0    0  0.14077387865E+03  0.29873438265E+02 -0.93463377544E+02  0.21229337343E+03  0.12499346477E+03 0.  0.
          5    1    3    3  501    0 -0.79320847440E+02 -0.10878339255E+02  0.29780331884E+02  0.85551699402E+02  0.47000000000E+01 0. -1.
         -5    1    3    3    0  501 -0.61453031212E+02 -0.18995099010E+02 -0.97168233304E+02  0.11662351562E+03  0.47000000000E+01 0. -1.
          5    1    4    4  502    0 -0.94505871271E+01 -0.96659248387E+01 -0.48412263187E+02  0.50483471819E+02  0.47000000000E+01 0.  1.
         -5    1    4    4    0  502  0.15022446578E+03  0.39539363104E+02 -0.45051114357E+02  0.16180990161E+03  0.47000000000E+01 0.  1.
<mgrwt>
<rscale>  0 0.38198308E+03</rscale>
<asrwt>0</asrwt>
<pdfrwt beam="1">  1       21 0.19509024E-01 0.38198308E+03</pdfrwt>
<pdfrwt beam="2">  1       21 0.44255374E-01 0.38198308E+03</pdfrwt>
<totfact> 0.11232619E+05</totfact>
</mgrwt>
</event>
<event>
 8    1  0.4760912E-006  0.3122098E+03  0.7546771E-02  0.1079291E+00
         21   -1    0    0  504  503  0.00000000000E+00  0.00000000000E+00  0.24968553086E+03  0.24968553086E+03  0.00000000000E+00 0. -1.
         21   -1    0    0  503  504 -0.00000000000E+00 -0.00000000000E+00 -0.97597744067E+02  0.97597744067E+02  0.00000000000E+00 0. -1.
         25    2    1    2    0    0  0.26909160535E+02 -0.81828875687E+02  0.11652174763E+03  0.19136900064E+03  0.12499883566E+03 0.  0.
         25    2    1    2    0    0 -0.26909160535E+02  0.81828875687E+02  0.35566039164E+02  0.15591427429E+03  0.12499699984E+03 0.  0.
          5    1    3    3  501    0  0.20465399047E+01 -0.10782107804E+03  0.58057510141E+02  0.12256564641E+03  0.47000000000E+01 0.  1.
         -5    1    3    3    0  501  0.24862620630E+02  0.25992202356E+02  0.58464237489E+02  0.68803354228E+02  0.47000000000E+01 0.  1.
          5    1    4    4  502    0  0.10146732755E+02  0.69286392355E+02  0.73212407720E+02  0.10141847463E+03  0.47000000000E+01 0. -1.
         -5    1    4    4    0  502 -0.37055893290E+02  0.12542483332E+02 -0.37646368556E+02  0.54495799665E+02  0.47000000000E+01 0. -1.
<mgrwt>
<rscale>  0 0.31220983E+03</rscale>
<asrwt>0</asrwt>
<pdfrwt beam="1">  1       21 0.38413158E-01 0.31220983E+03</pdfrwt>
<pdfrwt beam="2">  1       21 0.15015038E-01 0.31220983E+03</pdfrwt>
<totfact> 0.24853009E+05</totfact>
</mgrwt>
</event>
<event>
 8    1  0.4760912E-006  0.2857581E+03  0.7546771E-02  0.1092585E+00
         21   -1    0    0  504  503  0.00000000000E+00  0.00000000000E+00  0.11563183315E+04  0.11563183315E+04  0.00000000000E+00 0. -1.
         21   -1    0    0  503  504 -0.00000000000E+00 -0.00000000000E+00 -0.17654677484E+02  0.17654677484E+02  0.00000000000E+00 0. -1.
         25    2    1    2    0    0 -0.66434526081E+01 -0.21376293150E+02  0.30037197567E+03  0.32611390620E+03  0.12500349867E+03 0.  0.
         25    2    1    2    0    0  0.66434526081E+01  0.21376293150E+02  0.83829167832E+03  0.84785910275E+03  0.12502415291E+03 0.  0.
          5    1    3    3  501    0 -0.33161069315E+02 -0.53762622172E+02  0.81470855873E+02  0.10319722098E+03  0.47000000000E+01 0.  1.
         -5    1    3    3    0  501  0.26517616707E+02  0.32386329022E+02  0.21890111980E+03  0.22291668522E+03  0.47000000000E+01 0.  1.
          5    1    4    4  502    0 -0.47640536988E+02  0.40988039178E+02  0.56471229352E+03  0.56821800796E+03  0.47000000000E+01 0. -1.
         -5    1    4    4    0  502  0.54283989596E+02 -0.19611746028E+02  0.27357938480E+03  0.27964109479E+03  0.47000000000E+01 0. -1.
<mgrwt>
<rscale>  0 0.28575813E+03</rscale>
<asrwt>0</asrwt>
<pdfrwt beam="1">  1       21 0.17789507E+00 0.28575813E+03</pdfrwt>
<pdfrwt beam="2">  1       21 0.27161051E-02 0.28575813E+03</pdfrwt>
<totfact> 0.13471279E+05</totfact>
</mgrwt>
</event>
<event>
 8    1  0.4760912E-006  0.2552793E+03  0.7546771E-02  0.1110013E+00
         21   -1    0    0  504  503  0.00000000000E+00  0.00000000000E+00  0.17699455125E+03  0.17699455125E+03  0.00000000000E+00 0.  1.
         21   -1    0    0  503  504 -0.00000000000E+00 -0.00000000000E+00 -0.92047361811E+02  0.92047361811E+02  0.00000000000E+00 0.  1.
         25    2    1    2    0    0 -0.18208909670E+02  0.14986550476E+02  0.53556184997E+02  0.13802605198E+03  0.12500705976E+03 0.  0.
         25    2    1    2    0    0  0.18208909670E+02 -0.14986550476E+02  0.31391004441E+02  0.13101586107E+03  0.12499439830E+03 0.  0.
          5    1    3    3  501    0 -0.19429617980E+02 -0.60808551828E+01 -0.38316821068E+02  0.43643506176E+02  0.47000000000E+01 0. -1.
         -5    1    3    3    0  501  0.12207083100E+01  0.21067405659E+02  0.91873006065E+02  0.94382545809E+02  0.47000000000E+01 0. -1.
          5    1    4    4  502    0  0.11817954477E+02  0.55006505986E+02  0.18449344306E+02  0.59395690535E+02  0.47000000000E+01 0. -1.
         -5    1    4    4    0  502  0.63909551933E+01 -0.69993056462E+02  0.12941660135E+02  0.71620170540E+02  0.47000000000E+01 0. -1.
<mgrwt>
<rscale>  0 0.25527931E+03</rscale>
<asrwt>0</asrwt>
<pdfrwt beam="1">  1       21 0.27229931E-01 0.25527931E+03</pdfrwt>
<pdfrwt beam="2">  1       21 0.14161133E-01 0.25527931E+03</pdfrwt>
<totfact> 0.55355823E+05</totfact>
</mgrwt>
</event>
<event>
 8    1  0.4760912E-006  0.2997649E+03  0.7546771E-02  0.1085358E+00
         21   -1    0    0  504  503  0.00000000000E+00  0.00000000000E+00  0.18183308703E+03  0.18183308703E+03  0.00000000000E+00 0. -1.
         21   -1    0    0  503  504 -0.00000000000E+00 -0.00000000000E+00 -0.12354598699E+03  0.12354598699E+03  0.00000000000E+00 0. -1.
         25    2    1    2    0    0 -0.27491958885E+02 -0.60169439836E+02  0.79693204106E+02  0.16234396614E+03  0.12501354833E+03 0.  0.
         25    2    1    2    0    0  0.27491958885E+02  0.60169439836E+02 -0.21406104071E+02  0.14303510788E+03  0.12499860600E+03 0.  0.
          5    1    3    3  501    0  0.40868811630E+02 -0.57520764869E+01  0.59462124453E+02  0.72533994736E+02  0.47000000000E+01 0. -1.
         -5    1    3    3    0  501 -0.68360770515E+02 -0.54417363349E+02  0.20231079654E+02  0.89809971402E+02  0.47000000000E+01 0. -1.
          5    1    4    4  502    0  0.12361604832E+02 -0.37232784878E+02 -0.20130939059E+02  0.44344495162E+02  0.47000000000E+01 0. -1.
         -5    1    4    4    0  502  0.15130354054E+02  0.97402224714E+02 -0.12751650120E+01  0.98690612719E+02  0.47000000000E+01 0. -1.
<mgrwt>
<rscale>  0 0.29976490E+03</rscale>
<asrwt>0</asrwt>
<pdfrwt beam="1">  1       21 0.27974321E-01 0.29976490E+03</pdfrwt>
<pdfrwt beam="2">  1       21 0.19007075E-01 0.29976490E+03</pdfrwt>
<totfact> 0.30227224E+05</totfact>
</mgrwt>
</event>
<event>
 8    1  0.4760912E-006  0.2881408E+03  0.7546771E-02  0.1091324E+00
         21   -1    0    0  504  503  0.00000000000E+00  0.00000000000E+00  0.72831983985E+02  0.72831983985E+02  0.00000000000E+00 0. -1.
         21   -1    0    0  503  504 -0.00000000000E+00 -0.00000000000E+00 -0.28498855163E+03  0.28498855163E+03  0.00000000000E+00 0. -1.
         25    2    1    2    0    0  0.32921720601E+02  0.55619934592E+02 -0.67578867231E+02  0.15605280570E+03  0.12493261407E+03 0.  0.
         25    2    1    2    0    0 -0.32921720601E+02 -0.55619934592E+02 -0.14457770042E+03  0.20176772992E+03  0.12502035262E+03 0.  0.
          5    1    3    3  501    0  0.79769334712E+02  0.32919958669E+02 -0.54498647347E+02  0.10217173289E+03  0.47000000000E+01 0.  1.
         -5    1    3    3    0  501 -0.46847614110E+02  0.22699975923E+02 -0.13080219884E+02  0.53881072808E+02  0.47000000000E+01 0.  1.
          5    1    4    4  502    0  0.15336145348E+02  0.19743188397E+02 -0.97055415004E+02  0.10033361562E+03  0.47000000000E+01 0. -1.
         -5    1    4    4    0  502 -0.48257865949E+02 -0.75363122988E+02 -0.47522285412E+02  0.10143411430E+03  0.47000000000E+01 0. -1.
<mgrwt>
<rscale>  0 0.28814081E+03</rscale>
<asrwt>0</asrwt>
<pdfrwt beam="1">  1       21 0.11204921E-01 0.28814081E+03</pdfrwt>
<pdfrwt beam="2">  1       21 0.43844392E-01 0.28814081E+03</pdfrwt>
<totfact> 0.32426448E+05</totfact>
</mgrwt>
</event>
<event>
 8    1  0.4760912E-006  0.4336034E+03  0.7546771E-02  0.1032728E+00
         21   -1    0    0  504  503  0.00000000000E+00  0.00000000000E+00  0.24260432312E+03  0.24260432312E+03  0.00000000000E+00 0.  1.
         21   -1    0    0  503  504 -0.00000000000E+00 -0.00000000000E+00 -0.19374337455E+03  0.19374337455E+03  0.00000000000E+00 0.  1.
         25    2    1    2    0    0  0.21100432723E+02  0.15597136588E+03 -0.57359273432E+02  0.20901463773E+03  0.12499894919E+03 0.  0.
         25    2    1    2    0    0 -0.21100432723E+02 -0.15597136588E+03  0.10622022200E+03  0.22733305994E+03  0.12500115737E+03 0.  0.
          5    1    3    3  501    0 -0.24775942171E+02  0.10802367329E+03 -0.82133658312E+02  0.13802532061E+03  0.47000000000E+01 0. -1.
         -5    1    3    3    0  501  0.45876374895E+02  0.47947692592E+02  0.24774384880E+02  0.70989317116E+02  0.47000000000E+01 0. -1.
          5    1    4    4  502    0 -0.58849574381E+02 -0.15000158412E+03  0.75163441142E+02  0.17786337602E+03  0.47000000000E+01 0. -1.
         -5    1    4    4    0  502  0.37749141658E+02 -0.59697817603E+01  0.31056780861E+02  0.49469683925E+02  0.47000000000E+01 0. -1.
<mgrwt>
<rscale>  0 0.43360341E+03</rscale>
<asrwt>0</asrwt>
<pdfrwt beam="1">  1       21 0.37323742E-01 0.43360341E+03</pdfrwt>
<pdfrwt beam="2">  1       21 0.29806673E-01 0.43360341E+03</pdfrwt>
<totfact> 0.69480310E+04</totfact>
</mgrwt>
</event>
<event>
 8    1  0.4760912E-006  0.4070704E+03  0.7546771E-02  0.1041359E+00
         21   -1    0    0  504  503  0.00000000000E+00  0.00000000000E+00  0.54990330812E+02  0.54990330812E+02  0.00000000000E+00 0. -1.
         21   -1    0    0  503  504 -0.00000000000E+00 -0.00000000000E+00 -0.75334291155E+03  0.75334291155E+03  0.00000000000E+00 0. -1.
         25    2    1    2    0    0 -0.90150231463E+02 -0.54911345817E+02 -0.58959444104E+03  0.61187319171E+03  0.12499951079E+03 0.  0.
         25    2    1    2    0    0  0.90150231463E+02  0.54911345817E+02 -0.10875813970E+03  0.19646005065E+03  0.12500359362E+03 0.  0.
          5    1    3    3  501    0 -0.65139447296E+02  0.29567492941E+01 -0.10872700644E+03  0.12686820677E+03  0.47000000000E+01 0.  1.
         -5    1    3    3    0  501 -0.25010784167E+02 -0.57868095111E+02 -0.48086743460E+03  0.48500498494E+03  0.47000000000E+01 0.  1.
          5    1    4    4  502    0  0.10590515934E+03  0.78874642723E+02 -0.10119181511E+03  0.16643012193E+03  0.47000000000E+01 0. -1.
         -5    1    4    4    0  502 -0.15754927881E+02 -0.23963296906E+02 -0.75663245856E+01  0.30029928719E+02  0.47000000000E+01 0. -1.
<mgrwt>
<rscale>  0 0.40707039E+03</rscale>
<asrwt>0</asrwt>
<pdfrwt beam="1">  1       21 0.84600516E-02 0.40707039E+03</pdfrwt>
<pdfrwt beam="2">  1       21 0.11589890E+00 0.40707039E+03</pdfrwt>
<totfact> 0.58010560E+04</totfact>
</mgrwt>
</event>
<event>
 8    1  0.4760912E-006  0.2902876E+03  0.7546771E-02  0.1090199E+00
         21   -1    0    0  504  503  0.00000000000E+00  0.00000000000E+00  0.27584861843E+03  0.27584861843E+03  0.00000000000E+00 0. -1.
         21   -1    0    0  503  504 -0.00000000000E+00 -0.00000000000E+00 -0.76370569784E+02  0.76370569784E+02  0.00000000000E+00 0. -1.
         25    2    1    2    0    0 -0.31668415491E+02 -0.29367632228E+02  0.27186360685E+02  0.13502090013E+03  0.12500479552E+03 0.  0.
         25    2    1    2    0    0  0.31668415491E+02  0.29367632228E+02  0.17229168796E+03  0.21719828808E+03  0.12500129697E+03 0.  0.
          5    1    3    3  501    0 -0.60701634959E+01 -0.74761481428E+02 -0.18528610113E+01  0.75177450636E+02  0.47000000000E+01 0. -1.
         -5    1    3    3    0  501 -0.25598251995E+02  0.45393849200E+02  0.29039221696E+02  0.59843449493E+02  0.47000000000E+01 0. -1.
          5    1    4    4  502    0 -0.36865721505E+00 -0.25508443873E+02  0.14597262039E+03  0.14825961190E+03  0.47000000000E+01 0.  1.
         -5    1    4    4    0  502  0.32037072706E+02  0.54876076100E+02  0.26319067564E+02  0.68938676178E+02  0.47000000000E+01 0.  1.
<mgrwt>
<rscale>  0 0.29028756E+03</rscale>
<asrwt>0</asrwt>
<pdfrwt beam="1">  1       21 0.42438249E-01 0.29028756E+03</pdfrwt>
<pdfrwt beam="2">  1       21 0.11749319E-01 0.29028756E+03</pdfrwt>
<totfact> 0.31828898E+05</totfact>
</mgrwt>
</event>
<event>
 8    1  0.4760912E-006  0.4058943E+03  0.7546771E-02  0.1041758E+00
         21   -1    0    0  504  503  0.00000000000E+00  0.00000000000E+00  0.77547206023E+02  0.77547206023E+02  0.00000000000E+00 0. -1.
         21   -1    0    0  503  504 -0.00000000000E+00 -0.00000000000E+00 -0.53112871498E+03  0.53112871498E+03  0.00000000000E+00 0. -1.
         25    2    1    2    0    0  0.47589238550E+02  0.15034728566E+03 -0.26620167669E+03  0.33370218749E+03  0.12499910134E+03 0.  0.
         25    2    1    2    0    0 -0.47589238550E+02 -0.15034728566E+03 -0.18737983227E+03  0.27497373351E+03  0.12502124079E+03 0.  0.
          5    1    3    3  501    0  0.14949541501E+02  0.11611369392E+02 -0.14571622555E+03  0.14701571712E+03  0.47000000000E+01 0.  1.
         -5    1    3    3    0  501  0.32639697049E+02  0.13873591627E+03 -0.12048545113E+03  0.18668647037E+03  0.47000000000E+01 0.  1.
          5    1    4    4  502    0 -0.77301669972E+02 -0.94944498132E+02 -0.68398828076E+02  0.14032282633E+03  0.47000000000E+01 0. -1.
         -5    1    4    4    0  502  0.29712431422E+02 -0.55402787525E+02 -0.11898100419E+03  0.13465090718E+03  0.47000000000E+01 0. -1.
<mgrwt>
<rscale>  0 0.40589431E+03</rscale>
<asrwt>0</asrwt>
<pdfrwt beam="1">  1       21 0.11930339E-01 0.40589431E+03</pdfrwt>
<pdfrwt beam="2">  1       21 0.81712111E-01 0.40589431E+03</pdfrwt>
<totfact> 0.72596598E+04</totfact>
</mgrwt>
</event>
<event>
 8    1  0.4760912E-006  0.8952813E+03  0.7546771E-02  0.9431499E-01
         21   -1    0    0  504  503  0.00000000000E+00  0.00000000000E+00  0.45501330545E+03  0.45501330545E+03  0.00000000000E+00 0.  1.
         21   -1    0    0  503  504 -0.00000000000E+00 -0.00000000000E+00 -0.44038740778E+03  0.44038740778E+03  0.00000000000E+00 0.  1.
         25    2    1    2    0    0  0.26495846353E+03  0.22892739406E+03 -0.24201240806E+03  0.44362760783E+03  0.12499883853E+03 0.  0.
         25    2    1    2    0    0 -0.26495846353E+03 -0.22892739406E+03  0.25663830573E+03  0.45177310540E+03  0.12499991859E+03 0.  0.
          5    1    3    3  501    0  0.13921122346E+02 -0.10295796876E+02 -0.36079226326E+02  0.40293940649E+02  0.47000000000E+01 0. -1.
         -5    1    3    3    0  501  0.25103734118E+03  0.23922319093E+03 -0.20593318173E+03  0.40333366719E+03  0.47000000000E+01 0. -1.
          5    1    4    4  502    0 -0.25391632388E+03 -0.18840383052E+03  0.17896362646E+03  0.36334497724E+03  0.47000000000E+01 0. -1.
         -5    1    4    4    0  502 -0.11042139646E+02 -0.40523563533E+02  0.77674679271E+02  0.88428128157E+02  0.47000000000E+01 0. -1.
<mgrwt>
<rscale>  0 0.89528125E+03</rscale>
<asrwt>0</asrwt>
<pdfrwt beam="1">  1       21 0.70002047E-01 0.89528125E+03</pdfrwt>
<pdfrwt beam="2">  1       21 0.67751909E-01 0.89528125E+03</pdfrwt>
<totfact> 0.28927627E+03</totfact>
</mgrwt>
</event>
<event>
 8    1  0.4760912E-006  0.2671768E+03  0.7546771E-02  0.1102906E+00
         21   -1    0    0  504  503  0.00000000000E+00  0.00000000000E+00  0.86103228631E+02  0.86103228631E+02  0.00000000000E+00 0. -1.
         21   -1    0    0  503  504 -0.00000000000E+00 -0.00000000000E+00 -0.20726116901E+03  0.20726116901E+03  0.00000000000E+00 0. -1.
         25    2    1    2    0    0  0.35045875646E+02 -0.30788722140E+02 -0.67853353001E+02  0.14968866220E+03  0.12500583693E+03 0.  0.
         25    2    1    2    0    0 -0.35045875646E+02  0.30788722140E+02 -0.53304587376E+02  0.14367573544E+03  0.12500071643E+03 0.  0.
          5    1    3    3  501    0  0.85535726649E+01  0.42852040257E+02 -0.54736088110E+02  0.70196796943E+02  0.47000000000E+01 0.  1.
         -5    1    3    3    0  501  0.26492302981E+02 -0.73640762397E+02 -0.13117264891E+02  0.79491865256E+02  0.47000000000E+01 0.  1.
          5    1    4    4  502    0  0.45567352296E+02  0.25255325416E+02 -0.24506962025E+02  0.57765874396E+02  0.47000000000E+01 0.  1.
         -5    1    4    4    0  502 -0.80613227942E+02  0.55333967246E+01 -0.28797625352E+02  0.85909861043E+02  0.47000000000E+01 0.  1.
<mgrwt>
<rscale>  0 0.26717676E+03</rscale>
<asrwt>0</asrwt>
<pdfrwt beam="1">  1       21 0.13246651E-01 0.26717676E+03</pdfrwt>
<pdfrwt beam="2">  1       21 0.31886333E-01 0.26717676E+03</pdfrwt>
<totfact> 0.45785805E+05</totfact>
</mgrwt>
</event>
<event>
 8    1  0.4760912E-006  0.5857315E+03  0.7546771E-02  0.9935459E-01
         21   -1    0    0  504  503  0.00000000000E+00  0.00000000000E+00  0.16525308585E+04  0.16525308585E+04  0.00000000000E+00 0.  1.
         21   -1    0    0  503  504 -0.00000000000E+00 -0.00000000000E+00 -0.51902409717E+02  0.51902409717E+02  0.00000000000E+00 0.  1.
         25    2    1    2    0    0  0.10879227929E+03 -0.44034997414E+02  0.14911864736E+04  0.15010119531E+04  0.12499977332E+03 0.  0.
         25    2    1    2    0    0 -0.10879227929E+03  0.44034997414E+02  0.10944197517E+03  0.20342131509E+03  0.12501137737E+03 0.  0.
          5    1    3    3  501    0 -0.21487991592E+02 -0.17839949125E+02  0.11581037405E+03  0.11922302758E+03  0.47000000000E+01 0.  1.
         -5    1    3    3    0  501  0.13028027088E+03 -0.26195048288E+02  0.13753760995E+04  0.13817889255E+04  0.47000000000E+01 0.  1.
          5    1    4    4  502    0 -0.10050536448E+02  0.63900157858E+02  0.69244108610E+02  0.94874021915E+02  0.47000000000E+01 0.  1.
         -5    1    4    4    0  502 -0.98741742839E+02 -0.19865160444E+02  0.40197866562E+02  0.10854729317E+03  0.47000000000E+01 0.  1.
<mgrwt>
<rscale>  0 0.58573145E+03</rscale>
<asrwt>0</asrwt>
<pdfrwt beam="1">  1       21 0.25423548E+00 0.58573145E+03</pdfrwt>
<pdfrwt beam="2">  1       21 0.79849874E-02 0.58573145E+03</pdfrwt>
<totfact> 0.61068498E+03</totfact>
</mgrwt>
</event>
<event>
 8    1  0.4760912E-006  0.2669985E+03  0.7546771E-02  0.1103010E+00
         21   -1    0    0  504  503  0.00000000000E+00  0.00000000000E+00  0.38716998399E+02  0.38716998399E+02  0.00000000000E+00 0.  1.
         21   -1    0    0  503  504 -0.00000000000E+00 -0.00000000000E+00 -0.46031600253E+03  0.46031600253E+03  0.00000000000E+00 0.  1.
         25    2    1    2    0    0  0.35466961219E+02  0.18653947622E+02 -0.16535482939E+03  0.21112424985E+03  0.12500141669E+03 0.  0.
         25    2    1    2    0    0 -0.35466961219E+02 -0.18653947622E+02 -0.25624417474E+03  0.28790875107E+03  0.12499798701E+03 0.  0.
          5    1    3    3  501    0  0.50788471630E+02 -0.11139436043E+02 -0.11323539878E+02  0.53421610245E+02  0.47000000000E+01 0. -1.
         -5    1    3    3    0  501 -0.15321510410E+02  0.29793383666E+02 -0.15403128951E+03  0.15770263961E+03  0.47000000000E+01 0. -1.
          5    1    4    4  502    0 -0.65364064862E+02  0.14838238279E+02 -0.21995875617E+03  0.22999256229E+03  0.47000000000E+01 0.  1.
         -5    1    4    4    0  502  0.29897103642E+02 -0.33492185901E+02 -0.36285418564E+02  0.57916188782E+02  0.47000000000E+01 0.  1.
<mgrwt>
<rscale>  0 0.26699853E+03</rscale>
<asrwt>0</asrwt>
<pdfrwt beam="1">  1       21 0.59564614E-02 0.26699853E+03</pdfrwt>
<pdfrwt beam="2">  1       21 0.70817845E-01 0.26699853E+03</pdfrwt>
<totfact> 0.35412769E+05</totfact>
</mgrwt>
</event>
<event>
 8    1  0.4760912E-006  0.3268139E+03  0.7546771E-02  0.1072555E+00
         21   -1    0    0  504  503  0.00000000000E+00  0.00000000000E+00  0.23160766250E+03  0.23160766250E+03  0.00000000000E+00 0.  1.
         21   -1    0    0  503  504 -0.00000000000E+00 -0.00000000000E+00 -0.11528909181E+03  0.11528909181E+03  0.00000000000E+00 0.  1.
         25    2    1    2    0    0  0.34693435585E+02  0.54024106291E+02 -0.30329267335E+02  0.14374877782E+03  0.12498643180E+03 0.  0.
         25    2    1    2    0    0 -0.34693435585E+02 -0.54024106291E+02  0.14664783802E+03  0.20314797649E+03  0.12506507676E+03 0.  0.
          5    1    3    3  501    0 -0.21206595316E+02  0.59513353043E+02  0.21774093395E+02  0.66990745768E+02  0.47000000000E+01 0. -1.
         -5    1    3    3    0  501  0.55900030901E+02 -0.54892467523E+01 -0.52103360729E+02  0.76758032048E+02  0.47000000000E+01 0. -1.
          5    1    4    4  502    0 -0.28450838713E+02 -0.82482013656E+02  0.14984926147E+03  0.17346360991E+03  0.47000000000E+01 0. -1.
         -5    1    4    4    0  502 -0.62425968724E+01  0.28457907365E+02 -0.32014234492E+01  0.29684366582E+02  0.47000000000E+01 0. -1.
<mgrwt>
<rscale>  0 0.32681394E+03</rscale>
<asrwt>0</asrwt>
<pdfrwt beam="1">  1       21 0.35631948E-01 0.32681394E+03</pdfrwt>
<pdfrwt beam="2">  1       21 0.17736783E-01 0.32681394E+03</pdfrwt>
<totfact> 0.21180704E+05</totfact>
</mgrwt>
</event>
<event>
 8    1  0.4760912E-006  0.2529555E+03  0.7546771E-02  0.1111451E+00
         21   -1    0    0  504  503  0.00000000000E+00  0.00000000000E+00  0.51800784123E+02  0.51800784123E+02  0.00000000000E+00 0.  1.
         21   -1    0    0  503  504 -0.00000000000E+00 -0.00000000000E+00 -0.30881039670E+03  0.30881039670E+03  0.00000000000E+00 0.  1.
         25    2    1    2    0    0  0.13796965561E+02  0.10698960478E+02 -0.14017867417E+03  0.18862552066E+03  0.12499880935E+03 0.  0.
         25    2    1    2    0    0 -0.13796965561E+02 -0.10698960478E+02 -0.11683093841E+03  0.17198566016E+03  0.12499910047E+03 0.  0.
          5    1    3    3  501    0  0.67287374265E+01  0.67831547657E+02 -0.80153509832E+02  0.10532364361E+03  0.47000000000E+01 0. -1.
         -5    1    3    3    0  501  0.70682281348E+01 -0.57132587179E+02 -0.60025164335E+02  0.83301877050E+02  0.47000000000E+01 0. -1.
          5    1    4    4  502    0 -0.42968218406E+02  0.18181884673E+02 -0.12166216494E+03  0.13038642990E+03  0.47000000000E+01 0. -1.
         -5    1    4    4    0  502  0.29171252845E+02 -0.28880845151E+02  0.48312265273E+01  0.41599230269E+02  0.47000000000E+01 0. -1.
<mgrwt>
<rscale>  0 0.25295550E+03</rscale>
<asrwt>0</asrwt>
<pdfrwt beam="1">  1       21 0.79693516E-02 0.25295550E+03</pdfrwt>
<pdfrwt beam="2">  1       21 0.47509291E-01 0.25295550E+03</pdfrwt>
<totfact> 0.50570392E+05</totfact>
</mgrwt>
</event>
<event>
 8    1  0.4760912E-006  0.4301181E+03  0.7546771E-02  0.1033823E+00
         21   -1    0    0  504  503  0.00000000000E+00  0.00000000000E+00  0.14286257907E+03  0.14286257907E+03  0.00000000000E+00 0.  1.
         21   -1    0    0  503  504 -0.00000000000E+00 -0.00000000000E+00 -0.32374040972E+03  0.32374040972E+03  0.00000000000E+00 0.  1.
         25    2    1    2    0    0 -0.31635038942E+02 -0.10891075767E+03 -0.23499621930E+03  0.28935778658E+03  0.12506948766E+03 0.  0.
         25    2    1    2    0    0  0.31635038942E+02  0.10891075767E+03  0.54118388657E+02  0.17724520221E+03  0.12499893156E+03 0.  0.
          5    1    3    3  501    0  0.30294189114E+02 -0.50723140887E+02 -0.28000708064E+02  0.65549252990E+02  0.47000000000E+01 0. -1.
         -5    1    3    3    0  501 -0.61929228056E+02 -0.58187616779E+02 -0.20699551124E+03  0.22380853359E+03  0.47000000000E+01 0. -1.
          5    1    4    4  502    0  0.54555918312E+02  0.74788427138E+02 -0.17695464342E+02  0.94365653259E+02  0.47000000000E+01 0.  1.
         -5    1    4    4    0  502 -0.22920879370E+02  0.34122330527E+02  0.71813852999E+02  0.82879548951E+02  0.47000000000E+01 0.  1.
<mgrwt>
<rscale>  0 0.43011808E+03</rscale>
<asrwt>0</asrwt>
<pdfrwt beam="1">  1       21 0.21978859E-01 0.43011808E+03</pdfrwt>
<pdfrwt beam="2">  1       21 0.49806216E-01 0.43011808E+03</pdfrwt>
<totfact> 0.69102292E+04</totfact>
</mgrwt>
</event>
<event>
 8    1  0.4760912E-006  0.2522323E+03  0.7546771E-02  0.1111902E+00
         21   -1    0    0  504  503  0.00000000000E+00  0.00000000000E+00  0.37938021225E+03  0.37938021225E+03  0.00000000000E+00 0.  1.
         21   -1    0    0  503  504 -0.00000000000E+00 -0.00000000000E+00 -0.41924394794E+02  0.41924394794E+02  0.00000000000E+00 0.  1.
         25    2    1    2    0    0  0.15681104579E+02 -0.17425023292E+01  0.15934231641E+03  0.20313251870E+03  0.12499565191E+03 0.  0.
         25    2    1    2    0    0 -0.15681104579E+02  0.17425023292E+01  0.17811350104E+03  0.21817208834E+03  0.12500283007E+03 0.  0.
          5    1    3    3  501    0 -0.38092222505E+02  0.29685679899E+02  0.11968190335E+03  0.12914373774E+03  0.47000000000E+01 0. -1.
         -5    1    3    3    0  501  0.53773327084E+02 -0.31428182228E+02  0.39660413060E+02  0.73988780960E+02  0.47000000000E+01 0. -1.
          5    1    4    4  502    0  0.39134697705E+02 -0.18860671659E+01  0.15223194805E+03  0.15726327550E+03  0.47000000000E+01 0.  1.
         -5    1    4    4    0  502 -0.54815802284E+02  0.36285694951E+01  0.25881552984E+02  0.60908812839E+02  0.47000000000E+01 0.  1.
<mgrwt>
<rscale>  0 0.25223232E+03</rscale>
<asrwt>0</asrwt>
<pdfrwt beam="1">  1       21 0.58366184E-01 0.25223232E+03</pdfrwt>
<pdfrwt beam="2">  1       21 0.64499072E-02 0.25223232E+03</pdfrwt>
<totfact> 0.47278224E+05</totfact>
</mgrwt>
</event>
<event>
 8    1  0.4760912E-006  0.2629492E+03  0.7546771E-02  0.1105384E+00
         21   -1    0    0  504  503  0.00000000000E+00  0.00000000000E+00  0.97254273485E+02  0.97254273485E+02  0.00000000000E+00 0.  1.
         21   -1    0    0  503  504 -0.00000000000E+00 -0.00000000000E+00 -0.17773578712E+03  0.17773578712E+03  0.00000000000E+00 0.  1.
         25    2    1    2    0    0  0.24084966338E+02  0.20561727067E+01 -0.58874220079E+01  0.12745274795E+03  0.12500091108E+03 0.  0.
         25    2    1    2    0    0 -0.24084966338E+02 -0.20561727067E+01 -0.74594091628E+02  0.14753731266E+03  0.12497466412E+03 0.  0.
          5    1    3    3  501    0 -0.18035285083E+01 -0.12675670870E+02 -0.62144408093E+02  0.63623445398E+02  0.47000000000E+01 0.  1.
         -5    1    3    3    0  501  0.25888494846E+02  0.14731843576E+02  0.56256986085E+02  0.63829302549E+02  0.47000000000E+01 0.  1.
          5    1    4    4  502    0  0.13055256092E+02  0.16479958289E+02  0.28833015325E+02  0.35992520190E+02  0.47000000000E+01 0.  1.
         -5    1    4    4    0  502 -0.37140222430E+02 -0.18536130996E+02 -0.10342710695E+03  0.11154479247E+03  0.47000000000E+01 0.  1.
<mgrwt>
<rscale>  0 0.26294916E+03</rscale>
<asrwt>0</asrwt>
<pdfrwt beam="1">  1       21 0.14962196E-01 0.26294916E+03</pdfrwt>
<pdfrwt beam="2">  1       21 0.27343967E-01 0.26294916E+03</pdfrwt>
<totfact> 0.49586752E+05</totfact>
</mgrwt>
</event>
<event>
 8    1  0.4760912E-006  0.3571693E+03  0.7546771E-02  0.1059710E+00
         21   -1    0    0  504  503  0.00000000000E+00  0.00000000000E+00  0.32774699967E+03  0.32774699967E+03  0.00000000000E+00 0.  1.
         21   -1    0    0  503  504 -0.00000000000E+00 -0.00000000000E+00 -0.97308204170E+02  0.97308204170E+02  0.00000000000E+00 0.  1.
         25    2    1    2    0    0 -0.69047294469E+02 -0.26833032955E+01 -0.12358321046E+02  0.14336271146E+03  0.12500163978E+03 0.  0.
         25    2    1    2    0    0  0.69047294469E+02  0.26833032955E+01  0.24279711655E+03  0.28169249239E+03  0.12500196587E+03 0.  0.
          5    1    3    3  501    0 -0.78059755244E+02  0.45017235770E+02  0.78429565035E+01  0.90573058201E+02  0.47000000000E+01 0. -1.
         -5    1    3    3    0  501  0.90124607750E+01 -0.47700539066E+02 -0.20201277550E+02  0.52789653257E+02  0.47000000000E+01 0. -1.
          5    1    4    4  502    0  0.96138168085E+02 -0.11013588665E+02  0.11555141413E+03  0.15079146463E+03  0.47000000000E+01 0. -1.
         -5    1    4    4    0  502 -0.27090873617E+02  0.13696891960E+02  0.12724570242E+03  0.13090102776E+03  0.47000000000E+01 0. -1.
<mgrwt>
<rscale>  0 0.35716927E+03</rscale>
<asrwt>0</asrwt>
<pdfrwt beam="1">  1       21 0.50422615E-01 0.35716927E+03</pdfrwt>
<pdfrwt beam="2">  1       21 0.14970493E-01 0.35716927E+03</pdfrwt>
<totfact> 0.14079738E+05</totfact>
</mgrwt>
</event>
<event>
 8    1  0.4760912E-006  0.3688036E+03  0.7546771E-02  0.1055151E+00
         21   -1    0    0  504  503  0.00000000000E+00  0.00000000000E+00  0.40235961689E+03  0.40235961689E+03  0.00000000000E+00 0. -1.
         21   -1    0    0  503  504 -0.00000000000E+00 -0.00000000000E+00 -0.84511539773E+02  0.84511539773E+02  0.00000000000E+00 0. -1.
         25    2    1    2    0    0 -0.11007338665E+03 -0.48392598000E+02  0.76189758383E+02  0.18941596392E+03  0.12496213073E+03 0.  0.
         25    2    1    2    0    0  0.11007338665E+03  0.48392598000E+02  0.24165831873E+03  0.29745519274E+03  0.12499141844E+03 0.  0.
          5    1    3    3  501    0 -0.62890658250E+02 -0.90100360129E+02  0.43104422380E+02  0.11812447257E+03  0.47000000000E+01 0. -1.
         -5    1    3    3    0  501 -0.47182728404E+02  0.41707762129E+02  0.33085336004E+02  0.71291491357E+02  0.47000000000E+01 0. -1.
          5    1    4    4  502    0  0.66976340616E+02  0.13642785990E+02  0.23652905018E+02  0.72481071513E+02  0.47000000000E+01 0.  1.
         -5    1    4    4    0  502  0.43097046038E+02  0.34749812010E+02  0.21800541372E+03  0.22497412123E+03  0.47000000000E+01 0.  1.
<mgrwt>
<rscale>  0 0.36880364E+03</rscale>
<asrwt>0</asrwt>
<pdfrwt beam="1">  1       21 0.61901478E-01 0.36880364E+03</pdfrwt>
<pdfrwt beam="2">  1       21 0.13001776E-01 0.36880364E+03</pdfrwt>
<totfact> 0.11694925E+05</totfact>
</mgrwt>
</event>
<event>
 8    1  0.4760912E-006  0.4388142E+03  0.7546771E-02  0.1031111E+00
         21   -1    0    0  504  503  0.00000000000E+00  0.00000000000E+00  0.99348288072E+03  0.99348288072E+03  0.00000000000E+00 0.  1.
         21   -1    0    0  503  504 -0.00000000000E+00 -0.00000000000E+00 -0.48455264519E+02  0.48455264519E+02  0.00000000000E+00 0.  1.
         25    2    1    2    0    0  0.96110913965E+02 -0.39259436072E+02  0.82258164274E+03  0.83847611415E+03  0.12499209546E+03 0.  0.
         25    2    1    2    0    0 -0.96110913965E+02  0.39259436072E+02  0.12244597346E+03  0.20346203109E+03  0.12500068229E+03 0.  0.
          5    1    3    3  501    0  0.93516068185E+02 -0.37381172469E+02  0.31246352947E+03  0.32832629245E+03  0.47000000000E+01 0.  1.
         -5    1    3    3    0  501  0.25948457799E+01 -0.18782636028E+01  0.51011811327E+03  0.51014982170E+03  0.47000000000E+01 0.  1.
          5    1    4    4  502    0  0.21880124207E+02  0.16216684047E+02  0.63985265245E+02  0.69698815236E+02  0.47000000000E+01 0. -1.
         -5    1    4    4    0  502 -0.11799103817E+03  0.23042752025E+02  0.58460708217E+02  0.13376321585E+03  0.47000000000E+01 0. -1.
<mgrwt>
<rscale>  0 0.43881420E+03</rscale>
<asrwt>0</asrwt>
<pdfrwt beam="1">  1       21 0.15284350E+00 0.43881420E+03</pdfrwt>
<pdfrwt beam="2">  1       21 0.74546568E-02 0.43881420E+03</pdfrwt>
<totfact> 0.34916937E+04</totfact>
</mgrwt>
</event>
<event>
 8    1  0.4760912E-006  0.3026303E+03  0.7546771E-02  0.1083933E+00
         21   -1    0    0  504  503  0.00000000000E+00  0.00000000000E+00  0.91561670303E+03  0.91561670303E+03  0.00000000000E+00 0.  1.
         21   -1    0    0  503  504 -0.00000000000E+00 -0.00000000000E+00 -0.25006397978E+02  0.25006397978E+02  0.00000000000E+00 0.  1.
         25    2    1    2    0    0 -0.48875344133E+02 -0.57390456919E+02  0.32149361515E+03  0.35308491404E+03  0.12501339182E+03 0.  0.
         25    2    1    2    0    0  0.48875344133E+02  0.57390456919E+02  0.56911668990E+03  0.58753818696E+03  0.12499940243E+03 0.  0.
          5    1    3    3  501    0 -0.73966021351E+02  0.72112136091E+01  0.19567713632E+03  0.20936715501E+03  0.47000000000E+01 0. -1.
         -5    1    3    3    0  501  0.25090677218E+02 -0.64601670528E+02  0.12581647883E+03  0.14371775904E+03  0.47000000000E+01 0. -1.
          5    1    4    4  502    0 -0.15105810178E+02 -0.29204573205E+02  0.20962798408E+03  0.21224296056E+03  0.47000000000E+01 0.  1.
         -5    1    4    4    0  502  0.63981154311E+02  0.86595030124E+02  0.35948870582E+03  0.37529522640E+03  0.47000000000E+01 0.  1.
<mgrwt>
<rscale>  0 0.30263031E+03</rscale>
<asrwt>0</asrwt>
<pdfrwt beam="1">  1       21 0.14086408E+00 0.30263031E+03</pdfrwt>
<pdfrwt beam="2">  1       21 0.38471389E-02 0.30263031E+03</pdfrwt>
<totfact> 0.14149769E+05</totfact>
</mgrwt>
</event>
<event>
 8    1  0.4760912E-006  0.3114593E+03  0.7546771E-02  0.1079648E+00
         21   -1    0    0  504  503  0.00000000000E+00  0.00000000000E+00  0.21650940226E+03  0.21650940226E+03  0.00000000000E+00 0. -1.
         21   -1    0    0  503  504 -0.00000000000E+00 -0.00000000000E+00 -0.11201235913E+03  0.11201235913E+03  0.00000000000E+00 0. -1.
         25    2    1    2    0    0 -0.63162063566E+02 -0.56105596821E+02  0.92947561522E+02  0.17720774365E+03  0.12500420372E+03 0.  0.
         25    2    1    2    0    0  0.63162063566E+02  0.56105596821E+02  0.11549481600E+02  0.15131401775E+03  0.12500102869E+03 0.  0.
          5    1    3    3  501    0  0.85652541554E+01 -0.42930846203E+02 -0.15291589772E+02  0.46608409673E+02  0.47000000000E+01 0. -1.
         -5    1    3    3    0  501 -0.71727317721E+02 -0.13174750618E+02  0.10823915129E+03  0.13059933397E+03  0.47000000000E+01 0. -1.
          5    1    4    4  502    0  0.65581442778E+02  0.70283289919E+01  0.54649406588E+02  0.85784443145E+02  0.47000000000E+01 0.  1.
         -5    1    4    4    0  502 -0.24193792120E+01  0.49077267830E+02 -0.43099924988E+02  0.65529574601E+02  0.47000000000E+01 0.  1.
<mgrwt>
<rscale>  0 0.31145933E+03</rscale>
<asrwt>0</asrwt>
<pdfrwt beam="1">  1       21 0.33309139E-01 0.31145933E+03</pdfrwt>
<pdfrwt beam="2">  1       21 0.17232671E-01 0.31145933E+03</pdfrwt>
<totfact> 0.25663821E+05</totfact>
</mgrwt>
</event>
<event>
 8    1  0.4760912E-006  0.3401249E+03  0.7546771E-02  0.1066743E+00
         21   -1    0    0  504  503  0.00000000000E+00  0.00000000000E+00  0.11747950362E+03  0.11747950362E+03  0.00000000000E+00 0. -1.
         21   -1    0    0  503  504 -0.00000000000E+00 -0.00000000000E+00 -0.24618107462E+03  0.24618107462E+03  0.00000000000E+00 0. -1.
         25    2    1    2    0    0 -0.25513745025E+01 -0.23716817534E+02 -0.18496833799E+03  0.22451672513E+03  0.12500190742E+03 0.  0.
         25    2    1    2    0    0  0.25513745025E+01  0.23716817534E+02  0.56266766983E+02  0.13914385311E+03  0.12500426331E+03 0.  0.
          5    1    3    3  501    0  0.34629442278E+02 -0.43084947140E+02 -0.17147506348E+03  0.18022568723E+03  0.47000000000E+01 0.  1.
         -5    1    3    3    0  501 -0.37180816780E+02  0.19368129606E+02 -0.13493274508E+02  0.44291037896E+02  0.47000000000E+01 0.  1.
          5    1    4    4  502    0  0.50169756872E+02  0.47586845851E+02  0.13358446308E+02  0.70583641804E+02  0.47000000000E+01 0.  1.
         -5    1    4    4    0  502 -0.47618382369E+02 -0.23870028317E+02  0.42908320675E+02  0.68560211307E+02  0.47000000000E+01 0.  1.
<mgrwt>
<rscale>  0 0.34012486E+03</rscale>
<asrwt>0</asrwt>
<pdfrwt beam="1">  1       21 0.18073770E-01 0.34012486E+03</pdfrwt>
<pdfrwt beam="2">  1       21 0.37874011E-01 0.34012486E+03</pdfrwt>
<totfact> 0.18024518E+05</totfact>
</mgrwt>
</event>
<event>
 8    1  0.4760912E-006  0.3706430E+03  0.7546771E-02  0.1054447E+00
         21   -1    0    0  504  503  0.00000000000E+00  0.00000000000E+00  0.50927315603E+02  0.50927315603E+02  0.00000000000E+00 0.  1.
         21   -1    0    0  503  504 -0.00000000000E+00 -0.00000000000E+00 -0.67437391461E+03  0.67437391461E+03  0.00000000000E+00 0.  1.
         25    2    1    2    0    0  0.12425934065E+03 -0.59204594267E+01 -0.42316352206E+03  0.45844110924E+03  0.12500179459E+03 0.  0.
         25    2    1    2    0    0 -0.12425934065E+03  0.59204594267E+01 -0.20028307694E+03  0.26686012098E+03  0.12500231069E+03 0.  0.
          5    1    3    3  501    0  0.73289140900E+02 -0.63952419255E+02 -0.26588999909E+03  0.28316212974E+03  0.47000000000E+01 0. -1.
         -5    1    3    3    0  501  0.50970199755E+02  0.58031959828E+02 -0.15727352298E+03  0.17527897950E+03  0.47000000000E+01 0. -1.
          5    1    4    4  502    0 -0.10854745790E+03 -0.96209137089E+01 -0.59444961262E+02  0.12422119793E+03  0.47000000000E+01 0. -1.
         -5    1    4    4    0  502 -0.15711882758E+02  0.15541373136E+02 -0.14083811568E+03  0.14263892305E+03  0.47000000000E+01 0. -1.
<mgrwt>
<rscale>  0 0.37064297E+03</rscale>
<asrwt>0</asrwt>
<pdfrwt beam="1">  1       21 0.78349719E-02 0.37064297E+03</pdfrwt>
<pdfrwt beam="2">  1       21 0.10374983E+00 0.37064297E+03</pdfrwt>
<totfact> 0.88155484E+04</totfact>
</mgrwt>
</event>
<event>
 8    1  0.4760912E-006  0.2542322E+03  0.7546771E-02  0.1110659E+00
         21   -1    0    0  504  503  0.00000000000E+00  0.00000000000E+00  0.41260024678E+03  0.41260024678E+03  0.00000000000E+00 0.  1.
         21   -1    0    0  503  504 -0.00000000000E+00 -0.00000000000E+00 -0.39162615620E+02  0.39162615620E+02  0.00000000000E+00 0.  1.
         25    2    1    2    0    0 -0.14207631584E+02  0.17655751510E+02  0.19450065539E+03  0.23231286541E+03  0.12500072052E+03 0.  0.
         25    2    1    2    0    0  0.14207631584E+02 -0.17655751510E+02  0.17893697577E+03  0.21944999699E+03  0.12500511000E+03 0.  0.
          5    1    3    3  501    0 -0.94090597871E+00  0.13461295232E+02 -0.15913148813E+02  0.21387147508E+02  0.47000000000E+01 0. -1.
         -5    1    3    3    0  501 -0.13266725605E+02  0.41944562775E+01  0.21041380421E+03  0.21092571790E+03  0.47000000000E+01 0. -1.
          5    1    4    4  502    0 -0.24340093515E+02 -0.50891179238E+02  0.34634929837E+02  0.66362795611E+02  0.47000000000E+01 0.  1.
         -5    1    4    4    0  502  0.38547725099E+02  0.33235427728E+02  0.14430204593E+03  0.15308720138E+03  0.47000000000E+01 0.  1.
<mgrwt>
<rscale>  0 0.25423222E+03</rscale>
<asrwt>0</asrwt>
<pdfrwt beam="1">  1       21 0.63476958E-01 0.25423222E+03</pdfrwt>
<pdfrwt beam="2">  1       21 0.60250181E-02 0.25423222E+03</pdfrwt>
<totfact> 0.44315884E+05</totfact>
</mgrwt>
</event>
<event>
 8    1  0.4760912E-006  0.3648657E+03  0.7546771E-02  0.1056674E+00
         21   -1    0    0  504  503  0.00000000000E+00  0.00000000000E+00  0.93559788808E+03  0.93559788808E+03  0.00000000000E+00 0. -1.
         21   -1    0    0  503  504 -0.00000000000E+00 -0.00000000000E+00 -0.35572708114E+02  0.35572708114E+02  0.00000000000E+00 0. -1.
         25    2    1    2    0    0  0.13141346904E+03 -0.17959439190E+02  0.42856248091E+03  0.46570681568E+03  0.12499998729E+03 0.  0.
         25    2    1    2    0    0 -0.13141346904E+03  0.17959439190E+02  0.47146269905E+03  0.50546378051E+03  0.12499806203E+03 0.  0.
          5    1    3    3  501    0  0.11459732729E+03 -0.63434485571E+02  0.34391903123E+03  0.36804737660E+03  0.47000000000E+01 0. -1.
         -5    1    3    3    0  501  0.16816141758E+02  0.45475046380E+02  0.84643449679E+02  0.97659439075E+02  0.47000000000E+01 0. -1.
          5    1    4    4  502    0 -0.15334851692E+03  0.17674432581E+02  0.35937534645E+03  0.39115327283E+03  0.47000000000E+01 0.  1.
         -5    1    4    4    0  502  0.21935047872E+02  0.28500660930E+00  0.11208735260E+03  0.11431050768E+03  0.47000000000E+01 0.  1.
<mgrwt>
<rscale>  0 0.36486573E+03</rscale>
<asrwt>0</asrwt>
<pdfrwt beam="1">  1       21 0.14393812E+00 0.36486573E+03</pdfrwt>
<pdfrwt beam="2">  1       21 0.54727250E-02 0.36486573E+03</pdfrwt>
<totfact> 0.71876514E+04</totfact>
</mgrwt>
</event>
<event>
 8    1  0.4760912E-006  0.5030598E+03  0.7546771E-02  0.1012983E+00
         21   -1    0    0  504  503  0.00000000000E+00  0.00000000000E+00  0.74203067705E+02  0.74203067705E+02  0.00000000000E+00 0. -1.
         21   -1    0    0  503  504 -0.00000000000E+00 -0.00000000000E+00 -0.85262354398E+03  0.85262354398E+03  0.00000000000E+00 0. -1.
         25    2    1    2    0    0  0.27760491907E+02 -0.18888078406E+03 -0.58420245043E+03  0.62718729808E+03  0.12499923317E+03 0.  0.
         25    2    1    2    0    0 -0.27760491907E+02  0.18888078406E+03 -0.19421802585E+03  0.29963931361E+03  0.12496592013E+03 0.  0.
          5    1    3    3  501    0 -0.27163046898E+02 -0.38086645300E+02 -0.46896156611E+02  0.66406047705E+02  0.47000000000E+01 0.  1.
         -5    1    3    3    0  501  0.54923538805E+02 -0.15079413876E+03 -0.53730629381E+03  0.56078125037E+03  0.47000000000E+01 0.  1.
          5    1    4    4  502    0  0.44833527654E+02  0.11695597938E+03 -0.11705736629E+03  0.17150295426E+03  0.47000000000E+01 0. -1.
         -5    1    4    4    0  502 -0.72594019561E+02  0.71924804677E+02 -0.77160659556E+02  0.12813635935E+03  0.47000000000E+01 0. -1.
<mgrwt>
<rscale>  0 0.50305977E+03</rscale>
<asrwt>0</asrwt>
<pdfrwt beam="1">  1       21 0.11415857E-01 0.50305977E+03</pdfrwt>
<pdfrwt beam="2">  1       21 0.13117285E+00 0.50305977E+03</pdfrwt>
<totfact> 0.24078491E+04</totfact>
</mgrwt>
</event>
<event>
 8    1  0.4760912E-006  0.4109491E+03  0.7546771E-02  0.1040053E+00
         21   -1    0    0  504  503  0.00000000000E+00  0.00000000000E+00  0.59036054438E+03  0.59036054438E+03  0.00000000000E+00 0.  1.
         21   -1    0    0  503  504 -0.00000000000E+00 -0.00000000000E+00 -0.71515264037E+02  0.71515264037E+02  0.00000000000E+00 0.  1.
         25    2    1    2    0    0  0.99593360608E+02  0.10893133734E+03  0.37111893779E+03  0.41849695437E+03  0.12500224438E+03 0.  0.
         25    2    1    2    0    0 -0.99593360608E+02 -0.10893133734E+03  0.14772634255E+03  0.24337885404E+03  0.12500128231E+03 0.  0.
          5    1    3    3  501    0  0.12532257242E+03  0.62597221362E+02  0.26488080253E+03  0.29967997736E+03  0.47000000000E+01 0.  1.
         -5    1    3    3    0  501 -0.25729211807E+02  0.46334115976E+02  0.10623813526E+03  0.11881697701E+03  0.47000000000E+01 0.  1.
          5    1    4    4  502    0 -0.99587302910E+02 -0.10523667514E+03  0.16820075445E+03  0.22204948208E+03  0.47000000000E+01 0.  1.
         -5    1    4    4    0  502 -0.60576984283E-02 -0.36946621977E+01 -0.20474411902E+02  0.21329371959E+02  0.47000000000E+01 0.  1.
<mgrwt>
<rscale>  0 0.41094910E+03</rscale>
<asrwt>0</asrwt>
<pdfrwt beam="1">  1       21 0.90824696E-01 0.41094910E+03</pdfrwt>
<pdfrwt beam="2">  1       21 0.11002349E-01 0.41094910E+03</pdfrwt>
<totfact> 0.65563783E+04</totfact>
</mgrwt>
</event>
<event>
 8    1  0.4760912E-006  0.2693020E+03  0.7546771E-02  0.1101680E+00
         21   -1    0    0  504  503  0.00000000000E+00  0.00000000000E+00  0.12388170350E+03  0.12388170350E+03  0.00000000000E+00 0.  1.
         21   -1    0    0  503  504 -0.00000000000E+00 -0.00000000000E+00 -0.14635652975E+03  0.14635652975E+03  0.00000000000E+00 0.  1.
         25    2    1    2    0    0  0.40091868812E+02 -0.29625054912E+02 -0.16050336495E+02  0.13550965557E+03  0.12498100507E+03 0.  0.
         25    2    1    2    0    0 -0.40091868812E+02  0.29625054912E+02 -0.64244897566E+01  0.13472857768E+03  0.12500205499E+03 0.  0.
          5    1    3    3  501    0 -0.15150149973E+02 -0.23343148898E+02  0.44801235748E+02  0.52949696592E+02  0.47000000000E+01 0. -1.
         -5    1    3    3    0  501  0.55242018784E+02 -0.62819060150E+01 -0.60851572243E+02  0.82559958981E+02  0.47000000000E+01 0. -1.
          5    1    4    4  502    0 -0.76743220696E+02 -0.63015486415E+01  0.15558983840E+02  0.78698179243E+02  0.47000000000E+01 0.  1.
         -5    1    4    4    0  502  0.36651351884E+02  0.35926603554E+02 -0.21983473596E+02  0.56030398439E+02  0.47000000000E+01 0.  1.
<mgrwt>
<rscale>  0 0.26930203E+03</rscale>
<asrwt>0</asrwt>
<pdfrwt beam="1">  1       21 0.19058724E-01 0.26930203E+03</pdfrwt>
<pdfrwt beam="2">  1       21 0.22516389E-01 0.26930203E+03</pdfrwt>
<totfact> 0.45955893E+05</totfact>
</mgrwt>
</event>
<event>
 8    1  0.4760912E-006  0.2587981E+03  0.7546771E-02  0.1107868E+00
         21   -1    0    0  504  503  0.00000000000E+00  0.00000000000E+00  0.13281517307E+03  0.13281517307E+03  0.00000000000E+00 0. -1.
         21   -1    0    0  503  504 -0.00000000000E+00 -0.00000000000E+00 -0.12607078449E+03  0.12607078449E+03  0.00000000000E+00 0. -1.
         25    2    1    2    0    0  0.22598955186E+02 -0.20123474305E+01 -0.21197519000E+02  0.12879627476E+03  0.12499753302E+03 0.  0.
         25    2    1    2    0    0 -0.22598955186E+02  0.20123474305E+01  0.27941907584E+02  0.13008968280E+03  0.12501125171E+03 0.  0.
          5    1    3    3  501    0 -0.94829411482E+00 -0.56480329815E+02 -0.36394033216E+02  0.67361283921E+02  0.47000000000E+01 0.  1.
         -5    1    3    3    0  501  0.23547249301E+02  0.54467982385E+02  0.15196514215E+02  0.61434990836E+02  0.47000000000E+01 0.  1.
          5    1    4    4  502    0 -0.39878136485E+02  0.54014918684E+01  0.71885344503E+02  0.82516874870E+02  0.47000000000E+01 0.  1.
         -5    1    4    4    0  502  0.17279181299E+02 -0.33891444379E+01 -0.43943436919E+02  0.47572807933E+02  0.47000000000E+01 0.  1.
<mgrwt>
<rscale>  0 0.25879809E+03</rscale>
<asrwt>0</asrwt>
<pdfrwt beam="1">  1       21 0.20433104E-01 0.25879809E+03</pdfrwt>
<pdfrwt beam="2">  1       21 0.19395505E-01 0.25879809E+03</pdfrwt>
<totfact> 0.53545988E+05</totfact>
</mgrwt>
</event>
<event>
 8    1  0.4760912E-006  0.2551618E+03  0.7546771E-02  0.1110085E+00
         21   -1    0    0  504  503  0.00000000000E+00  0.00000000000E+00  0.11722932749E+04  0.11722932749E+04  0.00000000000E+00 0. -1.
         21   -1    0    0  503  504 -0.00000000000E+00 -0.00000000000E+00 -0.13884655943E+02  0.13884655943E+02  0.00000000000E+00 0. -1.
         25    2    1    2    0    0  0.86412268841E+01  0.23164962546E+02  0.60887763034E+03  0.62206624452E+03  0.12499263001E+03 0.  0.
         25    2    1    2    0    0 -0.86412268841E+01 -0.23164962546E+02  0.54953098857E+03  0.56411168627E+03  0.12500560346E+03 0.  0.
          5    1    3    3  501    0 -0.65984406498E+00  0.80882925568E+01  0.60262991804E+03  0.60270288201E+03  0.47000000000E+01 0. -1.
         -5    1    3    3    0  501  0.93010709490E+01  0.15076669989E+02  0.62477123002E+01  0.19363362511E+02  0.47000000000E+01 0. -1.
          5    1    4    4  502    0 -0.77995071921E+00  0.48949983316E+02  0.14534153602E+03  0.15343715743E+03  0.47000000000E+01 0. -1.
         -5    1    4    4    0  502 -0.78612761649E+01 -0.72114945862E+02  0.40418945255E+03  0.41067452883E+03  0.47000000000E+01 0. -1.
<mgrwt>
<rscale>  0 0.25516182E+03</rscale>
<asrwt>0</asrwt>
<pdfrwt beam="1">  1       21 0.18035273E+00 0.25516182E+03</pdfrwt>
<pdfrwt beam="2">  1       21 0.21361018E-02 0.25516182E+03</pdfrwt>
<totfact> 0.19480457E+05</totfact>
</mgrwt>
</event>
<event>
 8    1  0.4760912E-006  0.3340224E+03  0.7546771E-02  0.1069371E+00
         21   -1    0    0  504  503  0.00000000000E+00  0.00000000000E+00  0.60442260029E+02  0.60442260029E+02  0.00000000000E+00 0.  1.
         21   -1    0    0  503  504 -0.00000000000E+00 -0.00000000000E+00 -0.46147737825E+03  0.46147737825E+03  0.00000000000E+00 0.  1.
         25    2    1    2    0    0  0.34177966320E+02 -0.83849773646E+02 -0.30017709705E+03  0.33753789114E+03  0.12500648161E+03 0.  0.
         25    2    1    2    0    0 -0.34177966320E+02  0.83849773646E+02 -0.10085802117E+03  0.18438174713E+03  0.12500148127E+03 0.  0.
          5    1    3    3  501    0  0.68109346324E+02 -0.83360673487E+01 -0.10552775772E+03  0.12596257668E+03  0.47000000000E+01 0.  1.
         -5    1    3    3    0  501 -0.33931380004E+02 -0.75513706298E+02 -0.19464933933E+03  0.21157531446E+03  0.47000000000E+01 0.  1.
          5    1    4    4  502    0 -0.72871535069E+02  0.59713963773E+02 -0.10145480849E+03  0.13853225710E+03  0.47000000000E+01 0. -1.
         -5    1    4    4    0  502  0.38693568749E+02  0.24135809874E+02  0.59678731782E+00  0.45849490029E+02  0.47000000000E+01 0. -1.
<mgrwt>
<rscale>  0 0.33402237E+03</rscale>
<asrwt>0</asrwt>
<pdfrwt beam="1">  1       21 0.92988089E-02 0.33402237E+03</pdfrwt>
<pdfrwt beam="2">  1       21 0.70996523E-01 0.33402237E+03</pdfrwt>
<totfact> 0.15910105E+05</totfact>
</mgrwt>
</event>
<event>
 8    1  0.4760912E-006  0.2538551E+03  0.7546771E-02  0.1110892E+00
         21   -1    0    0  504  503  0.00000000000E+00  0.00000000000E+00  0.10357721935E+03  0.10357721935E+03  0.00000000000E+00 0. -1.
         21   -1    0    0  503  504 -0.00000000000E+00 -0.00000000000E+00 -0.15554189551E+03  0.15554189551E+03  0.00000000000E+00 0. -1.
         25    2    1    2    0    0  0.11924206690E+02 -0.13253898280E+02 -0.38881600483E+02  0.13211603479E+03  0.12500006107E+03 0.  0.
         25    2    1    2    0    0 -0.11924206690E+02  0.13253898280E+02 -0.13083075676E+02  0.12700308007E+03  0.12506303592E+03 0.  0.
          5    1    3    3  501    0  0.62503077793E+02 -0.23944303259E+02  0.26890814145E+00  0.67097888966E+02  0.47000000000E+01 0.  1.
         -5    1    3    3    0  501 -0.50578871103E+02  0.10690404979E+02 -0.39150508625E+02  0.65018145823E+02  0.47000000000E+01 0.  1.
          5    1    4    4  502    0 -0.30138052935E+02  0.52920722866E+02  0.27711540136E+02  0.67074023289E+02  0.47000000000E+01 0. -1.
         -5    1    4    4    0  502  0.18213846245E+02 -0.39666824587E+02 -0.40794615812E+02  0.59929056785E+02  0.47000000000E+01 0. -1.
<mgrwt>
<rscale>  0 0.25385505E+03</rscale>
<asrwt>0</asrwt>
<pdfrwt beam="1">  1       21 0.15934957E-01 0.25385505E+03</pdfrwt>
<pdfrwt beam="2">  1       21 0.23929522E-01 0.25385505E+03</pdfrwt>
<totfact> 0.57200177E+05</totfact>
</mgrwt>
</event>
<event>
 8    1  0.4760912E-006  0.3189916E+03  0.7546771E-02  0.1076114E+00
         21   -1    0    0  504  503  0.00000000000E+00  0.00000000000E+00  0.55331129169E+03  0.55331129169E+03  0.00000000000E+00 0. -1.
         21   -1    0    0  503  504 -0.00000000000E+00 -0.00000000000E+00 -0.45975761654E+02  0.45975761654E+02  0.00000000000E+00 0. -1.
         25    2    1    2    0    0  0.68325487876E+02  0.71690403867E+02  0.24893157388E+03  0.29563500757E+03  0.12500097171E+03 0.  0.
         25    2    1    2    0    0 -0.68325487876E+02 -0.71690403867E+02  0.25840395616E+03  0.30365204578E+03  0.12499629612E+03 0.  0.
          5    1    3    3  501    0 -0.99323366918E+00 -0.61453748087E+00  0.16443378401E+03  0.16450508653E+03  0.47000000000E+01 0.  1.
         -5    1    3    3    0  501  0.69318721545E+02  0.72304941348E+02  0.84497789866E+02  0.13112992104E+03  0.47000000000E+01 0.  1.
          5    1    4    4  502    0 -0.98930638645E+02 -0.79165209495E+02  0.19330939025E+03  0.23118177267E+03  0.47000000000E+01 0. -1.
         -5    1    4    4    0  502  0.30605150769E+02  0.74748056278E+01  0.65094565912E+02  0.72470273105E+02  0.47000000000E+01 0. -1.
<mgrwt>
<rscale>  0 0.31899159E+03</rscale>
<asrwt>0</asrwt>
<pdfrwt beam="1">  1       21 0.85124809E-01 0.31899159E+03</pdfrwt>
<pdfrwt beam="2">  1       21 0.70731945E-02 0.31899159E+03</pdfrwt>
<totfact> 0.17097098E+05</totfact>
</mgrwt>
</event>
<event>
 8    1  0.4760912E-006  0.4740268E+03  0.7546771E-02  0.1020790E+00
         21   -1    0    0  504  503  0.00000000000E+00  0.00000000000E+00  0.58104918235E+03  0.58104918235E+03  0.00000000000E+00 0. -1.
         21   -1    0    0  503  504 -0.00000000000E+00 -0.00000000000E+00 -0.96679171402E+02  0.96679171402E+02  0.00000000000E+00 0. -1.
         25    2    1    2    0    0  0.51962744660E+02 -0.19360353286E+03  0.21477738093E+03  0.31927602660E+03  0.12500161212E+03 0.  0.
         25    2    1    2    0    0 -0.51962744660E+02  0.19360353286E+03  0.26959263002E+03  0.35845232716E+03  0.12500171963E+03 0.  0.
          5    1    3    3  501    0  0.12677783284E+01 -0.78681126363E+02  0.16724719323E+03  0.18489467421E+03  0.47000000000E+01 0. -1.
         -5    1    3    3    0  501  0.50694966332E+02 -0.11492240650E+03  0.47530187697E+02  0.13438135239E+03  0.47000000000E+01 0. -1.
          5    1    4    4  502    0 -0.76505093532E+02  0.83288904346E+02  0.18627459625E+03  0.21796877330E+03  0.47000000000E+01 0.  1.
         -5    1    4    4    0  502  0.24542348872E+02  0.11031462852E+03  0.83318033773E+02  0.14048355386E+03  0.47000000000E+01 0.  1.
<mgrwt>
<rscale>  0 0.47402681E+03</rscale>
<asrwt>0</asrwt>
<pdfrwt beam="1">  1       21 0.89392180E-01 0.47402681E+03</pdfrwt>
<pdfrwt beam="2">  1       21 0.14873719E-01 0.47402681E+03</pdfrwt>
<totfact> 0.38637213E+04</totfact>
</mgrwt>
</event>
<event>
 8    1  0.4760912E-006  0.3306583E+03  0.7546771E-02  0.1070846E+00
         21   -1    0    0  504  503  0.00000000000E+00  0.00000000000E+00  0.34263065614E+02  0.34263065614E+02  0.00000000000E+00 0.  1.
         21   -1    0    0  503  504 -0.00000000000E+00 -0.00000000000E+00 -0.79776090578E+03  0.79776090578E+03  0.00000000000E+00 0.  1.
         25    2    1    2    0    0  0.71587545957E+02 -0.32333209466E+02 -0.56895211986E+03  0.58780484971E+03  0.12505124342E+03 0.  0.
         25    2    1    2    0    0 -0.71587545957E+02  0.32333209466E+02 -0.19454572030E+03  0.24421912168E+03  0.12499891574E+03 0.  0.
          5    1    3    3  501    0  0.53732933101E+01  0.45098349244E+02 -0.18098384102E+03  0.18665469214E+03  0.47000000000E+01 0. -1.
         -5    1    3    3    0  501  0.66214252647E+02 -0.77431558710E+02 -0.38796827884E+03  0.40115015757E+03  0.47000000000E+01 0. -1.
          5    1    4    4  502    0 -0.50800964583E+02  0.72175731734E+02 -0.17276013365E+03  0.19405728029E+03  0.47000000000E+01 0.  1.
         -5    1    4    4    0  502 -0.20786581374E+02 -0.39842522268E+02 -0.21785586650E+02  0.50161841389E+02  0.47000000000E+01 0.  1.
<mgrwt>
<rscale>  0 0.33065834E+03</rscale>
<asrwt>0</asrwt>
<pdfrwt beam="1">  1       21 0.52712406E-02 0.33065834E+03</pdfrwt>
<pdfrwt beam="2">  1       21 0.12273245E+00 0.33065834E+03</pdfrwt>
<totfact> 0.11705036E+05</totfact>
</mgrwt>
</event>
<event>
 8    1  0.4760912E-006  0.3301595E+03  0.7546771E-02  0.1071066E+00
         21   -1    0    0  504  503  0.00000000000E+00  0.00000000000E+00  0.59869411963E+02  0.59869411963E+02  0.00000000000E+00 0. -1.
         21   -1    0    0  503  504 -0.00000000000E+00 -0.00000000000E+00 -0.45517943209E+03  0.45517943209E+03  0.00000000000E+00 0. -1.
         25    2    1    2    0    0 -0.56368341146E+02  0.47123073684E+02 -0.74525346312E+02  0.16302083095E+03  0.12499516040E+03 0.  0.
         25    2    1    2    0    0  0.56368341146E+02 -0.47123073684E+02 -0.32078467381E+03  0.35202801310E+03  0.12499176412E+03 0.  0.
          5    1    3    3  501    0 -0.28536017342E+02  0.26557325063E+02  0.32166854340E+02  0.50758174893E+02  0.47000000000E+01 0. -1.
         -5    1    3    3    0  501 -0.27832323805E+02  0.20565748621E+02 -0.10669220065E+03  0.11226265606E+03  0.47000000000E+01 0. -1.
          5    1    4    4  502    0  0.55334612454E+02 -0.62003146655E+02 -0.32527583288E+03  0.33575700587E+03  0.47000000000E+01 0. -1.
         -5    1    4    4    0  502  0.10337286928E+01  0.14880072971E+02  0.44911590710E+01  0.16271007235E+02  0.47000000000E+01 0. -1.
<mgrwt>
<rscale>  0 0.33015951E+03</rscale>
<asrwt>0</asrwt>
<pdfrwt beam="1">  1       21 0.92106788E-02 0.33015951E+03</pdfrwt>
<pdfrwt beam="2">  1       21 0.70027605E-01 0.33015951E+03</pdfrwt>
<totfact> 0.16701930E+05</totfact>
</mgrwt>
</event>
<event>
 8    1  0.4760912E-006  0.2942750E+03  0.7546771E-02  0.1088138E+00
         21   -1    0    0  504  503  0.00000000000E+00  0.00000000000E+00  0.10473532161E+04  0.10473532161E+04  0.00000000000E+00 0.  1.
         21   -1    0    0  503  504 -0.00000000000E+00 -0.00000000000E+00 -0.20670618365E+02  0.20670618365E+02  0.00000000000E+00 0.  1.
         25    2    1    2    0    0  0.52356174965E+02 -0.11064962891E+02  0.30927900434E+03  0.33784891444E+03  0.12499913601E+03 0.  0.
         25    2    1    2    0    0 -0.52356174965E+02  0.11064962891E+02  0.71740359345E+03  0.73017492008E+03  0.12499558214E+03 0.  0.
          5    1    3    3  501    0 -0.37626987912E+01 -0.37304503736E+02  0.21573994313E+02  0.43512195208E+02  0.47000000000E+01 0. -1.
         -5    1    3    3    0  501  0.56118873756E+02  0.26239540845E+02  0.28770501002E+03  0.29433671923E+03  0.47000000000E+01 0. -1.
          5    1    4    4  502    0 -0.39919700677E+02 -0.54256836424E+02  0.41989077556E+03  0.42528548083E+03  0.47000000000E+01 0. -1.
         -5    1    4    4    0  502 -0.12436474288E+02  0.65321799315E+02  0.29751281789E+03  0.30488943925E+03  0.47000000000E+01 0. -1.
<mgrwt>
<rscale>  0 0.29427496E+03</rscale>
<asrwt>0</asrwt>
<pdfrwt beam="1">  1       21 0.16113122E+00 0.29427496E+03</pdfrwt>
<pdfrwt beam="2">  1       21 0.31800960E-02 0.29427496E+03</pdfrwt>
<totfact> 0.13621215E+05</totfact>
</mgrwt>
</event>
<event>
 8    1  0.4760912E-006  0.3371957E+03  0.7546771E-02  0.1067997E+00
         21   -1    0    0  504  503  0.00000000000E+00  0.00000000000E+00  0.10431152569E+03  0.10431152569E+03  0.00000000000E+00 0. -1.
         21   -1    0    0  503  504 -0.00000000000E+00 -0.00000000000E+00 -0.27250324211E+03  0.27250324211E+03  0.00000000000E+00 0. -1.
         25    2    1    2    0    0 -0.70204522038E+01  0.55978924489E+02 -0.19360536466E+03  0.23725434187E+03  0.12499463499E+03 0.  0.
         25    2    1    2    0    0  0.70204522038E+01 -0.55978924489E+02  0.25413648243E+02  0.13956042592E+03  0.12509329411E+03 0.  0.
          5    1    3    3  501    0  0.49269916127E+02  0.14801402820E+02 -0.13980999845E+03  0.14904875654E+03  0.47000000000E+01 0. -1.
         -5    1    3    3    0  501 -0.56290368330E+02  0.41177521669E+02 -0.53795366214E+02  0.88205585331E+02  0.47000000000E+01 0. -1.
          5    1    4    4  502    0  0.13157995723E+02  0.12571236104E+01 -0.45782568065E+02  0.47883679368E+02  0.47000000000E+01 0.  1.
         -5    1    4    4    0  502 -0.61375435195E+01 -0.57236048099E+02  0.71196216308E+02  0.91676746556E+02  0.47000000000E+01 0.  1.
<mgrwt>
<rscale>  0 0.33719566E+03</rscale>
<asrwt>0</asrwt>
<pdfrwt beam="1">  1       21 0.16047927E-01 0.33719566E+03</pdfrwt>
<pdfrwt beam="2">  1       21 0.41923575E-01 0.33719566E+03</pdfrwt>
<totfact> 0.18284146E+05</totfact>
</mgrwt>
</event>
<event>
 8    1  0.4760912E-006  0.3644980E+03  0.7546771E-02  0.1056817E+00
         21   -1    0    0  504  503  0.00000000000E+00  0.00000000000E+00  0.20428171125E+03  0.20428171125E+03  0.00000000000E+00 0. -1.
         21   -1    0    0  503  504 -0.00000000000E+00 -0.00000000000E+00 -0.16259265106E+03  0.16259265106E+03  0.00000000000E+00 0. -1.
         25    2    1    2    0    0  0.93467825500E+02 -0.94064081314E+02  0.23218715884E+02  0.18370494776E+03  0.12499645302E+03 0.  0.
         25    2    1    2    0    0 -0.93467825500E+02  0.94064081314E+02  0.18470344299E+02  0.18316941455E+03  0.12500238002E+03 0.  0.
          5    1    3    3  501    0  0.45659278624E+02  0.73554537673E+01 -0.34138656945E+02  0.57675040724E+02  0.47000000000E+01 0.  1.
         -5    1    3    3    0  501  0.47808546877E+02 -0.10141953508E+03  0.57357372829E+02  0.12602990704E+03  0.47000000000E+01 0.  1.
          5    1    4    4  502    0 -0.25964004736E+02  0.15672944122E+02  0.63283232437E+02  0.70332270168E+02  0.47000000000E+01 0.  1.
         -5    1    4    4    0  502 -0.67503820764E+02  0.78391137192E+02 -0.44812888138E+02  0.11283714438E+03  0.47000000000E+01 0.  1.
<mgrwt>
<rscale>  0 0.36449804E+03</rscale>
<asrwt>0</asrwt>
<pdfrwt beam="1">  1       21 0.31427956E-01 0.36449804E+03</pdfrwt>
<pdfrwt beam="2">  1       21 0.25014254E-01 0.36449804E+03</pdfrwt>
<totfact> 0.14049056E+05</totfact>
</mgrwt>
</event>
<event>
 8    1  0.4760912E-006  0.2852023E+03  0.7546771E-02  0.1092881E+00
         21   -1    0    0  504  503  0.00000000000E+00  0.00000000000E+00  0.11181375386E+02  0.11181375386E+02  0.00000000000E+00 0.  1.
         21   -1    0    0  503  504 -0.00000000000E+00 -0.00000000000E+00 -0.18186567278E+04  0.18186567278E+04  0.00000000000E+00 0.  1.
         25    2    1    2    0    0  0.67837322860E+02 -0.77444816669E+01 -0.85923759456E+03  0.87096290711E+03  0.12500104910E+03 0.  0.
         25    2    1    2    0    0 -0.67837322860E+02  0.77444816669E+01 -0.94823775787E+03  0.95887519610E+03  0.12499966749E+03 0.  0.
          5    1    3    3  501    0  0.85761053599E+02 -0.47434131149E+02 -0.55870949069E+03  0.56725949978E+03  0.47000000000E+01 0.  1.
         -5    1    3    3    0  501 -0.17923730739E+02  0.39689649482E+02 -0.30052810388E+03  0.30370340732E+03  0.47000000000E+01 0.  1.
          5    1    4    4  502    0 -0.13318901583E+02 -0.56376355413E+02 -0.39427167528E+03  0.39853222018E+03  0.47000000000E+01 0. -1.
         -5    1    4    4    0  502 -0.54518421278E+02  0.64120837080E+02 -0.55396608259E+03  0.56034297592E+03  0.47000000000E+01 0. -1.
<mgrwt>
<rscale>  0 0.28520227E+03</rscale>
<asrwt>0</asrwt>
<pdfrwt beam="1">  1       21 0.17202119E-02 0.28520227E+03</pdfrwt>
<pdfrwt beam="2">  1       21 0.27979329E+00 0.28520227E+03</pdfrwt>
<totfact> 0.65859744E+04</totfact>
</mgrwt>
</event>
<event>
 8    1  0.4760912E-006  0.6357263E+03  0.7546771E-02  0.9833938E-01
         21   -1    0    0  504  503  0.00000000000E+00  0.00000000000E+00  0.27944437703E+03  0.27944437703E+03  0.00000000000E+00 0.  1.
         21   -1    0    0  503  504 -0.00000000000E+00 -0.00000000000E+00 -0.36156389507E+03  0.36156389507E+03  0.00000000000E+00 0.  1.
         25    2    1    2    0    0 -0.80218965285E+02 -0.10546278159E+03 -0.30371378224E+03  0.35415123035E+03  0.12499420684E+03 0.  0.
         25    2    1    2    0    0  0.80218965285E+02  0.10546278159E+03  0.22159426420E+03  0.28685704176E+03  0.12500185513E+03 0.  0.
          5    1    3    3  501    0 -0.23530894896E+02 -0.36960289794E+02 -0.24160110055E+03  0.24558694555E+03  0.47000000000E+01 0. -1.
         -5    1    3    3    0  501 -0.56688070389E+02 -0.68502491800E+02 -0.62112681683E+02  0.10856428480E+03  0.47000000000E+01 0. -1.
          5    1    4    4  502    0 -0.13886935787E+02  0.82103790676E+02  0.12195965605E+03  0.14775021873E+03  0.47000000000E+01 0. -1.
         -5    1    4    4    0  502  0.94105901072E+02  0.23358990918E+02  0.99634608146E+02  0.13910682303E+03  0.47000000000E+01 0. -1.
<mgrwt>
<rscale>  0 0.63572635E+03</rscale>
<asrwt>0</asrwt>
<pdfrwt beam="1">  1       21 0.42991443E-01 0.63572635E+03</pdfrwt>
<pdfrwt beam="2">  1       21 0.55625215E-01 0.63572635E+03</pdfrwt>
<totfact> 0.13646219E+04</totfact>
</mgrwt>
</event>
<event>
 8    1  0.4760912E-006  0.3320619E+03  0.7546771E-02  0.1070228E+00
         21   -1    0    0  504  503  0.00000000000E+00  0.00000000000E+00  0.77233336379E+03  0.77233336379E+03  0.00000000000E+00 0. -1.
         21   -1    0    0  503  504 -0.00000000000E+00 -0.00000000000E+00 -0.35692202901E+02  0.35692202901E+02  0.00000000000E+00 0. -1.
         25    2    1    2    0    0  0.14338184736E+02 -0.73895831307E+02  0.56106900020E+03  0.57973302689E+03  0.12500312819E+03 0.  0.
         25    2    1    2    0    0 -0.14338184736E+02  0.73895831307E+02  0.17557216069E+03  0.22829253980E+03  0.12500289074E+03 0.  0.
          5    1    3    3  501    0 -0.53721516119E+02 -0.15667332466E+02  0.20744904946E+03  0.21491548274E+03  0.47000000000E+01 0.  1.
         -5    1    3    3    0  501  0.68059700855E+02 -0.58228498841E+02  0.35361995074E+03  0.36481754415E+03  0.47000000000E+01 0.  1.
          5    1    4    4  502    0 -0.37285215645E+02  0.70760804474E+02  0.37946687358E+02  0.88652805015E+02  0.47000000000E+01 0.  1.
         -5    1    4    4    0  502  0.22947030910E+02  0.31350268323E+01  0.13762547333E+03  0.13963973478E+03  0.47000000000E+01 0.  1.
<mgrwt>
<rscale>  0 0.33206192E+03</rscale>
<asrwt>0</asrwt>
<pdfrwt beam="1">  1       21 0.11882051E+00 0.33206192E+03</pdfrwt>
<pdfrwt beam="2">  1       21 0.54911087E-02 0.33206192E+03</pdfrwt>
<totfact> 0.11836320E+05</totfact>
</mgrwt>
</event>
<event>
 8    1  0.4760912E-006  0.2663147E+03  0.7546771E-02  0.1103408E+00
         21   -1    0    0  504  503  0.00000000000E+00  0.00000000000E+00  0.72660545030E+03  0.72660545030E+03  0.00000000000E+00 0. -1.
         21   -1    0    0  503  504 -0.00000000000E+00 -0.00000000000E+00 -0.24402348581E+02  0.24402348581E+02  0.00000000000E+00 0. -1.
         25    2    1    2    0    0  0.55922223305E+01 -0.45390477691E+02  0.36138270488E+03  0.38511902837E+03  0.12501055239E+03 0.  0.
         25    2    1    2    0    0 -0.55922223305E+01  0.45390477691E+02  0.34082039684E+03  0.36588877051E+03  0.12499792426E+03 0.  0.
          5    1    3    3  501    0 -0.51298135371E+02 -0.23533246090E+02  0.85568542358E+02  0.10261275654E+03  0.47000000000E+01 0. -1.
         -5    1    3    3    0  501  0.56890357701E+02 -0.21857231601E+02  0.27581416252E+03  0.28250627183E+03  0.47000000000E+01 0. -1.
          5    1    4    4  502    0  0.23310195184E+02  0.74049705973E+02  0.29186543384E+03  0.30205007139E+03  0.47000000000E+01 0.  1.
         -5    1    4    4    0  502 -0.28902417515E+02 -0.28659228282E+02  0.48954962999E+02  0.63838699126E+02  0.47000000000E+01 0.  1.
<mgrwt>
<rscale>  0 0.26631470E+03</rscale>
<asrwt>0</asrwt>
<pdfrwt beam="1">  1       21 0.11178544E+00 0.26631470E+03</pdfrwt>
<pdfrwt beam="2">  1       21 0.37542080E-02 0.26631470E+03</pdfrwt>
<totfact> 0.26770169E+05</totfact>
</mgrwt>
</event>
<event>
 8    1  0.4760912E-006  0.3275361E+03  0.7546771E-02  0.1072232E+00
         21   -1    0    0  504  503  0.00000000000E+00  0.00000000000E+00  0.29862688814E+02  0.29862688814E+02  0.00000000000E+00 0. -1.
         21   -1    0    0  503  504 -0.00000000000E+00 -0.00000000000E+00 -0.89810957235E+03  0.89810957235E+03  0.00000000000E+00 0. -1.
         25    2    1    2    0    0 -0.35712714297E+02  0.76221699624E+02 -0.61579449986E+03  0.63395986266E+03  0.12496837981E+03 0.  0.
         25    2    1    2    0    0  0.35712714297E+02 -0.76221699624E+02 -0.25245238368E+03  0.29401239850E+03  0.12500375592E+03 0.  0.
          5    1    3    3  501    0 -0.32823111798E+01  0.70890132057E+02 -0.58290195836E+03  0.58722480146E+03  0.47000000000E+01 0. -1.
         -5    1    3    3    0  501 -0.32430403118E+02  0.53315675664E+01 -0.32892541494E+02  0.46735061196E+02  0.47000000000E+01 0. -1.
          5    1    4    4  502    0 -0.39580468763E+02 -0.57243606041E+00 -0.10177177619E+03  0.10930016294E+03  0.47000000000E+01 0. -1.
         -5    1    4    4    0  502  0.75293183060E+02 -0.75649263563E+02 -0.15068060749E+03  0.18471223556E+03  0.47000000000E+01 0. -1.
<mgrwt>
<rscale>  0 0.32753605E+03</rscale>
<asrwt>0</asrwt>
<pdfrwt beam="1">  1       21 0.45942599E-02 0.32753605E+03</pdfrwt>
<pdfrwt beam="2">  1       21 0.13817070E+00 0.32753605E+03</pdfrwt>
<totfact> 0.10931712E+05</totfact>
</mgrwt>
</event>
<event>
 8    1  0.4760912E-006  0.2796506E+03  0.7546771E-02  0.1095880E+00
         21   -1    0    0  504  503  0.00000000000E+00  0.00000000000E+00  0.22467517538E+02  0.22467517538E+02  0.00000000000E+00 0. -1.
         21   -1    0    0  503  504 -0.00000000000E+00 -0.00000000000E+00 -0.87019451742E+03  0.87019451742E+03  0.00000000000E+00 0. -1.
         25    2    1    2    0    0  0.53706885130E+02  0.52355109909E+01 -0.32218348575E+03  0.34977047062E+03  0.12500137417E+03 0.  0.
         25    2    1    2    0    0 -0.53706885130E+02 -0.52355109909E+01 -0.52554351413E+03  0.54289156433E+03  0.12499370101E+03 0.  0.
          5    1    3    3  501    0  0.86262568975E+02  0.28796732269E+02 -0.26089477649E+03  0.27633070224E+03  0.47000000000E+01 0. -1.
         -5    1    3    3    0  501 -0.32555683845E+02 -0.23561221278E+02 -0.61288709255E+02  0.73439768388E+02  0.47000000000E+01 0. -1.
          5    1    4    4  502    0 -0.35247543238E+02 -0.73523952814E+01 -0.52217041129E+03  0.52343144293E+03  0.47000000000E+01 0. -1.
         -5    1    4    4    0  502 -0.18459341892E+02  0.21168842904E+01 -0.33731028387E+01  0.19460121401E+02  0.47000000000E+01 0. -1.
<mgrwt>
<rscale>  0 0.27965057E+03</rscale>
<asrwt>0</asrwt>
<pdfrwt beam="1">  1       21 0.34565415E-02 0.27965057E+03</pdfrwt>
<pdfrwt beam="2">  1       21 0.13387607E+00 0.27965057E+03</pdfrwt>
<totfact> 0.19475771E+05</totfact>
</mgrwt>
</event>
<event>
 8    1  0.4760912E-006  0.4593696E+03  0.7546771E-02  0.1024964E+00
         21   -1    0    0  504  503  0.00000000000E+00  0.00000000000E+00  0.13564407666E+04  0.13564407666E+04  0.00000000000E+00 0.  1.
         21   -1    0    0  503  504 -0.00000000000E+00 -0.00000000000E+00 -0.38892307153E+02  0.38892307153E+02  0.00000000000E+00 0.  1.
         25    2    1    2    0    0  0.16332064424E+03 -0.98393696392E+02  0.57421001232E+03  0.61781635815E+03  0.12499984732E+03 0.  0.
         25    2    1    2    0    0 -0.16332064424E+03  0.98393696392E+02  0.74333844714E+03  0.77751671561E+03  0.12500097494E+03 0.  0.
          5    1    3    3  501    0  0.44699098259E+02 -0.27689390512E+02  0.35351489465E+03  0.35743472477E+03  0.47000000000E+01 0. -1.
         -5    1    3    3    0  501  0.11862154598E+03 -0.70704305880E+02  0.22069511767E+03  0.26038163338E+03  0.47000000000E+01 0. -1.
          5    1    4    4  502    0 -0.34345660344E+02 -0.20185439267E+02  0.26623013167E+03  0.26923530480E+03  0.47000000000E+01 0.  1.
         -5    1    4    4    0  502 -0.12897498389E+03  0.11857913566E+03  0.47710831547E+03  0.50828141081E+03  0.47000000000E+01 0.  1.
<mgrwt>
<rscale>  0 0.45936962E+03</rscale>
<asrwt>0</asrwt>
<pdfrwt beam="1">  1       21 0.20868316E+00 0.45936962E+03</pdfrwt>
<pdfrwt beam="2">  1       21 0.59834329E-02 0.45936962E+03</pdfrwt>
<totfact> 0.20553989E+04</totfact>
</mgrwt>
</event>
<event>
 8    1  0.4760912E-006  0.3183628E+03  0.7546771E-02  0.1076405E+00
         21   -1    0    0  504  503  0.00000000000E+00  0.00000000000E+00  0.27219651856E+03  0.27219651856E+03  0.00000000000E+00 0. -1.
         21   -1    0    0  503  504 -0.00000000000E+00 -0.00000000000E+00 -0.93089806271E+02  0.93089806271E+02  0.00000000000E+00 0. -1.
         25    2    1    2    0    0 -0.43368578700E+02  0.50974798056E+02  0.65405650957E+01  0.14194006651E+03  0.12499975933E+03 0.  0.
         25    2    1    2    0    0  0.43368578700E+02 -0.50974798056E+02  0.17256614720E+03  0.22334625833E+03  0.12500084918E+03 0.  0.
          5    1    3    3  501    0 -0.76467148819E+02  0.17920011540E+02  0.35931702088E+02  0.86495831559E+02  0.47000000000E+01 0. -1.
         -5    1    3    3    0  501  0.33098570119E+02  0.33054786515E+02 -0.29391136992E+02  0.55444234950E+02  0.47000000000E+01 0. -1.
          5    1    4    4  502    0  0.86749869862E+02 -0.23506857666E+02  0.10353935511E+03  0.13718819313E+03  0.47000000000E+01 0. -1.
         -5    1    4    4    0  502 -0.43381291162E+02 -0.27467940389E+02  0.69026792088E+02  0.86158065195E+02  0.47000000000E+01 0. -1.
<mgrwt>
<rscale>  0 0.31836282E+03</rscale>
<asrwt>0</asrwt>
<pdfrwt beam="1">  1       21 0.41876387E-01 0.31836282E+03</pdfrwt>
<pdfrwt beam="2">  1       21 0.14321509E-01 0.31836282E+03</pdfrwt>
<totfact> 0.22694932E+05</totfact>
</mgrwt>
</event>
<event>
 8    1  0.4760912E-006  0.2719127E+03  0.7546771E-02  0.1100190E+00
         21   -1    0    0  504  503  0.00000000000E+00  0.00000000000E+00  0.89963902018E+03  0.89963902018E+03  0.00000000000E+00 0. -1.
         21   -1    0    0  503  504 -0.00000000000E+00 -0.00000000000E+00 -0.20546162935E+02  0.20546162935E+02  0.00000000000E+00 0. -1.
         25    2    1    2    0    0 -0.34103425369E+01 -0.50722817405E+02  0.49553007226E+03  0.51357504155E+03  0.12499934457E+03 0.  0.
         25    2    1    2    0    0  0.34103425369E+01  0.50722817405E+02  0.38356278498E+03  0.40661014157E+03  0.12500784999E+03 0.  0.
          5    1    3    3  501    0  0.42407800673E+02  0.16244401040E+02  0.27030085666E+03  0.27412943154E+03  0.47000000000E+01 0. -1.
         -5    1    3    3    0  501 -0.45818143210E+02 -0.66967218445E+02  0.22522921560E+03  0.23944561001E+03  0.47000000000E+01 0. -1.
          5    1    4    4  502    0 -0.23362994204E+02  0.79979593892E+02  0.32625815564E+03  0.33676258560E+03  0.47000000000E+01 0. -1.
         -5    1    4    4    0  502  0.26773336741E+02 -0.29256776487E+02  0.57304629339E+02  0.69847555966E+02  0.47000000000E+01 0. -1.
<mgrwt>
<rscale>  0 0.27191271E+03</rscale>
<asrwt>0</asrwt>
<pdfrwt beam="1">  1       21 0.13840597E+00 0.27191271E+03</pdfrwt>
<pdfrwt beam="2">  1       21 0.31609488E-02 0.27191271E+03</pdfrwt>
<totfact> 0.20802899E+05</totfact>
</mgrwt>
</event>
<event>
 8    1  0.4760912E-006  0.3015428E+03  0.7546771E-02  0.1084472E+00
         21   -1    0    0  504  503  0.00000000000E+00  0.00000000000E+00  0.45903177316E+03  0.45903177316E+03  0.00000000000E+00 0. -1.
         21   -1    0    0  503  504 -0.00000000000E+00 -0.00000000000E+00 -0.49521656623E+02  0.49521656623E+02  0.00000000000E+00 0. -1.
         25    2    1    2    0    0  0.60959249397E+01  0.81145171308E+01  0.63554850687E+02  0.14059551447E+03  0.12499949582E+03 0.  0.
         25    2    1    2    0    0 -0.60959249397E+01 -0.81145171308E+01  0.34595526585E+03  0.36795791531E+03  0.12491987744E+03 0.  0.
          5    1    3    3  501    0  0.16758276150E+00 -0.37333004167E+02  0.82580276086E+02  0.90748957474E+02  0.47000000000E+01 0.  1.
         -5    1    3    3    0  501  0.59283421782E+01  0.45447521298E+02 -0.19025425399E+02  0.49846557000E+02  0.47000000000E+01 0.  1.
          5    1    4    4  502    0 -0.24711498296E+02 -0.62651746847E+02  0.18586764739E+03  0.19774926518E+03  0.47000000000E+01 0. -1.
         -5    1    4    4    0  502  0.18615573357E+02  0.54537229716E+02  0.16008761846E+03  0.17020865014E+03  0.47000000000E+01 0. -1.
<mgrwt>
<rscale>  0 0.30154279E+03</rscale>
<asrwt>0</asrwt>
<pdfrwt beam="1">  1       21 0.70620270E-01 0.30154279E+03</pdfrwt>
<pdfrwt beam="2">  1       21 0.76187167E-02 0.30154279E+03</pdfrwt>
<totfact> 0.23057133E+05</totfact>
</mgrwt>
</event>
<event>
 8    1  0.4760912E-006  0.3632726E+03  0.7546771E-02  0.1057296E+00
         21   -1    0    0  504  503  0.00000000000E+00  0.00000000000E+00  0.48200744568E+03  0.48200744568E+03  0.00000000000E+00 0.  1.
         21   -1    0    0  503  504 -0.00000000000E+00 -0.00000000000E+00 -0.68446555276E+02  0.68446555276E+02  0.00000000000E+00 0.  1.
         25    2    1    2    0    0  0.66483385849E+01  0.10339733562E+03  0.83391977731E+02  0.18252457148E+03  0.12500315127E+03 0.  0.
         25    2    1    2    0    0 -0.66483385849E+01 -0.10339733562E+03  0.33016891267E+03  0.36792942947E+03  0.12500137902E+03 0.  0.
          5    1    3    3  501    0 -0.32002527245E+02  0.26506649871E+02 -0.21290903000E+02  0.46927143403E+02  0.47000000000E+01 0. -1.
         -5    1    3    3    0  501  0.38650865829E+02  0.76890685745E+02  0.10468288073E+03  0.13559742808E+03  0.47000000000E+01 0. -1.
          5    1    4    4  502    0  0.50837627776E+02 -0.87783652494E+02  0.22753842419E+03  0.24917114305E+03  0.47000000000E+01 0. -1.
         -5    1    4    4    0  502 -0.57485966361E+02 -0.15613683122E+02  0.10263048848E+03  0.11875828643E+03  0.47000000000E+01 0. -1.
<mgrwt>
<rscale>  0 0.36327262E+03</rscale>
<asrwt>0</asrwt>
<pdfrwt beam="1">  1       21 0.74154990E-01 0.36327262E+03</pdfrwt>
<pdfrwt beam="2">  1       21 0.10530240E-01 0.36327262E+03</pdfrwt>
<totfact> 0.11471314E+05</totfact>
</mgrwt>
</event>
<event>
 8    1  0.4760912E-006  0.3092016E+03  0.7546771E-02  0.1080729E+00
         21   -1    0    0  504  503  0.00000000000E+00  0.00000000000E+00  0.77699190315E+02  0.77699190315E+02  0.00000000000E+00 0.  1.
         21   -1    0    0  503  504 -0.00000000000E+00 -0.00000000000E+00 -0.30761466276E+03  0.30761466276E+03  0.00000000000E+00 0.  1.
         25    2    1    2    0    0  0.85812326057E+02 -0.26698622119E+02 -0.13255166874E+03  0.20315342532E+03  0.12499919043E+03 0.  0.
         25    2    1    2    0    0 -0.85812326057E+02  0.26698622119E+02 -0.97363803706E+02  0.18216042775E+03  0.12500455768E+03 0.  0.
          5    1    3    3  501    0  0.39508635179E+02 -0.50849497194E+02 -0.13605939425E+03  0.15060163473E+03  0.47000000000E+01 0.  1.
         -5    1    3    3    0  501  0.46303690878E+02  0.24150875075E+02  0.35077255168E+01  0.52551790589E+02  0.47000000000E+01 0.  1.
          5    1    4    4  502    0  0.21661435591E+02  0.39726375423E+02 -0.25778647704E+02  0.52287965858E+02  0.47000000000E+01 0.  1.
         -5    1    4    4    0  502 -0.10747376165E+03 -0.13027753304E+02 -0.71585156003E+02  0.12987246190E+03  0.47000000000E+01 0.  1.
<mgrwt>
<rscale>  0 0.30920162E+03</rscale>
<asrwt>0</asrwt>
<pdfrwt beam="1">  1       21 0.11953721E-01 0.30920162E+03</pdfrwt>
<pdfrwt beam="2">  1       21 0.47325333E-01 0.30920162E+03</pdfrwt>
<totfact> 0.24515717E+05</totfact>
</mgrwt>
</event>
<event>
 8    1  0.4760912E-006  0.3044230E+03  0.7546771E-02  0.1083050E+00
         21   -1    0    0  504  503  0.00000000000E+00  0.00000000000E+00  0.59398057567E+02  0.59398057567E+02  0.00000000000E+00 0.  1.
         21   -1    0    0  503  504 -0.00000000000E+00 -0.00000000000E+00 -0.39005218399E+03  0.39005218399E+03  0.00000000000E+00 0.  1.
         25    2    1    2    0    0  0.23954848413E+02  0.24371436342E+02 -0.28318805718E+03  0.31142975395E+03  0.12500085696E+03 0.  0.
         25    2    1    2    0    0 -0.23954848413E+02 -0.24371436342E+02 -0.47466069240E+02  0.13802048761E+03  0.12501530146E+03 0.  0.
          5    1    3    3  501    0 -0.27369074582E+02 -0.30984259416E+01 -0.65571290901E+01  0.28701087587E+02  0.47000000000E+01 0.  1.
         -5    1    3    3    0  501  0.51323922995E+02  0.27469862283E+02 -0.27663092809E+03  0.28272866636E+03  0.47000000000E+01 0.  1.
          5    1    4    4  502    0 -0.68709925998E+02 -0.34714756228E+02 -0.84820114101E+01  0.77589965512E+02  0.47000000000E+01 0. -1.
         -5    1    4    4    0  502  0.44755077584E+02  0.10343319887E+02 -0.38984057830E+02  0.60430522095E+02  0.47000000000E+01 0. -1.
<mgrwt>
<rscale>  0 0.30442301E+03</rscale>
<asrwt>0</asrwt>
<pdfrwt beam="1">  1       21 0.91381630E-02 0.30442301E+03</pdfrwt>
<pdfrwt beam="2">  1       21 0.60008026E-01 0.30442301E+03</pdfrwt>
<totfact> 0.23936297E+05</totfact>
</mgrwt>
</event>
<event>
 8    1  0.4760912E-006  0.3368120E+03  0.7546771E-02  0.1068162E+00
         21   -1    0    0  504  503  0.00000000000E+00  0.00000000000E+00  0.38959033941E+03  0.38959033941E+03  0.00000000000E+00 0. -1.
         21   -1    0    0  503  504 -0.00000000000E+00 -0.00000000000E+00 -0.72795917764E+02  0.72795917764E+02  0.00000000000E+00 0. -1.
         25    2    1    2    0    0 -0.63365918283E+01 -0.10410070461E+03  0.21758538631E+03  0.27174384741E+03  0.12499683664E+03 0.  0.
         25    2    1    2    0    0  0.63365918283E+01  0.10410070461E+03  0.99209035331E+02  0.19064240977E+03  0.12499994646E+03 0.  0.
          5    1    3    3  501    0 -0.16618954711E+02  0.24658507083E+02  0.65941795595E+02  0.72488909728E+02  0.47000000000E+01 0.  1.
         -5    1    3    3    0  501  0.10282362883E+02 -0.12875921170E+03  0.15164359072E+03  0.19925493768E+03  0.47000000000E+01 0.  1.
          5    1    4    4  502    0 -0.16643412032E+02  0.93276052504E+02  0.12312901937E+03  0.15543574411E+03  0.47000000000E+01 0. -1.
         -5    1    4    4    0  502  0.22980003860E+02  0.10824652109E+02 -0.23919984038E+02  0.35206665662E+02  0.47000000000E+01 0. -1.
<mgrwt>
<rscale>  0 0.33681203E+03</rscale>
<asrwt>0</asrwt>
<pdfrwt beam="1">  1       21 0.59936974E-01 0.33681203E+03</pdfrwt>
<pdfrwt beam="2">  1       21 0.11199372E-01 0.33681203E+03</pdfrwt>
<totfact> 0.16565096E+05</totfact>
</mgrwt>
</event>
<event>
 8    1  0.4760912E-006  0.2769118E+03  0.7546771E-02  0.1097388E+00
         21   -1    0    0  504  503  0.00000000000E+00  0.00000000000E+00  0.80391697953E+03  0.80391697953E+03  0.00000000000E+00 0. -1.
         21   -1    0    0  503  504 -0.00000000000E+00 -0.00000000000E+00 -0.23845789953E+02  0.23845789953E+02  0.00000000000E+00 0. -1.
         25    2    1    2    0    0  0.58405427152E+02  0.79300776392E+01  0.36492958839E+03  0.39022387426E+03  0.12500794977E+03 0.  0.
         25    2    1    2    0    0 -0.58405427152E+02 -0.79300776392E+01  0.41514160119E+03  0.43753889523E+03  0.12499462287E+03 0.  0.
          5    1    3    3  501    0  0.63532737177E+02 -0.14736154050E+02  0.36014958104E+03  0.36603739379E+03  0.47000000000E+01 0.  1.
         -5    1    3    3    0  501 -0.51273100249E+01  0.22666231689E+02  0.47800073484E+01  0.24186480466E+02  0.47000000000E+01 0.  1.
          5    1    4    4  502    0 -0.46129814741E+02 -0.42945444325E+02  0.88428973473E+02  0.10869243003E+03  0.47000000000E+01 0. -1.
         -5    1    4    4    0  502 -0.12275612411E+02  0.35015366686E+02  0.32671262772E+03  0.32884646520E+03  0.47000000000E+01 0. -1.
<mgrwt>
<rscale>  0 0.27691179E+03</rscale>
<asrwt>0</asrwt>
<pdfrwt beam="1">  1       21 0.12367951E+00 0.27691179E+03</pdfrwt>
<pdfrwt beam="2">  1       21 0.36685837E-02 0.27691179E+03</pdfrwt>
<totfact> 0.21582523E+05</totfact>
</mgrwt>
</event>
<event>
 8    1  0.4760912E-006  0.3395862E+03  0.7546771E-02  0.1066972E+00
         21   -1    0    0  504  503  0.00000000000E+00  0.00000000000E+00  0.43806026057E+03  0.43806026057E+03  0.00000000000E+00 0. -1.
         21   -1    0    0  503  504 -0.00000000000E+00 -0.00000000000E+00 -0.65812174805E+02  0.65812174805E+02  0.00000000000E+00 0. -1.
         25    2    1    2    0    0 -0.78392377116E+02 -0.68347889061E+02  0.25863122622E+03  0.30550180671E+03  0.12499777599E+03 0.  0.
         25    2    1    2    0    0  0.78392377116E+02  0.68347889061E+02  0.11361685954E+03  0.19837062866E+03  0.12500126724E+03 0.  0.
          5    1    3    3  501    0 -0.91790463994E+02 -0.91762650410E+02  0.23830598257E+03  0.27139952951E+03  0.47000000000E+01 0. -1.
         -5    1    3    3    0  501  0.13398086879E+02  0.23414761350E+02  0.20325243645E+02  0.34102277201E+02  0.47000000000E+01 0. -1.
          5    1    4    4  502    0  0.38644170779E+02 -0.20910231516E+02  0.86059733201E+02  0.96741807901E+02  0.47000000000E+01 0. -1.
         -5    1    4    4    0  502  0.39748206336E+02  0.89258120577E+02  0.27557126344E+02  0.10162882076E+03  0.47000000000E+01 0. -1.
<mgrwt>
<rscale>  0 0.33958621E+03</rscale>
<asrwt>0</asrwt>
<pdfrwt beam="1">  1       21 0.67393885E-01 0.33958621E+03</pdfrwt>
<pdfrwt beam="2">  1       21 0.10124950E-01 0.33958621E+03</pdfrwt>
<totfact> 0.15332911E+05</totfact>
</mgrwt>
</event>
<event>
 8    1  0.4760912E-006  0.2644005E+03  0.7546771E-02  0.1104528E+00
         21   -1    0    0  504  503  0.00000000000E+00  0.00000000000E+00  0.13191578656E+04  0.13191578656E+04  0.00000000000E+00 0. -1.
         21   -1    0    0  503  504 -0.00000000000E+00 -0.00000000000E+00 -0.13248528224E+02  0.13248528224E+02  0.00000000000E+00 0. -1.
         25    2    1    2    0    0 -0.39472793947E+02  0.15636382355E+02  0.68467823431E+03  0.69728912004E+03  0.12500093790E+03 0.  0.
         25    2    1    2    0    0  0.39472793947E+02 -0.15636382355E+02  0.62123110312E+03  0.63511727383E+03  0.12507305916E+03 0.  0.
          5    1    3    3  501    0 -0.61472412155E+02  0.43920548926E+02  0.25249703466E+03  0.26359953449E+03  0.47000000000E+01 0. -1.
         -5    1    3    3    0  501  0.21999618207E+02 -0.28284166571E+02  0.43218119965E+03  0.43368958555E+03  0.47000000000E+01 0. -1.
          5    1    4    4  502    0  0.72531423395E+02 -0.38484332452E+02  0.51339655374E+03  0.51994226855E+03  0.47000000000E+01 0.  1.
         -5    1    4    4    0  502 -0.33058629447E+02  0.22847950097E+02  0.10783454937E+03  0.11517500529E+03  0.47000000000E+01 0.  1.
<mgrwt>
<rscale>  0 0.26440046E+03</rscale>
<asrwt>0</asrwt>
<pdfrwt beam="1">  1       21 0.20294726E+00 0.26440046E+03</pdfrwt>
<pdfrwt beam="2">  1       21 0.20382362E-02 0.26440046E+03</pdfrwt>
<totfact> 0.14822190E+05</totfact>
</mgrwt>
</event>
<event>
 8    1  0.4760912E-006  0.2670209E+03  0.7546771E-02  0.1102997E+00
         21   -1    0    0  504  503  0.00000000000E+00  0.00000000000E+00  0.28477182058E+03  0.28477182058E+03  0.00000000000E+00 0. -1.
         21   -1    0    0  503  504 -0.00000000000E+00 -0.00000000000E+00 -0.62594094669E+02  0.62594094669E+02  0.00000000000E+00 0. -1.
         25    2    1    2    0    0 -0.33020727751E+02 -0.26134931861E+02  0.84225543620E+02  0.15650197500E+03  0.12500209141E+03 0.  0.
         25    2    1    2    0    0  0.33020727751E+02  0.26134931861E+02  0.13795218229E+03  0.19086394025E+03  0.12499934385E+03 0.  0.
          5    1    3    3  501    0 -0.20102445990E+02  0.45590890492E+02  0.62978751454E+02  0.80442841604E+02  0.47000000000E+01 0. -1.
         -5    1    3    3    0  501 -0.12918281760E+02 -0.71725822353E+02  0.21246792166E+02  0.76059133397E+02  0.47000000000E+01 0. -1.
          5    1    4    4  502    0  0.21252422716E+02  0.37480779823E+02  0.15842520770E+03  0.16424710275E+03  0.47000000000E+01 0.  1.
         -5    1    4    4    0  502  0.11768305034E+02 -0.11345847962E+02 -0.20473025404E+02  0.26616837501E+02  0.47000000000E+01 0.  1.
<mgrwt>
<rscale>  0 0.26702086E+03</rscale>
<asrwt>0</asrwt>
<pdfrwt beam="1">  1       21 0.43811049E-01 0.26702086E+03</pdfrwt>
<pdfrwt beam="2">  1       21 0.96298609E-02 0.26702086E+03</pdfrwt>
<totfact> 0.42738954E+05</totfact>
</mgrwt>
</event>
<event>
 8    1  0.4760912E-006  0.2885511E+03  0.7546771E-02  0.1091108E+00
         21   -1    0    0  504  503  0.00000000000E+00  0.00000000000E+00  0.19486301873E+03  0.19486301873E+03  0.00000000000E+00 0.  1.
         21   -1    0    0  503  504 -0.00000000000E+00 -0.00000000000E+00 -0.10682086924E+03  0.10682086924E+03  0.00000000000E+00 0.  1.
         25    2    1    2    0    0  0.56059724687E+02  0.35849268146E+02  0.72900298709E+02  0.15927093014E+03  0.12499965151E+03 0.  0.
         25    2    1    2    0    0 -0.56059724687E+02 -0.35849268146E+02  0.15141850782E+02  0.14241295782E+03  0.12499724858E+03 0.  0.
          5    1    3    3  501    0  0.73061620718E+02 -0.84190681491E+01  0.18481083377E+01  0.73718292403E+02  0.47000000000E+01 0. -1.
         -5    1    3    3    0  501 -0.17001896031E+02  0.44268336295E+02  0.71052190371E+02  0.85552637736E+02  0.47000000000E+01 0. -1.
          5    1    4    4  502    0 -0.66715987089E+01 -0.68403862859E+02 -0.22110181906E+02  0.72350181943E+02  0.47000000000E+01 0.  1.
         -5    1    4    4    0  502 -0.49388125978E+02  0.32554594713E+02  0.37252032688E+02  0.70062775879E+02  0.47000000000E+01 0.  1.
<mgrwt>
<rscale>  0 0.28855112E+03</rscale>
<asrwt>0</asrwt>
<pdfrwt beam="1">  1       21 0.29978926E-01 0.28855112E+03</pdfrwt>
<pdfrwt beam="2">  1       21 0.16433980E-01 0.28855112E+03</pdfrwt>
<totfact> 0.34686453E+05</totfact>
</mgrwt>
</event>
<event>
 8    1  0.4760912E-006  0.2721200E+03  0.7546771E-02  0.1100072E+00
         21   -1    0    0  504  503  0.00000000000E+00  0.00000000000E+00  0.38147092638E+03  0.38147092638E+03  0.00000000000E+00 0. -1.
         21   -1    0    0  503  504 -0.00000000000E+00 -0.00000000000E+00 -0.48528790034E+02  0.48528790034E+02  0.00000000000E+00 0. -1.
         25    2    1    2    0    0 -0.76269809206E+00 -0.80986698027E+01  0.25041502599E+03  0.27999742725E+03  0.12499881544E+03 0.  0.
         25    2    1    2    0    0  0.76269809206E+00  0.80986698027E+01  0.82527110355E+02  0.15000228917E+03  0.12499517051E+03 0.  0.
          5    1    3    3  501    0 -0.10667888646E+02 -0.30929964759E+02  0.25243489801E+03  0.25458973722E+03  0.47000000000E+01 0.  1.
         -5    1    3    3    0  501  0.99051905540E+01  0.22831294957E+02 -0.20198720177E+01  0.25407690022E+02  0.47000000000E+01 0.  1.
          5    1    4    4  502    0  0.20800814818E+02  0.31189536274E+02  0.10511592619E+03  0.11170008509E+03  0.47000000000E+01 0. -1.
         -5    1    4    4    0  502 -0.20038116726E+02 -0.23090866472E+02 -0.22588815835E+02  0.38302204077E+02  0.47000000000E+01 0. -1.
<mgrwt>
<rscale>  0 0.27211999E+03</rscale>
<asrwt>0</asrwt>
<pdfrwt beam="1">  1       21 0.58687833E-01 0.27211999E+03</pdfrwt>
<pdfrwt beam="2">  1       21 0.74659679E-02 0.27211999E+03</pdfrwt>
<totfact> 0.36089151E+05</totfact>
</mgrwt>
</event>
<event>
 8    1  0.4760912E-006  0.3123878E+03  0.7546771E-02  0.1079207E+00
         21   -1    0    0  504  503  0.00000000000E+00  0.00000000000E+00  0.37372462913E+02  0.37372462913E+02  0.00000000000E+00 0.  1.
         21   -1    0    0  503  504 -0.00000000000E+00 -0.00000000000E+00 -0.65279427205E+03  0.65279427205E+03  0.00000000000E+00 0.  1.
         25    2    1    2    0    0  0.30055757869E+02 -0.86769367405E+02 -0.34834857928E+03  0.38132017350E+03  0.12500428123E+03 0.  0.
         25    2    1    2    0    0 -0.30055757869E+02  0.86769367405E+02 -0.26707322986E+03  0.30884656147E+03  0.12500326686E+03 0.  0.
          5    1    3    3  501    0  0.59991918852E+02 -0.70354308096E+01 -0.84133807702E+02  0.10367793986E+03  0.47000000000E+01 0.  1.
         -5    1    3    3    0  501 -0.29936160982E+02 -0.79733936596E+02 -0.26421477158E+03  0.27764223364E+03  0.47000000000E+01 0.  1.
          5    1    4    4  502    0 -0.28303251302E+01  0.11296827227E+03 -0.16625957279E+03  0.20108251248E+03  0.47000000000E+01 0.  1.
         -5    1    4    4    0  502 -0.27225432739E+02 -0.26198904865E+02 -0.10081365706E+03  0.10776404899E+03  0.47000000000E+01 0.  1.
<mgrwt>
<rscale>  0 0.31238777E+03</rscale>
<asrwt>0</asrwt>
<pdfrwt beam="1">  1       21 0.57496099E-02 0.31238777E+03</pdfrwt>
<pdfrwt beam="2">  1       21 0.10042988E+00 0.31238777E+03</pdfrwt>
<totfact> 0.16607781E+05</totfact>
</mgrwt>
</event>
<event>
 8    1  0.4760912E-006  0.2708593E+03  0.7546771E-02  0.1100789E+00
         21   -1    0    0  504  503  0.00000000000E+00  0.00000000000E+00  0.14189464734E+03  0.14189464734E+03  0.00000000000E+00 0.  1.
         21   -1    0    0  503  504 -0.00000000000E+00 -0.00000000000E+00 -0.12925918048E+03  0.12925918048E+03  0.00000000000E+00 0.  1.
         25    2    1    2    0    0 -0.14271077929E+02  0.42893765793E+02 -0.19647139504E+02  0.13436765871E+03  0.12500047523E+03 0.  0.
         25    2    1    2    0    0  0.14271077929E+02 -0.42893765793E+02  0.32282606370E+02  0.13678616911E+03  0.12499900230E+03 0.  0.
          5    1    3    3  501    0 -0.58802855916E+02  0.96348799016E+01 -0.43272277910E+02  0.73791509065E+02  0.47000000000E+01 0. -1.
         -5    1    3    3    0  501  0.44531777987E+02  0.33258885892E+02  0.23625138406E+02  0.60576149648E+02  0.47000000000E+01 0. -1.
          5    1    4    4  502    0 -0.50742119294E+02 -0.28830761312E+02 -0.76713788721E+01  0.59050110263E+02  0.47000000000E+01 0. -1.
         -5    1    4    4    0  502  0.65013197224E+02 -0.14063004481E+02  0.39953985242E+02  0.77736058846E+02  0.47000000000E+01 0. -1.
<mgrwt>
<rscale>  0 0.27085927E+03</rscale>
<asrwt>0</asrwt>
<pdfrwt beam="1">  1       21 0.21829946E-01 0.27085927E+03</pdfrwt>
<pdfrwt beam="2">  1       21 0.19886028E-01 0.27085927E+03</pdfrwt>
<totfact> 0.44991626E+05</totfact>
</mgrwt>
</event>
<event>
 8    1  0.4760912E-006  0.3513521E+03  0.7546771E-02  0.1062061E+00
         21   -1    0    0  504  503  0.00000000000E+00  0.00000000000E+00  0.23403607539E+04  0.23403607539E+04  0.00000000000E+00 0.  1.
         21   -1    0    0  503  504 -0.00000000000E+00 -0.00000000000E+00 -0.13186891117E+02  0.13186891117E+02  0.00000000000E+00 0.  1.
         25    2    1    2    0    0 -0.52185228450E+02 -0.11139364091E+03  0.12328070738E+04  0.12452174181E+04  0.12498518222E+03 0.  0.
         25    2    1    2    0    0  0.52185228450E+02  0.11139364091E+03  0.10943667890E+04  0.11083302270E+04  0.12500152722E+03 0.  0.
          5    1    3    3  501    0 -0.85606824748E+01 -0.12774977601E+03  0.93948816665E+03  0.94818426259E+03  0.47000000000E+01 0.  1.
         -5    1    3    3    0  501 -0.43624545975E+02  0.16356135093E+02  0.29331890713E+03  0.29703315547E+03  0.47000000000E+01 0.  1.
          5    1    4    4  502    0 -0.97192412521E+00  0.30735711069E+02  0.74987917215E+03  0.75052414445E+03  0.47000000000E+01 0. -1.
         -5    1    4    4    0  502  0.53157152575E+02  0.80657929843E+02  0.34448761685E+03  0.35780608251E+03  0.47000000000E+01 0. -1.
<mgrwt>
<rscale>  0 0.35135214E+03</rscale>
<asrwt>0</asrwt>
<pdfrwt beam="1">  1       21 0.36005517E+00 0.35135214E+03</pdfrwt>
<pdfrwt beam="2">  1       21 0.20287543E-02 0.35135214E+03</pdfrwt>
<totfact> 0.16053837E+04</totfact>
</mgrwt>
</event>
<event>
 8    1  0.4760912E-006  0.3199208E+03  0.7546771E-02  0.1075686E+00
         21   -1    0    0  504  503  0.00000000000E+00  0.00000000000E+00  0.60876154167E+02  0.60876154167E+02  0.00000000000E+00 0.  1.
         21   -1    0    0  503  504 -0.00000000000E+00 -0.00000000000E+00 -0.42031771131E+03  0.42031771131E+03  0.00000000000E+00 0.  1.
         25    2    1    2    0    0  0.94378331082E+02  0.11638007424E+02 -0.13408371032E+03  0.20650845805E+03  0.12499835710E+03 0.  0.
         25    2    1    2    0    0 -0.94378331082E+02 -0.11638007424E+02 -0.22535784682E+03  0.27468540742E+03  0.12499280513E+03 0.  0.
          5    1    3    3  501    0  0.56589394979E+02  0.57150432242E+02 -0.12160090588E+03  0.14586775463E+03  0.47000000000E+01 0.  1.
         -5    1    3    3    0  501  0.37788936104E+02 -0.45512424818E+02 -0.12482804438E+02  0.60640703420E+02  0.47000000000E+01 0.  1.
          5    1    4    4  502    0  0.23494749711E+02  0.13759844648E+02 -0.13222870047E+02  0.30631207632E+02  0.47000000000E+01 0.  1.
         -5    1    4    4    0  502 -0.11787308079E+03 -0.25397852071E+02 -0.21213497677E+03  0.24405419979E+03  0.47000000000E+01 0.  1.
<mgrwt>
<rscale>  0 0.31992078E+03</rscale>
<asrwt>0</asrwt>
<pdfrwt beam="1">  1       21 0.93655620E-02 0.31992078E+03</pdfrwt>
<pdfrwt beam="2">  1       21 0.64664264E-01 0.31992078E+03</pdfrwt>
<totfact> 0.19393478E+05</totfact>
</mgrwt>
</event>
<event>
 8    1  0.4760912E-006  0.2755341E+03  0.7546771E-02  0.1098153E+00
         21   -1    0    0  504  503  0.00000000000E+00  0.00000000000E+00  0.20569527576E+04  0.20569527576E+04  0.00000000000E+00 0. -1.
         21   -1    0    0  503  504 -0.00000000000E+00 -0.00000000000E+00 -0.92271223497E+01  0.92271223497E+01  0.00000000000E+00 0. -1.
         25    2    1    2    0    0  0.52794921766E+02 -0.20747772820E+02  0.11122877976E+04  0.11207243283E+04  0.12498440576E+03 0.  0.
         25    2    1    2    0    0 -0.52794921766E+02  0.20747772820E+02  0.93543783769E+03  0.94545555161E+03  0.12499791219E+03 0.  0.
          5    1    3    3  501    0  0.50897163217E+02  0.36406360707E+02  0.30438388718E+03  0.31078543257E+03  0.47000000000E+01 0. -1.
         -5    1    3    3    0  501  0.18977585491E+01 -0.57154133528E+02  0.80790391038E+03  0.80993889576E+03  0.47000000000E+01 0. -1.
          5    1    4    4  502    0 -0.72599143600E+02 -0.29562618367E+02  0.42994508368E+03  0.43705771820E+03  0.47000000000E+01 0.  1.
         -5    1    4    4    0  502  0.19804221834E+02  0.50310391188E+02  0.50549275401E+03  0.50839783341E+03  0.47000000000E+01 0.  1.
<mgrwt>
<rscale>  0 0.27553406E+03</rscale>
<asrwt>0</asrwt>
<pdfrwt beam="1">  1       21 0.31645391E+00 0.27553406E+03</pdfrwt>
<pdfrwt beam="2">  1       21 0.14195589E-02 0.27553406E+03</pdfrwt>
<totfact> 0.55106749E+04</totfact>
</mgrwt>
</event>
<event>
 8    1  0.4760912E-006  0.3203600E+03  0.7546771E-02  0.1075484E+00
         21   -1    0    0  504  503  0.00000000000E+00  0.00000000000E+00  0.11946775563E+03  0.11946775563E+03  0.00000000000E+00 0. -1.
         21   -1    0    0  503  504 -0.00000000000E+00 -0.00000000000E+00 -0.21476619272E+03  0.21476619272E+03  0.00000000000E+00 0. -1.
         25    2    1    2    0    0 -0.16104771786E+01 -0.95863007236E+02 -0.17410060096E+02  0.15849576240E+03  0.12500194684E+03 0.  0.
         25    2    1    2    0    0  0.16104771786E+01  0.95863007236E+02 -0.77888376996E+02  0.17573818596E+03  0.12500000376E+03 0.  0.
          5    1    3    3  501    0  0.56064113497E+02 -0.26210316758E+02 -0.26500090996E+02  0.67487112470E+02  0.47000000000E+01 0.  1.
         -5    1    3    3    0  501 -0.57674590676E+02 -0.69652690478E+02  0.90900309004E+01  0.91008649931E+02  0.47000000000E+01 0.  1.
          5    1    4    4  502    0  0.69187340363E+01 -0.20745290485E+02  0.14620669045E+02  0.26722460989E+02  0.47000000000E+01 0. -1.
         -5    1    4    4    0  502 -0.53082568577E+01  0.11660829772E+03 -0.92509046041E+02  0.14901572497E+03  0.47000000000E+01 0. -1.
<mgrwt>
<rscale>  0 0.32036002E+03</rscale>
<asrwt>0</asrwt>
<pdfrwt beam="1">  1       21 0.18379655E-01 0.32036002E+03</pdfrwt>
<pdfrwt beam="2">  1       21 0.33040952E-01 0.32036002E+03</pdfrwt>
<totfact> 0.23082582E+05</totfact>
</mgrwt>
</event>
<event>
 8    1  0.4760912E-006  0.4037864E+03  0.7546771E-02  0.1042476E+00
         21   -1    0    0  504  503  0.00000000000E+00  0.00000000000E+00  0.85128460129E+02  0.85128460129E+02  0.00000000000E+00 0. -1.
         21   -1    0    0  503  504 -0.00000000000E+00 -0.00000000000E+00 -0.47881595636E+03  0.47881595636E+03  0.00000000000E+00 0. -1.
         25    2    1    2    0    0  0.15071121744E+03  0.44439901024E+02 -0.16730878972E+03  0.26135539129E+03  0.12500253425E+03 0.  0.
         25    2    1    2    0    0 -0.15071121744E+03 -0.44439901024E+02 -0.22637870651E+03  0.30258902520E+03  0.12499609412E+03 0.  0.
          5    1    3    3  501    0  0.66780385443E+02  0.49645180576E+02 -0.15533939761E+03  0.17628579717E+03  0.47000000000E+01 0.  1.
         -5    1    3    3    0  501  0.83930832001E+02 -0.52052795517E+01 -0.11969392114E+02  0.85069594117E+02  0.47000000000E+01 0.  1.
          5    1    4    4  502    0 -0.30781190101E+02 -0.14918359379E+02 -0.15719941128E+03  0.16094652534E+03  0.47000000000E+01 0. -1.
         -5    1    4    4    0  502 -0.11993002734E+03 -0.29521541646E+02 -0.69179295223E+02  0.14164249986E+03  0.47000000000E+01 0. -1.
<mgrwt>
<rscale>  0 0.40378640E+03</rscale>
<asrwt>0</asrwt>
<pdfrwt beam="1">  1       21 0.13096686E-01 0.40378640E+03</pdfrwt>
<pdfrwt beam="2">  1       21 0.73663992E-01 0.40378640E+03</pdfrwt>
<totfact> 0.77693290E+04</totfact>
</mgrwt>
</event>
<event>
 8    1  0.4760912E-006  0.2958844E+03  0.7546771E-02  0.1087316E+00
         21   -1    0    0  504  503  0.00000000000E+00  0.00000000000E+00  0.25385849174E+03  0.25385849174E+03  0.00000000000E+00 0. -1.
         21   -1    0    0  503  504 -0.00000000000E+00 -0.00000000000E+00 -0.86216888424E+02  0.86216888424E+02  0.00000000000E+00 0. -1.
         25    2    1    2    0    0 -0.31191273462E+02  0.72692398831E+02  0.81082436327E+02  0.16869034788E+03  0.12499996639E+03 0.  0.
         25    2    1    2    0    0  0.31191273462E+02 -0.72692398831E+02  0.86559166990E+02  0.17138503229E+03  0.12499303787E+03 0.  0.
          5    1    3    3  501    0 -0.77406184901E+02  0.63246306232E+02  0.48770991360E+02  0.11132166146E+03  0.47000000000E+01 0.  1.
         -5    1    3    3    0  501  0.46214911439E+02  0.94460925996E+01  0.32311444968E+02  0.57368686412E+02  0.47000000000E+01 0.  1.
          5    1    4    4  502    0  0.37677678414E+01  0.67449409176E+01  0.86745666011E+02  0.87215771935E+02  0.47000000000E+01 0.  1.
         -5    1    4    4    0  502  0.27423505621E+02 -0.79437339749E+02 -0.18649902091E+00  0.84169260356E+02  0.47000000000E+01 0.  1.
<mgrwt>
<rscale>  0 0.29588436E+03</rscale>
<asrwt>0</asrwt>
<pdfrwt beam="1">  1       21 0.39055152E-01 0.29588436E+03</pdfrwt>
<pdfrwt beam="2">  1       21 0.13264137E-01 0.29588436E+03</pdfrwt>
<totfact> 0.30251678E+05</totfact>
</mgrwt>
</event>
<event>
 8    1  0.4760912E-006  0.3125392E+03  0.7546771E-02  0.1079135E+00
         21   -1    0    0  504  503  0.00000000000E+00  0.00000000000E+00  0.10907483299E+04  0.10907483299E+04  0.00000000000E+00 0. -1.
         21   -1    0    0  503  504 -0.00000000000E+00 -0.00000000000E+00 -0.22388472500E+02  0.22388472500E+02  0.00000000000E+00 0. -1.
         25    2    1    2    0    0 -0.77978859783E+02 -0.50494902498E+02  0.48823020305E+03  0.51246657270E+03  0.12499127657E+03 0.  0.
         25    2    1    2    0    0  0.77978859783E+02  0.50494902498E+02  0.58012965436E+03  0.60067022970E+03  0.12499548486E+03 0.  0.
          5    1    3    3  501    0 -0.56851143373E+02 -0.85894573607E+02  0.24643424147E+03  0.26713639895E+03  0.47000000000E+01 0.  1.
         -5    1    3    3    0  501 -0.21127716410E+02  0.35399671109E+02  0.24179596158E+03  0.24533017375E+03  0.47000000000E+01 0.  1.
          5    1    4    4  502    0  0.84045752628E+02  0.45088190455E+02  0.21306294484E+03  0.23348349388E+03  0.47000000000E+01 0. -1.
         -5    1    4    4    0  502 -0.60668928447E+01  0.54067120425E+01  0.36706670952E+03  0.36718673582E+03  0.47000000000E+01 0. -1.
<mgrwt>
<rscale>  0 0.31253921E+03</rscale>
<asrwt>0</asrwt>
<pdfrwt beam="1">  1       21 0.16780739E+00 0.31253921E+03</pdfrwt>
<pdfrwt beam="2">  1       21 0.34443812E-02 0.31253921E+03</pdfrwt>
<totfact> 0.10581289E+05</totfact>
</mgrwt>
</event>
<event>
 8    1  0.4760912E-006  0.2765381E+03  0.7546771E-02  0.1097595E+00
         21   -1    0    0  504  503  0.00000000000E+00  0.00000000000E+00  0.29867308147E+03  0.29867308147E+03  0.00000000000E+00 0. -1.
         21   -1    0    0  503  504 -0.00000000000E+00 -0.00000000000E+00 -0.64010905667E+02  0.64010905667E+02  0.00000000000E+00 0. -1.
         25    2    1    2    0    0 -0.40019245998E+02  0.16039563341E+02  0.17032019353E+03  0.21563570371E+03  0.12502392071E+03 0.  0.
         25    2    1    2    0    0  0.40019245998E+02 -0.16039563341E+02  0.64341982271E+02  0.14704828342E+03  0.12499799731E+03 0.  0.
          5    1    3    3  501    0  0.41467829650E+02 -0.15421276335E+02  0.64191737202E+02  0.78102917901E+02  0.47000000000E+01 0.  1.
         -5    1    3    3    0  501 -0.81487075649E+02  0.31460839675E+02  0.10612845633E+03  0.13753278581E+03  0.47000000000E+01 0.  1.
          5    1    4    4  502    0  0.32031302791E+02 -0.70183840070E+02  0.37998897515E+02  0.86126546301E+02  0.47000000000E+01 0.  1.
         -5    1    4    4    0  502  0.79879432070E+01  0.54144276729E+02  0.26343084756E+02  0.60921737119E+02  0.47000000000E+01 0.  1.
<mgrwt>
<rscale>  0 0.27653813E+03</rscale>
<asrwt>0</asrwt>
<pdfrwt beam="1">  1       21 0.45949704E-01 0.27653813E+03</pdfrwt>
<pdfrwt beam="2">  1       21 0.98478318E-02 0.27653813E+03</pdfrwt>
<totfact> 0.37146366E+05</totfact>
</mgrwt>
</event>
<event>
 8    1  0.4760912E-006  0.2710831E+03  0.7546771E-02  0.1100661E+00
         21   -1    0    0  504  503  0.00000000000E+00  0.00000000000E+00  0.22295108926E+03  0.22295108926E+03  0.00000000000E+00 0.  1.
         21   -1    0    0  503  504 -0.00000000000E+00 -0.00000000000E+00 -0.82401516451E+02  0.82401516451E+02  0.00000000000E+00 0.  1.
         25    2    1    2    0    0  0.46476547031E+02 -0.11552004543E+02  0.46280575456E+02  0.14163021951E+03  0.12499483661E+03 0.  0.
         25    2    1    2    0    0 -0.46476547031E+02  0.11552004543E+02  0.94268997353E+02  0.16372238620E+03  0.12499943060E+03 0.  0.
          5    1    3    3  501    0  0.25131736797E+01  0.47097516996E+02 -0.10796009501E+02  0.48612096954E+02  0.47000000000E+01 0.  1.
         -5    1    3    3    0  501  0.43963373351E+02 -0.58649521539E+02  0.57076584956E+02  0.93018122554E+02  0.47000000000E+01 0.  1.
          5    1    4    4  502    0 -0.89272569930E+02  0.14929301348E+02  0.61972991665E+02  0.10979625438E+03  0.47000000000E+01 0. -1.
         -5    1    4    4    0  502  0.42796022899E+02 -0.33772968052E+01  0.32296005687E+02  0.53926131820E+02  0.47000000000E+01 0. -1.
<mgrwt>
<rscale>  0 0.27108307E+03</rscale>
<asrwt>0</asrwt>
<pdfrwt beam="1">  1       21 0.34300167E-01 0.27108307E+03</pdfrwt>
<pdfrwt beam="2">  1       21 0.12677157E-01 0.27108307E+03</pdfrwt>
<totfact> 0.42861098E+05</totfact>
</mgrwt>
</event>
<event>
 8    1  0.4760912E-006  0.2970789E+03  0.7546771E-02  0.1086710E+00
         21   -1    0    0  504  503  0.00000000000E+00  0.00000000000E+00  0.16834703776E+03  0.16834703776E+03  0.00000000000E+00 0.  1.
         21   -1    0    0  503  504 -0.00000000000E+00 -0.00000000000E+00 -0.13106240215E+03  0.13106240215E+03  0.00000000000E+00 0.  1.
         25    2    1    2    0    0 -0.18100764863E+02 -0.54847457172E+02  0.74780299061E+02  0.15669149306E+03  0.12499699846E+03 0.  0.
         25    2    1    2    0    0  0.18100764863E+02  0.54847457172E+02 -0.37495663452E+02  0.14271794685E+03  0.12500642515E+03 0.  0.
          5    1    3    3  501    0 -0.24376336001E+02 -0.94600792188E+01  0.10048992151E+03  0.10394235509E+03  0.47000000000E+01 0.  1.
         -5    1    3    3    0  501  0.62755711376E+01 -0.45387377953E+02 -0.25709622449E+02  0.52749137975E+02  0.47000000000E+01 0.  1.
          5    1    4    4  502    0 -0.65709793783E+01 -0.48796637994E+01 -0.69718745620E+02  0.70354689820E+02  0.47000000000E+01 0.  1.
         -5    1    4    4    0  502  0.24671744242E+02  0.59727120972E+02  0.32223082168E+02  0.72363257029E+02  0.47000000000E+01 0.  1.
<mgrwt>
<rscale>  0 0.29707889E+03</rscale>
<asrwt>0</asrwt>
<pdfrwt beam="1">  1       21 0.25899544E-01 0.29707889E+03</pdfrwt>
<pdfrwt beam="2">  1       21 0.20163446E-01 0.29707889E+03</pdfrwt>
<totfact> 0.31433696E+05</totfact>
</mgrwt>
</event>
<event>
 8    1  0.4760912E-006  0.2806475E+03  0.7546771E-02  0.1095336E+00
         21   -1    0    0  504  503  0.00000000000E+00  0.00000000000E+00  0.62670182809E+02  0.62670182809E+02  0.00000000000E+00 0.  1.
         21   -1    0    0  503  504 -0.00000000000E+00 -0.00000000000E+00 -0.31419653069E+03  0.31419653069E+03  0.00000000000E+00 0.  1.
         25    2    1    2    0    0 -0.53879129477E+02  0.26703090239E+02 -0.97265492937E+02  0.16941411865E+03  0.12499820743E+03 0.  0.
         25    2    1    2    0    0  0.53879129477E+02 -0.26703090239E+02 -0.15426085495E+03  0.20745259485E+03  0.12499660843E+03 0.  0.
          5    1    3    3  501    0  0.15436439213E+02  0.57830891044E+02 -0.59125845953E+02  0.84265362244E+02  0.47000000000E+01 0. -1.
         -5    1    3    3    0  501 -0.69315568690E+02 -0.31127800805E+02 -0.38139646984E+02  0.85148756408E+02  0.47000000000E+01 0. -1.
          5    1    4    4  502    0  0.61676822102E+02 -0.13906339868E+02 -0.17226494703E+03  0.18356121226E+03  0.47000000000E+01 0. -1.
         -5    1    4    4    0  502 -0.77976926247E+01 -0.12796750371E+02  0.18004092080E+02  0.23891382588E+02  0.47000000000E+01 0. -1.
<mgrwt>
<rscale>  0 0.28064749E+03</rscale>
<asrwt>0</asrwt>
<pdfrwt beam="1">  1       21 0.96415667E-02 0.28064749E+03</pdfrwt>
<pdfrwt beam="2">  1       21 0.48337927E-01 0.28064749E+03</pdfrwt>
<totfact> 0.34674893E+05</totfact>
</mgrwt>
</event>
<event>
 8    1  0.4760912E-006  0.2669030E+03  0.7546771E-02  0.1103065E+00
         21   -1    0    0  504  503  0.00000000000E+00  0.00000000000E+00  0.87962307913E+01  0.87962307913E+01  0.00000000000E+00 0. -1.
         21   -1    0    0  503  504 -0.00000000000E+00 -0.00000000000E+00 -0.20246516674E+04  0.20246516674E+04  0.00000000000E+00 0. -1.
         25    2    1    2    0    0 -0.24007677216E+02 -0.19534172509E+02 -0.74103026954E+03  0.75213475999E+03  0.12499153714E+03 0.  0.
         25    2    1    2    0    0  0.24007677216E+02  0.19534172509E+02 -0.12748251671E+04  0.12813131382E+04  0.12500479616E+03 0.  0.
          5    1    3    3  501    0  0.37317329395E+02  0.29521934061E+02 -0.35169516464E+03  0.35493056574E+03  0.47000000000E+01 0. -1.
         -5    1    3    3    0  501 -0.61325006611E+02 -0.49056106570E+02 -0.38933510489E+03  0.39720419425E+03  0.47000000000E+01 0. -1.
          5    1    4    4  502    0 -0.47862594276E+01 -0.45719217186E+02 -0.26805040065E+03  0.27200415877E+03  0.47000000000E+01 0. -1.
         -5    1    4    4    0  502  0.28793936644E+02  0.65253389695E+02 -0.10067747665E+04  0.10093089795E+04  0.47000000000E+01 0. -1.
<mgrwt>
<rscale>  0 0.26690300E+03</rscale>
<asrwt>0</asrwt>
<pdfrwt beam="1">  1       21 0.13532640E-02 0.26690300E+03</pdfrwt>
<pdfrwt beam="2">  1       21 0.31148539E+00 0.26690300E+03</pdfrwt>
<totfact> 0.64052050E+04</totfact>
</mgrwt>
</event>
<event>
 8    1  0.4760912E-006  0.2875053E+03  0.7546771E-02  0.1091659E+00
         21   -1    0    0  504  503  0.00000000000E+00  0.00000000000E+00  0.10308484967E+03  0.10308484967E+03  0.00000000000E+00 0.  1.
         21   -1    0    0  503  504 -0.00000000000E+00 -0.00000000000E+00 -0.20046427090E+03  0.20046427090E+03  0.00000000000E+00 0.  1.
         25    2    1    2    0    0 -0.18522028445E+02 -0.66321230958E+02 -0.66901167483E+02  0.15762050691E+03  0.12500754687E+03 0.  0.
         25    2    1    2    0    0  0.18522028445E+02  0.66321230958E+02 -0.30478253754E+02  0.14592861366E+03  0.12499866047E+03 0.  0.
          5    1    3    3  501    0 -0.50664090178E+02 -0.45504824139E+02 -0.89766403339E+02  0.11277249763E+03  0.47000000000E+01 0.  1.
         -5    1    3    3    0  501  0.32142061734E+02 -0.20816406819E+02  0.22865235856E+02  0.44848009277E+02  0.47000000000E+01 0.  1.
          5    1    4    4  502    0  0.60440350923E+02  0.23317929861E+02 -0.50689617204E+02  0.82391074547E+02  0.47000000000E+01 0. -1.
         -5    1    4    4    0  502 -0.41918322478E+02  0.43003301097E+02  0.20211363450E+02  0.63537539117E+02  0.47000000000E+01 0. -1.
<mgrwt>
<rscale>  0 0.28750533E+03</rscale>
<asrwt>0</asrwt>
<pdfrwt beam="1">  1       21 0.15859208E-01 0.28750533E+03</pdfrwt>
<pdfrwt beam="2">  1       21 0.30840657E-01 0.28750533E+03</pdfrwt>
<totfact> 0.35040985E+05</totfact>
</mgrwt>
</event>
<event>
 8    1  0.4760912E-006  0.2953941E+03  0.7546771E-02  0.1087566E+00
         21   -1    0    0  504  503  0.00000000000E+00  0.00000000000E+00  0.39817461852E+03  0.39817461852E+03  0.00000000000E+00 0.  1.
         21   -1    0    0  503  504 -0.00000000000E+00 -0.00000000000E+00 -0.54786051642E+02  0.54786051642E+02  0.00000000000E+00 0.  1.
         25    2    1    2    0    0  0.59369373543E+02 -0.88399246053E+01  0.24967895351E+03  0.28560092605E+03  0.12500176941E+03 0.  0.
         25    2    1    2    0    0 -0.59369373543E+02  0.88399246053E+01  0.93709613372E+02  0.16735974411E+03  0.12499970211E+03 0.  0.
          5    1    3    3  501    0  0.27265000546E+02 -0.22537411632E+02  0.23339232413E+01  0.35761045504E+02  0.47000000000E+01 0. -1.
         -5    1    3    3    0  501  0.32104372997E+02  0.13697487026E+02  0.24734503027E+03  0.24983988055E+03  0.47000000000E+01 0. -1.
          5    1    4    4  502    0 -0.45703957417E+02  0.39443786314E+02  0.11314657915E+03  0.12833122136E+03  0.47000000000E+01 0. -1.
         -5    1    4    4    0  502 -0.13665416126E+02 -0.30603861708E+02 -0.19436965778E+02  0.39028522750E+02  0.47000000000E+01 0. -1.
<mgrwt>
<rscale>  0 0.29539408E+03</rscale>
<asrwt>0</asrwt>
<pdfrwt beam="1">  1       21 0.61257632E-01 0.29539408E+03</pdfrwt>
<pdfrwt beam="2">  1       21 0.84286236E-02 0.29539408E+03</pdfrwt>
<totfact> 0.26454128E+05</totfact>
</mgrwt>
</event>
<event>
 8    1  0.4760912E-006  0.3725502E+03  0.7546771E-02  0.1053722E+00
         21   -1    0    0  504  503  0.00000000000E+00  0.00000000000E+00  0.55043439099E+02  0.55043439099E+02  0.00000000000E+00 0.  1.
         21   -1    0    0  503  504 -0.00000000000E+00 -0.00000000000E+00 -0.63038243135E+03  0.63038243135E+03  0.00000000000E+00 0.  1.
         25    2    1    2    0    0  0.93407972750E+02  0.38801153743E+01 -0.47471663619E+03  0.49970938833E+03  0.12495392529E+03 0.  0.
         25    2    1    2    0    0 -0.93407972750E+02 -0.38801153743E+01 -0.10062235606E+03  0.18571648211E+03  0.12500259405E+03 0.  0.
          5    1    3    3  501    0  0.42580963686E+02 -0.80211640645E+01 -0.32423987059E+02  0.54322025719E+02  0.47000000000E+01 0. -1.
         -5    1    3    3    0  501  0.50827009064E+02  0.11901279439E+02 -0.44229264913E+03  0.44538736261E+03  0.47000000000E+01 0. -1.
          5    1    4    4  502    0 -0.11134477084E+02  0.40415372055E+02  0.73819468635E+01  0.42824782753E+02  0.47000000000E+01 0.  1.
         -5    1    4    4    0  502 -0.82273495666E+02 -0.44295487430E+02 -0.10800430292E+03  0.14289169936E+03  0.47000000000E+01 0.  1.
<mgrwt>
<rscale>  0 0.37255022E+03</rscale>
<asrwt>0</asrwt>
<pdfrwt beam="1">  1       21 0.84682215E-02 0.37255022E+03</pdfrwt>
<pdfrwt beam="2">  1       21 0.96981911E-01 0.37255022E+03</pdfrwt>
<totfact> 0.90424720E+04</totfact>
</mgrwt>
</event>
<event>
 8    1  0.4760912E-006  0.2960377E+03  0.7546771E-02  0.1087238E+00
         21   -1    0    0  504  503  0.00000000000E+00  0.00000000000E+00  0.31263070162E+03  0.31263070162E+03  0.00000000000E+00 0.  1.
         21   -1    0    0  503  504 -0.00000000000E+00 -0.00000000000E+00 -0.70081335752E+02  0.70081335752E+02  0.00000000000E+00 0.  1.
         25    2    1    2    0    0 -0.16804349433E+02 -0.53351454757E+02  0.48657426315E+02  0.14533341916E+03  0.12500197480E+03 0.  0.
         25    2    1    2    0    0  0.16804349433E+02  0.53351454757E+02  0.19389193955E+03  0.23737861821E+03  0.12500304107E+03 0.  0.
          5    1    3    3  501    0  0.53396147907E+02 -0.31664430027E+02  0.13309408664E+02  0.63663294756E+02  0.47000000000E+01 0.  1.
         -5    1    3    3    0  501 -0.70200497341E+02 -0.21687024730E+02  0.35348017652E+02  0.81670124405E+02  0.47000000000E+01 0.  1.
          5    1    4    4  502    0 -0.26780217852E+02  0.80768759835E+02  0.11871942497E+03  0.14614090632E+03  0.47000000000E+01 0.  1.
         -5    1    4    4    0  502  0.43584567285E+02 -0.27417305078E+02  0.75172514579E+02  0.91237711892E+02  0.47000000000E+01 0.  1.
<mgrwt>
<rscale>  0 0.29603768E+03</rscale>
<asrwt>0</asrwt>
<pdfrwt beam="1">  1       21 0.48097030E-01 0.29603768E+03</pdfrwt>
<pdfrwt beam="2">  1       21 0.10781744E-01 0.29603768E+03</pdfrwt>
<totfact> 0.28613663E+05</totfact>
</mgrwt>
</event>
<event>
 8    1  0.4760912E-006  0.5225967E+03  0.7546771E-02  0.1008044E+00
         21   -1    0    0  504  503  0.00000000000E+00  0.00000000000E+00  0.74184176222E+03  0.74184176222E+03  0.00000000000E+00 0.  1.
         21   -1    0    0  503  504 -0.00000000000E+00 -0.00000000000E+00 -0.92036932625E+02  0.92036932625E+02  0.00000000000E+00 0.  1.
         25    2    1    2    0    0 -0.11683777445E+03  0.11949967370E+03  0.57578689474E+03  0.61244100627E+03  0.12498880133E+03 0.  0.
         25    2    1    2    0    0  0.11683777445E+03 -0.11949967370E+03  0.74017934859E+02  0.22143768857E+03  0.12499903074E+03 0.  0.
          5    1    3    3  501    0 -0.12168071108E+02 -0.22116151489E+02  0.33182088488E+02  0.41956252306E+02  0.47000000000E+01 0. -1.
         -5    1    3    3    0  501 -0.10466970334E+03  0.14161582519E+03  0.54260480625E+03  0.57048475397E+03  0.47000000000E+01 0. -1.
          5    1    4    4  502    0  0.47926262911E+02 -0.11021839193E+03  0.69959574780E+00  0.12028133700E+03  0.47000000000E+01 0. -1.
         -5    1    4    4    0  502  0.68911511542E+02 -0.92812817778E+01  0.73318339111E+02  0.10115635158E+03  0.47000000000E+01 0. -1.
<mgrwt>
<rscale>  0 0.52259675E+03</rscale>
<asrwt>0</asrwt>
<pdfrwt beam="1">  1       21 0.11412950E+00 0.52259675E+03</pdfrwt>
<pdfrwt beam="2">  1       21 0.14159529E-01 0.52259675E+03</pdfrwt>
<totfact> 0.23060159E+04</totfact>
</mgrwt>
</event>
<event>
 8    1  0.4760912E-006  0.5279058E+03  0.7546771E-02  0.1006741E+00
         21   -1    0    0  504  503  0.00000000000E+00  0.00000000000E+00  0.58829393501E+03  0.58829393501E+03  0.00000000000E+00 0.  1.
         21   -1    0    0  503  504 -0.00000000000E+00 -0.00000000000E+00 -0.11842913582E+03  0.11842913582E+03  0.00000000000E+00 0.  1.
         25    2    1    2    0    0  0.85912095436E+02  0.13403758769E+03  0.46172204977E+03  0.50414239900E+03  0.12500137669E+03 0.  0.
         25    2    1    2    0    0 -0.85912095436E+02 -0.13403758769E+03  0.81427494181E+01  0.20258067183E+03  0.12500264468E+03 0.  0.
          5    1    3    3  501    0  0.29584067825E+02  0.19929178476E+01  0.12505936736E+02  0.32521950192E+02  0.47000000000E+01 0. -1.
         -5    1    3    3    0  501  0.56328027611E+02  0.13204466984E+03  0.44921611303E+03  0.47162044881E+03  0.47000000000E+01 0. -1.
          5    1    4    4  502    0 -0.36050432601E+01 -0.81523860673E+02 -0.42897209025E+02  0.92311411744E+02  0.47000000000E+01 0.  1.
         -5    1    4    4    0  502 -0.82307052176E+02 -0.52513727015E+02  0.51039958444E+02  0.11026926009E+03  0.47000000000E+01 0.  1.
<mgrwt>
<rscale>  0 0.52790583E+03</rscale>
<asrwt>0</asrwt>
<pdfrwt beam="1">  1       21 0.90506758E-01 0.52790583E+03</pdfrwt>
<pdfrwt beam="2">  1       21 0.18219867E-01 0.52790583E+03</pdfrwt>
<totfact> 0.25349721E+04</totfact>
</mgrwt>
</event>
<event>
 8    1  0.4760912E-006  0.3331507E+03  0.7546771E-02  0.1069751E+00
         21   -1    0    0  504  503  0.00000000000E+00  0.00000000000E+00  0.12722739946E+04  0.12722739946E+04  0.00000000000E+00 0.  1.
         21   -1    0    0  503  504 -0.00000000000E+00 -0.00000000000E+00 -0.21809247970E+02  0.21809247970E+02  0.00000000000E+00 0.  1.
         25    2    1    2    0    0  0.18440230955E+01  0.70123189986E+02  0.95484182341E+03  0.96554030618E+03  0.12499805168E+03 0.  0.
         25    2    1    2    0    0 -0.18440230955E+01 -0.70123189986E+02  0.29562292317E+03  0.32854293635E+03  0.12500754426E+03 0.  0.
          5    1    3    3  501    0 -0.55445744488E+02  0.33715344443E+02  0.64729169790E+03  0.65055329313E+03  0.47000000000E+01 0. -1.
         -5    1    3    3    0  501  0.57289767583E+02  0.36407845543E+02  0.30755012551E+03  0.31498701304E+03  0.47000000000E+01 0. -1.
          5    1    4    4  502    0 -0.23595158206E+02  0.28023490029E+02  0.43428683358E+02  0.57010420297E+02  0.47000000000E+01 0.  1.
         -5    1    4    4    0  502  0.21751135110E+02 -0.98146680015E+02  0.25219423982E+03  0.27153251605E+03  0.47000000000E+01 0.  1.
<mgrwt>
<rscale>  0 0.33315065E+03</rscale>
<asrwt>0</asrwt>
<pdfrwt beam="1">  1       21 0.19573440E+00 0.33315065E+03</pdfrwt>
<pdfrwt beam="2">  1       21 0.33552699E-02 0.33315065E+03</pdfrwt>
<totfact> 0.70326043E+04</totfact>
</mgrwt>
</event>
<event>
 8    1  0.4760912E-006  0.2932301E+03  0.7546771E-02  0.1088675E+00
         21   -1    0    0  504  503  0.00000000000E+00  0.00000000000E+00  0.35287641248E+02  0.35287641248E+02  0.00000000000E+00 0. -1.
         21   -1    0    0  503  504 -0.00000000000E+00 -0.00000000000E+00 -0.60916427329E+03  0.60916427329E+03  0.00000000000E+00 0. -1.
         25    2    1    2    0    0 -0.64877156616E+02  0.34046431994E+02 -0.23751179651E+03  0.27820804136E+03  0.12497862143E+03 0.  0.
         25    2    1    2    0    0  0.64877156616E+02 -0.34046431994E+02 -0.33636483553E+03  0.36624387317E+03  0.12500026830E+03 0.  0.
          5    1    3    3  501    0 -0.54408280380E+02 -0.22969583904E+02 -0.20097246042E+03  0.20952298825E+03  0.47000000000E+01 0. -1.
         -5    1    3    3    0  501 -0.10468876236E+02  0.57016015899E+02 -0.36539336087E+02  0.68685053107E+02  0.47000000000E+01 0. -1.
          5    1    4    4  502    0 -0.34482929644E+01 -0.68112740215E+02 -0.16289002939E+03  0.17665358128E+03  0.47000000000E+01 0.  1.
         -5    1    4    4    0  502  0.68325449581E+02  0.34066308220E+02 -0.17347480614E+03  0.18959029190E+03  0.47000000000E+01 0.  1.
<mgrwt>
<rscale>  0 0.29323008E+03</rscale>
<asrwt>0</asrwt>
<pdfrwt beam="1">  1       21 0.54288681E-02 0.29323008E+03</pdfrwt>
<pdfrwt beam="2">  1       21 0.93717576E-01 0.29323008E+03</pdfrwt>
<totfact> 0.21721486E+05</totfact>
</mgrwt>
</event>
<event>
 8    1  0.4760912E-006  0.3030051E+03  0.7546771E-02  0.1083748E+00
         21   -1    0    0  504  503  0.00000000000E+00  0.00000000000E+00  0.32449354458E+02  0.32449354458E+02  0.00000000000E+00 0.  1.
         21   -1    0    0  503  504 -0.00000000000E+00 -0.00000000000E+00 -0.70734896153E+03  0.70734896153E+03  0.00000000000E+00 0.  1.
         25    2    1    2    0    0  0.43217952013E+02 -0.65497730982E+02 -0.25390391462E+03  0.29368161712E+03  0.12499580085E+03 0.  0.
         25    2    1    2    0    0 -0.43217952013E+02  0.65497730982E+02 -0.42099569245E+03  0.44611669888E+03  0.12499996725E+03 0.  0.
          5    1    3    3  501    0 -0.14385364626E-01 -0.93458008195E+02 -0.18722428750E+03  0.20930700737E+03  0.47000000000E+01 0. -1.
         -5    1    3    3    0  501  0.43232337378E+02  0.27960277213E+02 -0.66679627119E+02  0.84374609746E+02  0.47000000000E+01 0. -1.
          5    1    4    4  502    0 -0.49615435811E+02  0.15178942014E+02 -0.51954261656E+02  0.73575995105E+02  0.47000000000E+01 0.  1.
         -5    1    4    4    0  502  0.63974837980E+01  0.50318788968E+02 -0.36904143080E+03  0.37254070377E+03  0.47000000000E+01 0.  1.
<mgrwt>
<rscale>  0 0.30300506E+03</rscale>
<asrwt>0</asrwt>
<pdfrwt beam="1">  1       21 0.49922086E-02 0.30300506E+03</pdfrwt>
<pdfrwt beam="2">  1       21 0.10882291E+00 0.30300506E+03</pdfrwt>
<totfact> 0.17457571E+05</totfact>
</mgrwt>
</event>
<event>
 8    1  0.4760912E-006  0.6200541E+03  0.7546771E-02  0.9864652E-01
         21   -1    0    0  504  503  0.00000000000E+00  0.00000000000E+00  0.14005889074E+03  0.14005889074E+03  0.00000000000E+00 0.  1.
         21   -1    0    0  503  504 -0.00000000000E+00 -0.00000000000E+00 -0.68625979206E+03  0.68625979206E+03  0.00000000000E+00 0.  1.
         25    2    1    2    0    0  0.52441279998E+02  0.27369763203E+03 -0.34400500540E+03  0.46002756289E+03  0.12500173301E+03 0.  0.
         25    2    1    2    0    0 -0.52441279998E+02 -0.27369763203E+03 -0.20219589592E+03  0.36629111991E+03  0.12500209025E+03 0.  0.
          5    1    3    3  501    0 -0.37170158553E+02  0.66528305785E+02 -0.11820712222E+03  0.14072188849E+03  0.47000000000E+01 0. -1.
         -5    1    3    3    0  501  0.89611438551E+02  0.20716932625E+03 -0.22579788318E+03  0.31930567441E+03  0.47000000000E+01 0. -1.
          5    1    4    4  502    0  0.94229996520E+01  0.78786870730E+01 -0.23921073964E+02  0.27297882922E+02  0.47000000000E+01 0. -1.
         -5    1    4    4    0  502 -0.61864279650E+02 -0.28157631911E+03 -0.17827482196E+03  0.33899323699E+03  0.47000000000E+01 0.  1.
<mgrwt>
<rscale>  0 0.62005414E+03</rscale>
<asrwt>0</asrwt>
<pdfrwt beam="1">  1       21 0.21547521E-01 0.62005414E+03</pdfrwt>
<pdfrwt beam="2">  1       21 0.10557843E+00 0.62005414E+03</pdfrwt>
<totfact> 0.12404428E+04</totfact>
</mgrwt>
</event>
<event>
 8    1  0.4760912E-006  0.2953254E+03  0.7546771E-02  0.1087601E+00
         21   -1    0    0  504  503  0.00000000000E+00  0.00000000000E+00  0.22175667266E+02  0.22175667266E+02  0.00000000000E+00 0.  1.
         21   -1    0    0  503  504 -0.00000000000E+00 -0.00000000000E+00 -0.98325185243E+03  0.98325185243E+03  0.00000000000E+00 0.  1.
         25    2    1    2    0    0  0.97034846539E+01 -0.78024419450E+02 -0.48011221152E+03  0.50230365082E+03  0.12497701521E+03 0.  0.
         25    2    1    2    0    0 -0.97034846539E+01  0.78024419450E+02 -0.48096397365E+03  0.50312386888E+03  0.12500126338E+03 0.  0.
          5    1    3    3  501    0  0.33923061927E+02 -0.98306360476E+02 -0.26297332674E+03  0.28282852618E+03  0.47000000000E+01 0.  1.
         -5    1    3    3    0  501 -0.24219577274E+02  0.20281941025E+02 -0.21713888477E+03  0.21947512464E+03  0.47000000000E+01 0.  1.
          5    1    4    4  502    0 -0.25988217806E+02  0.10911198278E+03 -0.36684772938E+03  0.38364066365E+03  0.47000000000E+01 0.  1.
         -5    1    4    4    0  502  0.16284733152E+02 -0.31087563330E+02 -0.11411624426E+03  0.11948320523E+03  0.47000000000E+01 0.  1.
<mgrwt>
<rscale>  0 0.29532535E+03</rscale>
<asrwt>0</asrwt>
<pdfrwt beam="1">  1       21 0.34116406E-02 0.29532535E+03</pdfrwt>
<pdfrwt beam="2">  1       21 0.15126954E+00 0.29532535E+03</pdfrwt>
<totfact> 0.14367759E+05</totfact>
</mgrwt>
</event>
<event>
 8    1  0.4760912E-006  0.2979025E+03  0.7546771E-02  0.1086294E+00
         21   -1    0    0  504  503  0.00000000000E+00  0.00000000000E+00  0.20142579478E+03  0.20142579478E+03  0.00000000000E+00 0.  1.
         21   -1    0    0  503  504 -0.00000000000E+00 -0.00000000000E+00 -0.11014713835E+03  0.11014713835E+03  0.00000000000E+00 0.  1.
         25    2    1    2    0    0  0.74432129387E+02  0.89082079816E+01  0.77747945275E+02  0.16519440102E+03  0.12499979631E+03 0.  0.
         25    2    1    2    0    0 -0.74432129387E+02 -0.89082079816E+01  0.13530711149E+02  0.14637853211E+03  0.12499638581E+03 0.  0.
          5    1    3    3  501    0  0.19619504213E+02  0.56217914255E+02  0.70311317639E+02  0.92255895296E+02  0.47000000000E+01 0.  1.
         -5    1    3    3    0  501  0.54812625175E+02 -0.47309706273E+02  0.74366276357E+01  0.72938505721E+02  0.47000000000E+01 0.  1.
          5    1    4    4  502    0 -0.24566259032E+02  0.10270018202E+02  0.66015207373E+02  0.71337731680E+02  0.47000000000E+01 0.  1.
         -5    1    4    4    0  502 -0.49865870355E+02 -0.19178226183E+02 -0.52484496225E+02  0.75040800434E+02  0.47000000000E+01 0.  1.
<mgrwt>
<rscale>  0 0.29790250E+03</rscale>
<asrwt>0</asrwt>
<pdfrwt beam="1">  1       21 0.30988584E-01 0.29790250E+03</pdfrwt>
<pdfrwt beam="2">  1       21 0.16945714E-01 0.29790250E+03</pdfrwt>
<totfact> 0.30641916E+05</totfact>
</mgrwt>
</event>
<event>
 8    1  0.4760912E-006  0.3033573E+03  0.7546771E-02  0.1083574E+00
         21   -1    0    0  504  503  0.00000000000E+00  0.00000000000E+00  0.69164755775E+03  0.69164755775E+03  0.00000000000E+00 0.  1.
         21   -1    0    0  503  504 -0.00000000000E+00 -0.00000000000E+00 -0.33263208058E+02  0.33263208058E+02  0.00000000000E+00 0.  1.
         25    2    1    2    0    0 -0.24606011726E+02  0.32369356350E+02  0.51005279912E+03  0.52671768535E+03  0.12499772450E+03 0.  0.
         25    2    1    2    0    0  0.24606011726E+02 -0.32369356350E+02  0.14833155057E+03  0.19819308045E+03  0.12500006880E+03 0.  0.
          5    1    3    3  501    0  0.10133938640E+02 -0.39885059323E+02  0.90232930833E+02  0.99285378966E+02  0.47000000000E+01 0.  1.
         -5    1    3    3    0  501 -0.34739950365E+02  0.72254415673E+02  0.41981986828E+03  0.42743230638E+03  0.47000000000E+01 0.  1.
          5    1    4    4  502    0 -0.16270131564E+02 -0.72121363450E+02  0.78948193595E+02  0.10826410079E+03  0.47000000000E+01 0. -1.
         -5    1    4    4    0  502  0.40876143290E+02  0.39752007101E+02  0.69383356977E+02  0.89928979668E+02  0.47000000000E+01 0. -1.
<mgrwt>
<rscale>  0 0.30335732E+03</rscale>
<asrwt>0</asrwt>
<pdfrwt beam="1">  1       21 0.10640731E+00 0.30335732E+03</pdfrwt>
<pdfrwt beam="2">  1       21 0.51174171E-02 0.30335732E+03</pdfrwt>
<totfact> 0.17674551E+05</totfact>
</mgrwt>
</event>
<event>
 8    1  0.4760912E-006  0.2621021E+03  0.7546771E-02  0.1105887E+00
         21   -1    0    0  504  503  0.00000000000E+00  0.00000000000E+00  0.12494453484E+03  0.12494453484E+03  0.00000000000E+00 0. -1.
         21   -1    0    0  503  504 -0.00000000000E+00 -0.00000000000E+00 -0.13745600068E+03  0.13745600068E+03  0.00000000000E+00 0. -1.
         25    2    1    2    0    0 -0.38246343876E+02 -0.93227519612E+01 -0.61517372624E+01  0.13119482586E+03  0.12499816773E+03 0.  0.
         25    2    1    2    0    0  0.38246343876E+02  0.93227519612E+01 -0.63597285695E+01  0.13120570966E+03  0.12499918230E+03 0.  0.
          5    1    3    3  501    0 -0.12157813915E+02 -0.54763579297E+02  0.33329212568E+02  0.65420092228E+02  0.47000000000E+01 0. -1.
         -5    1    3    3    0  501 -0.26088529960E+02  0.45440827336E+02 -0.39480949831E+02  0.65774733629E+02  0.47000000000E+01 0. -1.
          5    1    4    4  502    0 -0.23026840796E+02 -0.22174985119E+02  0.37421746432E+02  0.49441303260E+02  0.47000000000E+01 0. -1.
         -5    1    4    4    0  502  0.61273184671E+02  0.31497737080E+02 -0.43781475001E+02  0.81764406402E+02  0.47000000000E+01 0. -1.
<mgrwt>
<rscale>  0 0.26210209E+03</rscale>
<asrwt>0</asrwt>
<pdfrwt beam="1">  1       21 0.19222236E-01 0.26210209E+03</pdfrwt>
<pdfrwt beam="2">  1       21 0.21147077E-01 0.26210209E+03</pdfrwt>
<totfact> 0.51007218E+05</totfact>
</mgrwt>
</event>
<event>
 8    1  0.4760912E-006  0.2915820E+03  0.7546771E-02  0.1089526E+00
         21   -1    0    0  504  503  0.00000000000E+00  0.00000000000E+00  0.30722141781E+02  0.30722141781E+02  0.00000000000E+00 0.  1.
         21   -1    0    0  503  504 -0.00000000000E+00 -0.00000000000E+00 -0.69184660999E+03  0.69184660999E+03  0.00000000000E+00 0.  1.
         25    2    1    2    0    0 -0.58654441966E+02 -0.16971544676E+02 -0.22249567586E+03  0.26240452480E+03  0.12499372771E+03 0.  0.
         25    2    1    2    0    0  0.58654441966E+02  0.16971544676E+02 -0.43862879234E+03  0.46016422697E+03  0.12501008526E+03 0.  0.
          5    1    3    3  501    0  0.17021742609E+02  0.38483320893E+02 -0.95286942843E+02  0.10427078778E+03  0.47000000000E+01 0.  1.
         -5    1    3    3    0  501 -0.75676184575E+02 -0.55454865569E+02 -0.12720873302E+03  0.15813373702E+03  0.47000000000E+01 0.  1.
          5    1    4    4  502    0  0.66474617873E+02  0.59942538613E+02 -0.22764046819E+03  0.24465129371E+03  0.47000000000E+01 0.  1.
         -5    1    4    4    0  502 -0.78201759071E+01 -0.42970993937E+02 -0.21098832415E+03  0.21551293325E+03  0.47000000000E+01 0.  1.
<mgrwt>
<rscale>  0 0.29158196E+03</rscale>
<asrwt>0</asrwt>
<pdfrwt beam="1">  1       21 0.47264834E-02 0.29158196E+03</pdfrwt>
<pdfrwt beam="2">  1       21 0.10643794E+00 0.29158196E+03</pdfrwt>
<totfact> 0.20293977E+05</totfact>
</mgrwt>
</event>
<event>
 8    1  0.4760912E-006  0.3133431E+03  0.7546771E-02  0.1078754E+00
         21   -1    0    0  504  503  0.00000000000E+00  0.00000000000E+00  0.34211668835E+02  0.34211668835E+02  0.00000000000E+00 0. -1.
         21   -1    0    0  503  504 -0.00000000000E+00 -0.00000000000E+00 -0.71747362104E+03  0.71747362104E+03  0.00000000000E+00 0. -1.
         25    2    1    2    0    0 -0.39830719156E+02 -0.75441062649E+02 -0.43890098249E+03  0.46425961028E+03  0.12500029272E+03 0.  0.
         25    2    1    2    0    0  0.39830719156E+02  0.75441062649E+02 -0.24436096971E+03  0.28742567960E+03  0.12499359044E+03 0.  0.
          5    1    3    3  501    0  0.91657338559E+01  0.29114892132E+02 -0.14914533545E+03  0.15230925352E+03  0.47000000000E+01 0.  1.
         -5    1    3    3    0  501 -0.48996453012E+02 -0.10455595478E+03 -0.28975564704E+03  0.31195035676E+03  0.47000000000E+01 0.  1.
          5    1    4    4  502    0  0.34187216173E+02  0.89908041237E+02 -0.88718937140E+02  0.13094029722E+03  0.47000000000E+01 0.  1.
         -5    1    4    4    0  502  0.56435029836E+01 -0.14466978587E+02 -0.15564203257E+03  0.15648538238E+03  0.47000000000E+01 0.  1.
<mgrwt>
<rscale>  0 0.31334307E+03</rscale>
<asrwt>0</asrwt>
<pdfrwt beam="1">  1       21 0.52633343E-02 0.31334307E+03</pdfrwt>
<pdfrwt beam="2">  1       21 0.11038054E+00 0.31334307E+03</pdfrwt>
<totfact> 0.15356349E+05</totfact>
</mgrwt>
</event>
<event>
 8    1  0.4760912E-006  0.2820183E+03  0.7546771E-02  0.1094592E+00
         21   -1    0    0  504  503  0.00000000000E+00  0.00000000000E+00  0.40749673331E+03  0.40749673331E+03  0.00000000000E+00 0.  1.
         21   -1    0    0  503  504 -0.00000000000E+00 -0.00000000000E+00 -0.48794469621E+02  0.48794469621E+02  0.00000000000E+00 0.  1.
         25    2    1    2    0    0  0.47470390295E+02  0.22455446593E+02  0.11666294056E+03  0.17886496235E+03  0.12499899207E+03 0.  0.
         25    2    1    2    0    0 -0.47470390295E+02 -0.22455446593E+02  0.24203932313E+03  0.27742624059E+03  0.12499839995E+03 0.  0.
          5    1    3    3  501    0  0.24574062271E+02  0.49195435147E+02 -0.17710000210E+01  0.55220483671E+02  0.47000000000E+01 0. -1.
         -5    1    3    3    0  501  0.22896328025E+02 -0.26739988554E+02  0.11843394058E+03  0.12364447868E+03  0.47000000000E+01 0. -1.
          5    1    4    4  502    0 -0.34415666142E+01  0.33741969235E+02  0.17845160806E+03  0.18170699295E+03  0.47000000000E+01 0. -1.
         -5    1    4    4    0  502 -0.44028823681E+02 -0.56197415828E+02  0.63587715074E+02  0.95719247640E+02  0.47000000000E+01 0. -1.
<mgrwt>
<rscale>  0 0.28201835E+03</rscale>
<asrwt>0</asrwt>
<pdfrwt beam="1">  1       21 0.62691803E-01 0.28201835E+03</pdfrwt>
<pdfrwt beam="2">  1       21 0.75068418E-02 0.28201835E+03</pdfrwt>
<totfact> 0.30911346E+05</totfact>
</mgrwt>
</event>
<event>
 8    1  0.4760912E-006  0.2649059E+03  0.7546771E-02  0.1104231E+00
         21   -1    0    0  504  503  0.00000000000E+00  0.00000000000E+00  0.32553473769E+03  0.32553473769E+03  0.00000000000E+00 0.  1.
         21   -1    0    0  503  504 -0.00000000000E+00 -0.00000000000E+00 -0.53892206107E+02  0.53892206107E+02  0.00000000000E+00 0.  1.
         25    2    1    2    0    0  0.35842968556E+02  0.19675178794E+00  0.17183542157E+03  0.21550275364E+03  0.12501706929E+03 0.  0.
         25    2    1    2    0    0 -0.35842968556E+02 -0.19675178794E+00  0.99807110013E+02  0.16392419016E+03  0.12499969521E+03 0.  0.
          5    1    3    3  501    0  0.36024617886E+01  0.21764553978E+02  0.17486369651E+03  0.17631243829E+03  0.47000000000E+01 0. -1.
         -5    1    3    3    0  501  0.32240506767E+02 -0.21567802190E+02 -0.30282749362E+01  0.39190315347E+02  0.47000000000E+01 0. -1.
          5    1    4    4  502    0 -0.35085589687E+02  0.57128114051E+01 -0.21876856899E+02  0.42003829416E+02  0.47000000000E+01 0.  1.
         -5    1    4    4    0  502 -0.75737886923E+00 -0.59095631930E+01  0.12168396691E+03  0.12192036074E+03  0.47000000000E+01 0.  1.
<mgrwt>
<rscale>  0 0.26490591E+03</rscale>
<asrwt>0</asrwt>
<pdfrwt beam="1">  1       21 0.50082266E-01 0.26490591E+03</pdfrwt>
<pdfrwt beam="2">  1       21 0.82911089E-02 0.26490591E+03</pdfrwt>
<totfact> 0.42154035E+05</totfact>
</mgrwt>
</event>
<event>
 8    1  0.4760912E-006  0.4533566E+03  0.7546771E-02  0.1026726E+00
         21   -1    0    0  504  503  0.00000000000E+00  0.00000000000E+00  0.44067813554E+02  0.44067813554E+02  0.00000000000E+00 0. -1.
         21   -1    0    0  503  504 -0.00000000000E+00 -0.00000000000E+00 -0.11659998130E+04  0.11659998130E+04  0.00000000000E+00 0. -1.
         25    2    1    2    0    0 -0.61625768633E+02 -0.10662281664E+03 -0.94396909218E+03  0.96013976529E+03  0.12499824598E+03 0.  0.
         25    2    1    2    0    0  0.61625768633E+02  0.10662281664E+03 -0.17796290722E+03  0.24992786123E+03  0.12500791608E+03 0.  0.
          5    1    3    3  501    0 -0.47780814521E+02 -0.74693317616E+02 -0.89755955417E+03  0.90194087457E+03  0.47000000000E+01 0.  1.
         -5    1    3    3    0  501 -0.13844954111E+02 -0.31929499027E+02 -0.46409538015E+02  0.58198890721E+02  0.47000000000E+01 0.  1.
          5    1    4    4  502    0  0.39283931706E+02  0.10651344843E+03 -0.19201798854E+03  0.22311732320E+03  0.47000000000E+01 0.  1.
         -5    1    4    4    0  502  0.22341836926E+02  0.10936821121E+00  0.14055081319E+02  0.26810538031E+02  0.47000000000E+01 0.  1.
<mgrwt>
<rscale>  0 0.45335665E+03</rscale>
<asrwt>0</asrwt>
<pdfrwt beam="1">  1       21 0.67796633E-02 0.45335665E+03</pdfrwt>
<pdfrwt beam="2">  1       21 0.17938459E+00 0.45335665E+03</pdfrwt>
<totfact> 0.26153823E+04</totfact>
</mgrwt>
</event>
<event>
 8    1  0.4760912E-006  0.5310951E+03  0.7546771E-02  0.1005967E+00
         21   -1    0    0  504  503  0.00000000000E+00  0.00000000000E+00  0.11131139541E+04  0.11131139541E+04  0.00000000000E+00 0. -1.
         21   -1    0    0  503  504 -0.00000000000E+00 -0.00000000000E+00 -0.63349759659E+02  0.63349759659E+02  0.00000000000E+00 0. -1.
         25    2    1    2    0    0 -0.25855105843E+02 -0.22323105920E+03  0.37806092852E+03  0.45722104118E+03  0.12498168879E+03 0.  0.
         25    2    1    2    0    0  0.25855105843E+02  0.22323105920E+03  0.67170326592E+03  0.71924267259E+03  0.12499660928E+03 0.  0.
          5    1    3    3  501    0 -0.25968667083E+02 -0.19226563180E+03  0.37909672863E+03  0.42588362788E+03  0.47000000000E+01 0. -1.
         -5    1    3    3    0  501  0.11356123938E+00 -0.30965427399E+02 -0.10358001070E+01  0.31337413295E+02  0.47000000000E+01 0. -1.
          5    1    4    4  502    0 -0.61406332300E+01  0.20282425500E+03  0.44196937735E+03  0.48634803002E+03  0.47000000000E+01 0.  1.
         -5    1    4    4    0  502  0.31995739073E+02  0.20406804200E+02  0.22973388858E+03  0.23289464257E+03  0.47000000000E+01 0.  1.
<mgrwt>
<rscale>  0 0.53109510E+03</rscale>
<asrwt>0</asrwt>
<pdfrwt beam="1">  1       21 0.17124829E+00 0.53109510E+03</pdfrwt>
<pdfrwt beam="2">  1       21 0.97461176E-02 0.53109510E+03</pdfrwt>
<totfact> 0.15356415E+04</totfact>
</mgrwt>
</event>
<event>
 8    1  0.4760912E-006  0.2574540E+03  0.7546771E-02  0.1108683E+00
         21   -1    0    0  504  503  0.00000000000E+00  0.00000000000E+00  0.16595145048E+03  0.16595145048E+03  0.00000000000E+00 0. -1.
         21   -1    0    0  503  504 -0.00000000000E+00 -0.00000000000E+00 -0.99852335318E+02  0.99852335318E+02  0.00000000000E+00 0. -1.
         25    2    1    2    0    0 -0.30182524719E+01 -0.30574810282E+02  0.32217045755E+02  0.13269759613E+03  0.12500714023E+03 0.  0.
         25    2    1    2    0    0  0.30182524719E+01  0.30574810282E+02  0.33882069406E+02  0.13310618967E+03  0.12500133691E+03 0.  0.
          5    1    3    3  501    0  0.17948609555E+02  0.24297443927E+02  0.60157609929E+02  0.67479970352E+02  0.47000000000E+01 0. -1.
         -5    1    3    3    0  501 -0.20966862027E+02 -0.54872254210E+02 -0.27940564174E+02  0.65217625775E+02  0.47000000000E+01 0. -1.
          5    1    4    4  502    0 -0.57194230764E+02  0.21005155634E+02 -0.38858931256E+01  0.61233869397E+02  0.47000000000E+01 0. -1.
         -5    1    4    4    0  502  0.60212483236E+02  0.95696546483E+01  0.37767962532E+02  0.71872320273E+02  0.47000000000E+01 0. -1.
<mgrwt>
<rscale>  0 0.25745399E+03</rscale>
<asrwt>0</asrwt>
<pdfrwt beam="1">  1       21 0.25530992E-01 0.25745399E+03</pdfrwt>
<pdfrwt beam="2">  1       21 0.15361898E-01 0.25745399E+03</pdfrwt>
<totfact> 0.53998632E+05</totfact>
</mgrwt>
</event>
<event>
 8    1  0.4760912E-006  0.3094746E+03  0.7546771E-02  0.1080598E+00
         21   -1    0    0  504  503  0.00000000000E+00  0.00000000000E+00  0.40598289758E+03  0.40598289758E+03  0.00000000000E+00 0.  1.
         21   -1    0    0  503  504 -0.00000000000E+00 -0.00000000000E+00 -0.58976941979E+02  0.58976941979E+02  0.00000000000E+00 0.  1.
         25    2    1    2    0    0  0.83935898422E+02  0.35676298305E+02  0.17203601029E+03  0.23138483876E+03  0.12499808586E+03 0.  0.
         25    2    1    2    0    0 -0.83935898422E+02 -0.35676298305E+02  0.17496994532E+03  0.23357500080E+03  0.12499906372E+03 0.  0.
          5    1    3    3  501    0 -0.22861103755E+02  0.35080271781E+02  0.23090963785E+02  0.48047249053E+02  0.47000000000E+01 0. -1.
         -5    1    3    3    0  501  0.10679700218E+03  0.59602652373E+00  0.14894504650E+03  0.18333758971E+03  0.47000000000E+01 0. -1.
          5    1    4    4  502    0  0.73929415231E+01  0.29408852654E+02  0.82907286360E+02  0.88403870562E+02  0.47000000000E+01 0.  1.
         -5    1    4    4    0  502 -0.91328839946E+02 -0.65085150959E+02  0.92062658956E+02  0.14517113024E+03  0.47000000000E+01 0.  1.
<mgrwt>
<rscale>  0 0.30947459E+03</rscale>
<asrwt>0</asrwt>
<pdfrwt beam="1">  1       21 0.62458906E-01 0.30947459E+03</pdfrwt>
<pdfrwt beam="2">  1       21 0.90733759E-02 0.30947459E+03</pdfrwt>
<totfact> 0.22190771E+05</totfact>
</mgrwt>
</event>
<event>
 8    1  0.4760912E-006  0.3081837E+03  0.7546771E-02  0.1081220E+00
         21   -1    0    0  504  503  0.00000000000E+00  0.00000000000E+00  0.28370127576E+02  0.28370127576E+02  0.00000000000E+00 0. -1.
         21   -1    0    0  503  504 -0.00000000000E+00 -0.00000000000E+00 -0.83694723555E+03  0.83694723555E+03  0.00000000000E+00 0. -1.
         25    2    1    2    0    0  0.50659337971E+02  0.14151692015E+02 -0.19886357186E+03  0.24070288500E+03  0.12499807889E+03 0.  0.
         25    2    1    2    0    0 -0.50659337971E+02 -0.14151692015E+02 -0.60971353611E+03  0.62461447812E+03  0.12500404491E+03 0.  0.
          5    1    3    3  501    0 -0.15237599311E+02 -0.42770506805E+02 -0.46574512347E+02  0.65213310647E+02  0.47000000000E+01 0.  1.
         -5    1    3    3    0  501  0.65896937282E+02  0.56922198820E+02 -0.15228905951E+03  0.17548957436E+03  0.47000000000E+01 0.  1.
          5    1    4    4  502    0  0.30599694952E+02 -0.14907953576E+02 -0.61995563237E+02  0.70881085432E+02  0.47000000000E+01 0.  1.
         -5    1    4    4    0  502 -0.81259032923E+02  0.75626156096E+00 -0.54771797288E+03  0.55373339269E+03  0.47000000000E+01 0.  1.
<mgrwt>
<rscale>  0 0.30818371E+03</rscale>
<asrwt>0</asrwt>
<pdfrwt beam="1">  1       21 0.43646358E-02 0.30818371E+03</pdfrwt>
<pdfrwt beam="2">  1       21 0.12876109E+00 0.30818371E+03</pdfrwt>
<totfact> 0.14394932E+05</totfact>
</mgrwt>
</event>
<event>
 8    1  0.4760912E-006  0.3222358E+03  0.7546771E-02  0.1074625E+00
         21   -1    0    0  504  503  0.00000000000E+00  0.00000000000E+00  0.29653931147E+02  0.29653931147E+02  0.00000000000E+00 0. -1.
         21   -1    0    0  503  504 -0.00000000000E+00 -0.00000000000E+00 -0.87539754040E+03  0.87539754040E+03  0.00000000000E+00 0. -1.
         25    2    1    2    0    0 -0.34016819994E+02  0.31121152900E+02 -0.67732546327E+03  0.69030525602E+03  0.12500357236E+03 0.  0.
         25    2    1    2    0    0  0.34016819994E+02 -0.31121152900E+02 -0.16841814599E+03  0.21474621553E+03  0.12500237992E+03 0.  0.
          5    1    3    3  501    0  0.22542378934E+02  0.56000277074E+02 -0.19972857336E+03  0.20870501407E+03  0.47000000000E+01 0. -1.
         -5    1    3    3    0  501 -0.56559198928E+02 -0.24879124174E+02 -0.47759688991E+03  0.48160024195E+03  0.47000000000E+01 0. -1.
          5    1    4    4  502    0  0.55323291214E+02  0.21341799718E+02 -0.33305346837E+02  0.68172392462E+02  0.47000000000E+01 0. -1.
         -5    1    4    4    0  502 -0.21306471220E+02 -0.52462952618E+02 -0.13511279915E+03  0.14657382307E+03  0.47000000000E+01 0. -1.
<mgrwt>
<rscale>  0 0.32223580E+03</rscale>
<asrwt>0</asrwt>
<pdfrwt beam="1">  1       21 0.45621431E-02 0.32223580E+03</pdfrwt>
<pdfrwt beam="2">  1       21 0.13467655E+00 0.32223580E+03</pdfrwt>
<totfact> 0.11844853E+05</totfact>
</mgrwt>
</event>
<event>
 8    1  0.4760912E-006  0.2848302E+03  0.7546771E-02  0.1093080E+00
         21   -1    0    0  504  503  0.00000000000E+00  0.00000000000E+00  0.12466332321E+04  0.12466332321E+04  0.00000000000E+00 0.  1.
         21   -1    0    0  503  504 -0.00000000000E+00 -0.00000000000E+00 -0.16269463283E+02  0.16269463283E+02  0.00000000000E+00 0.  1.
         25    2    1    2    0    0 -0.68088846514E+02  0.89909910926E+00  0.59574821039E+03  0.61251895704E+03  0.12500657244E+03 0.  0.
         25    2    1    2    0    0  0.68088846514E+02 -0.89909910926E+00  0.63461555838E+03  0.65038373829E+03  0.12500080280E+03 0.  0.
          5    1    3    3  501    0 -0.50018901128E+02  0.18923070781E+01  0.68656336996E+02  0.85095557498E+02  0.47000000000E+01 0.  1.
         -5    1    3    3    0  501 -0.18069945386E+02 -0.99320796886E+00  0.52709187340E+03  0.52742339955E+03  0.47000000000E+01 0.  1.
          5    1    4    4  502    0  0.83372603252E+02  0.38821469254E+02  0.32406126612E+03  0.33689151317E+03  0.47000000000E+01 0.  1.
         -5    1    4    4    0  502 -0.15283756738E+02 -0.39720568363E+02  0.31055429226E+03  0.31349222512E+03  0.47000000000E+01 0.  1.
<mgrwt>
<rscale>  0 0.28483015E+03</rscale>
<asrwt>0</asrwt>
<pdfrwt beam="1">  1       21 0.19178965E+00 0.28483015E+03</pdfrwt>
<pdfrwt beam="2">  1       21 0.25029953E-02 0.28483015E+03</pdfrwt>
<totfact> 0.12407830E+05</totfact>
</mgrwt>
</event>
<event>
 8    1  0.4760912E-006  0.2809350E+03  0.7546771E-02  0.1095179E+00
         21   -1    0    0  504  503  0.00000000000E+00  0.00000000000E+00  0.84446980308E+03  0.84446980308E+03  0.00000000000E+00 0.  1.
         21   -1    0    0  503  504 -0.00000000000E+00 -0.00000000000E+00 -0.23365093470E+02  0.23365093470E+02  0.00000000000E+00 0.  1.
         25    2    1    2    0    0  0.23829552474E+02  0.44309579042E+02  0.53314889245E+03  0.54991182817E+03  0.12499636346E+03 0.  0.
         25    2    1    2    0    0 -0.23829552474E+02 -0.44309579042E+02  0.28795581716E+03  0.31792306838E+03  0.12500135361E+03 0.  0.
          5    1    3    3  501    0  0.66552907619E+02  0.30623259422E+02  0.44371103957E+03  0.44974287117E+03  0.47000000000E+01 0.  1.
         -5    1    3    3    0  501 -0.42723355145E+02  0.13686319620E+02  0.89437852875E+02  0.10016895700E+03  0.47000000000E+01 0.  1.
          5    1    4    4  502    0 -0.49253946268E+02 -0.74158939457E+02  0.23861676139E+03  0.25472641861E+03  0.47000000000E+01 0. -1.
         -5    1    4    4    0  502  0.25424393794E+02  0.29849360415E+02  0.49339055773E+02  0.63196649766E+02  0.47000000000E+01 0. -1.
<mgrwt>
<rscale>  0 0.28093498E+03</rscale>
<asrwt>0</asrwt>
<pdfrwt beam="1">  1       21 0.12991841E+00 0.28093498E+03</pdfrwt>
<pdfrwt beam="2">  1       21 0.35946304E-02 0.28093498E+03</pdfrwt>
<totfact> 0.19686158E+05</totfact>
</mgrwt>
</event>
<event>
 8    1  0.4760912E-006  0.4157432E+03  0.7546771E-02  0.1038461E+00
         21   -1    0    0  504  503  0.00000000000E+00  0.00000000000E+00  0.61053244971E+03  0.61053244971E+03  0.00000000000E+00 0.  1.
         21   -1    0    0  503  504 -0.00000000000E+00 -0.00000000000E+00 -0.70775279378E+02  0.70775279378E+02  0.00000000000E+00 0.  1.
         25    2    1    2    0    0 -0.74699613458E+02 -0.43969969999E+02  0.50206581675E+03  0.52460354383E+03  0.12500161335E+03 0.  0.
         25    2    1    2    0    0  0.74699613458E+02  0.43969969999E+02  0.37691353585E+02  0.15670418526E+03  0.12498869161E+03 0.  0.
          5    1    3    3  501    0 -0.70991123547E+02 -0.33133858335E+00  0.45346428421E+03  0.45901176070E+03  0.47000000000E+01 0.  1.
         -5    1    3    3    0  501 -0.37084899102E+01 -0.43638631416E+02  0.48601532540E+02  0.65591783132E+02  0.47000000000E+01 0.  1.
          5    1    4    4  502    0  0.47961875574E+02  0.70150393909E+02  0.67504006541E+02  0.10862918656E+03  0.47000000000E+01 0.  1.
         -5    1    4    4    0  502  0.26737737883E+02 -0.26180423910E+02 -0.29812652956E+02  0.48074998695E+02  0.47000000000E+01 0.  1.
<mgrwt>
<rscale>  0 0.41574321E+03</rscale>
<asrwt>0</asrwt>
<pdfrwt beam="1">  1       21 0.93928065E-01 0.41574321E+03</pdfrwt>
<pdfrwt beam="2">  1       21 0.10888505E-01 0.41574321E+03</pdfrwt>
<totfact> 0.61611645E+04</totfact>
</mgrwt>
</event>
<event>
 8    1  0.4760912E-006  0.3323516E+03  0.7546771E-02  0.1070101E+00
         21   -1    0    0  504  503  0.00000000000E+00  0.00000000000E+00  0.30616931242E+03  0.30616931242E+03  0.00000000000E+00 0.  1.
         21   -1    0    0  503  504 -0.00000000000E+00 -0.00000000000E+00 -0.90193198516E+02  0.90193198516E+02  0.00000000000E+00 0.  1.
         25    2    1    2    0    0  0.30732093518E+02  0.19583744288E+02 -0.15153849333E+02  0.13108278957E+03  0.12500029584E+03 0.  0.
         25    2    1    2    0    0 -0.30732093518E+02 -0.19583744288E+02  0.23112996323E+03  0.26527972136E+03  0.12499714417E+03 0.  0.
          5    1    3    3  501    0  0.52361391317E+02  0.51461269702E+02  0.22579861986E+02  0.76953997605E+02  0.47000000000E+01 0. -1.
         -5    1    3    3    0  501 -0.21629297799E+02 -0.31877525414E+02 -0.37733711319E+02  0.54128791966E+02  0.47000000000E+01 0. -1.
          5    1    4    4  502    0  0.43405189256E+01 -0.28077710674E+02  0.22681237735E+03  0.22863320507E+03  0.47000000000E+01 0. -1.
         -5    1    4    4    0  502 -0.35072612443E+02  0.84939663859E+01  0.43175858839E+01  0.36646516293E+02  0.47000000000E+01 0. -1.
<mgrwt>
<rscale>  0 0.33235156E+03</rscale>
<asrwt>0</asrwt>
<pdfrwt beam="1">  1       21 0.47102971E-01 0.33235156E+03</pdfrwt>
<pdfrwt beam="2">  1       21 0.13875877E-01 0.33235156E+03</pdfrwt>
<totfact> 0.18785133E+05</totfact>
</mgrwt>
</event>
<event>
 8    1  0.4760912E-006  0.2887204E+03  0.7546771E-02  0.1091019E+00
         21   -1    0    0  504  503  0.00000000000E+00  0.00000000000E+00  0.50647222283E+03  0.50647222283E+03  0.00000000000E+00 0. -1.
         21   -1    0    0  503  504 -0.00000000000E+00 -0.00000000000E+00 -0.41147096932E+02  0.41147096932E+02  0.00000000000E+00 0. -1.
         25    2    1    2    0    0  0.56012984782E+02  0.91491386448E+01  0.31737924674E+03  0.34579147470E+03  0.12498398502E+03 0.  0.
         25    2    1    2    0    0 -0.56012984782E+02 -0.91491386448E+01  0.14794587916E+03  0.20182784506E+03  0.12500133871E+03 0.  0.
          5    1    3    3  501    0 -0.33716602848E+02 -0.23020324919E+02  0.11259417669E+03  0.11985943138E+03  0.47000000000E+01 0.  1.
         -5    1    3    3    0  501  0.89729587631E+02  0.32169463564E+02  0.20478507004E+03  0.22593204331E+03  0.47000000000E+01 0.  1.
          5    1    4    4  502    0 -0.89850793690E+02 -0.32202640635E+02  0.11110083739E+03  0.14654576506E+03  0.47000000000E+01 0. -1.
         -5    1    4    4    0  502  0.33837808907E+02  0.23053501990E+02  0.36845041777E+02  0.55282080001E+02  0.47000000000E+01 0. -1.
<mgrwt>
<rscale>  0 0.28872036E+03</rscale>
<asrwt>0</asrwt>
<pdfrwt beam="1">  1       21 0.77918799E-01 0.28872036E+03</pdfrwt>
<pdfrwt beam="2">  1       21 0.63303230E-02 0.28872036E+03</pdfrwt>
<totfact> 0.25586580E+05</totfact>
</mgrwt>
</event>
<event>
 8    1  0.4760912E-006  0.2946148E+03  0.7546771E-02  0.1087964E+00
         21   -1    0    0  504  503  0.00000000000E+00  0.00000000000E+00  0.40838627944E+02  0.40838627944E+02  0.00000000000E+00 0. -1.
         21   -1    0    0  503  504 -0.00000000000E+00 -0.00000000000E+00 -0.53134655033E+03  0.53134655033E+03  0.00000000000E+00 0. -1.
         25    2    1    2    0    0  0.32110523853E+02 -0.49603520641E+02 -0.34391531617E+03  0.37066617414E+03  0.12499629174E+03 0.  0.
         25    2    1    2    0    0 -0.32110523853E+02  0.49603520641E+02 -0.14659260621E+03  0.20151900414E+03  0.12501568634E+03 0.  0.
          5    1    3    3  501    0  0.43491046022E+02  0.23093513816E+02 -0.22787645549E+03  0.23318351235E+03  0.47000000000E+01 0. -1.
         -5    1    3    3    0  501 -0.11380522169E+02 -0.72697034457E+02 -0.11603886068E+03  0.13748266179E+03  0.47000000000E+01 0. -1.
          5    1    4    4  502    0  0.29707056175E+02  0.57245063635E+02 -0.11399699622E+03  0.13106071740E+03  0.47000000000E+01 0. -1.
         -5    1    4    4    0  502 -0.61817580028E+02 -0.76415429934E+01 -0.32595609993E+02  0.70458286742E+02  0.47000000000E+01 0. -1.
<mgrwt>
<rscale>  0 0.29461476E+03</rscale>
<asrwt>0</asrwt>
<pdfrwt beam="1">  1       21 0.62828663E-02 0.29461476E+03</pdfrwt>
<pdfrwt beam="2">  1       21 0.81745617E-01 0.29461476E+03</pdfrwt>
<totfact> 0.23202040E+05</totfact>
</mgrwt>
</event>
<event>
 8    1  0.4760912E-006  0.2647685E+03  0.7546771E-02  0.1104312E+00
         21   -1    0    0  504  503  0.00000000000E+00  0.00000000000E+00  0.12634153958E+02  0.12634153958E+02  0.00000000000E+00 0.  1.
         21   -1    0    0  503  504 -0.00000000000E+00 -0.00000000000E+00 -0.13871601409E+04  0.13871601409E+04  0.00000000000E+00 0.  1.
         25    2    1    2    0    0 -0.39847880782E+02 -0.12790230797E+02 -0.62314705726E+03  0.63693769266E+03  0.12500370295E+03 0.  0.
         25    2    1    2    0    0  0.39847880782E+02  0.12790230797E+02 -0.75137892971E+03  0.76285660223E+03  0.12501382300E+03 0.  0.
          5    1    3    3  501    0  0.29858027150E+02  0.32957120009E+02 -0.29298757252E+03  0.29638063566E+03  0.47000000000E+01 0.  1.
         -5    1    3    3    0  501 -0.69705907932E+02 -0.45747350806E+02 -0.33015948475E+03  0.34055705700E+03  0.47000000000E+01 0.  1.
          5    1    4    4  502    0  0.38787373755E+02 -0.41914319447E+02 -0.58162588776E+03  0.58444164281E+03  0.47000000000E+01 0. -1.
         -5    1    4    4    0  502  0.10605070272E+01  0.54704550243E+02 -0.16975304195E+03  0.17841495942E+03  0.47000000000E+01 0. -1.
<mgrwt>
<rscale>  0 0.26476854E+03</rscale>
<asrwt>0</asrwt>
<pdfrwt beam="1">  1       21 0.19437169E-02 0.26476854E+03</pdfrwt>
<pdfrwt beam="2">  1       21 0.21340915E+00 0.26476854E+03</pdfrwt>
<totfact> 0.13733306E+05</totfact>
</mgrwt>
</event>
<event>
 8    1  0.4760912E-006  0.3421507E+03  0.7546771E-02  0.1065884E+00
         21   -1    0    0  504  503  0.00000000000E+00  0.00000000000E+00  0.33275895912E+02  0.33275895912E+02  0.00000000000E+00 0.  1.
         21   -1    0    0  503  504 -0.00000000000E+00 -0.00000000000E+00 -0.87951897491E+03  0.87951897491E+03  0.00000000000E+00 0.  1.
         25    2    1    2    0    0 -0.73468638937E+02  0.63278694404E+02 -0.59676466025E+03  0.61737827843E+03  0.12500417945E+03 0.  0.
         25    2    1    2    0    0  0.73468638937E+02 -0.63278694404E+02 -0.24947841874E+03  0.29541659239E+03  0.12501858888E+03 0.  0.
          5    1    3    3  501    0 -0.97537472995E+02  0.28221464077E+02 -0.28281525185E+03  0.30052714745E+03  0.47000000000E+01 0. -1.
         -5    1    3    3    0  501  0.24068834057E+02  0.35057230327E+02 -0.31394940840E+03  0.31685113099E+03  0.47000000000E+01 0. -1.
          5    1    4    4  502    0  0.92176837641E+02 -0.39452094631E+02 -0.95951761147E+02  0.13885916475E+03  0.47000000000E+01 0. -1.
         -5    1    4    4    0  502 -0.18708198704E+02 -0.23826599773E+02 -0.15352665759E+03  0.15655742763E+03  0.47000000000E+01 0. -1.
<mgrwt>
<rscale>  0 0.34215074E+03</rscale>
<asrwt>0</asrwt>
<pdfrwt beam="1">  1       21 0.51193688E-02 0.34215074E+03</pdfrwt>
<pdfrwt beam="2">  1       21 0.13531061E+00 0.34215074E+03</pdfrwt>
<totfact> 0.95513172E+04</totfact>
</mgrwt>
</event>
<event>
 8    1  0.4760912E-006  0.7502374E+03  0.7546771E-02  0.9634978E-01
         21   -1    0    0  504  503  0.00000000000E+00  0.00000000000E+00  0.18466593096E+03  0.18466593096E+03  0.00000000000E+00 0. -1.
         21   -1    0    0  503  504 -0.00000000000E+00 -0.00000000000E+00 -0.76199237289E+03  0.76199237289E+03  0.00000000000E+00 0. -1.
         25    2    1    2    0    0  0.23036698263E+03  0.26831283853E+03 -0.29551896275E+03  0.47751057633E+03  0.12499666856E+03 0.  0.
         25    2    1    2    0    0 -0.23036698263E+03 -0.26831283853E+03 -0.28180747918E+03  0.46914772752E+03  0.12499363547E+03 0.  0.
          5    1    3    3  501    0  0.34451170581E+02  0.32533451586E+02 -0.10822949936E+03  0.11824137668E+03  0.47000000000E+01 0.  1.
         -5    1    3    3    0  501  0.19591581205E+03  0.23577938694E+03 -0.18728946339E+03  0.35926919965E+03  0.47000000000E+01 0.  1.
          5    1    4    4  502    0 -0.13776237198E+03 -0.11485885961E+03 -0.20947797496E+03  0.27581541066E+03  0.47000000000E+01 0. -1.
         -5    1    4    4    0  502 -0.92604610650E+02 -0.15345397892E+03 -0.72329504217E+02  0.19333231686E+03  0.47000000000E+01 0. -1.
<mgrwt>
<rscale>  0 0.75023738E+03</rscale>
<asrwt>0</asrwt>
<pdfrwt beam="1">  1       21 0.28410143E-01 0.75023738E+03</pdfrwt>
<pdfrwt beam="2">  1       21 0.11722960E+00 0.75023738E+03</pdfrwt>
<totfact> 0.54007366E+03</totfact>
</mgrwt>
</event>
<event>
 8    1  0.4760912E-006  0.3334132E+03  0.7546771E-02  0.1069637E+00
         21   -1    0    0  504  503  0.00000000000E+00  0.00000000000E+00  0.13345730025E+03  0.13345730025E+03  0.00000000000E+00 0. -1.
         21   -1    0    0  503  504 -0.00000000000E+00 -0.00000000000E+00 -0.20823957607E+03  0.20823957607E+03  0.00000000000E+00 0. -1.
         25    2    1    2    0    0 -0.32499905445E+02 -0.46813342465E+02  0.59394882617E+02  0.14966615545E+03  0.12499789246E+03 0.  0.
         25    2    1    2    0    0  0.32499905445E+02  0.46813342465E+02 -0.13417715843E+03  0.19203072087E+03  0.12499822010E+03 0.  0.
          5    1    3    3  501    0  0.33128741146E+02 -0.61450306244E+02  0.30594261543E+02  0.76365911680E+02  0.47000000000E+01 0. -1.
         -5    1    3    3    0  501 -0.65628646591E+02  0.14636963779E+02  0.28800621073E+02  0.73300243766E+02  0.47000000000E+01 0. -1.
          5    1    4    4  502    0 -0.24187037139E+02  0.65899619114E+02 -0.41667568821E+02  0.81768263136E+02  0.47000000000E+01 0.  1.
         -5    1    4    4    0  502  0.56686942584E+02 -0.19086276649E+02 -0.92509589613E+02  0.11026245774E+03  0.47000000000E+01 0.  1.
<mgrwt>
<rscale>  0 0.33341321E+03</rscale>
<asrwt>0</asrwt>
<pdfrwt beam="1">  1       21 0.20531892E-01 0.33341321E+03</pdfrwt>
<pdfrwt beam="2">  1       21 0.32036858E-01 0.33341321E+03</pdfrwt>
<totfact> 0.19869026E+05</totfact>
</mgrwt>
</event>
<event>
 8    1  0.4760912E-006  0.4094244E+03  0.7546771E-02  0.1040564E+00
         21   -1    0    0  504  503  0.00000000000E+00  0.00000000000E+00  0.13552398578E+04  0.13552398578E+04  0.00000000000E+00 0.  1.
         21   -1    0    0  503  504 -0.00000000000E+00 -0.00000000000E+00 -0.30922265307E+02  0.30922265307E+02  0.00000000000E+00 0.  1.
         25    2    1    2    0    0  0.91764359317E+01 -0.16081326343E+03  0.60064840690E+03  0.63432096742E+03  0.12505785988E+03 0.  0.
         25    2    1    2    0    0 -0.91764359317E+01  0.16081326343E+03  0.72366918564E+03  0.75184115574E+03  0.12499168193E+03 0.  0.
          5    1    3    3  501    0 -0.31166490824E+02 -0.21511624395E+02  0.27722761737E+03  0.27984163731E+03  0.47000000000E+01 0. -1.
         -5    1    3    3    0  501  0.40342926755E+02 -0.13930163903E+03  0.32342078953E+03  0.35447933011E+03  0.47000000000E+01 0. -1.
          5    1    4    4  502    0 -0.37527913712E+02  0.16007495306E+03  0.50065787904E+03  0.52698456975E+03  0.47000000000E+01 0.  1.
         -5    1    4    4    0  502  0.28351477781E+02  0.73831036840E+00  0.22301130659E+03  0.22485658599E+03  0.47000000000E+01 0.  1.
<mgrwt>
<rscale>  0 0.40942441E+03</rscale>
<asrwt>0</asrwt>
<pdfrwt beam="1">  1       21 0.20849839E+00 0.40942441E+03</pdfrwt>
<pdfrwt beam="2">  1       21 0.47572726E-02 0.40942441E+03</pdfrwt>
<totfact> 0.31159029E+04</totfact>
</mgrwt>
</event>
<event>
 8    1  0.4760912E-006  0.3223987E+03  0.7546771E-02  0.1074551E+00
         21   -1    0    0  504  503  0.00000000000E+00  0.00000000000E+00  0.26421318464E+03  0.26421318464E+03  0.00000000000E+00 0. -1.
         21   -1    0    0  503  504 -0.00000000000E+00 -0.00000000000E+00 -0.98349504921E+02  0.98349504921E+02  0.00000000000E+00 0. -1.
         25    2    1    2    0    0  0.64663214256E+01 -0.87564401050E+02  0.14082810436E+03  0.20776864921E+03  0.12500367584E+03 0.  0.
         25    2    1    2    0    0 -0.64663214256E+01  0.87564401050E+02  0.25035575359E+02  0.15479404035E+03  0.12500030900E+03 0.  0.
          5    1    3    3  501    0  0.27136057118E+02  0.25573487907E+02  0.31993827845E+02  0.49356498050E+02  0.47000000000E+01 0.  1.
         -5    1    3    3    0  501 -0.20669735692E+02 -0.11313788896E+03  0.10883427651E+03  0.15841215116E+03  0.47000000000E+01 0.  1.
          5    1    4    4  502    0 -0.58363508070E+02  0.33674754945E+02 -0.15886451283E+02  0.69388453861E+02  0.47000000000E+01 0.  1.
         -5    1    4    4    0  502  0.51897186644E+02  0.53889646105E+02  0.40922026642E+02  0.85405586488E+02  0.47000000000E+01 0.  1.
<mgrwt>
<rscale>  0 0.32239873E+03</rscale>
<asrwt>0</asrwt>
<pdfrwt beam="1">  1       21 0.40648182E-01 0.32239873E+03</pdfrwt>
<pdfrwt beam="2">  1       21 0.15130693E-01 0.32239873E+03</pdfrwt>
<totfact> 0.21788397E+05</totfact>
</mgrwt>
</event>
<event>
 8    1  0.4760912E-006  0.3286101E+03  0.7546771E-02  0.1071754E+00
         21   -1    0    0  504  503  0.00000000000E+00  0.00000000000E+00  0.10172947776E+04  0.10172947776E+04  0.00000000000E+00 0. -1.
         21   -1    0    0  503  504 -0.00000000000E+00 -0.00000000000E+00 -0.26537189825E+02  0.26537189825E+02  0.00000000000E+00 0. -1.
         25    2    1    2    0    0 -0.96539783048E+02 -0.44460306877E+02  0.46781724989E+03  0.49575591543E+03  0.12499719912E+03 0.  0.
         25    2    1    2    0    0  0.96539783048E+02  0.44460306877E+02  0.52294033792E+03  0.54807605203E+03  0.12499645270E+03 0.  0.
          5    1    3    3  501    0  0.18869429885E+02 -0.24502654369E+02  0.33225071909E+02  0.45633659274E+02  0.47000000000E+01 0. -1.
         -5    1    3    3    0  501 -0.11540921293E+03 -0.19957652507E+02  0.43459217798E+03  0.45012225615E+03  0.47000000000E+01 0. -1.
          5    1    4    4  502    0  0.11217238610E+03  0.18417864251E+02  0.26607507916E+03  0.28937847135E+03  0.47000000000E+01 0. -1.
         -5    1    4    4    0  502 -0.15632603052E+02  0.26042442625E+02  0.25686525876E+03  0.25869758069E+03  0.47000000000E+01 0. -1.
<mgrwt>
<rscale>  0 0.32861007E+03</rscale>
<asrwt>0</asrwt>
<pdfrwt beam="1">  1       21 0.15650686E+00 0.32861007E+03</pdfrwt>
<pdfrwt beam="2">  1       21 0.40826454E-02 0.32861007E+03</pdfrwt>
<totfact> 0.95769571E+04</totfact>
</mgrwt>
</event>
<event>
 8    1  0.4760912E-006  0.3575005E+03  0.7546771E-02  0.1059578E+00
         21   -1    0    0  504  503  0.00000000000E+00  0.00000000000E+00  0.44157478565E+02  0.44157478565E+02  0.00000000000E+00 0.  1.
         21   -1    0    0  503  504 -0.00000000000E+00 -0.00000000000E+00 -0.72358427419E+03  0.72358427419E+03  0.00000000000E+00 0.  1.
         25    2    1    2    0    0  0.11338380000E+03  0.58534359875E+02 -0.35401781220E+03  0.39652989137E+03  0.12500074402E+03 0.  0.
         25    2    1    2    0    0 -0.11338380000E+03 -0.58534359875E+02 -0.32540898342E+03  0.37121186138E+03  0.12500032860E+03 0.  0.
          5    1    3    3  501    0 -0.91322724745E+01  0.54828969423E+02 -0.11908652479E+03  0.13150401011E+03  0.47000000000E+01 0. -1.
         -5    1    3    3    0  501  0.12251607248E+03  0.37053904523E+01 -0.23493128742E+03  0.26502588127E+03  0.47000000000E+01 0. -1.
          5    1    4    4  502    0 -0.13601467886E+03 -0.26985857854E+02 -0.26736486020E+03  0.30122132704E+03  0.47000000000E+01 0. -1.
         -5    1    4    4    0  502  0.22630878859E+02 -0.31548502021E+02 -0.58044123221E+02  0.69990534347E+02  0.47000000000E+01 0. -1.
<mgrwt>
<rscale>  0 0.35750053E+03</rscale>
<asrwt>0</asrwt>
<pdfrwt beam="1">  1       21 0.67934587E-02 0.35750053E+03</pdfrwt>
<pdfrwt beam="2">  1       21 0.11132065E+00 0.35750053E+03</pdfrwt>
<totfact> 0.95558497E+04</totfact>
</mgrwt>
</event>
<event>
 8    1  0.4760912E-006  0.3368857E+03  0.7546771E-02  0.1068130E+00
         21   -1    0    0  504  503  0.00000000000E+00  0.00000000000E+00  0.86984548415E+02  0.86984548415E+02  0.00000000000E+00 0. -1.
         21   -1    0    0  503  504 -0.00000000000E+00 -0.00000000000E+00 -0.32618432768E+03  0.32618432768E+03  0.00000000000E+00 0. -1.
         25    2    1    2    0    0  0.39405036650E+02  0.84358885245E+02 -0.41269561569E+02  0.16123598399E+03  0.12499874955E+03 0.  0.
         25    2    1    2    0    0 -0.39405036650E+02 -0.84358885245E+02 -0.19793021770E+03  0.25193289211E+03  0.12499853045E+03 0.  0.
          5    1    3    3  501    0  0.38692019301E+02 -0.20212231374E+02  0.94586952197E+01  0.44912844154E+02  0.47000000000E+01 0.  1.
         -5    1    3    3    0  501  0.71301734852E+00  0.10457111662E+03 -0.50728256788E+02  0.11632313984E+03  0.47000000000E+01 0.  1.
          5    1    4    4  502    0  0.49360732327E+01 -0.84458080118E+02 -0.52171096271E+02  0.99506006865E+02  0.47000000000E+01 0.  1.
         -5    1    4    4    0  502 -0.44341109883E+02  0.99194872978E-01 -0.14575912143E+03  0.15242688524E+03  0.47000000000E+01 0.  1.
<mgrwt>
<rscale>  0 0.33688572E+03</rscale>
<asrwt>0</asrwt>
<pdfrwt beam="1">  1       21 0.13382238E-01 0.33688572E+03</pdfrwt>
<pdfrwt beam="2">  1       21 0.50182203E-01 0.33688572E+03</pdfrwt>
<totfact> 0.17551403E+05</totfact>
</mgrwt>
</event>
<event>
 8    1  0.4760912E-006  0.2970403E+03  0.7546771E-02  0.1086730E+00
         21   -1    0    0  504  503  0.00000000000E+00  0.00000000000E+00  0.20817826814E+03  0.20817826814E+03  0.00000000000E+00 0.  1.
         21   -1    0    0  503  504 -0.00000000000E+00 -0.00000000000E+00 -0.10595837604E+03  0.10595837604E+03  0.00000000000E+00 0.  1.
         25    2    1    2    0    0  0.56824330134E+02  0.54023142386E+02  0.33239276118E+02  0.15125348161E+03  0.12500104725E+03 0.  0.
         25    2    1    2    0    0 -0.56824330134E+02 -0.54023142386E+02  0.68980615987E+02  0.16288316257E+03  0.12500037944E+03 0.  0.
          5    1    3    3  501    0  0.15182319219E+02  0.87041592264E+02  0.16299984776E+00  0.88480835041E+02  0.47000000000E+01 0. -1.
         -5    1    3    3    0  501  0.41642010916E+02 -0.33018449878E+02  0.33076276270E+02  0.62772646570E+02  0.47000000000E+01 0. -1.
          5    1    4    4  502    0 -0.52664290002E+02  0.22492362177E+02  0.63912174868E+02  0.85943527354E+02  0.47000000000E+01 0. -1.
         -5    1    4    4    0  502 -0.41600401323E+01 -0.76515504563E+02  0.50684411193E+01  0.76939635220E+02  0.47000000000E+01 0. -1.
<mgrwt>
<rscale>  0 0.29704027E+03</rscale>
<asrwt>0</asrwt>
<pdfrwt beam="1">  1       21 0.32027426E-01 0.29704027E+03</pdfrwt>
<pdfrwt beam="2">  1       21 0.16301289E-01 0.29704027E+03</pdfrwt>
<totfact> 0.30850200E+05</totfact>
</mgrwt>
</event>
<event>
 8    1  0.4760912E-006  0.2741415E+03  0.7546771E-02  0.1098932E+00
         21   -1    0    0  504  503  0.00000000000E+00  0.00000000000E+00  0.12544075397E+03  0.12544075397E+03  0.00000000000E+00 0.  1.
         21   -1    0    0  503  504 -0.00000000000E+00 -0.00000000000E+00 -0.14977903473E+03  0.14977903473E+03  0.00000000000E+00 0.  1.
         25    2    1    2    0    0 -0.42940722332E+01 -0.33798714724E+02 -0.57086720088E+02  0.14158340714E+03  0.12500470149E+03 0.  0.
         25    2    1    2    0    0  0.42940722332E+01  0.33798714724E+02  0.32748439337E+02  0.13363638156E+03  0.12500172009E+03 0.  0.
          5    1    3    3  501    0  0.12615224368E+02 -0.65854830663E+02  0.72343783718E+01  0.67604946845E+02  0.47000000000E+01 0.  1.
         -5    1    3    3    0  501 -0.16909296601E+02  0.32056115939E+02 -0.64321098460E+02  0.73978460296E+02  0.47000000000E+01 0.  1.
          5    1    4    4  502    0  0.45290000254E+02  0.13510519464E+02  0.62775525046E+02  0.78718325719E+02  0.47000000000E+01 0.  1.
         -5    1    4    4    0  502 -0.40995928021E+02  0.20288195260E+02 -0.30027085710E+02  0.54918055842E+02  0.47000000000E+01 0.  1.
<mgrwt>
<rscale>  0 0.27414153E+03</rscale>
<asrwt>0</asrwt>
<pdfrwt beam="1">  1       21 0.19298578E-01 0.27414153E+03</pdfrwt>
<pdfrwt beam="2">  1       21 0.23042928E-01 0.27414153E+03</pdfrwt>
<totfact> 0.42918608E+05</totfact>
</mgrwt>
</event>
<event>
 8    1  0.4760912E-006  0.3043819E+03  0.7546771E-02  0.1083070E+00
         21   -1    0    0  504  503  0.00000000000E+00  0.00000000000E+00  0.93966366762E+03  0.93966366762E+03  0.00000000000E+00 0. -1.
         21   -1    0    0  503  504 -0.00000000000E+00 -0.00000000000E+00 -0.24649335081E+02  0.24649335081E+02  0.00000000000E+00 0. -1.
         25    2    1    2    0    0  0.47483138604E+02  0.43703071662E+02  0.27344848223E+03  0.30750815238E+03  0.12499033732E+03 0.  0.
         25    2    1    2    0    0 -0.47483138604E+02 -0.43703071662E+02  0.64156585031E+03  0.65680485032E+03  0.12498505589E+03 0.  0.
          5    1    3    3  501    0 -0.18866487088E+01  0.73039920773E+02  0.20694543459E+03  0.21951513016E+03  0.47000000000E+01 0.  1.
         -5    1    3    3    0  501  0.49369787313E+02 -0.29336849111E+02  0.66503047637E+02  0.87993022224E+02  0.47000000000E+01 0.  1.
          5    1    4    4  502    0  0.75892358552E+01 -0.32009603528E+01 -0.19242927775E+01  0.96765464263E+01  0.47000000000E+01 0. -1.
         -5    1    4    4    0  502 -0.55072374459E+02 -0.40502111309E+02  0.64349014309E+03  0.64712830389E+03  0.47000000000E+01 0. -1.
<mgrwt>
<rscale>  0 0.30438190E+03</rscale>
<asrwt>0</asrwt>
<pdfrwt beam="1">  1       21 0.14456361E+00 0.30438190E+03</pdfrwt>
<pdfrwt beam="2">  1       21 0.37922061E-02 0.30438190E+03</pdfrwt>
<totfact> 0.13531157E+05</totfact>
</mgrwt>
</event>
<event>
 8    1  0.4760912E-006  0.3897254E+03  0.7546771E-02  0.1047397E+00
         21   -1    0    0  504  503  0.00000000000E+00  0.00000000000E+00  0.19498402216E+03  0.19498402216E+03  0.00000000000E+00 0. -1.
         21   -1    0    0  503  504 -0.00000000000E+00 -0.00000000000E+00 -0.19474143276E+03  0.19474143276E+03  0.00000000000E+00 0. -1.
         25    2    1    2    0    0  0.37756587727E+02  0.14455712358E+03  0.51503037829E+01  0.19486296765E+03  0.12499091422E+03 0.  0.
         25    2    1    2    0    0 -0.37756587727E+02 -0.14455712358E+03 -0.49077143800E+01  0.19486248727E+03  0.12499992556E+03 0.  0.
          5    1    3    3  501    0 -0.30943322441E+02  0.15839097140E+02 -0.28334398335E+02  0.45092065054E+02  0.47000000000E+01 0.  1.
         -5    1    3    3    0  501  0.68699910168E+02  0.12871802644E+03  0.33484702117E+02  0.14977090259E+03  0.47000000000E+01 0.  1.
          5    1    4    4  502    0 -0.80688399260E+02 -0.75775191669E+02  0.13428107990E+02  0.11160153015E+03  0.47000000000E+01 0. -1.
         -5    1    4    4    0  502  0.42931811533E+02 -0.68781931909E+02 -0.18335822370E+02  0.83260957120E+02  0.47000000000E+01 0. -1.
<mgrwt>
<rscale>  0 0.38972538E+03</rscale>
<asrwt>0</asrwt>
<pdfrwt beam="1">  1       21 0.29997542E-01 0.38972538E+03</pdfrwt>
<pdfrwt beam="2">  1       21 0.29960220E-01 0.38972538E+03</pdfrwt>
<totfact> 0.10766276E+05</totfact>
</mgrwt>
</event>
<event>
 8    1  0.4760912E-006  0.2533691E+03  0.7546771E-02  0.1111194E+00
         21   -1    0    0  504  503  0.00000000000E+00  0.00000000000E+00  0.21466801053E+03  0.21466801053E+03  0.00000000000E+00 0.  1.
         21   -1    0    0  503  504 -0.00000000000E+00 -0.00000000000E+00 -0.74761842776E+02  0.74761842776E+02  0.00000000000E+00 0.  1.
         25    2    1    2    0    0  0.11023188447E+02 -0.16684425054E+02  0.64425457090E+02  0.14204153066E+03  0.12500110474E+03 0.  0.
         25    2    1    2    0    0 -0.11023188447E+02  0.16684425054E+02  0.75480710660E+02  0.14738832265E+03  0.12500439691E+03 0.  0.
          5    1    3    3  501    0 -0.50839727543E+02 -0.13456253093E+02  0.36063208172E+00  0.52801218731E+02  0.47000000000E+01 0. -1.
         -5    1    3    3    0  501  0.61862915990E+02 -0.32281719613E+01  0.64064825008E+02  0.89240311924E+02  0.47000000000E+01 0. -1.
          5    1    4    4  502    0 -0.22646960181E+02  0.54325622818E+02  0.87834086962E+02  0.10583513090E+03  0.47000000000E+01 0. -1.
         -5    1    4    4    0  502  0.11623771734E+02 -0.37641197763E+02 -0.12353376302E+02  0.41553191748E+02  0.47000000000E+01 0. -1.
<mgrwt>
<rscale>  0 0.25336911E+03</rscale>
<asrwt>0</asrwt>
<pdfrwt beam="1">  1       21 0.33025848E-01 0.25336911E+03</pdfrwt>
<pdfrwt beam="2">  1       21 0.11501822E-01 0.25336911E+03</pdfrwt>
<totfact> 0.55245619E+05</totfact>
</mgrwt>
</event>
<event>
 8    1  0.4760912E-006  0.2982871E+03  0.7546771E-02  0.1086100E+00
         21   -1    0    0  504  503  0.00000000000E+00  0.00000000000E+00  0.15486320596E+03  0.15486320596E+03  0.00000000000E+00 0. -1.
         21   -1    0    0  503  504 -0.00000000000E+00 -0.00000000000E+00 -0.14363515988E+03  0.14363515988E+03  0.00000000000E+00 0. -1.
         25    2    1    2    0    0 -0.23622659189E+02  0.42157148754E+02  0.71143801257E+02  0.15171625260E+03  0.12498450155E+03 0.  0.
         25    2    1    2    0    0  0.23622659189E+02 -0.42157148754E+02 -0.59915755184E+02  0.14678211324E+03  0.12497934161E+03 0.  0.
          5    1    3    3  501    0 -0.43364204525E+02  0.70435567868E+02  0.12873172408E+02  0.83841708134E+02  0.47000000000E+01 0.  1.
         -5    1    3    3    0  501  0.19741545336E+02 -0.28278419115E+02  0.58270628849E+02  0.67874544465E+02  0.47000000000E+01 0.  1.
          5    1    4    4  502    0  0.71523218859E+02 -0.33241826814E+01 -0.37812011732E+02  0.81107701592E+02  0.47000000000E+01 0.  1.
         -5    1    4    4    0  502 -0.47900559669E+02 -0.38832966072E+02 -0.22103743452E+02  0.65674411647E+02  0.47000000000E+01 0.  1.
<mgrwt>
<rscale>  0 0.29828712E+03</rscale>
<asrwt>0</asrwt>
<pdfrwt beam="1">  1       21 0.23825109E-01 0.29828712E+03</pdfrwt>
<pdfrwt beam="2">  1       21 0.22097717E-01 0.29828712E+03</pdfrwt>
<totfact> 0.31026136E+05</totfact>
</mgrwt>
</event>
<event>
 8    1  0.4760912E-006  0.3015058E+03  0.7546771E-02  0.1084490E+00
         21   -1    0    0  504  503  0.00000000000E+00  0.00000000000E+00  0.52255481728E+03  0.52255481728E+03  0.00000000000E+00 0.  1.
         21   -1    0    0  503  504 -0.00000000000E+00 -0.00000000000E+00 -0.43491013512E+02  0.43491013512E+02  0.00000000000E+00 0.  1.
         25    2    1    2    0    0  0.27923407329E+00  0.83477677652E+02  0.21793857241E+03  0.26474713203E+03  0.12500088774E+03 0.  0.
         25    2    1    2    0    0 -0.27923407329E+00 -0.83477677652E+02  0.26112523136E+03  0.30129869876E+03  0.12500367510E+03 0.  0.
          5    1    3    3  501    0  0.51268786808E+02  0.64813413245E+02  0.74723191364E+02  0.11151193822E+03  0.47000000000E+01 0.  1.
         -5    1    3    3    0  501 -0.50989552735E+02  0.18664264407E+02  0.14321538104E+03  0.15323519381E+03  0.47000000000E+01 0.  1.
          5    1    4    4  502    0 -0.28095754421E+02  0.41222338556E+01  0.16772173685E+03  0.17017354448E+03  0.47000000000E+01 0. -1.
         -5    1    4    4    0  502  0.27816520348E+02 -0.87599911508E+02  0.93403494511E+02  0.13112515429E+03  0.47000000000E+01 0. -1.
<mgrwt>
<rscale>  0 0.30150581E+03</rscale>
<asrwt>0</asrwt>
<pdfrwt beam="1">  1       21 0.80393044E-01 0.30150581E+03</pdfrwt>
<pdfrwt beam="2">  1       21 0.66909256E-02 0.30150581E+03</pdfrwt>
<totfact> 0.21577627E+05</totfact>
</mgrwt>
</event>
<event>
 8    1  0.4760912E-006  0.2509229E+03  0.7546771E-02  0.1112723E+00
         21   -1    0    0  504  503  0.00000000000E+00  0.00000000000E+00  0.19357109010E+02  0.19357109010E+02  0.00000000000E+00 0. -1.
         21   -1    0    0  503  504 -0.00000000000E+00 -0.00000000000E+00 -0.81316758757E+03  0.81316758757E+03  0.00000000000E+00 0. -1.
         25    2    1    2    0    0 -0.40937536790E+01  0.78216390123E+01 -0.41754815095E+03  0.43594369900E+03  0.12499005353E+03 0.  0.
         25    2    1    2    0    0  0.40937536790E+01 -0.78216390123E+01 -0.37626232761E+03  0.39658099758E+03  0.12500084642E+03 0.  0.
          5    1    3    3  501    0 -0.29164351751E+02  0.54644050410E+00 -0.16152672316E+02  0.33672790696E+02  0.47000000000E+01 0. -1.
         -5    1    3    3    0  501  0.25070598072E+02  0.72751985082E+01 -0.40139547863E+03  0.40227090831E+03  0.47000000000E+01 0. -1.
          5    1    4    4  502    0  0.58030662385E+02  0.22218340515E+02 -0.21469485388E+03  0.22355577093E+03  0.47000000000E+01 0.  1.
         -5    1    4    4    0  502 -0.53936908706E+02 -0.30039979528E+02 -0.16156747373E+03  0.17302522666E+03  0.47000000000E+01 0.  1.
<mgrwt>
<rscale>  0 0.25092289E+03</rscale>
<asrwt>0</asrwt>
<pdfrwt beam="1">  1       21 0.29780160E-02 0.25092289E+03</pdfrwt>
<pdfrwt beam="2">  1       21 0.12510274E+00 0.25092289E+03</pdfrwt>
<totfact> 0.29941183E+05</totfact>
</mgrwt>
</event>
<event>
 8    1  0.4760912E-006  0.2656229E+03  0.7546771E-02  0.1103811E+00
         21   -1    0    0  504  503  0.00000000000E+00  0.00000000000E+00  0.14979416201E+03  0.14979416201E+03  0.00000000000E+00 0.  1.
         21   -1    0    0  503  504 -0.00000000000E+00 -0.00000000000E+00 -0.11775415271E+03  0.11775415271E+03  0.00000000000E+00 0.  1.
         25    2    1    2    0    0  0.10597245652E+02  0.12031687460E+02  0.58246328950E+02  0.13883082822E+03  0.12499720360E+03 0.  0.
         25    2    1    2    0    0 -0.10597245652E+02 -0.12031687460E+02 -0.26206319645E+02  0.12871748651E+03  0.12499742807E+03 0.  0.
          5    1    3    3  501    0  0.63135681319E+02  0.28241174832E+02  0.43015150662E+02  0.81584749788E+02  0.47000000000E+01 0. -1.
         -5    1    3    3    0  501 -0.52538435667E+02 -0.16209487373E+02  0.15231178288E+02  0.57246078427E+02  0.47000000000E+01 0. -1.
          5    1    4    4  502    0  0.55303784126E+02 -0.20388998698E+02 -0.79205487019E+01  0.59657731253E+02  0.47000000000E+01 0.  1.
         -5    1    4    4    0  502 -0.65901029778E+02  0.83573112384E+01 -0.18285770943E+02  0.69059755256E+02  0.47000000000E+01 0.  1.
<mgrwt>
<rscale>  0 0.26562293E+03</rscale>
<asrwt>0</asrwt>
<pdfrwt beam="1">  1       21 0.23045256E-01 0.26562293E+03</pdfrwt>
<pdfrwt beam="2">  1       21 0.18116023E-01 0.26562293E+03</pdfrwt>
<totfact> 0.48369253E+05</totfact>
</mgrwt>
</event>
<event>
 8    1  0.4760912E-006  0.2711505E+03  0.7546771E-02  0.1100623E+00
         21   -1    0    0  504  503  0.00000000000E+00  0.00000000000E+00  0.10303705511E+03  0.10303705511E+03  0.00000000000E+00 0. -1.
         21   -1    0    0  503  504 -0.00000000000E+00 -0.00000000000E+00 -0.17838871633E+03  0.17838871633E+03  0.00000000000E+00 0. -1.
         25    2    1    2    0    0  0.42753607076E+01  0.24037059053E+02 -0.85918916092E+02  0.15362796277E+03  0.12499372738E+03 0.  0.
         25    2    1    2    0    0 -0.42753607076E+01 -0.24037059053E+02  0.10567254874E+02  0.12779780867E+03  0.12499821642E+03 0.  0.
          5    1    3    3  501    0  0.62110907139E+02 -0.20747621330E+01 -0.53889076595E+02  0.82390484886E+02  0.47000000000E+01 0. -1.
         -5    1    3    3    0  501 -0.57835546431E+02  0.26111821186E+02 -0.32029839497E+02  0.71237477881E+02  0.47000000000E+01 0. -1.
          5    1    4    4  502    0 -0.31989698429E+02 -0.57560522182E+02  0.37984507367E+02  0.76167363873E+02  0.47000000000E+01 0.  1.
         -5    1    4    4    0  502  0.27714337721E+02  0.33523463129E+02 -0.27417252493E+02  0.51630444795E+02  0.47000000000E+01 0.  1.
<mgrwt>
<rscale>  0 0.27115050E+03</rscale>
<asrwt>0</asrwt>
<pdfrwt beam="1">  1       21 0.15851855E-01 0.27115050E+03</pdfrwt>
<pdfrwt beam="2">  1       21 0.27444418E-01 0.27115050E+03</pdfrwt>
<totfact> 0.44210949E+05</totfact>
</mgrwt>
</event>
<event>
 8    1  0.4760912E-006  0.2645024E+03  0.7546771E-02  0.1104468E+00
         21   -1    0    0  504  503  0.00000000000E+00  0.00000000000E+00  0.80707854563E+02  0.80707854563E+02  0.00000000000E+00 0.  1.
         21   -1    0    0  503  504 -0.00000000000E+00 -0.00000000000E+00 -0.21671229948E+03  0.21671229948E+03  0.00000000000E+00 0.  1.
         25    2    1    2    0    0 -0.38536052998E+02 -0.12274299456E+02 -0.84957551733E+02  0.15645953682E+03  0.12500446096E+03 0.  0.
         25    2    1    2    0    0  0.38536052998E+02  0.12274299456E+02 -0.51046893180E+02  0.14096061721E+03  0.12501369723E+03 0.  0.
          5    1    3    3  501    0 -0.14437273663E+02 -0.60430759281E+02 -0.81093561746E+02  0.10226713692E+03  0.47000000000E+01 0.  1.
         -5    1    3    3    0  501 -0.24098779335E+02  0.48156459825E+02 -0.38639899866E+01  0.54192399900E+02  0.47000000000E+01 0.  1.
          5    1    4    4  502    0  0.57170399559E+02 -0.43470019129E+02 -0.22207635248E+02  0.75321751255E+02  0.47000000000E+01 0. -1.
         -5    1    4    4    0  502 -0.18634346562E+02  0.55744318586E+02 -0.28839257932E+02  0.65638865959E+02  0.47000000000E+01 0. -1.
<mgrwt>
<rscale>  0 0.26450244E+03</rscale>
<asrwt>0</asrwt>
<pdfrwt beam="1">  1       21 0.12416593E-01 0.26450244E+03</pdfrwt>
<pdfrwt beam="2">  1       21 0.33340354E-01 0.26450244E+03</pdfrwt>
<totfact> 0.47145451E+05</totfact>
</mgrwt>
</event>
<event>
 8    1  0.4760912E-006  0.6652450E+03  0.7546771E-02  0.9778586E-01
         21   -1    0    0  504  503  0.00000000000E+00  0.00000000000E+00  0.32187831086E+03  0.32187831086E+03  0.00000000000E+00 0. -1.
         21   -1    0    0  503  504 -0.00000000000E+00 -0.00000000000E+00 -0.34372532623E+03  0.34372532623E+03  0.00000000000E+00 0. -1.
         25    2    1    2    0    0 -0.13834425651E+03 -0.25013766438E+03 -0.12633079509E+03  0.33658905804E+03  0.12499895900E+03 0.  0.
         25    2    1    2    0    0  0.13834425651E+03  0.25013766438E+03  0.10448377972E+03  0.32901457906E+03  0.12500299420E+03 0.  0.
          5    1    3    3  501    0 -0.55262544657E+02 -0.83865599932E+01 -0.17959498818E+02  0.58897511224E+02  0.47000000000E+01 0.  1.
         -5    1    3    3    0  501 -0.83081711856E+02 -0.24175110438E+03 -0.10837129627E+03  0.27769154681E+03  0.47000000000E+01 0.  1.
          5    1    4    4  502    0  0.11941574178E+03  0.18044822357E+03  0.19376915769E+02  0.21729987492E+03  0.47000000000E+01 0. -1.
         -5    1    4    4    0  502  0.18928514731E+02  0.69689440810E+02  0.85106863953E+02  0.11171470414E+03  0.47000000000E+01 0. -1.
<mgrwt>
<rscale>  0 0.66524500E+03</rscale>
<asrwt>0</asrwt>
<pdfrwt beam="1">  1       21 0.49519740E-01 0.66524500E+03</pdfrwt>
<pdfrwt beam="2">  1       21 0.52880820E-01 0.66524500E+03</pdfrwt>
<totfact> 0.11224708E+04</totfact>
</mgrwt>
</event>
<event>
 8    1  0.4760912E-006  0.3763289E+03  0.7546771E-02  0.1052299E+00
         21   -1    0    0  504  503  0.00000000000E+00  0.00000000000E+00  0.15234921604E+02  0.15234921604E+02  0.00000000000E+00 0.  1.
         21   -1    0    0  503  504 -0.00000000000E+00 -0.00000000000E+00 -0.23239930927E+04  0.23239930927E+04  0.00000000000E+00 0.  1.
         25    2    1    2    0    0 -0.79845031608E+02 -0.91317328132E+02 -0.71183839506E+03  0.73283702658E+03  0.12498849291E+03 0.  0.
         25    2    1    2    0    0  0.79845031608E+02  0.91317328132E+02 -0.15969197760E+04  0.16063909877E+04  0.12500060339E+03 0.  0.
          5    1    3    3  501    0 -0.65551370357E+02  0.12629345303E+02 -0.22212642101E+03  0.23198861918E+03  0.47000000000E+01 0.  1.
         -5    1    3    3    0  501 -0.14293661250E+02 -0.10394667343E+03 -0.48971197404E+03  0.50084840740E+03  0.47000000000E+01 0.  1.
          5    1    4    4  502    0  0.76549959476E+02  0.11779796309E+03 -0.14643215644E+04  0.14710526810E+04  0.47000000000E+01 0.  1.
         -5    1    4    4    0  502  0.32950721314E+01 -0.26480634961E+02 -0.13259821159E+03  0.13533830665E+03  0.47000000000E+01 0.  1.
<mgrwt>
<rscale>  0 0.37632886E+03</rscale>
<asrwt>0</asrwt>
<pdfrwt beam="1">  1       21 0.23438363E-02 0.37632886E+03</pdfrwt>
<pdfrwt beam="2">  1       21 0.35753706E+00 0.37632886E+03</pdfrwt>
<totfact> 0.12909439E+04</totfact>
</mgrwt>
</event>
<event>
 8    1  0.4760912E-006  0.3943800E+03  0.7546771E-02  0.1045743E+00
         21   -1    0    0  504  503  0.00000000000E+00  0.00000000000E+00  0.14848461966E+03  0.14848461966E+03  0.00000000000E+00 0. -1.
         21   -1    0    0  503  504 -0.00000000000E+00 -0.00000000000E+00 -0.26187156627E+03  0.26187156627E+03  0.00000000000E+00 0. -1.
         25    2    1    2    0    0  0.82900652571E+02  0.31874968073E+02 -0.18569662016E+03  0.24082430486E+03  0.12499831714E+03 0.  0.
         25    2    1    2    0    0 -0.82900652571E+02 -0.31874968073E+02  0.72309673553E+02  0.16953188107E+03  0.12499535201E+03 0.  0.
          5    1    3    3  501    0  0.10813503757E+03  0.49104575820E+02 -0.12369584598E+03  0.17154357473E+03  0.47000000000E+01 0.  1.
         -5    1    3    3    0  501 -0.25234385001E+02 -0.17229607747E+02 -0.62000774182E+02  0.69280730139E+02  0.47000000000E+01 0.  1.
          5    1    4    4  502    0 -0.10654614283E+02 -0.62799988722E+02  0.63915929907E+02  0.90358704533E+02  0.47000000000E+01 0. -1.
         -5    1    4    4    0  502 -0.72246038288E+02  0.30925020649E+02  0.83937436465E+01  0.79173176537E+02  0.47000000000E+01 0. -1.
<mgrwt>
<rscale>  0 0.39438002E+03</rscale>
<asrwt>0</asrwt>
<pdfrwt beam="1">  1       21 0.22843788E-01 0.39438002E+03</pdfrwt>
<pdfrwt beam="2">  1       21 0.40287933E-01 0.39438002E+03</pdfrwt>
<totfact> 0.10070241E+05</totfact>
</mgrwt>
</event>
<event>
 8    1  0.4760912E-006  0.3962371E+03  0.7546771E-02  0.1045090E+00
         21   -1    0    0  504  503  0.00000000000E+00  0.00000000000E+00  0.38054060492E+03  0.38054060492E+03  0.00000000000E+00 0.  1.
         21   -1    0    0  503  504 -0.00000000000E+00 -0.00000000000E+00 -0.10314523548E+03  0.10314523548E+03  0.00000000000E+00 0.  1.
         25    2    1    2    0    0 -0.12938008193E+03 -0.27523009972E+02  0.23426230074E+03  0.29664796715E+03  0.12499787672E+03 0.  0.
         25    2    1    2    0    0  0.12938008193E+03  0.27523009972E+02  0.43133068696E+02  0.18703787325E+03  0.12500393089E+03 0.  0.
          5    1    3    3  501    0 -0.11217050815E+03  0.26789404825E+02  0.10809976160E+03  0.15813773606E+03  0.47000000000E+01 0. -1.
         -5    1    3    3    0  501 -0.17209573776E+02 -0.54312414797E+02  0.12616253915E+03  0.13851023108E+03  0.47000000000E+01 0. -1.
          5    1    4    4  502    0  0.11473342307E+03 -0.15774771247E+02 -0.10536057879E+02  0.11638599698E+03  0.47000000000E+01 0. -1.
         -5    1    4    4    0  502  0.14646658864E+02  0.43297781219E+02  0.53669126575E+02  0.70651876279E+02  0.47000000000E+01 0. -1.
<mgrwt>
<rscale>  0 0.39623705E+03</rscale>
<asrwt>0</asrwt>
<pdfrwt beam="1">  1       21 0.58544708E-01 0.39623705E+03</pdfrwt>
<pdfrwt beam="2">  1       21 0.15868498E-01 0.39623705E+03</pdfrwt>
<totfact> 0.90961809E+04</totfact>
</mgrwt>
</event>
<event>
 8    1  0.4760912E-006  0.5763195E+03  0.7546771E-02  0.9955791E-01
         21   -1    0    0  504  503  0.00000000000E+00  0.00000000000E+00  0.27281028371E+03  0.27281028371E+03  0.00000000000E+00 0.  1.
         21   -1    0    0  503  504 -0.00000000000E+00 -0.00000000000E+00 -0.30437279351E+03  0.30437279351E+03  0.00000000000E+00 0.  1.
         25    2    1    2    0    0  0.30276537198E+02  0.15366600340E+03  0.19160717921E+03  0.27724841863E+03  0.12499386068E+03 0.  0.
         25    2    1    2    0    0 -0.30276537198E+02 -0.15366600340E+03 -0.22316968901E+03  0.29993465859E+03  0.12500472002E+03 0.  0.
          5    1    3    3  501    0 -0.21230910933E+02  0.97064767468E+02  0.39723971904E+02  0.10710931148E+03  0.47000000000E+01 0. -1.
         -5    1    3    3    0  501  0.51507448130E+02  0.56601235931E+02  0.15188320730E+03  0.17013910715E+03  0.47000000000E+01 0. -1.
          5    1    4    4  502    0  0.33828842181E+02 -0.12114428757E+03 -0.16387432859E+03  0.20663304321E+03  0.47000000000E+01 0. -1.
         -5    1    4    4    0  502 -0.64105379378E+02 -0.32521715824E+02 -0.59295360416E+02  0.93301615378E+02  0.47000000000E+01 0. -1.
<mgrwt>
<rscale>  0 0.57631945E+03</rscale>
<asrwt>0</asrwt>
<pdfrwt beam="1">  1       21 0.41970813E-01 0.57631945E+03</pdfrwt>
<pdfrwt beam="2">  1       21 0.46826583E-01 0.57631945E+03</pdfrwt>
<totfact> 0.21012435E+04</totfact>
</mgrwt>
</event>
<event>
 8    1  0.4760912E-006  0.2970681E+03  0.7546771E-02  0.1086715E+00
         21   -1    0    0  504  503  0.00000000000E+00  0.00000000000E+00  0.13889965304E+04  0.13889965304E+04  0.00000000000E+00 0. -1.
         21   -1    0    0  503  504 -0.00000000000E+00 -0.00000000000E+00 -0.15883668634E+02  0.15883668634E+02  0.00000000000E+00 0. -1.
         25    2    1    2    0    0 -0.55354695480E+02 -0.50564462819E+02  0.55069376956E+03  0.56965456177E+03  0.12498713815E+03 0.  0.
         25    2    1    2    0    0  0.55354695480E+02  0.50564462819E+02  0.82241909216E+03  0.83522563722E+03  0.12493115986E+03 0.  0.
          5    1    3    3  501    0  0.10872008188E+01 -0.28536074382E+02  0.45739483343E+03  0.45830951681E+03  0.47000000000E+01 0.  1.
         -5    1    3    3    0  501 -0.56441896298E+02 -0.22028388437E+02  0.93298936125E+02  0.11134504496E+03  0.47000000000E+01 0.  1.
          5    1    4    4  502    0  0.90745504454E+02  0.47716229602E+02  0.47478222579E+03  0.48574873862E+03  0.47000000000E+01 0. -1.
         -5    1    4    4    0  502 -0.35390808974E+02  0.28482332164E+01  0.34763686637E+03  0.34947689860E+03  0.47000000000E+01 0. -1.
<mgrwt>
<rscale>  0 0.29706808E+03</rscale>
<asrwt>0</asrwt>
<pdfrwt beam="1">  1       21 0.21369168E+00 0.29706808E+03</pdfrwt>
<pdfrwt beam="2">  1       21 0.24436424E-02 0.29706808E+03</pdfrwt>
<totfact> 0.92543621E+04</totfact>
</mgrwt>
</event>
<event>
 8    1  0.4760912E-006  0.2621559E+03  0.7546771E-02  0.1105855E+00
         21   -1    0    0  504  503  0.00000000000E+00  0.00000000000E+00  0.43128962426E+03  0.43128962426E+03  0.00000000000E+00 0.  1.
         21   -1    0    0  503  504 -0.00000000000E+00 -0.00000000000E+00 -0.39837341046E+02  0.39837341046E+02  0.00000000000E+00 0.  1.
         25    2    1    2    0    0  0.33993791627E+02 -0.79557947154E+01  0.22877612396E+03  0.26302308716E+03  0.12499502768E+03 0.  0.
         25    2    1    2    0    0 -0.33993791627E+02  0.79557947154E+01  0.16267615925E+03  0.20810387814E+03  0.12499927509E+03 0.  0.
          5    1    3    3  501    0 -0.17636264254E+02 -0.24164724617E+02  0.25758497735E+01  0.30392379550E+02  0.47000000000E+01 0. -1.
         -5    1    3    3    0  501  0.51630055881E+02  0.16208929902E+02  0.22620027419E+03  0.23263070761E+03  0.47000000000E+01 0. -1.
          5    1    4    4  502    0  0.22683049053E+02  0.38341642162E+02  0.12643727145E+03  0.13413827138E+03  0.47000000000E+01 0.  1.
         -5    1    4    4    0  502 -0.56676840680E+02 -0.30385847447E+02  0.36238887795E+02  0.73965606758E+02  0.47000000000E+01 0.  1.
<mgrwt>
<rscale>  0 0.26215592E+03</rscale>
<asrwt>0</asrwt>
<pdfrwt beam="1">  1       21 0.66352246E-01 0.26215592E+03</pdfrwt>
<pdfrwt beam="2">  1       21 0.61288220E-02 0.26215592E+03</pdfrwt>
<totfact> 0.38984572E+05</totfact>
</mgrwt>
</event>
<event>
 8    1  0.4760912E-006  0.3170090E+03  0.7546771E-02  0.1077034E+00
         21   -1    0    0  504  503  0.00000000000E+00  0.00000000000E+00  0.10907578877E+04  0.10907578877E+04  0.00000000000E+00 0.  1.
         21   -1    0    0  503  504 -0.00000000000E+00 -0.00000000000E+00 -0.23033232361E+02  0.23033232361E+02  0.00000000000E+00 0.  1.
         25    2    1    2    0    0  0.65722215003E+02  0.89677829201E+01  0.28299555475E+03  0.31640396656E+03  0.12500062148E+03 0.  0.
         25    2    1    2    0    0 -0.65722215003E+02 -0.89677829201E+01  0.78472910054E+03  0.79738715346E+03  0.12500672216E+03 0.  0.
          5    1    3    3  501    0  0.51628226123E+02 -0.42684301271E+02  0.71104148018E+02  0.97802419055E+02  0.47000000000E+01 0. -1.
         -5    1    3    3    0  501  0.14093988880E+02  0.51652084191E+02  0.21189140673E+03  0.21860154750E+03  0.47000000000E+01 0. -1.
          5    1    4    4  502    0  0.33831567163E+02 -0.62623140202E+00  0.33143125751E+03  0.33318723799E+03  0.47000000000E+01 0.  1.
         -5    1    4    4    0  502 -0.99553782167E+02 -0.83415515180E+01  0.45329784303E+03  0.46419991547E+03  0.47000000000E+01 0.  1.
<mgrwt>
<rscale>  0 0.31700902E+03</rscale>
<asrwt>0</asrwt>
<pdfrwt beam="1">  1       21 0.16780887E+00 0.31700902E+03</pdfrwt>
<pdfrwt beam="2">  1       21 0.35435751E-02 0.31700902E+03</pdfrwt>
<totfact> 0.10072143E+05</totfact>
</mgrwt>
</event>
<event>
 8    1  0.4760912E-006  0.2782005E+03  0.7546771E-02  0.1096676E+00
         21   -1    0    0  504  503  0.00000000000E+00  0.00000000000E+00  0.51172935404E+02  0.51172935404E+02  0.00000000000E+00 0. -1.
         21   -1    0    0  503  504 -0.00000000000E+00 -0.00000000000E+00 -0.37810766919E+03  0.37810766919E+03  0.00000000000E+00 0. -1.
         25    2    1    2    0    0 -0.53153200576E+02  0.22021349125E+02 -0.19485023137E+03  0.23854089164E+03  0.12499976709E+03 0.  0.
         25    2    1    2    0    0  0.53153200576E+02 -0.22021349125E+02 -0.13208450242E+03  0.19073971296E+03  0.12500047908E+03 0.  0.
          5    1    3    3  501    0 -0.47241767167E+02  0.26226186699E+02 -0.12079903657E+02  0.55566280298E+02  0.47000000000E+01 0. -1.
         -5    1    3    3    0  501 -0.59114334090E+01 -0.42048375739E+01 -0.18277032771E+03  0.18297461134E+03  0.47000000000E+01 0. -1.
          5    1    4    4  502    0  0.76844236795E+02 -0.91868549286E+01 -0.14188353217E+03  0.16168630657E+03  0.47000000000E+01 0.  1.
         -5    1    4    4    0  502 -0.23691036219E+02 -0.12834494196E+02  0.97990297516E+01  0.29053406383E+02  0.47000000000E+01 0.  1.
<mgrwt>
<rscale>  0 0.27820050E+03</rscale>
<asrwt>0</asrwt>
<pdfrwt beam="1">  1       21 0.78727596E-02 0.27820050E+03</pdfrwt>
<pdfrwt beam="2">  1       21 0.58170408E-01 0.27820050E+03</pdfrwt>
<totfact> 0.33482080E+05</totfact>
</mgrwt>
</event>
<event>
 8    1  0.4760912E-006  0.2716206E+03  0.7546771E-02  0.1100356E+00
         21   -1    0    0  504  503  0.00000000000E+00  0.00000000000E+00  0.19207063776E+04  0.19207063776E+04  0.00000000000E+00 0.  1.
         21   -1    0    0  503  504 -0.00000000000E+00 -0.00000000000E+00 -0.96029470828E+01  0.96029470828E+01  0.00000000000E+00 0.  1.
         25    2    1    2    0    0  0.26567196855E+02 -0.37035258742E+02  0.76166655012E+03  0.77319775647E+03  0.12498564197E+03 0.  0.
         25    2    1    2    0    0 -0.26567196855E+02  0.37035258742E+02  0.11494368804E+04  0.11571115682E+04  0.12499845174E+03 0.  0.
          5    1    3    3  501    0 -0.48140341660E+02 -0.32007448953E+02  0.33737667169E+03  0.34232598190E+03  0.47000000000E+01 0. -1.
         -5    1    3    3    0  501  0.74707538515E+02 -0.50278097888E+01  0.42428987843E+03  0.43087177457E+03  0.47000000000E+01 0. -1.
          5    1    4    4  502    0 -0.44767106433E+02 -0.33984543800E+02  0.62751369419E+03  0.63004330759E+03  0.47000000000E+01 0.  1.
         -5    1    4    4    0  502  0.18199909578E+02  0.71019802542E+02  0.52192318624E+03  0.52706826066E+03  0.47000000000E+01 0.  1.
<mgrwt>
<rscale>  0 0.27162063E+03</rscale>
<asrwt>0</asrwt>
<pdfrwt beam="1">  1       21 0.29549298E+00 0.27162063E+03</pdfrwt>
<pdfrwt beam="2">  1       21 0.14773780E-02 0.27162063E+03</pdfrwt>
<totfact> 0.68760155E+04</totfact>
</mgrwt>
</event>
<event>
 8    1  0.4760912E-006  0.2910277E+03  0.7546771E-02  0.1089814E+00
         21   -1    0    0  504  503  0.00000000000E+00  0.00000000000E+00  0.40742397584E+03  0.40742397584E+03  0.00000000000E+00 0.  1.
         21   -1    0    0  503  504 -0.00000000000E+00 -0.00000000000E+00 -0.51971108257E+02  0.51971108257E+02  0.00000000000E+00 0.  1.
         25    2    1    2    0    0 -0.20677699764E+02  0.70233847710E+02  0.15610529664E+03  0.21296547230E+03  0.12500027248E+03 0.  0.
         25    2    1    2    0    0  0.20677699764E+02 -0.70233847710E+02  0.19934757094E+03  0.24642961180E+03  0.12501095512E+03 0.  0.
          5    1    3    3  501    0  0.13379216610E+02  0.75647543288E+02  0.16038888967E+03  0.17789952269E+03  0.47000000000E+01 0.  1.
         -5    1    3    3    0  501 -0.34056916374E+02 -0.54136955784E+01 -0.42835930304E+01  0.35065949609E+02  0.47000000000E+01 0.  1.
          5    1    4    4  502    0 -0.51621783606E+02 -0.38146784396E+02  0.10574646177E+03  0.12379171975E+03  0.47000000000E+01 0.  1.
         -5    1    4    4    0  502  0.72299483370E+02 -0.32087063314E+02  0.93601109173E+02  0.12263789205E+03  0.47000000000E+01 0.  1.
<mgrwt>
<rscale>  0 0.29102767E+03</rscale>
<asrwt>0</asrwt>
<pdfrwt beam="1">  1       21 0.62680610E-01 0.29102767E+03</pdfrwt>
<pdfrwt beam="2">  1       21 0.79955554E-02 0.29102767E+03</pdfrwt>
<totfact> 0.27634357E+05</totfact>
</mgrwt>
</event>
<event>
 8    1  0.4760912E-006  0.3547030E+03  0.7546771E-02  0.1060701E+00
         21   -1    0    0  504  503  0.00000000000E+00  0.00000000000E+00  0.60025328325E+02  0.60025328325E+02  0.00000000000E+00 0.  1.
         21   -1    0    0  503  504 -0.00000000000E+00 -0.00000000000E+00 -0.52400480814E+03  0.52400480814E+03  0.00000000000E+00 0.  1.
         25    2    1    2    0    0  0.22539228047E+02 -0.11363630906E+03 -0.15119967838E+03  0.22783235655E+03  0.12500004964E+03 0.  0.
         25    2    1    2    0    0 -0.22539228047E+02  0.11363630906E+03 -0.31277980143E+03  0.35619777991E+03  0.12499770676E+03 0.  0.
          5    1    3    3  501    0 -0.47298390064E+02 -0.53246170239E+02 -0.35442744383E+02  0.79690466665E+02  0.47000000000E+01 0.  1.
         -5    1    3    3    0  501  0.69837618111E+02 -0.60390138820E+02 -0.11575693400E+03  0.14814188989E+03  0.47000000000E+01 0.  1.
          5    1    4    4  502    0  0.36161301019E+02  0.49134293030E+00 -0.35065697216E+02  0.50592234883E+02  0.47000000000E+01 0.  1.
         -5    1    4    4    0  502 -0.58700529066E+02  0.11314496613E+03 -0.27771410422E+03  0.30560554503E+03  0.47000000000E+01 0.  1.
<mgrwt>
<rscale>  0 0.35470303E+03</rscale>
<asrwt>0</asrwt>
<pdfrwt beam="1">  1       21 0.92346659E-02 0.35470303E+03</pdfrwt>
<pdfrwt beam="2">  1       21 0.80616124E-01 0.35470303E+03</pdfrwt>
<totfact> 0.12013813E+05</totfact>
</mgrwt>
</event>
<event>
 8    1  0.4760912E-006  0.2549358E+03  0.7546771E-02  0.1110225E+00
         21   -1    0    0  504  503  0.00000000000E+00  0.00000000000E+00  0.73297240921E+02  0.73297240921E+02  0.00000000000E+00 0.  1.
         21   -1    0    0  503  504 -0.00000000000E+00 -0.00000000000E+00 -0.22167357321E+03  0.22167357321E+03  0.00000000000E+00 0.  1.
         25    2    1    2    0    0 -0.14427021583E+02 -0.57321993797E+01 -0.51559609627E+02  0.13610204047E+03  0.12499750003E+03 0.  0.
         25    2    1    2    0    0  0.14427021583E+02  0.57321993797E+01 -0.96816722661E+02  0.15886877366E+03  0.12499924958E+03 0.  0.
          5    1    3    3  501    0  0.27162886362E+02  0.39572280839E+02  0.96751537285E+01  0.49188275086E+02  0.47000000000E+01 0. -1.
         -5    1    3    3    0  501 -0.41589907945E+02 -0.45304480218E+02 -0.61234763356E+02  0.86913765388E+02  0.47000000000E+01 0. -1.
          5    1    4    4  502    0  0.65681449951E+02 -0.16549755847E+02 -0.38920826235E+02  0.78261535898E+02  0.47000000000E+01 0. -1.
         -5    1    4    4    0  502 -0.51254428369E+02  0.22281955226E+02 -0.57895896426E+02  0.80607237758E+02  0.47000000000E+01 0. -1.
<mgrwt>
<rscale>  0 0.25493577E+03</rscale>
<asrwt>0</asrwt>
<pdfrwt beam="1">  1       21 0.11276498E-01 0.25493577E+03</pdfrwt>
<pdfrwt beam="2">  1       21 0.34103627E-01 0.25493577E+03</pdfrwt>
<totfact> 0.53686901E+05</totfact>
</mgrwt>
</event>
<event>
 8    1  0.4760912E-006  0.4270856E+03  0.7546771E-02  0.1034785E+00
         21   -1    0    0  504  503  0.00000000000E+00  0.00000000000E+00  0.21678718749E+03  0.21678718749E+03  0.00000000000E+00 0. -1.
         21   -1    0    0  503  504 -0.00000000000E+00 -0.00000000000E+00 -0.21034698307E+03  0.21034698307E+03  0.00000000000E+00 0. -1.
         25    2    1    2    0    0 -0.30707553484E+02 -0.10130561139E+03  0.14023696935E+03  0.21563335645E+03  0.12500222438E+03 0.  0.
         25    2    1    2    0    0  0.30707553484E+02  0.10130561139E+03 -0.13379676493E+03  0.21150081410E+03  0.12500095727E+03 0.  0.
          5    1    3    3  501    0 -0.33076536892E+02 -0.11673115109E+03  0.63181460549E+02  0.13687295527E+03  0.47000000000E+01 0. -1.
         -5    1    3    3    0  501  0.23689834082E+01  0.15425539698E+02  0.77055508802E+02  0.78760401181E+02  0.47000000000E+01 0. -1.
          5    1    4    4  502    0 -0.17706856065E+02  0.10753522607E+03 -0.11625170604E+03  0.15941739791E+03  0.47000000000E+01 0.  1.
         -5    1    4    4    0  502  0.48414409549E+02 -0.62296146796E+01 -0.17545058892E+02  0.52083416195E+02  0.47000000000E+01 0.  1.
<mgrwt>
<rscale>  0 0.42708562E+03</rscale>
<asrwt>0</asrwt>
<pdfrwt beam="1">  1       21 0.33351875E-01 0.42708562E+03</pdfrwt>
<pdfrwt beam="2">  1       21 0.32361074E-01 0.42708562E+03</pdfrwt>
<totfact> 0.74161093E+04</totfact>
</mgrwt>
</event>
<event>
 8    1  0.4760912E-006  0.3504647E+03  0.7546771E-02  0.1062424E+00
         21   -1    0    0  504  503  0.00000000000E+00  0.00000000000E+00  0.96301083520E+02  0.96301083520E+02  0.00000000000E+00 0.  1.
         21   -1    0    0  503  504 -0.00000000000E+00 -0.00000000000E+00 -0.31885799099E+03  0.31885799099E+03  0.00000000000E+00 0.  1.
         25    2    1    2    0    0 -0.16177760085E+02  0.10388183578E+03 -0.18654876633E+03  0.24794782799E+03  0.12499810982E+03 0.  0.
         25    2    1    2    0    0  0.16177760085E+02 -0.10388183578E+03 -0.36008141134E+02  0.16721124652E+03  0.12493942135E+03 0.  0.
          5    1    3    3  501    0  0.54527424841E+02  0.46260096042E+02 -0.74131895276E+02  0.10310608344E+03  0.47000000000E+01 0. -1.
         -5    1    3    3    0  501 -0.70705184926E+02  0.57621739734E+02 -0.11241687106E+03  0.14484174455E+03  0.47000000000E+01 0. -1.
          5    1    4    4  502    0  0.10576774649E+01 -0.88995537140E+02  0.32863769000E+02  0.94991797675E+02  0.47000000000E+01 0. -1.
         -5    1    4    4    0  502  0.15120082620E+02 -0.14886298635E+02 -0.68871910135E+02  0.72219448842E+02  0.47000000000E+01 0. -1.
<mgrwt>
<rscale>  0 0.35046466E+03</rscale>
<asrwt>0</asrwt>
<pdfrwt beam="1">  1       21 0.14815552E-01 0.35046466E+03</pdfrwt>
<pdfrwt beam="2">  1       21 0.49055074E-01 0.35046466E+03</pdfrwt>
<totfact> 0.15233277E+05</totfact>
</mgrwt>
</event>
<event>
 8    1  0.4760912E-006  0.2710179E+03  0.7546771E-02  0.1100698E+00
         21   -1    0    0  504  503  0.00000000000E+00  0.00000000000E+00  0.31557718028E+03  0.31557718028E+03  0.00000000000E+00 0.  1.
         21   -1    0    0  503  504 -0.00000000000E+00 -0.00000000000E+00 -0.58187583106E+02  0.58187583106E+02  0.00000000000E+00 0.  1.
         25    2    1    2    0    0  0.28068928588E+02 -0.18369146751E+02  0.73322792842E+02  0.14875065391E+03  0.12500093914E+03 0.  0.
         25    2    1    2    0    0 -0.28068928588E+02  0.18369146751E+02  0.18406680434E+03  0.22501410948E+03  0.12500188279E+03 0.  0.
          5    1    3    3  501    0  0.44656544882E+02  0.11467612215E+02 -0.19089937395E+02  0.50122139225E+02  0.47000000000E+01 0.  1.
         -5    1    3    3    0  501 -0.16587616294E+02 -0.29836758966E+02  0.92412730237E+02  0.98628514689E+02  0.47000000000E+01 0.  1.
          5    1    4    4  502    0 -0.26271225189E+02 -0.73424200817E+01  0.19475957676E+03  0.19671672817E+03  0.47000000000E+01 0. -1.
         -5    1    4    4    0  502 -0.17977033997E+01  0.25711566833E+02 -0.10692772419E+02  0.28297381301E+02  0.47000000000E+01 0. -1.
<mgrwt>
<rscale>  0 0.27101788E+03</rscale>
<asrwt>0</asrwt>
<pdfrwt beam="1">  1       21 0.48550334E-01 0.27101788E+03</pdfrwt>
<pdfrwt beam="2">  1       21 0.89519360E-02 0.27101788E+03</pdfrwt>
<totfact> 0.39260976E+05</totfact>
</mgrwt>
</event>
<event>
 8    1  0.4760912E-006  0.5897542E+03  0.7546771E-02  0.9926894E-01
         21   -1    0    0  504  503  0.00000000000E+00  0.00000000000E+00  0.58670859236E+03  0.58670859236E+03  0.00000000000E+00 0.  1.
         21   -1    0    0  503  504 -0.00000000000E+00 -0.00000000000E+00 -0.14820388752E+03  0.14820388752E+03  0.00000000000E+00 0.  1.
         25    2    1    2    0    0  0.30397417306E+02 -0.72342439809E+01  0.54977275383E+03  0.56467006160E+03  0.12500344134E+03 0.  0.
         25    2    1    2    0    0 -0.30397417306E+02  0.72342439809E+01 -0.11126804899E+03  0.17024241829E+03  0.12500225996E+03 0.  0.
          5    1    3    3  501    0  0.14664748297E+02  0.51240602139E+02  0.39157893675E+03  0.39521741847E+03  0.47000000000E+01 0. -1.
         -5    1    3    3    0  501  0.15732669009E+02 -0.58474846120E+02  0.15819381707E+03  0.16945264313E+03  0.47000000000E+01 0. -1.
          5    1    4    4  502    0 -0.40802081217E+02 -0.13386706132E+02 -0.13197688312E+03  0.13886684777E+03  0.47000000000E+01 0.  1.
         -5    1    4    4    0  502  0.10404663911E+02  0.20620950112E+02  0.20708834128E+02  0.31375570522E+02  0.47000000000E+01 0.  1.
<mgrwt>
<rscale>  0 0.58975417E+03</rscale>
<asrwt>0</asrwt>
<pdfrwt beam="1">  1       21 0.90262860E-01 0.58975417E+03</pdfrwt>
<pdfrwt beam="2">  1       21 0.22800598E-01 0.58975417E+03</pdfrwt>
<totfact> 0.16387397E+04</totfact>
</mgrwt>
</event>
<event>
 8    1  0.4760912E-006  0.3349440E+03  0.7546771E-02  0.1068970E+00
         21   -1    0    0  504  503  0.00000000000E+00  0.00000000000E+00  0.62704444045E+03  0.62704444045E+03  0.00000000000E+00 0.  1.
         21   -1    0    0  503  504 -0.00000000000E+00 -0.00000000000E+00 -0.44728691383E+02  0.44728691383E+02  0.00000000000E+00 0.  1.
         25    2    1    2    0    0 -0.98113816183E+02 -0.14400224598E+02  0.18912393261E+03  0.24744037699E+03  0.12500076354E+03 0.  0.
         25    2    1    2    0    0  0.98113816183E+02  0.14400224598E+02  0.39319181646E+03  0.42433275484E+03  0.12499917963E+03 0.  0.
          5    1    3    3  501    0 -0.71404020721E+02 -0.38809536412E+02  0.34233673552E+02  0.88310524268E+02  0.47000000000E+01 0.  1.
         -5    1    3    3    0  501 -0.26709795462E+02  0.24409311814E+02  0.15489025905E+03  0.15912985272E+03  0.47000000000E+01 0.  1.
          5    1    4    4  502    0  0.86364344105E+02 -0.42768240215E+02  0.29070071979E+03  0.30629547955E+03  0.47000000000E+01 0.  1.
         -5    1    4    4    0  502  0.11749472078E+02  0.57168464813E+02  0.10249109667E+03  0.11803727529E+03  0.47000000000E+01 0.  1.
<mgrwt>
<rscale>  0 0.33494404E+03</rscale>
<asrwt>0</asrwt>
<pdfrwt beam="1">  1       21 0.96468369E-01 0.33494404E+03</pdfrwt>
<pdfrwt beam="2">  1       21 0.68813376E-02 0.33494404E+03</pdfrwt>
<totfact> 0.13313553E+05</totfact>
</mgrwt>
</event>
<event>
 8    1  0.4760912E-006  0.3026437E+03  0.7546771E-02  0.1083926E+00
         21   -1    0    0  504  503  0.00000000000E+00  0.00000000000E+00  0.38947509107E+02  0.38947509107E+02  0.00000000000E+00 0. -1.
         21   -1    0    0  503  504 -0.00000000000E+00 -0.00000000000E+00 -0.58792732461E+03  0.58792732461E+03  0.00000000000E+00 0. -1.
         25    2    1    2    0    0 -0.20542032300E+02 -0.45408451149E+02 -0.13113234248E+03  0.18789499450E+03  0.12499974074E+03 0.  0.
         25    2    1    2    0    0  0.20542032300E+02  0.45408451149E+02 -0.41784747302E+03  0.43897983922E+03  0.12499154373E+03 0.  0.
          5    1    3    3  501    0 -0.51637858428E+02 -0.69921057031E+02 -0.58008768201E+02  0.10460654773E+03  0.47000000000E+01 0.  1.
         -5    1    3    3    0  501  0.31095826128E+02  0.24512605882E+02 -0.73123574284E+02  0.83288446772E+02  0.47000000000E+01 0.  1.
          5    1    4    4  502    0  0.16851514052E+02  0.87029822860E+02 -0.32765613896E+03  0.33946840647E+03  0.47000000000E+01 0.  1.
         -5    1    4    4    0  502  0.36905182480E+01 -0.41621371711E+02 -0.90191334057E+02  0.99511432745E+02  0.47000000000E+01 0.  1.
<mgrwt>
<rscale>  0 0.30264372E+03</rscale>
<asrwt>0</asrwt>
<pdfrwt beam="1">  1       21 0.59919246E-02 0.30264372E+03</pdfrwt>
<pdfrwt beam="2">  1       21 0.90450356E-01 0.30264372E+03</pdfrwt>
<totfact> 0.19876537E+05</totfact>
</mgrwt>
</event>
<event>
 8    1  0.4760912E-006  0.4560162E+03  0.7546771E-02  0.1025943E+00
         21   -1    0    0  504  503  0.00000000000E+00  0.00000000000E+00  0.81953929335E+02  0.81953929335E+02  0.00000000000E+00 0. -1.
         21   -1    0    0  503  504 -0.00000000000E+00 -0.00000000000E+00 -0.63435259089E+03  0.63435259089E+03  0.00000000000E+00 0. -1.
         25    2    1    2    0    0 -0.53511333140E+02 -0.15069720213E+03 -0.11303226387E+03  0.23232177698E+03  0.12499602346E+03 0.  0.
         25    2    1    2    0    0  0.53511333140E+02  0.15069720213E+03 -0.43936639769E+03  0.48398474325E+03  0.12500116308E+03 0.  0.
          5    1    3    3  501    0 -0.18480327848E+00 -0.13848309619E+03 -0.46720857736E+02  0.14622766711E+03  0.47000000000E+01 0.  1.
         -5    1    3    3    0  501 -0.53326529862E+02 -0.12214105946E+02 -0.66311406131E+02  0.86094109869E+02  0.47000000000E+01 0.  1.
          5    1    4    4  502    0  0.42048117478E+02  0.89345149618E+02 -0.10659989357E+03  0.14538303633E+03  0.47000000000E+01 0.  1.
         -5    1    4    4    0  502  0.11463215662E+02  0.61352052513E+02 -0.33276650412E+03  0.33860170692E+03  0.47000000000E+01 0.  1.
<mgrwt>
<rscale>  0 0.45601617E+03</rscale>
<asrwt>0</asrwt>
<pdfrwt beam="1">  1       21 0.12608296E-01 0.45601617E+03</pdfrwt>
<pdfrwt beam="2">  1       21 0.97592710E-01 0.45601617E+03</pdfrwt>
<totfact> 0.42651912E+04</totfact>
</mgrwt>
</event>
<event>
 8    1  0.4760912E-006  0.3083265E+03  0.7546771E-02  0.1081151E+00
         21   -1    0    0  504  503  0.00000000000E+00  0.00000000000E+00  0.12858836134E+03  0.12858836134E+03  0.00000000000E+00 0.  1.
         21   -1    0    0  503  504 -0.00000000000E+00 -0.00000000000E+00 -0.18482466250E+03  0.18482466250E+03  0.00000000000E+00 0.  1.
         25    2    1    2    0    0 -0.43153561566E+02  0.15376594465E-01  0.52427596433E+02  0.14225439772E+03  0.12500172275E+03 0.  0.
         25    2    1    2    0    0  0.43153561566E+02 -0.15376594465E-01 -0.10866389760E+03  0.17115862613E+03  0.12500081017E+03 0.  0.
          5    1    3    3  501    0  0.12366240184E+02  0.42871882517E+02 -0.12487145112E+02  0.46571890663E+02  0.47000000000E+01 0. -1.
         -5    1    3    3    0  501 -0.55519801750E+02 -0.42856505923E+02  0.64914741545E+02  0.95682507054E+02  0.47000000000E+01 0. -1.
          5    1    4    4  502    0  0.85652623968E+02 -0.14350566780E+02 -0.67409080950E+02  0.11003810683E+03  0.47000000000E+01 0.  1.
         -5    1    4    4    0  502 -0.42499062402E+02  0.14335190185E+02 -0.41254816648E+02  0.61120519299E+02  0.47000000000E+01 0.  1.
<mgrwt>
<rscale>  0 0.30832645E+03</rscale>
<asrwt>0</asrwt>
<pdfrwt beam="1">  1       21 0.19782825E-01 0.30832645E+03</pdfrwt>
<pdfrwt beam="2">  1       21 0.28434563E-01 0.30832645E+03</pdfrwt>
<totfact> 0.27109015E+05</totfact>
</mgrwt>
</event>
<event>
 8    1  0.4760912E-006  0.3737373E+03  0.7546771E-02  0.1053273E+00
         21   -1    0    0  504  503  0.00000000000E+00  0.00000000000E+00  0.43212672861E+02  0.43212672861E+02  0.00000000000E+00 0. -1.
         21   -1    0    0  503  504 -0.00000000000E+00 -0.00000000000E+00 -0.80809357762E+03  0.80809357762E+03  0.00000000000E+00 0. -1.
         25    2    1    2    0    0  0.43520844569E+02 -0.11084623930E+03 -0.54534133847E+03  0.57201632703E+03  0.12499820105E+03 0.  0.
         25    2    1    2    0    0 -0.43520844569E+02  0.11084623930E+03 -0.21953956629E+03  0.27928992345E+03  0.12499714994E+03 0.  0.
          5    1    3    3  501    0  0.45779833920E+02 -0.13519905669E+03 -0.50311489200E+03  0.52299260288E+03  0.47000000000E+01 0. -1.
         -5    1    3    3    0  501 -0.22589893506E+01  0.24352817383E+02 -0.42226446469E+02  0.49023724142E+02  0.47000000000E+01 0. -1.
          5    1    4    4  502    0 -0.61303602484E+02  0.11773188234E+03 -0.22279571486E+03  0.25938185819E+03  0.47000000000E+01 0.  1.
         -5    1    4    4    0  502  0.17782757915E+02 -0.68856430327E+01  0.32561485706E+01  0.19908065264E+02  0.47000000000E+01 0.  1.
<mgrwt>
<rscale>  0 0.37373725E+03</rscale>
<asrwt>0</asrwt>
<pdfrwt beam="1">  1       21 0.66481039E-02 0.37373725E+03</pdfrwt>
<pdfrwt beam="2">  1       21 0.12432208E+00 0.37373725E+03</pdfrwt>
<totfact> 0.74899704E+04</totfact>
</mgrwt>
</event>
<event>
 8    1  0.4760912E-006  0.2746023E+03  0.7546771E-02  0.1098674E+00
         21   -1    0    0  504  503  0.00000000000E+00  0.00000000000E+00  0.17042014085E+02  0.17042014085E+02  0.00000000000E+00 0.  1.
         21   -1    0    0  503  504 -0.00000000000E+00 -0.00000000000E+00 -0.11061840362E+04  0.11061840362E+04  0.00000000000E+00 0.  1.
         25    2    1    2    0    0 -0.49688615723E+02 -0.21271182675E+02 -0.61601794069E+03  0.63089165832E+03  0.12499903816E+03 0.  0.
         25    2    1    2    0    0  0.49688615723E+02  0.21271182675E+02 -0.47312408145E+03  0.49233439200E+03  0.12500134137E+03 0.  0.
          5    1    3    3  501    0 -0.42091996817E+02 -0.33921719857E+02 -0.61264319959E+03  0.61504162402E+03  0.47000000000E+01 0.  1.
         -5    1    3    3    0  501 -0.75966189060E+01  0.12650537183E+02 -0.33747411013E+01  0.15850034300E+02  0.47000000000E+01 0.  1.
          5    1    4    4  502    0  0.79419590330E+02  0.26283566141E+02 -0.19106366889E+03  0.20862816864E+03  0.47000000000E+01 0. -1.
         -5    1    4    4    0  502 -0.29730974608E+02 -0.50123834660E+01 -0.28206041256E+03  0.28370622336E+03  0.47000000000E+01 0. -1.
<mgrwt>
<rscale>  0 0.27460229E+03</rscale>
<asrwt>0</asrwt>
<pdfrwt beam="1">  1       21 0.26218479E-02 0.27460229E+03</pdfrwt>
<pdfrwt beam="2">  1       21 0.17018219E+00 0.27460229E+03</pdfrwt>
<totfact> 0.16254603E+05</totfact>
</mgrwt>
</event>
<event>
 8    1  0.4760912E-006  0.2721518E+03  0.7546771E-02  0.1100054E+00
         21   -1    0    0  504  503  0.00000000000E+00  0.00000000000E+00  0.37701828953E+02  0.37701828953E+02  0.00000000000E+00 0. -1.
         21   -1    0    0  503  504 -0.00000000000E+00 -0.00000000000E+00 -0.49113403036E+03  0.49113403036E+03  0.00000000000E+00 0. -1.
         25    2    1    2    0    0 -0.31837369059E+01 -0.30909536716E+01 -0.33084789044E+03  0.35370232977E+03  0.12500128518E+03 0.  0.
         25    2    1    2    0    0  0.31837369059E+01  0.30909536716E+01 -0.12258431096E+03  0.17513352954E+03  0.12500059880E+03 0.  0.
          5    1    3    3  501    0  0.23434026844E+02 -0.12342748721E+01 -0.23039809560E+01  0.24043198141E+02  0.47000000000E+01 0. -1.
         -5    1    3    3    0  501 -0.26617763750E+02 -0.18566787995E+01 -0.32854390949E+03  0.32965913163E+03  0.47000000000E+01 0. -1.
          5    1    4    4  502    0 -0.29437488945E+02 -0.52467774863E+02 -0.63282261072E+02  0.87442367996E+02  0.47000000000E+01 0. -1.
         -5    1    4    4    0  502  0.32621225851E+02  0.55558728534E+02 -0.59302049888E+02  0.87691161546E+02  0.47000000000E+01 0. -1.
<mgrwt>
<rscale>  0 0.27215180E+03</rscale>
<asrwt>0</asrwt>
<pdfrwt beam="1">  1       21 0.58002818E-02 0.27215180E+03</pdfrwt>
<pdfrwt beam="2">  1       21 0.75559076E-01 0.27215180E+03</pdfrwt>
<totfact> 0.32021700E+05</totfact>
</mgrwt>
</event>
<event>
 8    1  0.4760912E-006  0.3218794E+03  0.7546771E-02  0.1074788E+00
         21   -1    0    0  504  503  0.00000000000E+00  0.00000000000E+00  0.48987810531E+02  0.48987810531E+02  0.00000000000E+00 0.  1.
         21   -1    0    0  503  504 -0.00000000000E+00 -0.00000000000E+00 -0.52873518745E+03  0.52873518745E+03  0.00000000000E+00 0.  1.
         25    2    1    2    0    0 -0.32193526901E+02 -0.23305075215E+01 -0.67388142113E+02  0.14562627392E+03  0.12499598201E+03 0.  0.
         25    2    1    2    0    0  0.32193526901E+02  0.23305075215E+01 -0.41235923480E+03  0.43209672405E+03  0.12500234387E+03 0.  0.
          5    1    3    3  501    0 -0.73961504675E+02 -0.21951188222E+02 -0.21157696731E+02  0.80136739197E+02  0.47000000000E+01 0.  1.
         -5    1    3    3    0  501  0.41767977774E+02  0.19620680700E+02 -0.46230445382E+02  0.65489534726E+02  0.47000000000E+01 0.  1.
          5    1    4    4  502    0  0.11813265788E+02  0.58761591911E+02 -0.12769479808E+03  0.14114010553E+03  0.47000000000E+01 0.  1.
         -5    1    4    4    0  502  0.20380261113E+02 -0.56431084390E+02 -0.28466443672E+03  0.29095661852E+03  0.47000000000E+01 0.  1.
<mgrwt>
<rscale>  0 0.32187935E+03</rscale>
<asrwt>0</asrwt>
<pdfrwt beam="1">  1       21 0.75365862E-02 0.32187935E+03</pdfrwt>
<pdfrwt beam="2">  1       21 0.81343875E-01 0.32187935E+03</pdfrwt>
<totfact> 0.16980444E+05</totfact>
</mgrwt>
</event>
<event>
 8    1  0.4760912E-006  0.2702595E+03  0.7546771E-02  0.1101131E+00
         21   -1    0    0  504  503  0.00000000000E+00  0.00000000000E+00  0.34023458638E+02  0.34023458638E+02  0.00000000000E+00 0. -1.
         21   -1    0    0  503  504 -0.00000000000E+00 -0.00000000000E+00 -0.53669003699E+03  0.53669003699E+03  0.00000000000E+00 0. -1.
         25    2    1    2    0    0  0.29288371745E+02  0.40126628682E+02 -0.27852855598E+03  0.30930977462E+03  0.12500570040E+03 0.  0.
         25    2    1    2    0    0 -0.29288371745E+02 -0.40126628682E+02 -0.22413802237E+03  0.26140372100E+03  0.12500438886E+03 0.  0.
          5    1    3    3  501    0  0.94073420383E+01  0.82668760031E+02 -0.21157494327E+03  0.22739540142E+03  0.47000000000E+01 0.  1.
         -5    1    3    3    0  501  0.19881029707E+02 -0.42542131348E+02 -0.66953612713E+02  0.81914373203E+02  0.47000000000E+01 0.  1.
          5    1    4    4  502    0  0.73820209300E+01 -0.55289292485E+02 -0.21255124843E+03  0.21979882462E+03  0.47000000000E+01 0.  1.
         -5    1    4    4    0  502 -0.36670392675E+02  0.15162663802E+02 -0.11586773942E+02  0.41604896381E+02  0.47000000000E+01 0.  1.
<mgrwt>
<rscale>  0 0.27025951E+03</rscale>
<asrwt>0</asrwt>
<pdfrwt beam="1">  1       21 0.52343786E-02 0.27025951E+03</pdfrwt>
<pdfrwt beam="2">  1       21 0.82567693E-01 0.27025951E+03</pdfrwt>
<totfact> 0.31224906E+05</totfact>
</mgrwt>
</event>
<event>
 8    1  0.4760912E-006  0.2856066E+03  0.7546771E-02  0.1092666E+00
         21   -1    0    0  504  503  0.00000000000E+00  0.00000000000E+00  0.10296776022E+03  0.10296776022E+03  0.00000000000E+00 0.  1.
         21   -1    0    0  503  504 -0.00000000000E+00 -0.00000000000E+00 -0.19805014093E+03  0.19805014093E+03  0.00000000000E+00 0.  1.
         25    2    1    2    0    0 -0.57424636838E+02 -0.36961026821E+02 -0.58457636133E+02  0.15392838242E+03  0.12495177179E+03 0.  0.
         25    2    1    2    0    0  0.57424636838E+02  0.36961026821E+02 -0.36624744576E+02  0.14708951873E+03  0.12502099098E+03 0.  0.
          5    1    3    3  501    0 -0.75072724596E+02  0.23770276474E+02 -0.29652404027E+02  0.84275115464E+02  0.47000000000E+01 0.  1.
         -5    1    3    3    0  501  0.17648087758E+02 -0.60731303294E+02 -0.28805232106E+02  0.69653266959E+02  0.47000000000E+01 0.  1.
          5    1    4    4  502    0  0.89671438612E+01 -0.39692028541E+02  0.13795710940E+02  0.43223586606E+02  0.47000000000E+01 0. -1.
         -5    1    4    4    0  502  0.48457492977E+02  0.76653055362E+02 -0.50420455516E+02  0.10386593213E+03  0.47000000000E+01 0. -1.
<mgrwt>
<rscale>  0 0.28560658E+03</rscale>
<asrwt>0</asrwt>
<pdfrwt beam="1">  1       21 0.15841194E-01 0.28560658E+03</pdfrwt>
<pdfrwt beam="2">  1       21 0.30469252E-01 0.28560658E+03</pdfrwt>
<totfact> 0.35976691E+05</totfact>
</mgrwt>
</event>
<event>
 8    1  0.4760912E-006  0.5258955E+03  0.7546771E-02  0.1007232E+00
         21   -1    0    0  504  503  0.00000000000E+00  0.00000000000E+00  0.52016810827E+03  0.52016810827E+03  0.00000000000E+00 0. -1.
         21   -1    0    0  503  504 -0.00000000000E+00 -0.00000000000E+00 -0.13292148438E+03  0.13292148438E+03  0.00000000000E+00 0. -1.
         25    2    1    2    0    0 -0.12800451352E+03 -0.17060810951E+03  0.30485962442E+03  0.39250049957E+03  0.12499987620E+03 0.  0.
         25    2    1    2    0    0  0.12800451352E+03  0.17060810951E+03  0.82386999472E+02  0.26058909308E+03  0.12500710075E+03 0.  0.
          5    1    3    3  501    0 -0.62575393059E+02  0.17714562914E+01  0.78299709418E+02  0.10035812059E+03  0.47000000000E+01 0. -1.
         -5    1    3    3    0  501 -0.65429120465E+02 -0.17237956580E+03  0.22655991500E+03  0.29214237898E+03  0.47000000000E+01 0. -1.
          5    1    4    4  502    0  0.73755674793E+02  0.12206572649E+03  0.11246094437E+03  0.18168515393E+03  0.47000000000E+01 0. -1.
         -5    1    4    4    0  502  0.54248838730E+02  0.48542383012E+02 -0.30073944900E+02  0.78903939153E+02  0.47000000000E+01 0. -1.
<mgrwt>
<rscale>  0 0.52589549E+03</rscale>
<asrwt>0</asrwt>
<pdfrwt beam="1">  1       21 0.80025862E-01 0.52589549E+03</pdfrwt>
<pdfrwt beam="2">  1       21 0.20449459E-01 0.52589549E+03</pdfrwt>
<totfact> 0.27185384E+04</totfact>
</mgrwt>
</event>
<event>
 8    1  0.4760912E-006  0.4803756E+03  0.7546771E-02  0.1019032E+00
         21   -1    0    0  504  503  0.00000000000E+00  0.00000000000E+00  0.13770113985E+04  0.13770113985E+04  0.00000000000E+00 0.  1.
         21   -1    0    0  503  504 -0.00000000000E+00 -0.00000000000E+00 -0.41895200510E+02  0.41895200510E+02  0.00000000000E+00 0.  1.
         25    2    1    2    0    0  0.79261245491E+02  0.25067391140E+01  0.12262513611E+04  0.12351543815E+04  0.12500126654E+03 0.  0.
         25    2    1    2    0    0 -0.79261245491E+02 -0.25067391140E+01  0.10886483689E+03  0.18375221756E+03  0.12499878387E+03 0.  0.
          5    1    3    3  501    0 -0.27465931172E+02 -0.25306635377E+02  0.31239641939E+03  0.31465602809E+03  0.47000000000E+01 0. -1.
         -5    1    3    3    0  501  0.10672717666E+03  0.27813374491E+02  0.91385494175E+03  0.92049835339E+03  0.47000000000E+01 0. -1.
          5    1    4    4  502    0  0.21594687294E+01 -0.43350945149E+02  0.26372069966E+01  0.43737999626E+02  0.47000000000E+01 0.  1.
         -5    1    4    4    0  502 -0.81420714220E+02  0.40844206035E+02  0.10622762989E+03  0.14001421793E+03  0.47000000000E+01 0.  1.
<mgrwt>
<rscale>  0 0.48037556E+03</rscale>
<asrwt>0</asrwt>
<pdfrwt beam="1">  1       21 0.21184787E+00 0.48037556E+03</pdfrwt>
<pdfrwt beam="2">  1       21 0.64454165E-02 0.48037556E+03</pdfrwt>
<totfact> 0.17093701E+04</totfact>
</mgrwt>
</event>
<event>
 8    1  0.4760912E-006  0.2811913E+03  0.7546771E-02  0.1095040E+00
         21   -1    0    0  504  503  0.00000000000E+00  0.00000000000E+00  0.27766356449E+03  0.27766356449E+03  0.00000000000E+00 0.  1.
         21   -1    0    0  503  504 -0.00000000000E+00 -0.00000000000E+00 -0.71190971575E+02  0.71190971575E+02  0.00000000000E+00 0.  1.
         25    2    1    2    0    0  0.25163177335E+02 -0.41833431268E+02  0.15524893808E+03  0.20520999819E+03  0.12500275643E+03 0.  0.
         25    2    1    2    0    0 -0.25163177335E+02  0.41833431268E+02  0.51223654834E+02  0.14364453788E+03  0.12500667575E+03 0.  0.
          5    1    3    3  501    0  0.46069421489E+02  0.13006984377E+02  0.13440232979E+03  0.14275030470E+03  0.47000000000E+01 0. -1.
         -5    1    3    3    0  501 -0.20906244154E+02 -0.54840415646E+02  0.20846608288E+02  0.62459693482E+02  0.47000000000E+01 0. -1.
          5    1    4    4  502    0 -0.51137248538E+02  0.51439265849E+01  0.76178637191E+02  0.92014960376E+02  0.47000000000E+01 0. -1.
         -5    1    4    4    0  502  0.25974071203E+02  0.36689504683E+02 -0.24954982357E+02  0.51629577503E+02  0.47000000000E+01 0. -1.
<mgrwt>
<rscale>  0 0.28119132E+03</rscale>
<asrwt>0</asrwt>
<pdfrwt beam="1">  1       21 0.42717471E-01 0.28119132E+03</pdfrwt>
<pdfrwt beam="2">  1       21 0.10952457E-01 0.28119132E+03</pdfrwt>
<totfact> 0.35691995E+05</totfact>
</mgrwt>
</event>
<event>
 8    1  0.4760912E-006  0.2536884E+03  0.7546771E-02  0.1110996E+00
         21   -1    0    0  504  503  0.00000000000E+00  0.00000000000E+00  0.81540507736E+02  0.81540507736E+02  0.00000000000E+00 0.  1.
         21   -1    0    0  503  504 -0.00000000000E+00 -0.00000000000E+00 -0.19731854643E+03  0.19731854643E+03  0.00000000000E+00 0.  1.
         25    2    1    2    0    0 -0.16452809071E+02 -0.76038332825E+01 -0.45060067931E+02  0.13410393464E+03  0.12499976943E+03 0.  0.
         25    2    1    2    0    0  0.16452809071E+02  0.76038332825E+01 -0.70717970759E+02  0.14475511952E+03  0.12499800012E+03 0.  0.
          5    1    3    3  501    0 -0.95324768470E+01 -0.43816811667E+02  0.27334547828E+02  0.52726166222E+02  0.47000000000E+01 0. -1.
         -5    1    3    3    0  501 -0.69203322236E+01  0.36212978385E+02 -0.72394615759E+02  0.81377768416E+02  0.47000000000E+01 0. -1.
          5    1    4    4  502    0  0.30779438793E+02 -0.54197611396E+02 -0.31119125451E+02  0.69822953979E+02  0.47000000000E+01 0. -1.
         -5    1    4    4    0  502 -0.14326629723E+02  0.61801444679E+02 -0.39598845308E+02  0.74932165545E+02  0.47000000000E+01 0. -1.
<mgrwt>
<rscale>  0 0.25368843E+03</rscale>
<asrwt>0</asrwt>
<pdfrwt beam="1">  1       21 0.12544694E-01 0.25368843E+03</pdfrwt>
<pdfrwt beam="2">  1       21 0.30356699E-01 0.25368843E+03</pdfrwt>
<totfact> 0.55803723E+05</totfact>
</mgrwt>
</event>
<event>
 8    1  0.4760912E-006  0.3112687E+03  0.7546771E-02  0.1079739E+00
         21   -1    0    0  504  503  0.00000000000E+00  0.00000000000E+00  0.13808959786E+02  0.13808959786E+02  0.00000000000E+00 0.  1.
         21   -1    0    0  503  504 -0.00000000000E+00 -0.00000000000E+00 -0.17540827667E+04  0.17540827667E+04  0.00000000000E+00 0.  1.
         25    2    1    2    0    0  0.26950915051E+02 -0.73040650053E+02 -0.58395612784E+03  0.60223923009E+03  0.12500417044E+03 0.  0.
         25    2    1    2    0    0 -0.26950915051E+02  0.73040650053E+02 -0.11563176791E+04  0.11656524964E+04  0.12495550828E+03 0.  0.
          5    1    3    3  501    0  0.55342246953E+02  0.70876543724E+01 -0.15228956831E+03  0.16225659234E+03  0.47000000000E+01 0. -1.
         -5    1    3    3    0  501 -0.28391331902E+02 -0.80128304426E+02 -0.43166655953E+03  0.43998263774E+03  0.47000000000E+01 0. -1.
          5    1    4    4  502    0 -0.39115932336E+00  0.97764210672E+02 -0.58220780163E+03  0.59037785203E+03  0.47000000000E+01 0. -1.
         -5    1    4    4    0  502 -0.26559755727E+02 -0.24723560619E+02 -0.57410987748E+03  0.57527464441E+03  0.47000000000E+01 0. -1.
<mgrwt>
<rscale>  0 0.31126875E+03</rscale>
<asrwt>0</asrwt>
<pdfrwt beam="1">  1       21 0.21244549E-02 0.31126875E+03</pdfrwt>
<pdfrwt beam="2">  1       21 0.26985894E+00 0.31126875E+03</pdfrwt>
<totfact> 0.52621937E+04</totfact>
</mgrwt>
</event>
<event>
 8    1  0.4760912E-006  0.3974079E+03  0.7546771E-02  0.1044681E+00
         21   -1    0    0  504  503  0.00000000000E+00  0.00000000000E+00  0.18719870530E+03  0.18719870530E+03  0.00000000000E+00 0.  1.
         21   -1    0    0  503  504 -0.00000000000E+00 -0.00000000000E+00 -0.21091631256E+03  0.21091631256E+03  0.00000000000E+00 0.  1.
         25    2    1    2    0    0  0.15402668313E+03 -0.45090667329E+01 -0.22573924504E+02  0.19969834989E+03  0.12500119232E+03 0.  0.
         25    2    1    2    0    0 -0.15402668313E+03  0.45090667329E+01 -0.11436827614E+01  0.19841666797E+03  0.12499326109E+03 0.  0.
          5    1    3    3  501    0  0.63989998310E+02  0.39905118632E+02  0.35648734383E+02  0.83546757207E+02  0.47000000000E+01 0. -1.
         -5    1    3    3    0  501  0.90036684824E+02 -0.44414185365E+02 -0.58222658886E+02  0.11615159269E+03  0.47000000000E+01 0. -1.
          5    1    4    4  502    0 -0.10346907992E+03 -0.56420683718E+02 -0.11163314641E+02  0.11847300808E+03  0.47000000000E+01 0. -1.
         -5    1    4    4    0  502 -0.50557603216E+02  0.60929750451E+02  0.10019631879E+02  0.79943659886E+02  0.47000000000E+01 0. -1.
<mgrwt>
<rscale>  0 0.39740790E+03</rscale>
<asrwt>0</asrwt>
<pdfrwt beam="1">  1       21 0.28799801E-01 0.39740790E+03</pdfrwt>
<pdfrwt beam="2">  1       21 0.32448663E-01 0.39740790E+03</pdfrwt>
<totfact> 0.99400222E+04</totfact>
</mgrwt>
</event>
<event>
 8    1  0.4760912E-006  0.2845734E+03  0.7546771E-02  0.1093217E+00
         21   -1    0    0  504  503  0.00000000000E+00  0.00000000000E+00  0.21705982000E+03  0.21705982000E+03  0.00000000000E+00 0.  1.
         21   -1    0    0  503  504 -0.00000000000E+00 -0.00000000000E+00 -0.93271551487E+02  0.93271551487E+02  0.00000000000E+00 0.  1.
         25    2    1    2    0    0 -0.66942660910E+02 -0.34141183971E+01  0.74518227396E+02  0.16018159807E+03  0.12494879788E+03 0.  0.
         25    2    1    2    0    0  0.66942660910E+02  0.34141183971E+01  0.49270041116E+02  0.15014977342E+03  0.12499776579E+03 0.  0.
          5    1    3    3  501    0 -0.79993424879E+02  0.32933298876E+01  0.10134864618E+03  0.12924175846E+03  0.47000000000E+01 0. -1.
         -5    1    3    3    0  501  0.13050763969E+02 -0.67074482847E+01 -0.26830418789E+02  0.30939839609E+02  0.47000000000E+01 0. -1.
          5    1    4    4  502    0  0.13645280216E+02  0.48381642114E+02 -0.17554297472E+02  0.53452973029E+02  0.47000000000E+01 0.  1.
         -5    1    4    4    0  502  0.53297380695E+02 -0.44967523717E+02  0.66824338588E+02  0.96696800391E+02  0.47000000000E+01 0.  1.
<mgrwt>
<rscale>  0 0.28457341E+03</rscale>
<asrwt>0</asrwt>
<pdfrwt beam="1">  1       21 0.33393818E-01 0.28457341E+03</pdfrwt>
<pdfrwt beam="2">  1       21 0.14349470E-01 0.28457341E+03</pdfrwt>
<totfact> 0.35990841E+05</totfact>
</mgrwt>
</event>
<event>
 8    1  0.4760912E-006  0.2952958E+03  0.7546771E-02  0.1087616E+00
         21   -1    0    0  504  503  0.00000000000E+00  0.00000000000E+00  0.11568680972E+03  0.11568680972E+03  0.00000000000E+00 0.  1.
         21   -1    0    0  503  504 -0.00000000000E+00 -0.00000000000E+00 -0.18843902420E+03  0.18843902420E+03  0.00000000000E+00 0.  1.
         25    2    1    2    0    0  0.39152673292E+02 -0.49588056565E+02 -0.84485671710E+02  0.16357170307E+03  0.12500386450E+03 0.  0.
         25    2    1    2    0    0 -0.39152673292E+02  0.49588056565E+02  0.11733457233E+02  0.14055413085E+03  0.12500352995E+03 0.  0.
          5    1    3    3  501    0  0.90299446741E+01  0.28424634662E+02 -0.73040815942E+02  0.79035122256E+02  0.47000000000E+01 0.  1.
         -5    1    3    3    0  501  0.30122728618E+02 -0.78012691227E+02 -0.11444855767E+02  0.84536580813E+02  0.47000000000E+01 0.  1.
          5    1    4    4  502    0 -0.64298423496E+02  0.74595085516E+02  0.26121114128E+02  0.10199566976E+03  0.47000000000E+01 0. -1.
         -5    1    4    4    0  502  0.25145750204E+02 -0.25007028951E+02 -0.14387656895E+02  0.38558461084E+02  0.47000000000E+01 0. -1.
<mgrwt>
<rscale>  0 0.29529585E+03</rscale>
<asrwt>0</asrwt>
<pdfrwt beam="1">  1       21 0.17797971E-01 0.29529585E+03</pdfrwt>
<pdfrwt beam="2">  1       21 0.28990619E-01 0.29529585E+03</pdfrwt>
<totfact> 0.31904267E+05</totfact>
</mgrwt>
</event>
<event>
 8    1  0.4760912E-006  0.2819674E+03  0.7546771E-02  0.1094619E+00
         21   -1    0    0  504  503  0.00000000000E+00  0.00000000000E+00  0.29514524961E+03  0.29514524961E+03  0.00000000000E+00 0.  1.
         21   -1    0    0  503  504 -0.00000000000E+00 -0.00000000000E+00 -0.67344503313E+02  0.67344503313E+02  0.00000000000E+00 0.  1.
         25    2    1    2    0    0 -0.67387991648E+01 -0.63216140820E+02  0.13250679154E+03  0.19294064772E+03  0.12500540734E+03 0.  0.
         25    2    1    2    0    0  0.67387991648E+01  0.63216140820E+02  0.95293954759E+02  0.16954910521E+03  0.12499707752E+03 0.  0.
          5    1    3    3  501    0 -0.38093026130E+02 -0.23577869012E+02 -0.59841569903E+01  0.45441112242E+02  0.47000000000E+01 0.  1.
         -5    1    3    3    0  501  0.31354226965E+02 -0.39638271808E+02  0.13849094853E+03  0.14749953548E+03  0.47000000000E+01 0.  1.
          5    1    4    4  502    0 -0.13465739088E+02  0.95605732342E+02  0.46072659603E+02  0.10708203467E+03  0.47000000000E+01 0.  1.
         -5    1    4    4    0  502  0.20204538252E+02 -0.32389591522E+02  0.49221295156E+02  0.62467070539E+02  0.47000000000E+01 0.  1.
<mgrwt>
<rscale>  0 0.28196745E+03</rscale>
<asrwt>0</asrwt>
<pdfrwt beam="1">  1       21 0.45406961E-01 0.28196745E+03</pdfrwt>
<pdfrwt beam="2">  1       21 0.10360693E-01 0.28196745E+03</pdfrwt>
<totfact> 0.34743472E+05</totfact>
</mgrwt>
</event>
<event>
 8    1  0.4760912E-006  0.2745377E+03  0.7546771E-02  0.1098710E+00
         21   -1    0    0  504  503  0.00000000000E+00  0.00000000000E+00  0.19989652305E+03  0.19989652305E+03  0.00000000000E+00 0.  1.
         21   -1    0    0  503  504 -0.00000000000E+00 -0.00000000000E+00 -0.94262467732E+02  0.94262467732E+02  0.00000000000E+00 0.  1.
         25    2    1    2    0    0 -0.40720490592E+02  0.15962404445E+02  0.91520776895E+02  0.16097660368E+03  0.12499783046E+03 0.  0.
         25    2    1    2    0    0  0.40720490592E+02 -0.15962404445E+02  0.14113278421E+02  0.13318238710E+03  0.12500162757E+03 0.  0.
          5    1    3    3  501    0  0.20169759352E+02  0.52845180682E+01 -0.22597701684E+02  0.31104524509E+02  0.47000000000E+01 0. -1.
         -5    1    3    3    0  501 -0.60890249944E+02  0.10677886377E+02  0.11411847858E+03  0.12987207917E+03  0.47000000000E+01 0. -1.
          5    1    4    4  502    0  0.72715836328E+02 -0.35166166339E+02 -0.18956610311E+02  0.83100512528E+02  0.47000000000E+01 0.  1.
         -5    1    4    4    0  502 -0.31995345736E+02  0.19203761894E+02  0.33069888733E+02  0.50081874570E+02  0.47000000000E+01 0.  1.
<mgrwt>
<rscale>  0 0.27453772E+03</rscale>
<asrwt>0</asrwt>
<pdfrwt beam="1">  1       21 0.30753311E-01 0.27453772E+03</pdfrwt>
<pdfrwt beam="2">  1       21 0.14501918E-01 0.27453772E+03</pdfrwt>
<totfact> 0.41636860E+05</totfact>
</mgrwt>
</event>
<event>
 8    1  0.4760912E-006  0.2519064E+03  0.7546771E-02  0.1112106E+00
         21   -1    0    0  504  503  0.00000000000E+00  0.00000000000E+00  0.10229267567E+03  0.10229267567E+03  0.00000000000E+00 0.  1.
         21   -1    0    0  503  504 -0.00000000000E+00 -0.00000000000E+00 -0.15508646233E+03  0.15508646233E+03  0.00000000000E+00 0.  1.
         25    2    1    2    0    0 -0.77083351040E+01 -0.10172587022E+02 -0.17404249623E+02  0.12684747270E+03  0.12499789386E+03 0.  0.
         25    2    1    2    0    0  0.77083351040E+01  0.10172587022E+02 -0.35389537037E+02  0.13053166531E+03  0.12499278523E+03 0.  0.
          5    1    3    3  501    0  0.25053764197E+02 -0.36869344126E+02 -0.54397499136E+02  0.70485583980E+02  0.47000000000E+01 0.  1.
         -5    1    3    3    0  501 -0.32762099301E+02  0.26696757105E+02  0.36993249513E+02  0.56361888719E+02  0.47000000000E+01 0.  1.
          5    1    4    4  502    0  0.41717304750E+02  0.39633092508E+02 -0.56347130994E+02  0.80673444879E+02  0.47000000000E+01 0.  1.
         -5    1    4    4    0  502 -0.34008969646E+02 -0.29460505486E+02  0.20957593957E+02  0.49858220429E+02  0.47000000000E+01 0.  1.
<mgrwt>
<rscale>  0 0.25190640E+03</rscale>
<asrwt>0</asrwt>
<pdfrwt beam="1">  1       21 0.15737335E-01 0.25190640E+03</pdfrwt>
<pdfrwt beam="2">  1       21 0.23859456E-01 0.25190640E+03</pdfrwt>
<totfact> 0.58877145E+05</totfact>
</mgrwt>
</event>
<event>
 8    1  0.4760912E-006  0.2919585E+03  0.7546771E-02  0.1089331E+00
         21   -1    0    0  504  503  0.00000000000E+00  0.00000000000E+00  0.17629694806E+02  0.17629694806E+02  0.00000000000E+00 0. -1.
         21   -1    0    0  503  504 -0.00000000000E+00 -0.00000000000E+00 -0.12087525543E+04  0.12087525543E+04  0.00000000000E+00 0. -1.
         25    2    1    2    0    0 -0.68032237194E+02 -0.29796113597E+02 -0.65028542714E+03  0.66634087433E+03  0.12499132118E+03 0.  0.
         25    2    1    2    0    0  0.68032237194E+02  0.29796113597E+02 -0.54083743232E+03  0.56004137475E+03  0.12500007817E+03 0.  0.
          5    1    3    3  501    0  0.20944501229E+02 -0.42768108794E+02 -0.13458495128E+03  0.14283900858E+03  0.47000000000E+01 0.  1.
         -5    1    3    3    0  501 -0.88976738423E+02  0.12971995197E+02 -0.51570047586E+03  0.52350186575E+03  0.47000000000E+01 0.  1.
          5    1    4    4  502    0  0.95074423284E+02 -0.38954805450E+01 -0.44071345027E+03  0.45089328668E+03  0.47000000000E+01 0.  1.
         -5    1    4    4    0  502 -0.27042186090E+02  0.33691594142E+02 -0.10012398206E+03  0.10914808806E+03  0.47000000000E+01 0.  1.
<mgrwt>
<rscale>  0 0.29195848E+03</rscale>
<asrwt>0</asrwt>
<pdfrwt beam="1">  1       21 0.27122610E-02 0.29195848E+03</pdfrwt>
<pdfrwt beam="2">  1       21 0.18596192E+00 0.29195848E+03</pdfrwt>
<totfact> 0.11855945E+05</totfact>
</mgrwt>
</event>
<event>
 8    1  0.4760912E-006  0.2750854E+03  0.7546771E-02  0.1098404E+00
         21   -1    0    0  504  503  0.00000000000E+00  0.00000000000E+00  0.42098221682E+02  0.42098221682E+02  0.00000000000E+00 0.  1.
         21   -1    0    0  503  504 -0.00000000000E+00 -0.00000000000E+00 -0.44937744758E+03  0.44937744758E+03  0.00000000000E+00 0.  1.
         25    2    1    2    0    0  0.10644276461E+02  0.30371375911E+02 -0.28841555740E+03  0.31598104525E+03  0.12499906445E+03 0.  0.
         25    2    1    2    0    0 -0.10644276461E+02 -0.30371375911E+02 -0.11886366850E+03  0.17549462401E+03  0.12503627582E+03 0.  0.
          5    1    3    3  501    0  0.88811599341E+01  0.47252798925E+02 -0.29788784128E+02  0.56755296386E+02  0.47000000000E+01 0. -1.
         -5    1    3    3    0  501  0.17631165273E+01 -0.16881423014E+02 -0.25862677327E+03  0.25922574887E+03  0.47000000000E+01 0. -1.
          5    1    4    4  502    0  0.18045187876E+02 -0.64775161213E+02 -0.11086440856E+03  0.12974766819E+03  0.47000000000E+01 0.  1.
         -5    1    4    4    0  502 -0.28689464337E+02  0.34403785303E+02 -0.79992599384E+01  0.45746955818E+02  0.47000000000E+01 0.  1.
<mgrwt>
<rscale>  0 0.27508538E+03</rscale>
<asrwt>0</asrwt>
<pdfrwt beam="1">  1       21 0.64766497E-02 0.27508538E+03</pdfrwt>
<pdfrwt beam="2">  1       21 0.69134990E-01 0.27508538E+03</pdfrwt>
<totfact> 0.32270164E+05</totfact>
</mgrwt>
</event>
<event>
 8    1  0.4760912E-006  0.3791388E+03  0.7546771E-02  0.1051253E+00
         21   -1    0    0  504  503  0.00000000000E+00  0.00000000000E+00  0.33640208760E+03  0.33640208760E+03  0.00000000000E+00 0.  1.
         21   -1    0    0  503  504 -0.00000000000E+00 -0.00000000000E+00 -0.10682618629E+03  0.10682618629E+03  0.00000000000E+00 0.  1.
         25    2    1    2    0    0 -0.18946656551E+01 -0.13788470960E+03  0.15688289868E+03  0.24341314594E+03  0.12498773068E+03 0.  0.
         25    2    1    2    0    0  0.18946656551E+01  0.13788470960E+03  0.72693002631E+02  0.19981512795E+03  0.12500411924E+03 0.  0.
          5    1    3    3  501    0 -0.31443056964E+02 -0.13867328553E+03  0.15906021499E+03  0.21340381427E+03  0.47000000000E+01 0. -1.
         -5    1    3    3    0  501  0.29548391309E+02  0.78857593592E+00 -0.21773163151E+01  0.30009331670E+02  0.47000000000E+01 0. -1.
          5    1    4    4  502    0  0.12749380192E+02  0.15960140906E+03  0.54807438369E+02  0.16929590004E+03  0.47000000000E+01 0. -1.
         -5    1    4    4    0  502 -0.10854714537E+02 -0.21716699462E+02  0.17885564262E+02  0.30519227909E+02  0.47000000000E+01 0. -1.
<mgrwt>
<rscale>  0 0.37913877E+03</rscale>
<asrwt>0</asrwt>
<pdfrwt beam="1">  1       21 0.51754167E-01 0.37913877E+03</pdfrwt>
<pdfrwt beam="2">  1       21 0.16434798E-01 0.37913877E+03</pdfrwt>
<totfact> 0.11152291E+05</totfact>
</mgrwt>
</event>
<event>
 8    1  0.4760912E-006  0.3139944E+03  0.7546771E-02  0.1078447E+00
         21   -1    0    0  504  503  0.00000000000E+00  0.00000000000E+00  0.90245069256E+02  0.90245069256E+02  0.00000000000E+00 0. -1.
         21   -1    0    0  503  504 -0.00000000000E+00 -0.00000000000E+00 -0.27312432258E+03  0.27312432258E+03  0.00000000000E+00 0. -1.
         25    2    1    2    0    0 -0.39002042359E+02  0.85938325157E+02 -0.79008632417E+02  0.17543158220E+03  0.12500928365E+03 0.  0.
         25    2    1    2    0    0  0.39002042359E+02 -0.85938325157E+02 -0.10387062091E+03  0.18793780963E+03  0.12499983745E+03 0.  0.
          5    1    3    3  501    0  0.18252023862E+02 -0.25072911859E+02 -0.11791675859E+02  0.33510011992E+02  0.47000000000E+01 0. -1.
         -5    1    3    3    0  501 -0.57254066221E+02  0.11101123702E+03 -0.67216956559E+02  0.14192157021E+03  0.47000000000E+01 0. -1.
          5    1    4    4  502    0  0.57554886624E+02 -0.99909413416E+02 -0.43917546513E+02  0.12347184600E+03  0.47000000000E+01 0. -1.
         -5    1    4    4    0  502 -0.18552844265E+02  0.13971088259E+02 -0.59953074396E+02  0.64465963632E+02  0.47000000000E+01 0. -1.
<mgrwt>
<rscale>  0 0.31399442E+03</rscale>
<asrwt>0</asrwt>
<pdfrwt beam="1">  1       21 0.13883857E-01 0.31399442E+03</pdfrwt>
<pdfrwt beam="2">  1       21 0.42019125E-01 0.31399442E+03</pdfrwt>
<totfact> 0.23876486E+05</totfact>
</mgrwt>
</event>
<event>
 8    1  0.4760912E-006  0.3128640E+03  0.7546771E-02  0.1078981E+00
         21   -1    0    0  504  503  0.00000000000E+00  0.00000000000E+00  0.15299411074E+03  0.15299411074E+03  0.00000000000E+00 0. -1.
         21   -1    0    0  503  504 -0.00000000000E+00 -0.00000000000E+00 -0.15994714770E+03  0.15994714770E+03  0.00000000000E+00 0. -1.
         25    2    1    2    0    0 -0.15914742332E+02 -0.55186481505E+01 -0.96019958257E+02  0.15852341186E+03  0.12500442081E+03 0.  0.
         25    2    1    2    0    0  0.15914742332E+02  0.55186481505E+01  0.89066921298E+02  0.15441784657E+03  0.12501288082E+03 0.  0.
          5    1    3    3  501    0 -0.87256214778E+01  0.36163384971E+02 -0.10798963250E+03  0.11431438059E+03  0.47000000000E+01 0.  1.
         -5    1    3    3    0  501 -0.71891208542E+01 -0.41682033122E+02  0.11969674243E+02  0.44209031264E+02  0.47000000000E+01 0.  1.
          5    1    4    4  502    0 -0.36774732648E+02 -0.38744354895E+02  0.57303213163E+02  0.78480916383E+02  0.47000000000E+01 0.  1.
         -5    1    4    4    0  502  0.52689474980E+02  0.44263003045E+02  0.31763708135E+02  0.75936930191E+02  0.47000000000E+01 0.  1.
<mgrwt>
<rscale>  0 0.31286401E+03</rscale>
<asrwt>0</asrwt>
<pdfrwt beam="1">  1       21 0.23537556E-01 0.31286401E+03</pdfrwt>
<pdfrwt beam="2">  1       21 0.24607253E-01 0.31286401E+03</pdfrwt>
<totfact> 0.25769789E+05</totfact>
</mgrwt>
</event>
<event>
 8    1  0.4760912E-006  0.4465171E+03  0.7546771E-02  0.1028766E+00
         21   -1    0    0  504  503  0.00000000000E+00  0.00000000000E+00  0.14320819441E+04  0.14320819441E+04  0.00000000000E+00 0. -1.
         21   -1    0    0  503  504 -0.00000000000E+00 -0.00000000000E+00 -0.34805540491E+02  0.34805540491E+02  0.00000000000E+00 0. -1.
         25    2    1    2    0    0 -0.56389821328E+01  0.17877352342E+03  0.54362655341E+03  0.58578892262E+03  0.12500824571E+03 0.  0.
         25    2    1    2    0    0  0.56389821328E+01 -0.17877352342E+03  0.85364985021E+03  0.88109856198E+03  0.12499935348E+03 0.  0.
          5    1    3    3  501    0 -0.55932097217E+02  0.13187933912E+03  0.29801200813E+03  0.33068687088E+03  0.47000000000E+01 0.  1.
         -5    1    3    3    0  501  0.50293115084E+02  0.46894184300E+02  0.24561454528E+03  0.25510205173E+03  0.47000000000E+01 0.  1.
          5    1    4    4  502    0  0.37517314205E+02 -0.10536151111E+02  0.26976648176E+03  0.27260705058E+03  0.47000000000E+01 0. -1.
         -5    1    4    4    0  502 -0.31878332072E+02 -0.16823737231E+03  0.58388336845E+03  0.60849151140E+03  0.47000000000E+01 0. -1.
<mgrwt>
<rscale>  0 0.44651713E+03</rscale>
<asrwt>0</asrwt>
<pdfrwt beam="1">  1       21 0.22032025E+00 0.44651713E+03</pdfrwt>
<pdfrwt beam="2">  1       21 0.53546996E-02 0.44651713E+03</pdfrwt>
<totfact> 0.21049666E+04</totfact>
</mgrwt>
</event>
<event>
 8    1  0.4760912E-006  0.3975513E+03  0.7546771E-02  0.1044631E+00
         21   -1    0    0  504  503  0.00000000000E+00  0.00000000000E+00  0.21532022439E+03  0.21532022439E+03  0.00000000000E+00 0.  1.
         21   -1    0    0  503  504 -0.00000000000E+00 -0.00000000000E+00 -0.18350232669E+03  0.18350232669E+03  0.00000000000E+00 0.  1.
         25    2    1    2    0    0  0.14691439097E+03 -0.36096539390E+02  0.47639180917E+02  0.20194514618E+03  0.12500220829E+03 0.  0.
         25    2    1    2    0    0 -0.14691439097E+03  0.36096539390E+02 -0.15821283217E+02  0.19687740491E+03  0.12499440440E+03 0.  0.
          5    1    3    3  501    0  0.10669353353E+03 -0.18636265691E+02 -0.30150450883E+02  0.11252537574E+03  0.47000000000E+01 0.  1.
         -5    1    3    3    0  501  0.40220857436E+02 -0.17460273699E+02  0.77789631799E+02  0.89419770442E+02  0.47000000000E+01 0.  1.
          5    1    4    4  502    0 -0.27261965191E+02 -0.41948993825E+01 -0.57411042223E+02  0.63866499012E+02  0.47000000000E+01 0.  1.
         -5    1    4    4    0  502 -0.11965242578E+03  0.40291438772E+02  0.41589759006E+02  0.13301090589E+03  0.47000000000E+01 0.  1.
<mgrwt>
<rscale>  0 0.39755132E+03</rscale>
<asrwt>0</asrwt>
<pdfrwt beam="1">  1       21 0.33126188E-01 0.39755132E+03</pdfrwt>
<pdfrwt beam="2">  1       21 0.28231127E-01 0.39755132E+03</pdfrwt>
<totfact> 0.99190165E+04</totfact>
</mgrwt>
</event>
<event>
 8    1  0.4760912E-006  0.3112999E+03  0.7546771E-02  0.1079724E+00
         21   -1    0    0  504  503  0.00000000000E+00  0.00000000000E+00  0.11885311317E+02  0.11885311317E+02  0.00000000000E+00 0.  1.
         21   -1    0    0  503  504 -0.00000000000E+00 -0.00000000000E+00 -0.20383908044E+04  0.20383908044E+04  0.00000000000E+00 0.  1.
         25    2    1    2    0    0  0.18302062910E+02  0.91771422398E+01 -0.41731880567E+03  0.43611187636E+03  0.12497758876E+03 0.  0.
         25    2    1    2    0    0 -0.18302062910E+02 -0.91771422398E+01 -0.16091866874E+04  0.16141642394E+04  0.12500084488E+03 0.  0.
          5    1    3    3  501    0  0.17049900455E+02  0.28541615746E+02 -0.21676343791E+02  0.39965945692E+02  0.47000000000E+01 0.  1.
         -5    1    3    3    0  501  0.12521624554E+01 -0.19364473506E+02 -0.39564246188E+03  0.39614593067E+03  0.47000000000E+01 0.  1.
          5    1    4    4  502    0 -0.20701564378E+02 -0.37384187893E+02 -0.15171194775E+04  0.15177284775E+04  0.47000000000E+01 0. -1.
         -5    1    4    4    0  502  0.23995014677E+01  0.28207045653E+02 -0.92067209899E+02  0.96435761885E+02  0.47000000000E+01 0. -1.
<mgrwt>
<rscale>  0 0.31129992E+03</rscale>
<asrwt>0</asrwt>
<pdfrwt beam="1">  1       21 0.18285095E-02 0.31129992E+03</pdfrwt>
<pdfrwt beam="2">  1       21 0.31359857E+00 0.31129992E+03</pdfrwt>
<totfact> 0.37106030E+04</totfact>
</mgrwt>
</event>
<event>
 8    1  0.4760912E-006  0.3953442E+03  0.7546771E-02  0.1045404E+00
         21   -1    0    0  504  503  0.00000000000E+00  0.00000000000E+00  0.19701274447E+03  0.19701274447E+03  0.00000000000E+00 0.  1.
         21   -1    0    0  503  504 -0.00000000000E+00 -0.00000000000E+00 -0.19833366007E+03  0.19833366007E+03  0.00000000000E+00 0.  1.
         25    2    1    2    0    0 -0.14374128627E+03 -0.49489287909E+02 -0.18926749074E+02  0.19772272543E+03  0.12500122930E+03 0.  0.
         25    2    1    2    0    0  0.14374128627E+03  0.49489287909E+02  0.17605833475E+02  0.19762367910E+03  0.12503761904E+03 0.  0.
          5    1    3    3  501    0 -0.14045181384E+03 -0.12208052011E+02  0.21207463668E+02  0.14264499662E+03  0.47000000000E+01 0.  1.
         -5    1    3    3    0  501 -0.32894724306E+01 -0.37281235898E+02 -0.40134212743E+02  0.55077728815E+02  0.47000000000E+01 0.  1.
          5    1    4    4  502    0  0.10714093344E+03  0.52093884372E+02 -0.42895967487E+02  0.12670874648E+03  0.47000000000E+01 0.  1.
         -5    1    4    4    0  502  0.36600352828E+02 -0.26045964623E+01  0.60501800962E+02  0.70914932627E+02  0.47000000000E+01 0.  1.
<mgrwt>
<rscale>  0 0.39534420E+03</rscale>
<asrwt>0</asrwt>
<pdfrwt beam="1">  1       21 0.30309653E-01 0.39534420E+03</pdfrwt>
<pdfrwt beam="2">  1       21 0.30512871E-01 0.39534420E+03</pdfrwt>
<totfact> 0.10160291E+05</totfact>
</mgrwt>
</event>
<event>
 8    1  0.4760912E-006  0.2915623E+03  0.7546771E-02  0.1089536E+00
         21   -1    0    0  504  503  0.00000000000E+00  0.00000000000E+00  0.54576360313E+02  0.54576360313E+02  0.00000000000E+00 0.  1.
         21   -1    0    0  503  504 -0.00000000000E+00 -0.00000000000E+00 -0.38940210226E+03  0.38940210226E+03  0.00000000000E+00 0.  1.
         25    2    1    2    0    0  0.74286546580E+02  0.10256087303E+02 -0.16446715812E+03  0.21976607694E+03  0.12499601651E+03 0.  0.
         25    2    1    2    0    0 -0.74286546580E+02 -0.10256087303E+02 -0.17035858383E+03  0.22421238563E+03  0.12500187382E+03 0.  0.
          5    1    3    3  501    0  0.90167975388E+02 -0.28856768495E+02 -0.75511896991E+02  0.12119040169E+03  0.47000000000E+01 0. -1.
         -5    1    3    3    0  501 -0.15881428809E+02  0.39112855797E+02 -0.88955261125E+02  0.98575675252E+02  0.47000000000E+01 0. -1.
          5    1    4    4  502    0  0.31852514012E+02 -0.34713826769E-01 -0.14503429630E+02  0.35313217426E+02  0.47000000000E+01 0.  1.
         -5    1    4    4    0  502 -0.10613906059E+03 -0.10221373476E+02 -0.15585515420E+03  0.18889916821E+03  0.47000000000E+01 0.  1.
<mgrwt>
<rscale>  0 0.29156234E+03</rscale>
<asrwt>0</asrwt>
<pdfrwt beam="1">  1       21 0.83963630E-02 0.29156234E+03</pdfrwt>
<pdfrwt beam="2">  1       21 0.59908017E-01 0.29156234E+03</pdfrwt>
<totfact> 0.27977605E+05</totfact>
</mgrwt>
</event>
<event>
 8    1  0.4760912E-006  0.2761832E+03  0.7546771E-02  0.1097792E+00
         21   -1    0    0  504  503  0.00000000000E+00  0.00000000000E+00  0.55610186199E+02  0.55610186199E+02  0.00000000000E+00 0.  1.
         21   -1    0    0  503  504 -0.00000000000E+00 -0.00000000000E+00 -0.34291003144E+03  0.34291003144E+03  0.00000000000E+00 0.  1.
         25    2    1    2    0    0 -0.36789656851E+02  0.21818023157E+02 -0.85668508222E+02  0.15745818227E+03  0.12499792349E+03 0.  0.
         25    2    1    2    0    0  0.36789656851E+02 -0.21818023157E+02 -0.20163133702E+03  0.24106203537E+03  0.12500481528E+03 0.  0.
          5    1    3    3  501    0 -0.48258747625E+02  0.43507807511E+02 -0.10655771784E+03  0.12489384800E+03  0.47000000000E+01 0.  1.
         -5    1    3    3    0  501  0.11469090775E+02 -0.21689784354E+02  0.20889209613E+02  0.32564334276E+02  0.47000000000E+01 0.  1.
          5    1    4    4  502    0 -0.13507852788E+02 -0.37832320779E+02 -0.92157648630E+01  0.41482127531E+02  0.47000000000E+01 0.  1.
         -5    1    4    4    0  502  0.50297509639E+02  0.16014297622E+02 -0.19241557216E+03  0.19957990784E+03  0.47000000000E+01 0.  1.
<mgrwt>
<rscale>  0 0.27618321E+03</rscale>
<asrwt>0</asrwt>
<pdfrwt beam="1">  1       21 0.85554134E-02 0.27618321E+03</pdfrwt>
<pdfrwt beam="2">  1       21 0.52755389E-01 0.27618321E+03</pdfrwt>
<totfact> 0.35663582E+05</totfact>
</mgrwt>
</event>
<event>
 8    1  0.4760912E-006  0.3092495E+03  0.7546771E-02  0.1080706E+00
         21   -1    0    0  504  503  0.00000000000E+00  0.00000000000E+00  0.76767330055E+03  0.76767330055E+03  0.00000000000E+00 0.  1.
         21   -1    0    0  503  504 -0.00000000000E+00 -0.00000000000E+00 -0.31144525002E+02  0.31144525002E+02  0.00000000000E+00 0.  1.
         25    2    1    2    0    0 -0.49745704982E+02  0.51372622965E+02  0.22282081965E+03  0.26530734425E+03  0.12500035077E+03 0.  0.
         25    2    1    2    0    0  0.49745704982E+02 -0.51372622965E+02  0.51370795590E+03  0.53351048130E+03  0.12499515249E+03 0.  0.
          5    1    3    3  501    0  0.20927810965E+02  0.62038498450E+02  0.66922903606E+02  0.93741738776E+02  0.47000000000E+01 0. -1.
         -5    1    3    3    0  501 -0.70673515948E+02 -0.10665875485E+02  0.15589791604E+03  0.17156560548E+03  0.47000000000E+01 0. -1.
          5    1    4    4  502    0  0.57844626956E+02  0.97607484160E+01  0.39784673337E+03  0.40217581520E+03  0.47000000000E+01 0.  1.
         -5    1    4    4    0  502 -0.80989219737E+01 -0.61133371381E+02  0.11586122253E+03  0.13133466610E+03  0.47000000000E+01 0.  1.
<mgrwt>
<rscale>  0 0.30924955E+03</rscale>
<asrwt>0</asrwt>
<pdfrwt beam="1">  1       21 0.11810357E+00 0.30924955E+03</pdfrwt>
<pdfrwt beam="2">  1       21 0.47914659E-02 0.30924955E+03</pdfrwt>
<totfact> 0.15277738E+05</totfact>
</mgrwt>
</event>
<event>
 8    1  0.4760912E-006  0.3607012E+03  0.7546771E-02  0.1058307E+00
         21   -1    0    0  504  503  0.00000000000E+00  0.00000000000E+00  0.49794711369E+03  0.49794711369E+03  0.00000000000E+00 0.  1.
         21   -1    0    0  503  504 -0.00000000000E+00 -0.00000000000E+00 -0.65320869322E+02  0.65320869322E+02  0.00000000000E+00 0.  1.
         25    2    1    2    0    0  0.10713892741E+03  0.10344084534E+01  0.33126531692E+03  0.36992064387E+03  0.12499901120E+03 0.  0.
         25    2    1    2    0    0 -0.10713892741E+03 -0.10344084534E+01  0.10136092744E+03  0.19334733913E+03  0.12501734348E+03 0.  0.
          5    1    3    3  501    0 -0.23175779644E+00 -0.10058137237E+02  0.19821768734E+03  0.19852849017E+03  0.47000000000E+01 0. -1.
         -5    1    3    3    0  501  0.10737068521E+03  0.11092545690E+02  0.13304762958E+03  0.17139215370E+03  0.47000000000E+01 0. -1.
          5    1    4    4  502    0 -0.94774529328E+02 -0.53611169450E+02  0.79444420974E+02  0.13486984438E+03  0.47000000000E+01 0. -1.
         -5    1    4    4    0  502 -0.12364398086E+02  0.52576760997E+02  0.21916506467E+02  0.58477494754E+02  0.47000000000E+01 0. -1.
<mgrwt>
<rscale>  0 0.36070120E+03</rscale>
<asrwt>0</asrwt>
<pdfrwt beam="1">  1       21 0.76607246E-01 0.36070120E+03</pdfrwt>
<pdfrwt beam="2">  1       21 0.10049365E-01 0.36070120E+03</pdfrwt>
<totfact> 0.11593213E+05</totfact>
</mgrwt>
</event>
<event>
 8    1  0.4760912E-006  0.4270197E+03  0.7546771E-02  0.1034806E+00
         21   -1    0    0  504  503  0.00000000000E+00  0.00000000000E+00  0.15720182380E+02  0.15720182380E+02  0.00000000000E+00 0. -1.
         21   -1    0    0  503  504 -0.00000000000E+00 -0.00000000000E+00 -0.28998679256E+04  0.28998679256E+04  0.00000000000E+00 0. -1.
         25    2    1    2    0    0  0.11078742165E+03 -0.87571538512E+02 -0.75863320300E+03  0.78172367422E+03  0.12499975600E+03 0.  0.
         25    2    1    2    0    0 -0.11078742165E+03  0.87571538512E+02 -0.21255145402E+04  0.21338644337E+04  0.12499093485E+03 0.  0.
          5    1    3    3  501    0  0.80516908194E+02 -0.15273444582E+02 -0.18058056592E+03  0.19836249999E+03  0.47000000000E+01 0.  1.
         -5    1    3    3    0  501  0.30270513452E+02 -0.72298093930E+02 -0.57805263708E+03  0.58336117423E+03  0.47000000000E+01 0.  1.
          5    1    4    4  502    0 -0.10151580986E+02  0.38726859517E+02 -0.15448538364E+03  0.15965790931E+03  0.47000000000E+01 0. -1.
         -5    1    4    4    0  502 -0.10063584066E+03  0.48844678995E+02 -0.19710291566E+04  0.19742065244E+04  0.47000000000E+01 0. -1.
<mgrwt>
<rscale>  0 0.42701968E+03</rscale>
<asrwt>0</asrwt>
<pdfrwt beam="1">  1       21 0.24184876E-02 0.42701968E+03</pdfrwt>
<pdfrwt beam="2">  1       21 0.44613389E+00 0.42701968E+03</pdfrwt>
<totfact> 0.32135679E+03</totfact>
</mgrwt>
</event>
<event>
 8    1  0.4760912E-006  0.3766478E+03  0.7546771E-02  0.1052180E+00
         21   -1    0    0  504  503  0.00000000000E+00  0.00000000000E+00  0.24897708887E+03  0.24897708887E+03  0.00000000000E+00 0.  1.
         21   -1    0    0  503  504 -0.00000000000E+00 -0.00000000000E+00 -0.14244641174E+03  0.14244641174E+03  0.00000000000E+00 0.  1.
         25    2    1    2    0    0  0.67437835758E+02 -0.50149345655E+02  0.17073233282E+03  0.22768665294E+03  0.12501545463E+03 0.  0.
         25    2    1    2    0    0 -0.67437835758E+02  0.50149345655E+02 -0.64201655689E+02  0.16373684766E+03  0.12500033651E+03 0.  0.
          5    1    3    3  501    0  0.21384428272E+02  0.29161082795E+02  0.11412481522E+03  0.11980912307E+03  0.47000000000E+01 0.  1.
         -5    1    3    3    0  501  0.46053407486E+02 -0.79310428451E+02  0.56607517599E+02  0.10787752987E+03  0.47000000000E+01 0.  1.
          5    1    4    4  502    0 -0.76849656937E+02  0.48823252618E+02 -0.94697202101E+02  0.13145048442E+03  0.47000000000E+01 0. -1.
         -5    1    4    4    0  502  0.94118211792E+01  0.13260930372E+01  0.30495546412E+02  0.32286363245E+02  0.47000000000E+01 0. -1.
<mgrwt>
<rscale>  0 0.37664781E+03</rscale>
<asrwt>0</asrwt>
<pdfrwt beam="1">  1       21 0.38304168E-01 0.37664781E+03</pdfrwt>
<pdfrwt beam="2">  1       21 0.21914833E-01 0.37664781E+03</pdfrwt>
<totfact> 0.12137679E+05</totfact>
</mgrwt>
</event>
<event>
 8    1  0.4760912E-006  0.3108739E+03  0.7546771E-02  0.1079928E+00
         21   -1    0    0  504  503  0.00000000000E+00  0.00000000000E+00  0.15827079365E+04  0.15827079365E+04  0.00000000000E+00 0. -1.
         21   -1    0    0  503  504 -0.00000000000E+00 -0.00000000000E+00 -0.15265384415E+02  0.15265384415E+02  0.00000000000E+00 0. -1.
         25    2    1    2    0    0  0.83652147983E+02 -0.31899581277E+02  0.66653751772E+03  0.68404114795E+03  0.12499905765E+03 0.  0.
         25    2    1    2    0    0 -0.83652147983E+02  0.31899581277E+02  0.90090503433E+03  0.91393217293E+03  0.12500748251E+03 0.  0.
          5    1    3    3  501    0  0.10381614711E+03 -0.11616748218E+02  0.32801099024E+03  0.34427611151E+03  0.47000000000E+01 0. -1.
         -5    1    3    3    0  501 -0.20163999130E+02 -0.20282833060E+02  0.33852652748E+03  0.33976503644E+03  0.47000000000E+01 0. -1.
          5    1    4    4  502    0 -0.64168017947E+01  0.14072655937E+02  0.66159337564E+03  0.66179082774E+03  0.47000000000E+01 0.  1.
         -5    1    4    4    0  502 -0.77235346188E+02  0.17826925340E+02  0.23931165868E+03  0.25214134518E+03  0.47000000000E+01 0.  1.
<mgrwt>
<rscale>  0 0.31087390E+03</rscale>
<asrwt>0</asrwt>
<pdfrwt beam="1">  1       21 0.24349340E+00 0.31087390E+03</pdfrwt>
<pdfrwt beam="2">  1       21 0.23485219E-02 0.31087390E+03</pdfrwt>
<totfact> 0.64205207E+04</totfact>
</mgrwt>
</event>
<event>
 8    1  0.4760912E-006  0.3411304E+03  0.7546771E-02  0.1066315E+00
         21   -1    0    0  504  503  0.00000000000E+00  0.00000000000E+00  0.45566217105E+03  0.45566217105E+03  0.00000000000E+00 0.  1.
         21   -1    0    0  503  504 -0.00000000000E+00 -0.00000000000E+00 -0.63846611121E+02  0.63846611121E+02  0.00000000000E+00 0.  1.
         25    2    1    2    0    0 -0.34257713918E+01  0.35661904319E+02  0.36400443927E+03  0.38653324545E+03  0.12500084280E+03 0.  0.
         25    2    1    2    0    0  0.34257713918E+01 -0.35661904319E+02  0.27811120651E+02  0.13297553671E+03  0.12500211039E+03 0.  0.
          5    1    3    3  501    0 -0.37105800912E+02  0.25460858657E+02  0.34153044649E+03  0.34451448687E+03  0.47000000000E+01 0.  1.
         -5    1    3    3    0  501  0.33680029520E+02  0.10201045662E+02  0.22473992783E+02  0.42018758581E+02  0.47000000000E+01 0.  1.
          5    1    4    4  502    0  0.51032023071E+02  0.17486333647E+02 -0.48442625968E+01  0.54365394538E+02  0.47000000000E+01 0.  1.
         -5    1    4    4    0  502 -0.47606251679E+02 -0.53148237966E+02  0.32655383248E+02  0.78610142176E+02  0.47000000000E+01 0.  1.
<mgrwt>
<rscale>  0 0.34113039E+03</rscale>
<asrwt>0</asrwt>
<pdfrwt beam="1">  1       21 0.70101870E-01 0.34113039E+03</pdfrwt>
<pdfrwt beam="2">  1       21 0.98225559E-02 0.34113039E+03</pdfrwt>
<totfact> 0.14821060E+05</totfact>
</mgrwt>
</event>
<event>
 8    1  0.4760912E-006  0.3167413E+03  0.7546771E-02  0.1077159E+00
         21   -1    0    0  504  503  0.00000000000E+00  0.00000000000E+00  0.39705382932E+03  0.39705382932E+03  0.00000000000E+00 0. -1.
         21   -1    0    0  503  504 -0.00000000000E+00 -0.00000000000E+00 -0.63168412763E+02  0.63168412763E+02  0.00000000000E+00 0. -1.
         25    2    1    2    0    0 -0.36218446591E+02  0.78638476828E+02  0.10260450577E+03  0.18343589138E+03  0.12500102291E+03 0.  0.
         25    2    1    2    0    0  0.36218446591E+02 -0.78638476828E+02  0.23128091078E+03  0.27678635071E+03  0.12499615327E+03 0.  0.
          5    1    3    3  501    0 -0.53585115853E+02  0.65899911625E+02  0.70346547959E+01  0.85356542580E+02  0.47000000000E+01 0.  1.
         -5    1    3    3    0  501  0.17366669262E+02  0.12738565203E+02  0.95569850976E+02  0.98079348796E+02  0.47000000000E+01 0.  1.
          5    1    4    4  502    0  0.82055020534E+02 -0.44124118721E+02  0.12574195381E+03  0.15656657752E+03  0.47000000000E+01 0.  1.
         -5    1    4    4    0  502 -0.45836573943E+02 -0.34514358107E+02  0.10553895697E+03  0.12021977319E+03  0.47000000000E+01 0.  1.
<mgrwt>
<rscale>  0 0.31674128E+03</rscale>
<asrwt>0</asrwt>
<pdfrwt beam="1">  1       21 0.61085203E-01 0.31674128E+03</pdfrwt>
<pdfrwt beam="2">  1       21 0.97182176E-02 0.31674128E+03</pdfrwt>
<totfact> 0.20585448E+05</totfact>
</mgrwt>
</event>
<event>
 8    1  0.4760912E-006  0.3382782E+03  0.7546771E-02  0.1067532E+00
         21   -1    0    0  504  503  0.00000000000E+00  0.00000000000E+00  0.13962624010E+03  0.13962624010E+03  0.00000000000E+00 0. -1.
         21   -1    0    0  503  504 -0.00000000000E+00 -0.00000000000E+00 -0.20489012522E+03  0.20489012522E+03  0.00000000000E+00 0. -1.
         25    2    1    2    0    0  0.45169052313E+02  0.96754295234E+01 -0.13871407897E+03  0.19235598758E+03  0.12500149212E+03 0.  0.
         25    2    1    2    0    0 -0.45169052313E+02 -0.96754295234E+01  0.73450193844E+02  0.15216037774E+03  0.12499596935E+03 0.  0.
          5    1    3    3  501    0 -0.43264179807E+02  0.73484162914E+01 -0.54471810548E+02  0.70107464800E+02  0.47000000000E+01 0. -1.
         -5    1    3    3    0  501  0.88433232120E+02  0.23270132320E+01 -0.84242268420E+02  0.12224852278E+03  0.47000000000E+01 0. -1.
          5    1    4    4  502    0 -0.82872703411E+02 -0.15819611134E+01  0.76894288723E+02  0.11316010432E+03  0.47000000000E+01 0. -1.
         -5    1    4    4    0  502  0.37703651098E+02 -0.80934684100E+01 -0.34440948792E+01  0.39000273416E+02  0.47000000000E+01 0. -1.
<mgrwt>
<rscale>  0 0.33827822E+03</rscale>
<asrwt>0</asrwt>
<pdfrwt beam="1">  1       21 0.21480960E-01 0.33827822E+03</pdfrwt>
<pdfrwt beam="2">  1       21 0.31521558E-01 0.33827822E+03</pdfrwt>
<totfact> 0.18812644E+05</totfact>
</mgrwt>
</event>
<event>
 8    1  0.4760912E-006  0.3022578E+03  0.7546771E-02  0.1084117E+00
         21   -1    0    0  504  503  0.00000000000E+00  0.00000000000E+00  0.14252279587E+03  0.14252279587E+03  0.00000000000E+00 0. -1.
         21   -1    0    0  503  504 -0.00000000000E+00 -0.00000000000E+00 -0.16025471122E+03  0.16025471122E+03  0.00000000000E+00 0. -1.
         25    2    1    2    0    0 -0.43153123783E+02 -0.47560059381E+02 -0.64576311071E+02  0.15466054292E+03  0.12500252895E+03 0.  0.
         25    2    1    2    0    0  0.43153123783E+02  0.47560059381E+02  0.46844395728E+02  0.14811696417E+03  0.12498034375E+03 0.  0.
          5    1    3    3  501    0  0.33815077258E+02 -0.47205778452E+02 -0.75328598913E+01  0.58742479922E+02  0.47000000000E+01 0. -1.
         -5    1    3    3    0  501 -0.76968201042E+02 -0.35428092832E+00 -0.57043451180E+02  0.95918062997E+02  0.47000000000E+01 0. -1.
          5    1    4    4  502    0  0.74365523559E+02  0.17411920904E+02  0.65425657476E+02  0.10067776686E+03  0.47000000000E+01 0. -1.
         -5    1    4    4    0  502 -0.31212399776E+02  0.30148138477E+02 -0.18581261748E+02  0.47439197311E+02  0.47000000000E+01 0. -1.
<mgrwt>
<rscale>  0 0.30225783E+03</rscale>
<asrwt>0</asrwt>
<pdfrwt beam="1">  1       21 0.21926584E-01 0.30225783E+03</pdfrwt>
<pdfrwt beam="2">  1       21 0.24654571E-01 0.30225783E+03</pdfrwt>
<totfact> 0.29461143E+05</totfact>
</mgrwt>
</event>
<event>
 8    1  0.4760912E-006  0.2608048E+03  0.7546771E-02  0.1106661E+00
         21   -1    0    0  504  503  0.00000000000E+00  0.00000000000E+00  0.12861482811E+02  0.12861482811E+02  0.00000000000E+00 0. -1.
         21   -1    0    0  503  504 -0.00000000000E+00 -0.00000000000E+00 -0.13221479380E+04  0.13221479380E+04  0.00000000000E+00 0. -1.
         25    2    1    2    0    0  0.32432232898E+02  0.80827829009E+01 -0.57165375048E+03  0.58611429019E+03  0.12499907848E+03 0.  0.
         25    2    1    2    0    0 -0.32432232898E+02 -0.80827829009E+01 -0.73763270475E+03  0.74889513066E+03  0.12499891398E+03 0.  0.
          5    1    3    3  501    0  0.25225637276E+02 -0.36323786779E+02 -0.49585424390E+03  0.49784462581E+03  0.47000000000E+01 0. -1.
         -5    1    3    3    0  501  0.72065956219E+01  0.44406569680E+02 -0.75799506578E+02  0.88269664374E+02  0.47000000000E+01 0. -1.
          5    1    4    4  502    0 -0.44613223935E+02 -0.25997215214E+02 -0.11827034727E+03  0.12913620713E+03  0.47000000000E+01 0. -1.
         -5    1    4    4    0  502  0.12180991038E+02  0.17914432313E+02 -0.61936235748E+03  0.61975892353E+03  0.47000000000E+01 0. -1.
<mgrwt>
<rscale>  0 0.26080478E+03</rscale>
<asrwt>0</asrwt>
<pdfrwt beam="1">  1       21 0.19786902E-02 0.26080478E+03</pdfrwt>
<pdfrwt beam="2">  1       21 0.20340732E+00 0.26080478E+03</pdfrwt>
<totfact> 0.15477412E+05</totfact>
</mgrwt>
</event>
<event>
 8    1  0.4760912E-006  0.2553964E+03  0.7546771E-02  0.1109941E+00
         21   -1    0    0  504  503  0.00000000000E+00  0.00000000000E+00  0.92499046048E+03  0.92499046048E+03  0.00000000000E+00 0. -1.
         21   -1    0    0  503  504 -0.00000000000E+00 -0.00000000000E+00 -0.17629183029E+02  0.17629183029E+02  0.00000000000E+00 0. -1.
         25    2    1    2    0    0 -0.59304511495E+01  0.16250342790E+02  0.38154384448E+03  0.40187151834E+03  0.12500307235E+03 0.  0.
         25    2    1    2    0    0  0.59304511495E+01 -0.16250342790E+02  0.52581743296E+03  0.54074812516E+03  0.12500127267E+03 0.  0.
          5    1    3    3  501    0 -0.19707577408E+02  0.67700495586E+02  0.18054660356E+03  0.19388375839E+03  0.47000000000E+01 0.  1.
         -5    1    3    3    0  501  0.13777126259E+02 -0.51450152796E+02  0.20099724092E+03  0.20798775995E+03  0.47000000000E+01 0.  1.
          5    1    4    4  502    0 -0.17438355902E+02 -0.57385611462E+02  0.42553661298E+03  0.42976819757E+03  0.47000000000E+01 0. -1.
         -5    1    4    4    0  502  0.23368807051E+02  0.41135268672E+02  0.10028081999E+03  0.11097992759E+03  0.47000000000E+01 0. -1.
<mgrwt>
<rscale>  0 0.25539637E+03</rscale>
<asrwt>0</asrwt>
<pdfrwt beam="1">  1       21 0.14230619E+00 0.25539637E+03</pdfrwt>
<pdfrwt beam="2">  1       21 0.27121827E-02 0.25539637E+03</pdfrwt>
<totfact> 0.25084702E+05</totfact>
</mgrwt>
</event>
<event>
 8    1  0.4760912E-006  0.2988469E+03  0.7546771E-02  0.1085818E+00
         21   -1    0    0  504  503  0.00000000000E+00  0.00000000000E+00  0.38245547428E+02  0.38245547428E+02  0.00000000000E+00 0. -1.
         21   -1    0    0  503  504 -0.00000000000E+00 -0.00000000000E+00 -0.58378995474E+03  0.58378995474E+03  0.00000000000E+00 0. -1.
         25    2    1    2    0    0  0.75568197279E+02 -0.17343251401E+02 -0.32744975051E+03  0.35897130212E+03  0.12500286326E+03 0.  0.
         25    2    1    2    0    0 -0.75568197279E+02  0.17343251401E+02 -0.21809465680E+03  0.26306420006E+03  0.12500461278E+03 0.  0.
          5    1    3    3  501    0  0.99177513120E+01  0.69321273105E+01  0.86691140098E+01  0.15609603385E+02  0.47000000000E+01 0. -1.
         -5    1    3    3    0  501  0.65650445967E+02 -0.24275378711E+02 -0.33611886452E+03  0.34336169873E+03  0.47000000000E+01 0. -1.
          5    1    4    4  502    0 -0.20691050739E+02  0.67448319814E+02 -0.12753857954E+03  0.14582720836E+03  0.47000000000E+01 0.  1.
         -5    1    4    4    0  502 -0.54877146540E+02 -0.50105068413E+02 -0.90556077258E+02  0.11723699169E+03  0.47000000000E+01 0.  1.
<mgrwt>
<rscale>  0 0.29884689E+03</rscale>
<asrwt>0</asrwt>
<pdfrwt beam="1">  1       21 0.58839305E-02 0.29884689E+03</pdfrwt>
<pdfrwt beam="2">  1       21 0.89813838E-01 0.29884689E+03</pdfrwt>
<totfact> 0.20872184E+05</totfact>
</mgrwt>
</event>
<event>
 8    1  0.4760912E-006  0.5066924E+03  0.7546771E-02  0.1012047E+00
         21   -1    0    0  504  503  0.00000000000E+00  0.00000000000E+00  0.44521572295E+03  0.44521572295E+03  0.00000000000E+00 0.  1.
         21   -1    0    0  503  504 -0.00000000000E+00 -0.00000000000E+00 -0.14416450151E+03  0.14416450151E+03  0.00000000000E+00 0.  1.
         25    2    1    2    0    0 -0.11578545307E+03  0.23764572040E+02 -0.65802053377E+02  0.18419253740E+03  0.12500381826E+03 0.  0.
         25    2    1    2    0    0  0.11578545307E+03 -0.23764572040E+02  0.36685327481E+03  0.40518768707E+03  0.12499884192E+03 0.  0.
          5    1    3    3  501    0  0.18562351950E+02  0.27817519210E+02  0.14950990893E+01  0.33803854901E+02  0.47000000000E+01 0.  1.
         -5    1    3    3    0  501 -0.13434780502E+03 -0.40529471701E+01 -0.67297152466E+02  0.15038868250E+03  0.47000000000E+01 0.  1.
          5    1    4    4  502    0  0.12153993075E+03 -0.15045095968E+02  0.37269470858E+03  0.39232861926E+03  0.47000000000E+01 0.  1.
         -5    1    4    4    0  502 -0.57544776870E+01 -0.87194760716E+01 -0.58414337710E+01  0.12859067809E+02  0.47000000000E+01 0.  1.
<mgrwt>
<rscale>  0 0.50669242E+03</rscale>
<asrwt>0</asrwt>
<pdfrwt beam="1">  1       21 0.68494726E-01 0.50669242E+03</pdfrwt>
<pdfrwt beam="2">  1       21 0.22179154E-01 0.50669242E+03</pdfrwt>
<totfact> 0.33316408E+04</totfact>
</mgrwt>
</event>
<event>
 8    1  0.4760912E-006  0.3042174E+03  0.7546771E-02  0.1083151E+00
         21   -1    0    0  504  503  0.00000000000E+00  0.00000000000E+00  0.16417213805E+04  0.16417213805E+04  0.00000000000E+00 0.  1.
         21   -1    0    0  503  504 -0.00000000000E+00 -0.00000000000E+00 -0.14093168687E+02  0.14093168687E+02  0.00000000000E+00 0.  1.
         25    2    1    2    0    0 -0.60202994242E+02 -0.29759534685E+02  0.51555382944E+03  0.53472348023E+03  0.12499367519E+03 0.  0.
         25    2    1    2    0    0  0.60202994242E+02  0.29759534685E+02  0.11120743824E+04  0.11210910690E+04  0.12500289016E+03 0.  0.
          5    1    3    3  501    0 -0.35272280863E+02 -0.75849450050E+02  0.38412483783E+03  0.39315550855E+03  0.47000000000E+01 0.  1.
         -5    1    3    3    0  501 -0.24930713379E+02  0.46089915365E+02  0.13142899162E+03  0.14156797168E+03  0.47000000000E+01 0.  1.
          5    1    4    4  502    0  0.64854489896E+02  0.32980044939E+02  0.29136959047E+03  0.30035331940E+03  0.47000000000E+01 0. -1.
         -5    1    4    4    0  502 -0.46514956538E+01 -0.32205102542E+01  0.82070479195E+03  0.82073774960E+03  0.47000000000E+01 0. -1.
<mgrwt>
<rscale>  0 0.30421740E+03</rscale>
<asrwt>0</asrwt>
<pdfrwt beam="1">  1       21 0.25257237E+00 0.30421740E+03</pdfrwt>
<pdfrwt beam="2">  1       21 0.21681811E-02 0.30421740E+03</pdfrwt>
<totfact> 0.64771289E+04</totfact>
</mgrwt>
</event>
<event>
 8    1  0.4760912E-006  0.2615689E+03  0.7546771E-02  0.1106204E+00
         21   -1    0    0  504  503  0.00000000000E+00  0.00000000000E+00  0.19134987035E+03  0.19134987035E+03  0.00000000000E+00 0. -1.
         21   -1    0    0  503  504 -0.00000000000E+00 -0.00000000000E+00 -0.89388967503E+02  0.89388967503E+02  0.00000000000E+00 0. -1.
         25    2    1    2    0    0 -0.26762089862E+01  0.36513871949E+02  0.63914218791E+02  0.14504208248E+03  0.12494700231E+03 0.  0.
         25    2    1    2    0    0  0.26762089862E+01 -0.36513871949E+02  0.38046684057E+02  0.13569675538E+03  0.12500253722E+03 0.  0.
          5    1    3    3  501    0 -0.19741348699E+02  0.33409893650E+02 -0.30093554338E+02  0.49332077341E+02  0.47000000000E+01 0. -1.
         -5    1    3    3    0  501  0.17065139712E+02  0.31039782994E+01  0.94007773129E+02  0.95710005137E+02  0.47000000000E+01 0. -1.
          5    1    4    4  502    0 -0.50783486823E+02 -0.23444353607E+02 -0.16053301198E+02  0.58381493038E+02  0.47000000000E+01 0. -1.
         -5    1    4    4    0  502  0.53459695810E+02 -0.13069518342E+02  0.54099985255E+02  0.77315262338E+02  0.47000000000E+01 0. -1.
<mgrwt>
<rscale>  0 0.26156886E+03</rscale>
<asrwt>0</asrwt>
<pdfrwt beam="1">  1       21 0.29438442E-01 0.26156886E+03</pdfrwt>
<pdfrwt beam="2">  1       21 0.13752149E-01 0.26156886E+03</pdfrwt>
<totfact> 0.50102462E+05</totfact>
</mgrwt>
</event>
<event>
 8    1  0.4760912E-006  0.3161105E+03  0.7546771E-02  0.1077453E+00
         21   -1    0    0  504  503  0.00000000000E+00  0.00000000000E+00  0.24503992778E+04  0.24503992778E+04  0.00000000000E+00 0.  1.
         21   -1    0    0  503  504 -0.00000000000E+00 -0.00000000000E+00 -0.10194853280E+02  0.10194853280E+02  0.00000000000E+00 0.  1.
         25    2    1    2    0    0 -0.68887203786E+02 -0.32178824684E+02  0.16854621910E+04  0.16918011794E+04  0.12501003892E+03 0.  0.
         25    2    1    2    0    0  0.68887203786E+02  0.32178824684E+02  0.75474223354E+03  0.76879295166E+03  0.12500335932E+03 0.  0.
          5    1    3    3  501    0 -0.10651348347E+02 -0.73011938023E+02  0.96150186584E+03  0.96434025236E+03  0.47000000000E+01 0. -1.
         -5    1    3    3    0  501 -0.58235855439E+02  0.40833113340E+02  0.72396032514E+03  0.72746092704E+03  0.47000000000E+01 0. -1.
          5    1    4    4  502    0  0.77838350759E+02 -0.29796269894E+02  0.42210965425E+03  0.43028511101E+03  0.47000000000E+01 0.  1.
         -5    1    4    4    0  502 -0.89511469726E+01  0.61975094577E+02  0.33263257929E+03  0.33850784065E+03  0.47000000000E+01 0.  1.
<mgrwt>
<rscale>  0 0.31611049E+03</rscale>
<asrwt>0</asrwt>
<pdfrwt beam="1">  1       21 0.37698404E+00 0.31611049E+03</pdfrwt>
<pdfrwt beam="2">  1       21 0.15684409E-02 0.31611049E+03</pdfrwt>
<totfact> 0.19704613E+04</totfact>
</mgrwt>
</event>
<event>
 8    1  0.4760912E-006  0.2697140E+03  0.7546771E-02  0.1101443E+00
         21   -1    0    0  504  503  0.00000000000E+00  0.00000000000E+00  0.43398829410E+03  0.43398829410E+03  0.00000000000E+00 0.  1.
         21   -1    0    0  503  504 -0.00000000000E+00 -0.00000000000E+00 -0.41905293129E+02  0.41905293129E+02  0.00000000000E+00 0.  1.
         25    2    1    2    0    0 -0.11881983472E+02  0.25674959347E+02  0.12200400451E+03  0.17694816171E+03  0.12500115899E+03 0.  0.
         25    2    1    2    0    0  0.11881983472E+02 -0.25674959347E+02  0.27007899646E+03  0.29894542552E+03  0.12500127215E+03 0.  0.
          5    1    3    3  501    0  0.84092261382E+01  0.13252595700E+02 -0.23936290561E+02  0.29006592059E+02  0.47000000000E+01 0. -1.
         -5    1    3    3    0  501 -0.20291209611E+02  0.12422363647E+02  0.14594029507E+03  0.14794156965E+03  0.47000000000E+01 0. -1.
          5    1    4    4  502    0 -0.12421519543E+02 -0.53668436388E+02  0.46433105407E+02  0.72199158512E+02  0.47000000000E+01 0. -1.
         -5    1    4    4    0  502  0.24303503016E+02  0.27993477041E+02  0.22364589106E+03  0.22674626701E+03  0.47000000000E+01 0. -1.
<mgrwt>
<rscale>  0 0.26971397E+03</rscale>
<asrwt>0</asrwt>
<pdfrwt beam="1">  1       21 0.66767427E-01 0.26971397E+03</pdfrwt>
<pdfrwt beam="2">  1       21 0.64469685E-02 0.26971397E+03</pdfrwt>
<totfact> 0.35175537E+05</totfact>
</mgrwt>
</event>
<event>
 8    1  0.4760912E-006  0.2946418E+03  0.7546771E-02  0.1087950E+00
         21   -1    0    0  504  503  0.00000000000E+00  0.00000000000E+00  0.27457236565E+03  0.27457236565E+03  0.00000000000E+00 0.  1.
         21   -1    0    0  503  504 -0.00000000000E+00 -0.00000000000E+00 -0.79044564463E+02  0.79044564463E+02  0.00000000000E+00 0.  1.
         25    2    1    2    0    0 -0.22836433850E+02 -0.35132508130E+02  0.18855612007E+02  0.13317814026E+03  0.12500034840E+03 0.  0.
         25    2    1    2    0    0  0.22836433850E+02  0.35132508130E+02  0.17667218918E+03  0.22043878986E+03  0.12499760719E+03 0.  0.
          5    1    3    3  501    0 -0.63589399400E+02  0.52565937723E+01 -0.15908041078E+02  0.65927227039E+02  0.47000000000E+01 0. -1.
         -5    1    3    3    0  501  0.40752965550E+02 -0.40389101902E+02  0.34763653085E+02  0.67250913223E+02  0.47000000000E+01 0. -1.
          5    1    4    4  502    0  0.57437700112E+02  0.40636178011E+01  0.27249820496E+02  0.63876796263E+02  0.47000000000E+01 0.  1.
         -5    1    4    4    0  502 -0.34601266262E+02  0.31068890329E+02  0.14942236869E+03  0.15656199359E+03  0.47000000000E+01 0.  1.
<mgrwt>
<rscale>  0 0.29464184E+03</rscale>
<asrwt>0</asrwt>
<pdfrwt beam="1">  1       21 0.42241902E-01 0.29464184E+03</pdfrwt>
<pdfrwt beam="2">  1       21 0.12160702E-01 0.29464184E+03</pdfrwt>
<totfact> 0.30172179E+05</totfact>
</mgrwt>
</event>
<event>
 8    1  0.4760912E-006  0.2789588E+03  0.7546771E-02  0.1096259E+00
         21   -1    0    0  504  503  0.00000000000E+00  0.00000000000E+00  0.21234912588E+03  0.21234912588E+03  0.00000000000E+00 0. -1.
         21   -1    0    0  503  504 -0.00000000000E+00 -0.00000000000E+00 -0.91615627428E+02  0.91615627428E+02  0.00000000000E+00 0. -1.
         25    2    1    2    0    0  0.23083608100E+02 -0.40546860550E+02  0.10468997060E+03  0.16959221488E+03  0.12499851415E+03 0.  0.
         25    2    1    2    0    0 -0.23083608100E+02  0.40546860550E+02  0.16043527847E+02  0.13437253842E+03  0.12498673303E+03 0.  0.
          5    1    3    3  501    0  0.27220338044E+02  0.29095216808E+02 -0.40370247384E+01  0.40322028880E+02  0.47000000000E+01 0.  1.
         -5    1    3    3    0  501 -0.41367299440E+01 -0.69642077357E+02  0.10872699534E+03  0.12927018600E+03  0.47000000000E+01 0.  1.
          5    1    4    4  502    0 -0.62593339425E+02  0.10696765246E+02 -0.26452451538E+02  0.68950483098E+02  0.47000000000E+01 0. -1.
         -5    1    4    4    0  502  0.39509731325E+02  0.29850095304E+02  0.42495979385E+02  0.65422055325E+02  0.47000000000E+01 0. -1.
<mgrwt>
<rscale>  0 0.27895877E+03</rscale>
<asrwt>0</asrwt>
<pdfrwt beam="1">  1       21 0.32669096E-01 0.27895877E+03</pdfrwt>
<pdfrwt beam="2">  1       21 0.14094712E-01 0.27895877E+03</pdfrwt>
<totfact> 0.38889244E+05</totfact>
</mgrwt>
</event>
<event>
 8    1  0.4760912E-006  0.7932070E+03  0.7546771E-02  0.9569902E-01
         21   -1    0    0  504  503  0.00000000000E+00  0.00000000000E+00  0.11783379361E+04  0.11783379361E+04  0.00000000000E+00 0.  1.
         21   -1    0    0  503  504 -0.00000000000E+00 -0.00000000000E+00 -0.13348831066E+03  0.13348831066E+03  0.00000000000E+00 0.  1.
         25    2    1    2    0    0  0.25873909487E+01  0.16621148248E+02  0.11442778079E+04  0.11512076878E+04  0.12499792652E+03 0.  0.
         25    2    1    2    0    0 -0.25873909487E+01 -0.16621148248E+02 -0.99428182486E+02  0.16061855894E+03  0.12501760213E+03 0.  0.
          5    1    3    3  501    0  0.49947572093E+02  0.47078615593E+02  0.69283595603E+03  0.69624342580E+03  0.47000000000E+01 0.  1.
         -5    1    3    3    0  501 -0.47360181145E+02 -0.30457467345E+02  0.45144185189E+03  0.45496426202E+03  0.47000000000E+01 0.  1.
          5    1    4    4  502    0 -0.22114955063E+02  0.45456057005E+02 -0.75790863593E+02  0.91223184334E+02  0.47000000000E+01 0.  1.
         -5    1    4    4    0  502  0.19527564114E+02 -0.62077205253E+02 -0.23637318893E+02  0.69395374606E+02  0.47000000000E+01 0.  1.
<mgrwt>
<rscale>  0 0.79320701E+03</rscale>
<asrwt>0</asrwt>
<pdfrwt beam="1">  1       21 0.18128275E+00 0.79320701E+03</pdfrwt>
<pdfrwt beam="2">  1       21 0.20536664E-01 0.79320701E+03</pdfrwt>
<totfact> 0.30487932E+03</totfact>
</mgrwt>
</event>
<event>
 8    1  0.4760912E-006  0.2832840E+03  0.7546771E-02  0.1093909E+00
         21   -1    0    0  504  503  0.00000000000E+00  0.00000000000E+00  0.35227827568E+03  0.35227827568E+03  0.00000000000E+00 0.  1.
         21   -1    0    0  503  504 -0.00000000000E+00 -0.00000000000E+00 -0.56950592962E+02  0.56950592962E+02  0.00000000000E+00 0.  1.
         25    2    1    2    0    0 -0.44332548797E+01 -0.65300199695E+02  0.16569702284E+03  0.21763158475E+03  0.12499693385E+03 0.  0.
         25    2    1    2    0    0  0.44332548797E+01  0.65300199695E+02  0.12963065987E+03  0.19159728389E+03  0.12498656483E+03 0.  0.
          5    1    3    3  501    0 -0.14659017361E+02 -0.87120322806E+02  0.17098509720E+03  0.19251709249E+03  0.47000000000E+01 0. -1.
         -5    1    3    3    0  501  0.10225762481E+02  0.21820123112E+02 -0.52880743569E+01  0.25114492257E+02  0.47000000000E+01 0. -1.
          5    1    4    4  502    0  0.19462615071E+02 -0.12968119467E+02  0.10554397155E+03  0.10820621719E+03  0.47000000000E+01 0.  1.
         -5    1    4    4    0  502 -0.15029360191E+02  0.78268319162E+02  0.24086688326E+02  0.83391066708E+02  0.47000000000E+01 0.  1.
<mgrwt>
<rscale>  0 0.28328400E+03</rscale>
<asrwt>0</asrwt>
<pdfrwt beam="1">  1       21 0.54196656E-01 0.28328400E+03</pdfrwt>
<pdfrwt beam="2">  1       21 0.87616299E-02 0.28328400E+03</pdfrwt>
<totfact> 0.32246047E+05</totfact>
</mgrwt>
</event>
<event>
 8    1  0.4760912E-006  0.2664566E+03  0.7546771E-02  0.1103325E+00
         21   -1    0    0  504  503  0.00000000000E+00  0.00000000000E+00  0.34733161471E+02  0.34733161471E+02  0.00000000000E+00 0.  1.
         21   -1    0    0  503  504 -0.00000000000E+00 -0.00000000000E+00 -0.51103268333E+03  0.51103268333E+03  0.00000000000E+00 0.  1.
         25    2    1    2    0    0  0.44676801041E+02 -0.76121248031E+01 -0.25530855488E+03  0.28785871141E+03  0.12500487409E+03 0.  0.
         25    2    1    2    0    0 -0.44676801041E+02  0.76121248031E+01 -0.22099096698E+03  0.25790713339E+03  0.12500048388E+03 0.  0.
          5    1    3    3  501    0 -0.25960939500E+02  0.15136787910E+02 -0.17804902402E+03  0.18062845203E+03  0.47000000000E+01 0.  1.
         -5    1    3    3    0  501  0.70637740541E+02 -0.22748912713E+02 -0.77259530853E+02  0.10723025938E+03  0.47000000000E+01 0.  1.
          5    1    4    4  502    0  0.34403021271E+02  0.13470967351E+02 -0.13836541609E+03  0.14329031092E+03  0.47000000000E+01 0.  1.
         -5    1    4    4    0  502 -0.79079822312E+02 -0.58588425480E+01 -0.82625550892E+02  0.11461682247E+03  0.47000000000E+01 0.  1.
<mgrwt>
<rscale>  0 0.26645661E+03</rscale>
<asrwt>0</asrwt>
<pdfrwt beam="1">  1       21 0.53435628E-02 0.26645661E+03</pdfrwt>
<pdfrwt beam="2">  1       21 0.78620420E-01 0.26645661E+03</pdfrwt>
<totfact> 0.33736585E+05</totfact>
</mgrwt>
</event>
<event>
 8    1  0.4760912E-006  0.2933902E+03  0.7546771E-02  0.1088592E+00
         21   -1    0    0  504  503  0.00000000000E+00  0.00000000000E+00  0.28589450675E+03  0.28589450675E+03  0.00000000000E+00 0.  1.
         21   -1    0    0  503  504 -0.00000000000E+00 -0.00000000000E+00 -0.75270629142E+02  0.75270629142E+02  0.00000000000E+00 0.  1.
         25    2    1    2    0    0 -0.24781062670E+02  0.45114781086E+02  0.35175668144E+02  0.13967900258E+03  0.12499380622E+03 0.  0.
         25    2    1    2    0    0  0.24781062670E+02 -0.45114781086E+02  0.17544820947E+03  0.22148613331E+03  0.12499835401E+03 0.  0.
          5    1    3    3  501    0 -0.37985804169E+02  0.31509872357E+02  0.78107112684E+02  0.92512725752E+02  0.47000000000E+01 0.  1.
         -5    1    3    3    0  501  0.13204741499E+02  0.13604908729E+02 -0.42931444539E+02  0.47166276828E+02  0.47000000000E+01 0.  1.
          5    1    4    4  502    0  0.25722935455E+02  0.36418522548E+02  0.27798923499E+02  0.52752709320E+02  0.47000000000E+01 0.  1.
         -5    1    4    4    0  502 -0.94187278462E+00 -0.81533303634E+02  0.14764928597E+03  0.16873342399E+03  0.47000000000E+01 0.  1.
<mgrwt>
<rscale>  0 0.29339025E+03</rscale>
<asrwt>0</asrwt>
<pdfrwt beam="1">  1       21 0.43983770E-01 0.29339025E+03</pdfrwt>
<pdfrwt beam="2">  1       21 0.11580097E-01 0.29339025E+03</pdfrwt>
<totfact> 0.30329568E+05</totfact>
</mgrwt>
</event>
<event>
 8    1  0.4760912E-006  0.3282106E+03  0.7546771E-02  0.1071931E+00
         21   -1    0    0  504  503  0.00000000000E+00  0.00000000000E+00  0.69519040210E+02  0.69519040210E+02  0.00000000000E+00 0. -1.
         21   -1    0    0  503  504 -0.00000000000E+00 -0.00000000000E+00 -0.38738379710E+03  0.38738379710E+03  0.00000000000E+00 0. -1.
         25    2    1    2    0    0  0.36727986181E+02 -0.14241554365E+02 -0.29641807735E+03  0.32410000242E+03  0.12500147259E+03 0.  0.
         25    2    1    2    0    0 -0.36727986181E+02  0.14241554365E+02 -0.21446679544E+02  0.13280283489E+03  0.12499946421E+03 0.  0.
          5    1    3    3  501    0 -0.25069915071E+02 -0.11922841356E+02 -0.82586346766E+01  0.29341946670E+02  0.47000000000E+01 0. -1.
         -5    1    3    3    0  501  0.61797901252E+02 -0.23187130090E+01 -0.28815944267E+03  0.29475805575E+03  0.47000000000E+01 0. -1.
          5    1    4    4  502    0 -0.29682320284E+01 -0.27372091001E+02  0.41486991181E+02  0.50013020348E+02  0.47000000000E+01 0. -1.
         -5    1    4    4    0  502 -0.33759754153E+02  0.41613645366E+02 -0.62933670724E+02  0.82789814542E+02  0.47000000000E+01 0. -1.
<mgrwt>
<rscale>  0 0.32821060E+03</rscale>
<asrwt>0</asrwt>
<pdfrwt beam="1">  1       21 0.10695237E-01 0.32821060E+03</pdfrwt>
<pdfrwt beam="2">  1       21 0.59597507E-01 0.32821060E+03</pdfrwt>
<totfact> 0.18253950E+05</totfact>
</mgrwt>
</event>
<event>
 8    1  0.4760912E-006  0.2716412E+03  0.7546771E-02  0.1100344E+00
         21   -1    0    0  504  503  0.00000000000E+00  0.00000000000E+00  0.59755855070E+02  0.59755855070E+02  0.00000000000E+00 0. -1.
         21   -1    0    0  503  504 -0.00000000000E+00 -0.00000000000E+00 -0.30871001011E+03  0.30871001011E+03  0.00000000000E+00 0. -1.
         25    2    1    2    0    0  0.55840793708E+01  0.20070598496E+02 -0.19082382170E+03  0.22904671263E+03  0.12495861223E+03 0.  0.
         25    2    1    2    0    0 -0.55840793708E+01 -0.20070598496E+02 -0.58130333342E+02  0.13941915255E+03  0.12499821430E+03 0.  0.
          5    1    3    3  501    0 -0.11625111441E+02  0.24096214247E+02  0.88256542392E+01  0.28561388793E+02  0.47000000000E+01 0.  1.
         -5    1    3    3    0  501  0.17209190812E+02 -0.40256157506E+01 -0.19964947594E+03  0.20048532383E+03  0.47000000000E+01 0.  1.
          5    1    4    4  502    0  0.16363279005E+01  0.52955261636E+02 -0.24731770385E+02  0.58657376095E+02  0.47000000000E+01 0. -1.
         -5    1    4    4    0  502 -0.72204072713E+01 -0.73025860132E+02 -0.33398562957E+02  0.80761776459E+02  0.47000000000E+01 0. -1.
<mgrwt>
<rscale>  0 0.27164116E+03</rscale>
<asrwt>0</asrwt>
<pdfrwt beam="1">  1       21 0.91932084E-02 0.27164116E+03</pdfrwt>
<pdfrwt beam="2">  1       21 0.47493848E-01 0.27164116E+03</pdfrwt>
<totfact> 0.39214885E+05</totfact>
</mgrwt>
</event>
<event>
 8    1  0.4760912E-006  0.3471165E+03  0.7546771E-02  0.1063805E+00
         21   -1    0    0  504  503  0.00000000000E+00  0.00000000000E+00  0.12538456397E+03  0.12538456397E+03  0.00000000000E+00 0.  1.
         21   -1    0    0  503  504 -0.00000000000E+00 -0.00000000000E+00 -0.24024058221E+03  0.24024058221E+03  0.00000000000E+00 0.  1.
         25    2    1    2    0    0 -0.69957200722E+02 -0.97118940017E+02 -0.71163926893E+02  0.18712329657E+03  0.12499890073E+03 0.  0.
         25    2    1    2    0    0  0.69957200722E+02  0.97118940017E+02 -0.43692091339E+02  0.17850184961E+03  0.12501125160E+03 0.  0.
          5    1    3    3  501    0 -0.74770811074E+02 -0.84971835218E+02  0.13510818131E+01  0.11329078688E+03  0.47000000000E+01 0. -1.
         -5    1    3    3    0  501  0.48136103524E+01 -0.12147104799E+02 -0.72515008706E+02  0.73832509691E+02  0.47000000000E+01 0. -1.
          5    1    4    4  502    0  0.44879192396E+02  0.12490183073E+03 -0.20922611367E+02  0.13444126932E+03  0.47000000000E+01 0.  1.
         -5    1    4    4    0  502  0.25078008326E+02 -0.27782890710E+02 -0.22769479972E+02  0.44060580295E+02  0.47000000000E+01 0.  1.
<mgrwt>
<rscale>  0 0.34711647E+03</rscale>
<asrwt>0</asrwt>
<pdfrwt beam="1">  1       21 0.19289933E-01 0.34711647E+03</pdfrwt>
<pdfrwt beam="2">  1       21 0.36960089E-01 0.34711647E+03</pdfrwt>
<totfact> 0.16733659E+05</totfact>
</mgrwt>
</event>
<event>
 8    1  0.4760912E-006  0.3311656E+03  0.7546771E-02  0.1070622E+00
         21   -1    0    0  504  503  0.00000000000E+00  0.00000000000E+00  0.34626936030E+03  0.34626936030E+03  0.00000000000E+00 0.  1.
         21   -1    0    0  503  504 -0.00000000000E+00 -0.00000000000E+00 -0.79180163966E+02  0.79180163966E+02  0.00000000000E+00 0.  1.
         25    2    1    2    0    0 -0.53945655334E+02 -0.86144577432E+02  0.84444059418E+02  0.18189533260E+03  0.12499636355E+03 0.  0.
         25    2    1    2    0    0  0.53945655334E+02  0.86144577432E+02  0.18264513692E+03  0.24355419166E+03  0.12501350442E+03 0.  0.
          5    1    3    3  501    0 -0.93329979840E+02 -0.73009142120E+02  0.54622804037E+02  0.13056247811E+03  0.47000000000E+01 0. -1.
         -5    1    3    3    0  501  0.39384324507E+02 -0.13135435312E+02  0.29821255381E+02  0.51332854490E+02  0.47000000000E+01 0. -1.
          5    1    4    4  502    0  0.65473856372E+01  0.89128441806E+02  0.17312845719E+03  0.19489048229E+03  0.47000000000E+01 0. -1.
         -5    1    4    4    0  502  0.47398269697E+02 -0.29838643736E+01  0.95166797213E+01  0.48663709371E+02  0.47000000000E+01 0. -1.
<mgrwt>
<rscale>  0 0.33116561E+03</rscale>
<asrwt>0</asrwt>
<pdfrwt beam="1">  1       21 0.53272208E-01 0.33116561E+03</pdfrwt>
<pdfrwt beam="2">  1       21 0.12181564E-01 0.33116561E+03</pdfrwt>
<totfact> 0.18366208E+05</totfact>
</mgrwt>
</event>
<event>
 8    1  0.4760912E-006  0.2735975E+03  0.7546771E-02  0.1099238E+00
         21   -1    0    0  504  503  0.00000000000E+00  0.00000000000E+00  0.10952375632E+03  0.10952375632E+03  0.00000000000E+00 0. -1.
         21   -1    0    0  503  504 -0.00000000000E+00 -0.00000000000E+00 -0.17086607674E+03  0.17086607674E+03  0.00000000000E+00 0. -1.
         25    2    1    2    0    0 -0.11059803885E+02 -0.54060081274E+02 -0.23786352138E+02  0.13869429997E+03  0.12500202658E+03 0.  0.
         25    2    1    2    0    0  0.11059803885E+02  0.54060081274E+02 -0.37555968277E+02  0.14169553309E+03  0.12498944633E+03 0.  0.
          5    1    3    3  501    0  0.12961039001E+02  0.37323492934E+01  0.44032148687E+02  0.46290809900E+02  0.47000000000E+01 0.  1.
         -5    1    3    3    0  501 -0.24020842885E+02 -0.57792430567E+02 -0.67818500825E+02  0.92403490075E+02  0.47000000000E+01 0.  1.
          5    1    4    4  502    0 -0.31089653790E+02 -0.18333110486E+02  0.18462339614E+02  0.40811977371E+02  0.47000000000E+01 0. -1.
         -5    1    4    4    0  502  0.42149457675E+02  0.72393191760E+02 -0.56018307891E+02  0.10088355572E+03  0.47000000000E+01 0. -1.
<mgrwt>
<rscale>  0 0.27359747E+03</rscale>
<asrwt>0</asrwt>
<pdfrwt beam="1">  1       21 0.16849809E-01 0.27359747E+03</pdfrwt>
<pdfrwt beam="2">  1       21 0.26287088E-01 0.27359747E+03</pdfrwt>
<totfact> 0.42916793E+05</totfact>
</mgrwt>
</event>
<event>
 8    1  0.4760912E-006  0.3253410E+03  0.7546771E-02  0.1073217E+00
         21   -1    0    0  504  503  0.00000000000E+00  0.00000000000E+00  0.20038739720E+03  0.20038739720E+03  0.00000000000E+00 0.  1.
         21   -1    0    0  503  504 -0.00000000000E+00 -0.00000000000E+00 -0.13205269377E+03  0.13205269377E+03  0.00000000000E+00 0.  1.
         25    2    1    2    0    0 -0.27637531179E+02  0.67244353431E+02  0.11029419595E+03  0.18186819765E+03  0.12500238181E+03 0.  0.
         25    2    1    2    0    0  0.27637531179E+02 -0.67244353431E+02 -0.41959492522E+02  0.15057189332E+03  0.12500263936E+03 0.  0.
          5    1    3    3  501    0  0.38142314219E+02  0.28083964804E+02  0.91129982466E+02  0.10281200765E+03  0.47000000000E+01 0.  1.
         -5    1    3    3    0  501 -0.65779845398E+02  0.39160388627E+02  0.19164213482E+02  0.79056189994E+02  0.47000000000E+01 0.  1.
          5    1    4    4  502    0  0.14257959150E+02  0.27050760282E+02  0.20014090045E+02  0.36846802185E+02  0.47000000000E+01 0.  1.
         -5    1    4    4    0  502  0.13379572029E+02 -0.94295113713E+02 -0.61973582567E+02  0.11372509114E+03  0.47000000000E+01 0.  1.
<mgrwt>
<rscale>  0 0.32534102E+03</rscale>
<asrwt>0</asrwt>
<pdfrwt beam="1">  1       21 0.30828830E-01 0.32534102E+03</pdfrwt>
<pdfrwt beam="2">  1       21 0.20315799E-01 0.32534102E+03</pdfrwt>
<totfact> 0.21913324E+05</totfact>
</mgrwt>
</event>
<event>
 8    1  0.4760912E-006  0.3029927E+03  0.7546771E-02  0.1083754E+00
         21   -1    0    0  504  503  0.00000000000E+00  0.00000000000E+00  0.19707710832E+02  0.19707710832E+02  0.00000000000E+00 0. -1.
         21   -1    0    0  503  504 -0.00000000000E+00 -0.00000000000E+00 -0.11645769791E+04  0.11645769791E+04  0.00000000000E+00 0. -1.
         25    2    1    2    0    0  0.41391482375E+02  0.42501251194E+02 -0.33128426211E+03  0.35901799604E+03  0.12500019197E+03 0.  0.
         25    2    1    2    0    0 -0.41391482375E+02 -0.42501251194E+02 -0.81358500615E+03  0.82526669389E+03  0.12499977054E+03 0.  0.
          5    1    3    3  501    0  0.86006534827E+02  0.29491502987E+02 -0.20252879548E+03  0.22205151605E+03  0.47000000000E+01 0.  1.
         -5    1    3    3    0  501 -0.44615052452E+02  0.13009748207E+02 -0.12875546663E+03  0.13696647999E+03  0.47000000000E+01 0.  1.
          5    1    4    4  502    0 -0.65944601728E+02 -0.65186569814E+02 -0.41519971699E+03  0.42545372765E+03  0.47000000000E+01 0. -1.
         -5    1    4    4    0  502  0.24553119354E+02  0.22685318620E+02 -0.39838528916E+03  0.39981296624E+03  0.47000000000E+01 0. -1.
<mgrwt>
<rscale>  0 0.30299272E+03</rscale>
<asrwt>0</asrwt>
<pdfrwt beam="1">  1       21 0.30319538E-02 0.30299272E+03</pdfrwt>
<pdfrwt beam="2">  1       21 0.17916579E+00 0.30299272E+03</pdfrwt>
<totfact> 0.10921917E+05</totfact>
</mgrwt>
</event>
<event>
 8    1  0.4760912E-006  0.3097745E+03  0.7546771E-02  0.1080454E+00
         21   -1    0    0  504  503  0.00000000000E+00  0.00000000000E+00  0.82935880479E+01  0.82935880479E+01  0.00000000000E+00 0. -1.
         21   -1    0    0  503  504 -0.00000000000E+00 -0.00000000000E+00 -0.28926034140E+04  0.28926034140E+04  0.00000000000E+00 0. -1.
         25    2    1    2    0    0  0.36783220429E+01  0.51787972059E+02 -0.73697039624E+03  0.74929641994E+03  0.12499694353E+03 0.  0.
         25    2    1    2    0    0 -0.36783220429E+01 -0.51787972059E+02 -0.21473394297E+04  0.21516005821E+04  0.12499165751E+03 0.  0.
          5    1    3    3  501    0 -0.60011272399E+02  0.16661500131E+02 -0.33645295291E+03  0.34220116587E+03  0.47000000000E+01 0.  1.
         -5    1    3    3    0  501  0.63689594442E+02  0.35126471928E+02 -0.40051744333E+03  0.40709525407E+03  0.47000000000E+01 0.  1.
          5    1    4    4  502    0  0.92193717235E+01 -0.88357273115E+02 -0.11236081126E+04  0.11271243432E+04  0.47000000000E+01 0. -1.
         -5    1    4    4    0  502 -0.12897693766E+02  0.36569301056E+02 -0.10237313172E+04  0.10244762389E+04  0.47000000000E+01 0. -1.
<mgrwt>
<rscale>  0 0.30977451E+03</rscale>
<asrwt>0</asrwt>
<pdfrwt beam="1">  1       21 0.12759364E-02 0.30977451E+03</pdfrwt>
<pdfrwt beam="2">  1       21 0.44501598E+00 0.30977451E+03</pdfrwt>
<totfact> 0.10122973E+04</totfact>
</mgrwt>
</event>
<event>
 8    1  0.4760912E-006  0.2840431E+03  0.7546771E-02  0.1093501E+00
         21   -1    0    0  504  503  0.00000000000E+00  0.00000000000E+00  0.10003207539E+03  0.10003207539E+03  0.00000000000E+00 0. -1.
         21   -1    0    0  503  504 -0.00000000000E+00 -0.00000000000E+00 -0.20163656806E+03  0.20163656806E+03  0.00000000000E+00 0. -1.
         25    2    1    2    0    0 -0.13749667029E+02  0.36722508161E+02 -0.10906425546E+03  0.17046048620E+03  0.12499667831E+03 0.  0.
         25    2    1    2    0    0  0.13749667029E+02 -0.36722508161E+02  0.74597627861E+01  0.13120815725E+03  0.12498934563E+03 0.  0.
          5    1    3    3  501    0  0.29015897215E+02 -0.35990153366E+02 -0.36521313726E+02  0.59102536213E+02  0.47000000000E+01 0. -1.
         -5    1    3    3    0  501 -0.42765564244E+02  0.72712661527E+02 -0.72542941731E+02  0.11135794999E+03  0.47000000000E+01 0. -1.
          5    1    4    4  502    0  0.65302466110E+02 -0.98753081090E+01  0.24269030532E+02  0.70519569151E+02  0.47000000000E+01 0.  1.
         -5    1    4    4    0  502 -0.51552799081E+02 -0.26847200052E+02 -0.16809267746E+02  0.60688588102E+02  0.47000000000E+01 0.  1.
<mgrwt>
<rscale>  0 0.28404313E+03</rscale>
<asrwt>0</asrwt>
<pdfrwt beam="1">  1       21 0.15389550E-01 0.28404313E+03</pdfrwt>
<pdfrwt beam="2">  1       21 0.31021010E-01 0.28404313E+03</pdfrwt>
<totfact> 0.36637744E+05</totfact>
</mgrwt>
</event>
<event>
 8    1  0.4760912E-006  0.2829336E+03  0.7546771E-02  0.1094097E+00
         21   -1    0    0  504  503  0.00000000000E+00  0.00000000000E+00  0.99069584415E+03  0.99069584415E+03  0.00000000000E+00 0.  1.
         21   -1    0    0  503  504 -0.00000000000E+00 -0.00000000000E+00 -0.20200803932E+02  0.20200803932E+02  0.00000000000E+00 0.  1.
         25    2    1    2    0    0 -0.52518639145E+02  0.24598039669E+02  0.37086986140E+03  0.39564321559E+03  0.12500331568E+03 0.  0.
         25    2    1    2    0    0  0.52518639145E+02 -0.24598039669E+02  0.59962517882E+03  0.61525343250E+03  0.12499264023E+03 0.  0.
          5    1    3    3  501    0 -0.68178476807E+02  0.34139984061E+02  0.36876641329E+03  0.37659607112E+03  0.47000000000E+01 0. -1.
         -5    1    3    3    0  501  0.15659837662E+02 -0.95419443927E+01  0.21034481094E+01  0.19047144467E+02  0.47000000000E+01 0. -1.
          5    1    4    4  502    0  0.50989697411E+02  0.34150885421E+02  0.45389739080E+03  0.45805148574E+03  0.47000000000E+01 0. -1.
         -5    1    4    4    0  502  0.15289417341E+01 -0.58748925090E+02  0.14572778803E+03  0.15720194676E+03  0.47000000000E+01 0. -1.
<mgrwt>
<rscale>  0 0.28293358E+03</rscale>
<asrwt>0</asrwt>
<pdfrwt beam="1">  1       21 0.15241471E+00 0.28293358E+03</pdfrwt>
<pdfrwt beam="2">  1       21 0.31078168E-02 0.28293358E+03</pdfrwt>
<totfact> 0.16525459E+05</totfact>
</mgrwt>
</event>
<event>
 8    1  0.4760912E-006  0.4373648E+03  0.7546771E-02  0.1031558E+00
         21   -1    0    0  504  503  0.00000000000E+00  0.00000000000E+00  0.21377534603E+03  0.21377534603E+03  0.00000000000E+00 0.  1.
         21   -1    0    0  503  504 -0.00000000000E+00 -0.00000000000E+00 -0.22370205571E+03  0.22370205571E+03  0.00000000000E+00 0.  1.
         25    2    1    2    0    0  0.21655102170E+02  0.17802759537E+03  0.93078593430E+00  0.21860461446E+03  0.12499737172E+03 0.  0.
         25    2    1    2    0    0 -0.21655102170E+02 -0.17802759537E+03 -0.10857495611E+02  0.21887278728E+03  0.12499857453E+03 0.  0.
          5    1    3    3  501    0 -0.26134643525E+02  0.76288517222E+02 -0.50117606071E+02  0.95062200113E+02  0.47000000000E+01 0. -1.
         -5    1    3    3    0  501  0.47789745695E+02  0.10173907815E+03  0.51048392005E+02  0.12354241435E+03  0.47000000000E+01 0. -1.
          5    1    4    4  502    0  0.17012467508E+02 -0.15803655815E+03  0.26630729920E+02  0.16123356827E+03  0.47000000000E+01 0. -1.
         -5    1    4    4    0  502 -0.38667569677E+02 -0.19991037228E+02 -0.37488225531E+02  0.57639219007E+02  0.47000000000E+01 0. -1.
<mgrwt>
<rscale>  0 0.43736476E+03</rscale>
<asrwt>0</asrwt>
<pdfrwt beam="1">  1       21 0.32888515E-01 0.43736476E+03</pdfrwt>
<pdfrwt beam="2">  1       21 0.34415701E-01 0.43736476E+03</pdfrwt>
<totfact> 0.67252533E+04</totfact>
</mgrwt>
</event>
<event>
 8    1  0.4760912E-006  0.3082095E+03  0.7546771E-02  0.1081207E+00
         21   -1    0    0  504  503  0.00000000000E+00  0.00000000000E+00  0.33393659912E+02  0.33393659912E+02  0.00000000000E+00 0.  1.
         21   -1    0    0  503  504 -0.00000000000E+00 -0.00000000000E+00 -0.71116133892E+03  0.71116133892E+03  0.00000000000E+00 0.  1.
         25    2    1    2    0    0  0.68214279747E+02 -0.15495191523E+02 -0.20158278043E+03  0.24729085245E+03  0.12499543759E+03 0.  0.
         25    2    1    2    0    0 -0.68214279747E+02  0.15495191523E+02 -0.47618489858E+03  0.49726414638E+03  0.12500513878E+03 0.  0.
          5    1    3    3  501    0  0.47840465417E+02  0.11564454227E+02 -0.20686253564E+03  0.21268908149E+03  0.47000000000E+01 0. -1.
         -5    1    3    3    0  501  0.20373814330E+02 -0.27059645750E+02  0.52797552109E+01  0.34601770960E+02  0.47000000000E+01 0. -1.
          5    1    4    4  502    0 -0.30701693288E+02  0.48327085064E+01 -0.15752754237E+02  0.35159469682E+02  0.47000000000E+01 0.  1.
         -5    1    4    4    0  502 -0.37512586459E+02  0.10662483016E+02 -0.46043214434E+03  0.46210467670E+03  0.47000000000E+01 0.  1.
<mgrwt>
<rscale>  0 0.30820954E+03</rscale>
<asrwt>0</asrwt>
<pdfrwt beam="1">  1       21 0.51374862E-02 0.30820954E+03</pdfrwt>
<pdfrwt beam="2">  1       21 0.10940943E+00 0.30820954E+03</pdfrwt>
<totfact> 0.16380608E+05</totfact>
</mgrwt>
</event>
<event>
 8    1  0.4760912E-006  0.3109540E+03  0.7546771E-02  0.1079889E+00
         21   -1    0    0  504  503  0.00000000000E+00  0.00000000000E+00  0.20773555553E+02  0.20773555553E+02  0.00000000000E+00 0.  1.
         21   -1    0    0  503  504 -0.00000000000E+00 -0.00000000000E+00 -0.11636478582E+04  0.11636478582E+04  0.00000000000E+00 0.  1.
         25    2    1    2    0    0  0.39478087807E+02 -0.26544673615E+02 -0.87338464015E+03  0.88356696517E+03  0.12500685252E+03 0.  0.
         25    2    1    2    0    0 -0.39478087807E+02  0.26544673615E+02 -0.26948966252E+03  0.30085444861E+03  0.12500232769E+03 0.  0.
          5    1    3    3  501    0  0.61337724902E+02  0.83712651055E+01 -0.21251708194E+03  0.22140007834E+03  0.47000000000E+01 0. -1.
         -5    1    3    3    0  501 -0.21859637096E+02 -0.34915938720E+02 -0.66086755821E+03  0.66216688683E+03  0.47000000000E+01 0. -1.
          5    1    4    4  502    0 -0.64533971414E+02  0.41044977015E+02 -0.86619953517E+02  0.11564787050E+03  0.47000000000E+01 0.  1.
         -5    1    4    4    0  502  0.25055883607E+02 -0.14500303400E+02 -0.18286970900E+03  0.18520657810E+03  0.47000000000E+01 0.  1.
<mgrwt>
<rscale>  0 0.31095404E+03</rscale>
<asrwt>0</asrwt>
<pdfrwt beam="1">  1       21 0.31959307E-02 0.31095404E+03</pdfrwt>
<pdfrwt beam="2">  1       21 0.17902280E+00 0.31095404E+03</pdfrwt>
<totfact> 0.99950127E+04</totfact>
</mgrwt>
</event>
<event>
 8    1  0.4760912E-006  0.2746335E+03  0.7546771E-02  0.1098657E+00
         21   -1    0    0  504  503  0.00000000000E+00  0.00000000000E+00  0.18903659806E+03  0.18903659806E+03  0.00000000000E+00 0.  1.
         21   -1    0    0  503  504 -0.00000000000E+00 -0.00000000000E+00 -0.99747325440E+02  0.99747325440E+02  0.00000000000E+00 0.  1.
         25    2    1    2    0    0  0.81994389638E+01 -0.55512041003E+02  0.54110507589E+02  0.14732453964E+03  0.12501102133E+03 0.  0.
         25    2    1    2    0    0 -0.81994389638E+01  0.55512041003E+02  0.35178765029E+02  0.14145938386E+03  0.12499757708E+03 0.  0.
          5    1    3    3  501    0  0.29277309945E+02 -0.57006972378E+02 -0.22214449398E+02  0.67989172221E+02  0.47000000000E+01 0. -1.
         -5    1    3    3    0  501 -0.21077870981E+02  0.14949313745E+01  0.76324956986E+02  0.79335367421E+02  0.47000000000E+01 0. -1.
          5    1    4    4  502    0 -0.51797309841E+02  0.50513474771E+02 -0.15619911047E+02  0.74166327004E+02  0.47000000000E+01 0. -1.
         -5    1    4    4    0  502  0.43597870877E+02  0.49985662319E+01  0.50798676077E+02  0.67293056852E+02  0.47000000000E+01 0. -1.
<mgrwt>
<rscale>  0 0.27463354E+03</rscale>
<asrwt>0</asrwt>
<pdfrwt beam="1">  1       21 0.29082553E-01 0.27463354E+03</pdfrwt>
<pdfrwt beam="2">  1       21 0.15345742E-01 0.27463354E+03</pdfrwt>
<totfact> 0.41885501E+05</totfact>
</mgrwt>
</event>
<event>
 8    1  0.4760912E-006  0.2906076E+03  0.7546771E-02  0.1090032E+00
         21   -1    0    0  504  503  0.00000000000E+00  0.00000000000E+00  0.17371529566E+04  0.17371529566E+04  0.00000000000E+00 0. -1.
         21   -1    0    0  503  504 -0.00000000000E+00 -0.00000000000E+00 -0.12153909186E+02  0.12153909186E+02  0.00000000000E+00 0. -1.
         25    2    1    2    0    0 -0.10609405328E+02  0.51346538083E+02  0.54749949417E+03  0.56403102644E+03  0.12500510476E+03 0.  0.
         25    2    1    2    0    0  0.10609405328E+02 -0.51346538083E+02  0.11774995533E+04  0.11852758394E+04  0.12499836396E+03 0.  0.
          5    1    3    3  501    0  0.98453734756E+01  0.17202478494E+02  0.50574139608E+03  0.50615146582E+03  0.47000000000E+01 0.  1.
         -5    1    3    3    0  501 -0.20454778803E+02  0.34144059588E+02  0.41758098086E+02  0.57879560614E+02  0.47000000000E+01 0.  1.
          5    1    4    4  502    0  0.17518576582E+02 -0.75274377945E+02  0.40352502395E+03  0.41088644107E+03  0.47000000000E+01 0. -1.
         -5    1    4    4    0  502 -0.69091712540E+01  0.23927839863E+02  0.77397452934E+03  0.77438939832E+03  0.47000000000E+01 0. -1.
<mgrwt>
<rscale>  0 0.29060763E+03</rscale>
<asrwt>0</asrwt>
<pdfrwt beam="1">  1       21 0.26725410E+00 0.29060763E+03</pdfrwt>
<pdfrwt beam="2">  1       21 0.18698336E-02 0.29060763E+03</pdfrwt>
<totfact> 0.67969435E+04</totfact>
</mgrwt>
</event>
<event>
 8    1  0.4760912E-006  0.2634750E+03  0.7546771E-02  0.1105073E+00
         21   -1    0    0  504  503  0.00000000000E+00  0.00000000000E+00  0.25355295682E+03  0.25355295682E+03  0.00000000000E+00 0.  1.
         21   -1    0    0  503  504 -0.00000000000E+00 -0.00000000000E+00 -0.68446323319E+02  0.68446323319E+02  0.00000000000E+00 0.  1.
         25    2    1    2    0    0 -0.24605246286E+02 -0.79187188923E+01  0.52682717785E+02  0.13808374606E+03  0.12499411154E+03 0.  0.
         25    2    1    2    0    0  0.24605246286E+02  0.79187188923E+01  0.13242391572E+03  0.18391553407E+03  0.12498282269E+03 0.  0.
          5    1    3    3  501    0 -0.74935003106E+02  0.47178875165E+01  0.26418220849E+02  0.79734092745E+02  0.47000000000E+01 0. -1.
         -5    1    3    3    0  501  0.50329756820E+02 -0.12636606409E+02  0.26264496936E+02  0.58349653319E+02  0.47000000000E+01 0. -1.
          5    1    4    4  502    0  0.62545446979E+02 -0.11242896969E+02  0.12528709309E+03  0.14056059678E+03  0.47000000000E+01 0.  1.
         -5    1    4    4    0  502 -0.37940200693E+02  0.19161615862E+02  0.71368226202E+01  0.43354937298E+02  0.47000000000E+01 0.  1.
<mgrwt>
<rscale>  0 0.26347499E+03</rscale>
<asrwt>0</asrwt>
<pdfrwt beam="1">  1       21 0.39008147E-01 0.26347499E+03</pdfrwt>
<pdfrwt beam="2">  1       21 0.10530204E-01 0.26347499E+03</pdfrwt>
<totfact> 0.46254223E+05</totfact>
</mgrwt>
</event>
<event>
 8    1  0.4760912E-006  0.2780183E+03  0.7546771E-02  0.1096776E+00
         21   -1    0    0  504  503  0.00000000000E+00  0.00000000000E+00  0.23875637087E+03  0.23875637087E+03  0.00000000000E+00 0. -1.
         21   -1    0    0  503  504 -0.00000000000E+00 -0.00000000000E+00 -0.80934151283E+02  0.80934151283E+02  0.00000000000E+00 0. -1.
         25    2    1    2    0    0 -0.52034733837E+02  0.20890356129E+00  0.42731077673E+02  0.14198263052E+03  0.12500186080E+03 0.  0.
         25    2    1    2    0    0  0.52034733837E+02 -0.20890356129E+00  0.11509114192E+03  0.17770789164E+03  0.12500586641E+03 0.  0.
          5    1    3    3  501    0  0.37876826754E+02  0.42417758011E+01  0.34255407520E+02  0.51460369327E+02  0.47000000000E+01 0. -1.
         -5    1    3    3    0  501 -0.89911560591E+02 -0.40328722398E+01  0.84756701533E+01  0.90522261191E+02  0.47000000000E+01 0. -1.
          5    1    4    4  502    0  0.47258600083E+02 -0.21475439939E+02  0.13691948753E+03  0.14650462746E+03  0.47000000000E+01 0.  1.
         -5    1    4    4    0  502  0.47761337545E+01  0.21266536378E+02 -0.21828345612E+02  0.31203264177E+02  0.47000000000E+01 0.  1.
<mgrwt>
<rscale>  0 0.27801830E+03</rscale>
<asrwt>0</asrwt>
<pdfrwt beam="1">  1       21 0.36731749E-01 0.27801830E+03</pdfrwt>
<pdfrwt beam="2">  1       21 0.12451408E-01 0.27801830E+03</pdfrwt>
<totfact> 0.38546587E+05</totfact>
</mgrwt>
</event>
<event>
 8    1  0.4760912E-006  0.3921909E+03  0.7546771E-02  0.1046518E+00
         21   -1    0    0  504  503  0.00000000000E+00  0.00000000000E+00  0.18068748372E+03  0.18068748372E+03  0.00000000000E+00 0. -1.
         21   -1    0    0  503  504 -0.00000000000E+00 -0.00000000000E+00 -0.21281732696E+03  0.21281732696E+03  0.00000000000E+00 0. -1.
         25    2    1    2    0    0  0.62218189597E+02  0.13086600302E+03 -0.59007380695E+02  0.20025639352E+03  0.12499495312E+03 0.  0.
         25    2    1    2    0    0 -0.62218189597E+02 -0.13086600302E+03  0.26877537450E+02  0.19324841716E+03  0.12500213940E+03 0.  0.
          5    1    3    3  501    0  0.33297156972E+02  0.82243282167E+00  0.25686378942E+02  0.42323245638E+02  0.47000000000E+01 0. -1.
         -5    1    3    3    0  501  0.28921032625E+02  0.13004357020E+03 -0.84693759637E+02  0.15793314788E+03  0.47000000000E+01 0. -1.
          5    1    4    4  502    0 -0.74427722127E+02 -0.68852575446E+02  0.63812660531E+02  0.11989290476E+03  0.47000000000E+01 0. -1.
         -5    1    4    4    0  502  0.12209532530E+02 -0.62013427571E+02 -0.36935123081E+02  0.73355512409E+02  0.47000000000E+01 0. -1.
<mgrwt>
<rscale>  0 0.39219091E+03</rscale>
<asrwt>0</asrwt>
<pdfrwt beam="1">  1       21 0.27798075E-01 0.39219091E+03</pdfrwt>
<pdfrwt beam="2">  1       21 0.32741127E-01 0.39219091E+03</pdfrwt>
<totfact> 0.10479115E+05</totfact>
</mgrwt>
</event>
<event>
 8    1  0.4760912E-006  0.2734092E+03  0.7546771E-02  0.1099344E+00
         21   -1    0    0  504  503  0.00000000000E+00  0.00000000000E+00  0.16121599812E+03  0.16121599812E+03  0.00000000000E+00 0. -1.
         21   -1    0    0  503  504 -0.00000000000E+00 -0.00000000000E+00 -0.11591992503E+03  0.11591992503E+03  0.00000000000E+00 0. -1.
         25    2    1    2    0    0 -0.36328324058E+02 -0.32069304095E+02 -0.44564356985E+01  0.13413460012E+03  0.12499617489E+03 0.  0.
         25    2    1    2    0    0  0.36328324058E+02  0.32069304095E+02  0.49752508786E+02  0.14300132303E+03  0.12500351540E+03 0.  0.
          5    1    3    3  501    0  0.38920309170E+01 -0.50057587195E+02 -0.49703030654E+02  0.70805304862E+02  0.47000000000E+01 0.  1.
         -5    1    3    3    0  501 -0.40220354975E+02  0.17988283100E+02  0.45246594955E+02  0.63329295261E+02  0.47000000000E+01 0.  1.
          5    1    4    4  502    0  0.69805998665E+02  0.57370885893E+02  0.43226627736E+02  0.10027426062E+03  0.47000000000E+01 0.  1.
         -5    1    4    4    0  502 -0.33477674607E+02 -0.25301581798E+02  0.65258810501E+01  0.42727062408E+02  0.47000000000E+01 0.  1.
<mgrwt>
<rscale>  0 0.27340919E+03</rscale>
<asrwt>0</asrwt>
<pdfrwt beam="1">  1       21 0.24802461E-01 0.27340919E+03</pdfrwt>
<pdfrwt beam="2">  1       21 0.17833835E-01 0.27340919E+03</pdfrwt>
<totfact> 0.43206936E+05</totfact>
</mgrwt>
</event>
<event>
 8    1  0.4760912E-006  0.2683310E+03  0.7546771E-02  0.1102239E+00
         21   -1    0    0  504  503  0.00000000000E+00  0.00000000000E+00  0.15144510567E+03  0.15144510567E+03  0.00000000000E+00 0.  1.
         21   -1    0    0  503  504 -0.00000000000E+00 -0.00000000000E+00 -0.11885748672E+03  0.11885748672E+03  0.00000000000E+00 0.  1.
         25    2    1    2    0    0  0.24615430402E+02  0.27224545653E+02 -0.16019007240E+02  0.13124997080E+03  0.12499140347E+03 0.  0.
         25    2    1    2    0    0 -0.24615430402E+02 -0.27224545653E+02  0.48606626181E+02  0.13905262159E+03  0.12500372860E+03 0.  0.
          5    1    3    3  501    0 -0.28532600927E+02 -0.32838526565E+02 -0.25026804226E+02  0.50407430726E+02  0.47000000000E+01 0. -1.
         -5    1    3    3    0  501  0.53148031329E+02  0.60063072218E+02  0.90077969860E+01  0.80842540070E+02  0.47000000000E+01 0. -1.
          5    1    4    4  502    0  0.18101406181E+02 -0.28859375418E+02 -0.32457367233E+02  0.47287367689E+02  0.47000000000E+01 0. -1.
         -5    1    4    4    0  502 -0.42716836583E+02  0.16348297649E+01  0.81063993414E+02  0.91765253905E+02  0.47000000000E+01 0. -1.
<mgrwt>
<rscale>  0 0.26833102E+03</rscale>
<asrwt>0</asrwt>
<pdfrwt beam="1">  1       21 0.23299247E-01 0.26833102E+03</pdfrwt>
<pdfrwt beam="2">  1       21 0.18285767E-01 0.26833102E+03</pdfrwt>
<totfact> 0.46529240E+05</totfact>
</mgrwt>
</event>
<event>
 8    1  0.4760912E-006  0.2566637E+03  0.7546771E-02  0.1109164E+00
         21   -1    0    0  504  503  0.00000000000E+00  0.00000000000E+00  0.40914908810E+03  0.40914908810E+03  0.00000000000E+00 0.  1.
         21   -1    0    0  503  504 -0.00000000000E+00 -0.00000000000E+00 -0.40251997021E+02  0.40251997021E+02  0.00000000000E+00 0.  1.
         25    2    1    2    0    0  0.24393947843E+02 -0.34024578811E+01  0.21150984230E+03  0.24691789556E+03  0.12500156938E+03 0.  0.
         25    2    1    2    0    0 -0.24393947843E+02  0.34024578811E+01  0.15738724878E+03  0.20248318956E+03  0.12498821771E+03 0.  0.
          5    1    3    3  501    0  0.35168674585E+02 -0.54605577155E+02  0.16253566642E+03  0.17509579546E+03  0.47000000000E+01 0.  1.
         -5    1    3    3    0  501 -0.10774726742E+02  0.51203119274E+02  0.48974175876E+02  0.71822100098E+02  0.47000000000E+01 0.  1.
          5    1    4    4  502    0 -0.51964165491E+02 -0.28202693069E+01  0.11102537341E+02  0.53418954965E+02  0.47000000000E+01 0.  1.
         -5    1    4    4    0  502  0.27570217648E+02  0.62227271880E+01  0.14628471144E+03  0.14906423460E+03  0.47000000000E+01 0.  1.
<mgrwt>
<rscale>  0 0.25666373E+03</rscale>
<asrwt>0</asrwt>
<pdfrwt beam="1">  1       21 0.62946011E-01 0.25666373E+03</pdfrwt>
<pdfrwt beam="2">  1       21 0.61926152E-02 0.25666373E+03</pdfrwt>
<totfact> 0.43029082E+05</totfact>
</mgrwt>
</event>
<event>
 8    1  0.4760912E-006  0.3742421E+03  0.7546771E-02  0.1053083E+00
         21   -1    0    0  504  503  0.00000000000E+00  0.00000000000E+00  0.90739228089E+03  0.90739228089E+03  0.00000000000E+00 0. -1.
         21   -1    0    0  503  504 -0.00000000000E+00 -0.00000000000E+00 -0.38587821350E+02  0.38587821350E+02  0.00000000000E+00 0. -1.
         25    2    1    2    0    0  0.62641488131E+02  0.10899095043E+03  0.28303521774E+03  0.33397177146E+03  0.12500090537E+03 0.  0.
         25    2    1    2    0    0 -0.62641488131E+02 -0.10899095043E+03  0.58576924180E+03  0.61200833078E+03  0.12500243595E+03 0.  0.
          5    1    3    3  501    0  0.49331177166E+02 -0.44581913880E+00  0.16548599610E+03  0.17274683413E+03  0.47000000000E+01 0. -1.
         -5    1    3    3    0  501  0.13310310965E+02  0.10943676956E+03  0.11754922164E+03  0.16122493733E+03  0.47000000000E+01 0. -1.
          5    1    4    4  502    0 -0.55868176896E+02 -0.13694386161E+03  0.49872106531E+03  0.52021117386E+03  0.47000000000E+01 0.  1.
         -5    1    4    4    0  502 -0.67733112355E+01  0.27952911181E+02  0.87048176485E+02  0.91797156916E+02  0.47000000000E+01 0.  1.
<mgrwt>
<rscale>  0 0.37424212E+03</rscale>
<asrwt>0</asrwt>
<pdfrwt beam="1">  1       21 0.13959880E+00 0.37424212E+03</pdfrwt>
<pdfrwt beam="2">  1       21 0.59365886E-02 0.37424212E+03</pdfrwt>
<totfact> 0.67541340E+04</totfact>
</mgrwt>
</event>
<event>
 8    1  0.4760912E-006  0.4225788E+03  0.7546771E-02  0.1036230E+00
         21   -1    0    0  504  503  0.00000000000E+00  0.00000000000E+00  0.18727050115E+03  0.18727050115E+03  0.00000000000E+00 0.  1.
         21   -1    0    0  503  504 -0.00000000000E+00 -0.00000000000E+00 -0.23838896436E+03  0.23838896436E+03  0.00000000000E+00 0.  1.
         25    2    1    2    0    0  0.58383465173E+02 -0.15241391819E+03 -0.74692350010E+02  0.21873104213E+03  0.12500276068E+03 0.  0.
         25    2    1    2    0    0 -0.58383465173E+02  0.15241391819E+03  0.23573886805E+02  0.20692842338E+03  0.12500005120E+03 0.  0.
          5    1    3    3  501    0  0.56964580586E+02 -0.12937233419E+03 -0.10798020377E+01  0.14144051848E+03  0.47000000000E+01 0. -1.
         -5    1    3    3    0  501  0.14188845872E+01 -0.23041583993E+02 -0.73612547972E+02  0.77290523645E+02  0.47000000000E+01 0. -1.
          5    1    4    4  502    0 -0.36731277712E+02  0.68861479376E+02 -0.50511643645E+02  0.93083866744E+02  0.47000000000E+01 0.  1.
         -5    1    4    4    0  502 -0.21652187461E+02  0.83552438811E+02  0.74085530450E+02  0.11384455663E+03  0.47000000000E+01 0.  1.
<mgrwt>
<rscale>  0 0.42257885E+03</rscale>
<asrwt>0</asrwt>
<pdfrwt beam="1">  1       21 0.28810847E-01 0.42257885E+03</pdfrwt>
<pdfrwt beam="2">  1       21 0.36675225E-01 0.42257885E+03</pdfrwt>
<totfact> 0.77191150E+04</totfact>
</mgrwt>
</event>
<event>
 8    1  0.4760912E-006  0.5545368E+03  0.7546771E-02  0.1000449E+00
         21   -1    0    0  504  503  0.00000000000E+00  0.00000000000E+00  0.17015868830E+04  0.17015868830E+04  0.00000000000E+00 0.  1.
         21   -1    0    0  503  504 -0.00000000000E+00 -0.00000000000E+00 -0.45180044463E+02  0.45180044463E+02  0.00000000000E+00 0.  1.
         25    2    1    2    0    0 -0.68483540948E+02  0.16891058845E+03  0.30080240951E+03  0.37326458181E+03  0.12499430463E+03 0.  0.
         25    2    1    2    0    0  0.68483540948E+02 -0.16891058845E+03  0.13556044291E+04  0.13735023457E+04  0.12499817303E+03 0.  0.
          5    1    3    3  501    0  0.30628935907E+02  0.17998475540E+02  0.82418329838E+02  0.89871841696E+02  0.47000000000E+01 0. -1.
         -5    1    3    3    0  501 -0.99112476855E+02  0.15091211291E+03  0.21838407967E+03  0.28339274011E+03  0.47000000000E+01 0. -1.
          5    1    4    4  502    0  0.11974929989E+02 -0.16352446226E+03  0.10144481247E+04  0.10276238302E+04  0.47000000000E+01 0.  1.
         -5    1    4    4    0  502  0.56508610959E+02 -0.53861261892E+01  0.34115630432E+03  0.34587851545E+03  0.47000000000E+01 0.  1.
<mgrwt>
<rscale>  0 0.55453682E+03</rscale>
<asrwt>0</asrwt>
<pdfrwt beam="1">  1       21 0.26178255E+00 0.55453682E+03</pdfrwt>
<pdfrwt beam="2">  1       21 0.69507774E-02 0.55453682E+03</pdfrwt>
<totfact> 0.70883710E+03</totfact>
</mgrwt>
</event>
<event>
 8    1  0.4760912E-006  0.2701898E+03  0.7546771E-02  0.1101171E+00
         21   -1    0    0  504  503  0.00000000000E+00  0.00000000000E+00  0.50196315986E+03  0.50196315986E+03  0.00000000000E+00 0.  1.
         21   -1    0    0  503  504 -0.00000000000E+00 -0.00000000000E+00 -0.36358514252E+02  0.36358514252E+02  0.00000000000E+00 0.  1.
         25    2    1    2    0    0  0.46890956003E+02  0.58123920926E+01  0.27227902675E+03  0.30330496282E+03  0.12500194561E+03 0.  0.
         25    2    1    2    0    0 -0.46890956003E+02 -0.58123920926E+01  0.19332561886E+03  0.23501671130E+03  0.12500205608E+03 0.  0.
          5    1    3    3  501    0  0.73553158645E+02  0.33133898781E+02  0.10977230318E+03  0.13630836710E+03  0.47000000000E+01 0. -1.
         -5    1    3    3    0  501 -0.26662202642E+02 -0.27321506689E+02  0.16250672357E+03  0.16699659572E+03  0.47000000000E+01 0. -1.
          5    1    4    4  502    0 -0.21847944309E+02  0.53180942315E+02  0.14032375159E+03  0.15171812863E+03  0.47000000000E+01 0.  1.
         -5    1    4    4    0  502 -0.25043011695E+02 -0.58993334408E+02  0.53001867275E+02  0.83298582665E+02  0.47000000000E+01 0.  1.
<mgrwt>
<rscale>  0 0.27018982E+03</rscale>
<asrwt>0</asrwt>
<pdfrwt beam="1">  1       21 0.77225096E-01 0.27018982E+03</pdfrwt>
<pdfrwt beam="2">  1       21 0.55936179E-02 0.27018982E+03</pdfrwt>
<totfact> 0.32457343E+05</totfact>
</mgrwt>
</event>
<event>
 8    1  0.4760912E-006  0.4668642E+03  0.7546771E-02  0.1022809E+00
         21   -1    0    0  504  503  0.00000000000E+00  0.00000000000E+00  0.81131981335E+03  0.81131981335E+03  0.00000000000E+00 0. -1.
         21   -1    0    0  503  504 -0.00000000000E+00 -0.00000000000E+00 -0.67162842046E+02  0.67162842046E+02  0.00000000000E+00 0. -1.
         25    2    1    2    0    0  0.16885745693E+03 -0.44887550588E+02  0.54390862715E+03  0.58479831653E+03  0.12499897348E+03 0.  0.
         25    2    1    2    0    0 -0.16885745693E+03  0.44887550588E+02  0.20024834415E+03  0.29368433887E+03  0.12499343423E+03 0.  0.
          5    1    3    3  501    0  0.14847193609E+03  0.16755638705E+02  0.36578444990E+03  0.39515189614E+03  0.47000000000E+01 0.  1.
         -5    1    3    3    0  501  0.20385520842E+02 -0.61643189293E+02  0.17812417725E+03  0.18964642039E+03  0.47000000000E+01 0.  1.
          5    1    4    4  502    0 -0.92367186082E+02  0.31531461868E+02  0.19203062726E+03  0.21546178770E+03  0.47000000000E+01 0.  1.
         -5    1    4    4    0  502 -0.76490270845E+02  0.13356088720E+02  0.82177168909E+01  0.78222551165E+02  0.47000000000E+01 0.  1.
<mgrwt>
<rscale>  0 0.46686420E+03</rscale>
<asrwt>0</asrwt>
<pdfrwt beam="1">  1       21 0.12481843E+00 0.46686420E+03</pdfrwt>
<pdfrwt beam="2">  1       21 0.10332745E-01 0.46686420E+03</pdfrwt>
<totfact> 0.33099774E+04</totfact>
</mgrwt>
</event>
<event>
 8    1  0.4760912E-006  0.4085212E+03  0.7546771E-02  0.1040868E+00
         21   -1    0    0  504  503  0.00000000000E+00  0.00000000000E+00  0.12207222182E+04  0.12207222182E+04  0.00000000000E+00 0.  1.
         21   -1    0    0  503  504 -0.00000000000E+00 -0.00000000000E+00 -0.34178441651E+02  0.34178441651E+02  0.00000000000E+00 0.  1.
         25    2    1    2    0    0  0.14601868043E+03 -0.65826576304E+02  0.65786172761E+03  0.68852087923E+03  0.12499742119E+03 0.  0.
         25    2    1    2    0    0 -0.14601868043E+03  0.65826576304E+02  0.52868204898E+03  0.56637978065E+03  0.12500701516E+03 0.  0.
          5    1    3    3  501    0  0.11093093653E+03 -0.66448250586E+02  0.63085935989E+03  0.64399275201E+03  0.47000000000E+01 0.  1.
         -5    1    3    3    0  501  0.35087743907E+02  0.62167428117E+00  0.27002367720E+02  0.44528127222E+02  0.47000000000E+01 0.  1.
          5    1    4    4  502    0 -0.20559785383E+02  0.58266128910E+02  0.29043184813E+03  0.29696867673E+03  0.47000000000E+01 0.  1.
         -5    1    4    4    0  502 -0.12545889505E+03  0.75604473941E+01  0.23825020085E+03  0.26941110392E+03  0.47000000000E+01 0.  1.
<mgrwt>
<rscale>  0 0.40852115E+03</rscale>
<asrwt>0</asrwt>
<pdfrwt beam="1">  1       21 0.18780338E+00 0.40852115E+03</pdfrwt>
<pdfrwt beam="2">  1       21 0.52582227E-02 0.40852115E+03</pdfrwt>
<totfact> 0.36059273E+04</totfact>
</mgrwt>
</event>
<event>
 8    1  0.4760912E-006  0.2815075E+03  0.7546771E-02  0.1094868E+00
         21   -1    0    0  504  503  0.00000000000E+00  0.00000000000E+00  0.32715185089E+02  0.32715185089E+02  0.00000000000E+00 0. -1.
         21   -1    0    0  503  504 -0.00000000000E+00 -0.00000000000E+00 -0.60557850012E+03  0.60557850012E+03  0.00000000000E+00 0. -1.
         25    2    1    2    0    0 -0.55660255036E+02  0.91173825461E+01 -0.21450932125E+03  0.25459683113E+03  0.12499642739E+03 0.  0.
         25    2    1    2    0    0  0.55660255036E+02 -0.91173825461E+01 -0.35835399378E+03  0.38369685408E+03  0.12499800126E+03 0.  0.
          5    1    3    3  501    0 -0.73327191533E+02  0.47140890841E+02 -0.18014162093E+03  0.20018050404E+03  0.47000000000E+01 0.  1.
         -5    1    3    3    0  501  0.17666936497E+02 -0.38023508295E+02 -0.34367700329E+02  0.54416327091E+02  0.47000000000E+01 0.  1.
          5    1    4    4  502    0  0.81716231939E+02  0.29291905201E+02 -0.27189732366E+03  0.28545718223E+03  0.47000000000E+01 0.  1.
         -5    1    4    4    0  502 -0.26055976903E+02 -0.38409287747E+02 -0.86456670122E+02  0.98239671855E+02  0.47000000000E+01 0.  1.
<mgrwt>
<rscale>  0 0.28150746E+03</rscale>
<asrwt>0</asrwt>
<pdfrwt beam="1">  1       21 0.50331057E-02 0.28150746E+03</pdfrwt>
<pdfrwt beam="2">  1       21 0.93165917E-01 0.28150746E+03</pdfrwt>
<totfact> 0.25148450E+05</totfact>
</mgrwt>
</event>
<event>
 8    1  0.4760912E-006  0.2653028E+03  0.7546771E-02  0.1103998E+00
         21   -1    0    0  504  503  0.00000000000E+00  0.00000000000E+00  0.37652659665E+03  0.37652659665E+03  0.00000000000E+00 0.  1.
         21   -1    0    0  503  504 -0.00000000000E+00 -0.00000000000E+00 -0.46733481512E+02  0.46733481512E+02  0.00000000000E+00 0.  1.
         25    2    1    2    0    0 -0.40787482177E+02 -0.50865708189E+01  0.13816569127E+03  0.19080231529E+03  0.12500509338E+03 0.  0.
         25    2    1    2    0    0  0.40787482177E+02  0.50865708189E+01  0.19162742387E+03  0.23245776287E+03  0.12500420008E+03 0.  0.
          5    1    3    3  501    0 -0.22588699178E+02 -0.28768410504E+02 -0.11094800951E+02  0.38510458082E+02  0.47000000000E+01 0.  1.
         -5    1    3    3    0  501 -0.18198782998E+02  0.23681839685E+02  0.14926049222E+03  0.15229185721E+03  0.47000000000E+01 0.  1.
          5    1    4    4  502    0  0.34285261781E+02 -0.62703407312E+01 -0.48382529396E+01  0.35500634357E+02  0.47000000000E+01 0.  1.
         -5    1    4    4    0  502  0.65022203959E+01  0.11356911550E+02  0.19646567680E+03  0.19695712851E+03  0.47000000000E+01 0.  1.
<mgrwt>
<rscale>  0 0.26530284E+03</rscale>
<asrwt>0</asrwt>
<pdfrwt beam="1">  1       21 0.57927167E-01 0.26530284E+03</pdfrwt>
<pdfrwt beam="2">  1       21 0.71897666E-02 0.26530284E+03</pdfrwt>
<totfact> 0.39695568E+05</totfact>
</mgrwt>
</event>
<event>
 8    1  0.4760912E-006  0.3158667E+03  0.7546771E-02  0.1077567E+00
         21   -1    0    0  504  503  0.00000000000E+00  0.00000000000E+00  0.77019982665E+03  0.77019982665E+03  0.00000000000E+00 0.  1.
         21   -1    0    0  503  504 -0.00000000000E+00 -0.00000000000E+00 -0.32385022469E+02  0.32385022469E+02  0.00000000000E+00 0.  1.
         25    2    1    2    0    0  0.87537195596E+02  0.66685234695E+01  0.26695321582E+03  0.30756614017E+03  0.12500272527E+03 0.  0.
         25    2    1    2    0    0 -0.87537195596E+02 -0.66685234695E+01  0.47086158837E+03  0.49501870895E+03  0.12500262796E+03 0.  0.
          5    1    3    3  501    0  0.39212039831E+02  0.60828310323E+02  0.85735885641E+02  0.11229603506E+03  0.47000000000E+01 0. -1.
         -5    1    3    3    0  501  0.48325155765E+02 -0.54159786854E+02  0.18121733018E+03  0.19527010511E+03  0.47000000000E+01 0. -1.
          5    1    4    4  502    0 -0.95485324117E+02  0.25428542076E+02  0.43461306135E+03  0.44572935844E+03  0.47000000000E+01 0.  1.
         -5    1    4    4    0  502  0.79481285211E+01 -0.32097065545E+02  0.36248527015E+02  0.49289350517E+02  0.47000000000E+01 0.  1.
<mgrwt>
<rscale>  0 0.31586667E+03</rscale>
<asrwt>0</asrwt>
<pdfrwt beam="1">  1       21 0.11849227E+00 0.31586667E+03</pdfrwt>
<pdfrwt beam="2">  1       21 0.49823117E-02 0.31586667E+03</pdfrwt>
<totfact> 0.14148120E+05</totfact>
</mgrwt>
</event>
<event>
 8    1  0.4760912E-006  0.3461291E+03  0.7546771E-02  0.1064215E+00
         21   -1    0    0  504  503  0.00000000000E+00  0.00000000000E+00  0.26280822676E+03  0.26280822676E+03  0.00000000000E+00 0. -1.
         21   -1    0    0  503  504 -0.00000000000E+00 -0.00000000000E+00 -0.11396648495E+03  0.11396648495E+03  0.00000000000E+00 0. -1.
         25    2    1    2    0    0  0.11699505011E+03 -0.18934276668E+02  0.56191973066E+02  0.18118483468E+03  0.12499623154E+03 0.  0.
         25    2    1    2    0    0 -0.11699505011E+03  0.18934276668E+02  0.92649768743E+02  0.19558987702E+03  0.12500028705E+03 0.  0.
          5    1    3    3  501    0  0.55296489977E+02 -0.61972768694E+02 -0.60859421798E+01  0.83411357474E+02  0.47000000000E+01 0.  1.
         -5    1    3    3    0  501  0.61698560134E+02  0.43038492026E+02  0.62277915246E+02  0.97773477211E+02  0.47000000000E+01 0.  1.
          5    1    4    4  502    0 -0.14589303284E+02  0.99326321744E+01  0.90848296217E+02  0.92666109650E+02  0.47000000000E+01 0. -1.
         -5    1    4    4    0  502 -0.10240574683E+03  0.90016444939E+01  0.18014725259E+01  0.10292376737E+03  0.47000000000E+01 0. -1.
<mgrwt>
<rscale>  0 0.34612905E+03</rscale>
<asrwt>0</asrwt>
<pdfrwt beam="1">  1       21 0.40432035E-01 0.34612905E+03</pdfrwt>
<pdfrwt beam="2">  1       21 0.17533305E-01 0.34612905E+03</pdfrwt>
<totfact> 0.16674551E+05</totfact>
</mgrwt>
</event>
<event>
 8    1  0.4760912E-006  0.3809441E+03  0.7546771E-02  0.1050585E+00
         21   -1    0    0  504  503  0.00000000000E+00  0.00000000000E+00  0.85773889528E+03  0.85773889528E+03  0.00000000000E+00 0.  1.
         21   -1    0    0  503  504 -0.00000000000E+00 -0.00000000000E+00 -0.42296782323E+02  0.42296782323E+02  0.00000000000E+00 0.  1.
         25    2    1    2    0    0  0.11863177941E+03  0.80174512143E+02  0.37843025782E+03  0.42348082298E+03  0.12500038364E+03 0.  0.
         25    2    1    2    0    0 -0.11863177941E+03 -0.80174512143E+02  0.43701185513E+03  0.47655485463E+03  0.12499486573E+03 0.  0.
          5    1    3    3  501    0  0.11350829544E+02 -0.24941816954E+02  0.13161581326E+03  0.13452043660E+03  0.47000000000E+01 0. -1.
         -5    1    3    3    0  501  0.10728094986E+03  0.10511632910E+03  0.24681444457E+03  0.28896038637E+03  0.47000000000E+01 0. -1.
          5    1    4    4  502    0 -0.73770272868E+02 -0.10274021819E+03  0.37955091955E+03  0.40009823310E+03  0.47000000000E+01 0. -1.
         -5    1    4    4    0  502 -0.44861506540E+02  0.22565706044E+02  0.57460935580E+02  0.76456621531E+02  0.47000000000E+01 0. -1.
<mgrwt>
<rscale>  0 0.38094407E+03</rscale>
<asrwt>0</asrwt>
<pdfrwt beam="1">  1       21 0.13195982E+00 0.38094407E+03</pdfrwt>
<pdfrwt beam="2">  1       21 0.65071979E-02 0.38094407E+03</pdfrwt>
<totfact> 0.66571271E+04</totfact>
</mgrwt>
</event>
<event>
 8    1  0.4760912E-006  0.3498249E+03  0.7546771E-02  0.1062687E+00
         21   -1    0    0  504  503  0.00000000000E+00  0.00000000000E+00  0.28258136090E+03  0.28258136090E+03  0.00000000000E+00 0. -1.
         21   -1    0    0  503  504 -0.00000000000E+00 -0.00000000000E+00 -0.10826744523E+03  0.10826744523E+03  0.00000000000E+00 0. -1.
         25    2    1    2    0    0  0.82352288606E+01 -0.10851944506E+03  0.24684238235E+02  0.16757278345E+03  0.12500814848E+03 0.  0.
         25    2    1    2    0    0 -0.82352288606E+01  0.10851944506E+03  0.14962967744E+03  0.22327602267E+03  0.12497540949E+03 0.  0.
          5    1    3    3  501    0 -0.11837483974E+02 -0.84426278916E+02 -0.40939752508E+02  0.94689365474E+02  0.47000000000E+01 0.  1.
         -5    1    3    3    0  501  0.20072712834E+02 -0.24093166146E+02  0.65623990743E+02  0.72883417981E+02  0.47000000000E+01 0.  1.
          5    1    4    4  502    0  0.13393441201E+02  0.95620388980E+02  0.30415195822E+02  0.10134010654E+03  0.47000000000E+01 0. -1.
         -5    1    4    4    0  502 -0.21628670062E+02  0.12899056082E+02  0.11921448161E+03  0.12193591613E+03  0.47000000000E+01 0. -1.
<mgrwt>
<rscale>  0 0.34982488E+03</rscale>
<asrwt>0</asrwt>
<pdfrwt beam="1">  1       21 0.43474055E-01 0.34982488E+03</pdfrwt>
<pdfrwt beam="2">  1       21 0.16656530E-01 0.34982488E+03</pdfrwt>
<totfact> 0.15787104E+05</totfact>
</mgrwt>
</event>
<event>
 8    1  0.4760912E-006  0.2963666E+03  0.7546771E-02  0.1087071E+00
         21   -1    0    0  504  503  0.00000000000E+00  0.00000000000E+00  0.13981242398E+03  0.13981242398E+03  0.00000000000E+00 0.  1.
         21   -1    0    0  503  504 -0.00000000000E+00 -0.00000000000E+00 -0.15705540729E+03  0.15705540729E+03  0.00000000000E+00 0.  1.
         25    2    1    2    0    0  0.11407713822E+02  0.69375754784E+02  0.28726026577E+02  0.14626503143E+03  0.12500057412E+03 0.  0.
         25    2    1    2    0    0 -0.11407713822E+02 -0.69375754784E+02 -0.45969009889E+02  0.15060279983E+03  0.12499968864E+03 0.  0.
          5    1    3    3  501    0 -0.51369003515E+02  0.89685633760E+01  0.27207948514E+02  0.59004848220E+02  0.47000000000E+01 0. -1.
         -5    1    3    3    0  501  0.62776717337E+02  0.60407191408E+02  0.15180780625E+01  0.87260183213E+02  0.47000000000E+01 0. -1.
          5    1    4    4  502    0 -0.16263534184E+02 -0.10106098581E+03 -0.55889636082E+02  0.11672003606E+03  0.47000000000E+01 0.  1.
         -5    1    4    4    0  502  0.48558203613E+01  0.31685231027E+02  0.99206261926E+01  0.33882763769E+02  0.47000000000E+01 0.  1.
<mgrwt>
<rscale>  0 0.29636665E+03</rscale>
<asrwt>0</asrwt>
<pdfrwt beam="1">  1       21 0.21509604E-01 0.29636665E+03</pdfrwt>
<pdfrwt beam="2">  1       21 0.24162370E-01 0.29636665E+03</pdfrwt>
<totfact> 0.31801591E+05</totfact>
</mgrwt>
</event>
<event>
 8    1  0.4760912E-006  0.3583967E+03  0.7546771E-02  0.1059221E+00
         21   -1    0    0  504  503  0.00000000000E+00  0.00000000000E+00  0.58475712690E+02  0.58475712690E+02  0.00000000000E+00 0.  1.
         21   -1    0    0  503  504 -0.00000000000E+00 -0.00000000000E+00 -0.54915181972E+03  0.54915181972E+03  0.00000000000E+00 0.  1.
         25    2    1    2    0    0 -0.10223437907E+03  0.32042244365E+02 -0.12534081141E+03  0.20691561121E+03  0.12500070988E+03 0.  0.
         25    2    1    2    0    0  0.10223437907E+03 -0.32042244365E+02 -0.36533529563E+03  0.40071192120E+03  0.12498636674E+03 0.  0.
          5    1    3    3  501    0 -0.38124926544E+02  0.44466063224E+02 -0.12857357764E+03  0.14136476106E+03  0.47000000000E+01 0.  1.
         -5    1    3    3    0  501 -0.64109452529E+02 -0.12423818859E+02  0.32327662298E+01  0.65550850156E+02  0.47000000000E+01 0.  1.
          5    1    4    4  502    0 -0.24889060044E+02 -0.24722593290E+02 -0.57132117512E+02  0.67207445869E+02  0.47000000000E+01 0. -1.
         -5    1    4    4    0  502  0.12712343912E+03 -0.73196510753E+01 -0.30820317812E+03  0.33350447533E+03  0.47000000000E+01 0. -1.
<mgrwt>
<rscale>  0 0.35839667E+03</rscale>
<asrwt>0</asrwt>
<pdfrwt beam="1">  1       21 0.89962637E-02 0.35839667E+03</pdfrwt>
<pdfrwt beam="2">  1       21 0.84484893E-01 0.35839667E+03</pdfrwt>
<totfact> 0.11284003E+05</totfact>
</mgrwt>
</event>
<event>
 8    1  0.4760912E-006  0.2990048E+03  0.7546771E-02  0.1085739E+00
         21   -1    0    0  504  503  0.00000000000E+00  0.00000000000E+00  0.18802679063E+03  0.18802679063E+03  0.00000000000E+00 0.  1.
         21   -1    0    0  503  504 -0.00000000000E+00 -0.00000000000E+00 -0.11887119237E+03  0.11887119237E+03  0.00000000000E+00 0.  1.
         25    2    1    2    0    0 -0.18949754304E+02 -0.62770661838E+02  0.85137902960E+02  0.16484195851E+03  0.12500063836E+03 0.  0.
         25    2    1    2    0    0  0.18949754304E+02  0.62770661838E+02 -0.15982304701E+02  0.14205602448E+03  0.12500092341E+03 0.  0.
          5    1    3    3  501    0  0.28221927609E+02 -0.84128813399E+02  0.48490848812E+02  0.10123036531E+03  0.47000000000E+01 0. -1.
         -5    1    3    3    0  501 -0.47171681913E+02  0.21358151560E+02  0.36647054147E+02  0.63611593206E+02  0.47000000000E+01 0. -1.
          5    1    4    4  502    0  0.71000635051E+02  0.30798322376E+02 -0.21723195846E+02  0.80520892175E+02  0.47000000000E+01 0. -1.
         -5    1    4    4    0  502 -0.52050880747E+02  0.31972339462E+02  0.57408911447E+01  0.61535132309E+02  0.47000000000E+01 0. -1.
<mgrwt>
<rscale>  0 0.29900481E+03</rscale>
<asrwt>0</asrwt>
<pdfrwt beam="1">  1       21 0.28927198E-01 0.29900481E+03</pdfrwt>
<pdfrwt beam="2">  1       21 0.18287876E-01 0.29900481E+03</pdfrwt>
<totfact> 0.30435438E+05</totfact>
</mgrwt>
</event>
<event>
 8    1  0.4760912E-006  0.3732800E+03  0.7546771E-02  0.1053446E+00
         21   -1    0    0  504  503  0.00000000000E+00  0.00000000000E+00  0.59357284702E+02  0.59357284702E+02  0.00000000000E+00 0. -1.
         21   -1    0    0  503  504 -0.00000000000E+00 -0.00000000000E+00 -0.58686135758E+03  0.58686135758E+03  0.00000000000E+00 0. -1.
         25    2    1    2    0    0  0.61527443778E+02  0.63743057861E+02 -0.79229157825E+02  0.17248398909E+03  0.12499865310E+03 0.  0.
         25    2    1    2    0    0 -0.61527443778E+02 -0.63743057861E+02 -0.44827491505E+03  0.47373465320E+03  0.12500127363E+03 0.  0.
          5    1    3    3  501    0  0.79587258083E+02  0.27705014996E+02 -0.10615328773E+01  0.84409219621E+02  0.47000000000E+01 0.  1.
         -5    1    3    3    0  501 -0.18059814305E+02  0.36038042866E+02 -0.78167624948E+02  0.88074769465E+02  0.47000000000E+01 0.  1.
          5    1    4    4  502    0 -0.96727772903E+02 -0.58635321592E+02 -0.38134939688E+03  0.39779871228E+03  0.47000000000E+01 0.  1.
         -5    1    4    4    0  502  0.35200329125E+02 -0.51077362691E+01 -0.66925518172E+02  0.75935940916E+02  0.47000000000E+01 0.  1.
<mgrwt>
<rscale>  0 0.37328004E+03</rscale>
<asrwt>0</asrwt>
<pdfrwt beam="1">  1       21 0.91318902E-02 0.37328004E+03</pdfrwt>
<pdfrwt beam="2">  1       21 0.90286361E-01 0.37328004E+03</pdfrwt>
<totfact> 0.93724285E+04</totfact>
</mgrwt>
</event>
<event>
 8    1  0.4760912E-006  0.3795593E+03  0.7546771E-02  0.1051097E+00
         21   -1    0    0  504  503  0.00000000000E+00  0.00000000000E+00  0.31850335863E+03  0.31850335863E+03  0.00000000000E+00 0.  1.
         21   -1    0    0  503  504 -0.00000000000E+00 -0.00000000000E+00 -0.11307985947E+03  0.11307985947E+03  0.00000000000E+00 0.  1.
         25    2    1    2    0    0  0.26639427729E+02  0.13978616645E+03  0.89198812866E+02  0.20935959060E+03  0.12500071407E+03 0.  0.
         25    2    1    2    0    0 -0.26639427729E+02 -0.13978616645E+03  0.11622468629E+03  0.22222362749E+03  0.12500132588E+03 0.  0.
          5    1    3    3  501    0 -0.47636333067E+02  0.29200031942E+02  0.24495044453E+02  0.61187901551E+02  0.47000000000E+01 0.  1.
         -5    1    3    3    0  501  0.74275760796E+02  0.11058613451E+03  0.64703768413E+02  0.14817168905E+03  0.47000000000E+01 0.  1.
          5    1    4    4  502    0 -0.50897184027E+02 -0.20542996895E+02  0.76223086723E+02  0.94045664509E+02  0.47000000000E+01 0. -1.
         -5    1    4    4    0  502  0.24257756298E+02 -0.11924316956E+03  0.40001599572E+02  0.12817796299E+03  0.47000000000E+01 0. -1.
<mgrwt>
<rscale>  0 0.37955930E+03</rscale>
<asrwt>0</asrwt>
<pdfrwt beam="1">  1       21 0.49000516E-01 0.37955930E+03</pdfrwt>
<pdfrwt beam="2">  1       21 0.17396902E-01 0.37955930E+03</pdfrwt>
<totfact> 0.11260791E+05</totfact>
</mgrwt>
</event>
<event>
 8    1  0.4760912E-006  0.3096078E+03  0.7546771E-02  0.1080534E+00
         21   -1    0    0  504  503  0.00000000000E+00  0.00000000000E+00  0.16755643783E+03  0.16755643783E+03  0.00000000000E+00 0. -1.
         21   -1    0    0  503  504 -0.00000000000E+00 -0.00000000000E+00 -0.14302194669E+03  0.14302194669E+03  0.00000000000E+00 0. -1.
         25    2    1    2    0    0  0.41899593331E+02  0.79236087961E+02  0.29774437879E+02  0.15666942935E+03  0.12499943754E+03 0.  0.
         25    2    1    2    0    0 -0.41899593331E+02 -0.79236087961E+02 -0.52399467413E+01  0.15390895518E+03  0.12500630338E+03 0.  0.
          5    1    3    3  501    0  0.62607474065E+02  0.33314568270E+02 -0.31043503011E+02  0.77558657460E+02  0.47000000000E+01 0. -1.
         -5    1    3    3    0  501 -0.20707880734E+02  0.45921519691E+02  0.60817940891E+02  0.79110771892E+02  0.47000000000E+01 0. -1.
          5    1    4    4  502    0 -0.54051610191E+01 -0.75907850623E+02 -0.53490966302E+02  0.93137484548E+02  0.47000000000E+01 0.  1.
         -5    1    4    4    0  502 -0.36494432312E+02 -0.33282373374E+01  0.48251019561E+02  0.60771470627E+02  0.47000000000E+01 0.  1.
<mgrwt>
<rscale>  0 0.30960780E+03</rscale>
<asrwt>0</asrwt>
<pdfrwt beam="1">  1       21 0.25777914E-01 0.30960780E+03</pdfrwt>
<pdfrwt beam="2">  1       21 0.22003376E-01 0.30960780E+03</pdfrwt>
<totfact> 0.26814276E+05</totfact>
</mgrwt>
</event>
<event>
 8    1  0.4760912E-006  0.3059331E+03  0.7546771E-02  0.1082312E+00
         21   -1    0    0  504  503  0.00000000000E+00  0.00000000000E+00  0.61965095394E+03  0.61965095394E+03  0.00000000000E+00 0. -1.
         21   -1    0    0  503  504 -0.00000000000E+00 -0.00000000000E+00 -0.37761194659E+02  0.37761194659E+02  0.00000000000E+00 0. -1.
         25    2    1    2    0    0  0.28241237341E+02 -0.14368956804E+01  0.11146011007E+03  0.16983636413E+03  0.12498560832E+03 0.  0.
         25    2    1    2    0    0 -0.28241237341E+02  0.14368956804E+01  0.47042964921E+03  0.48757578447E+03  0.12500583423E+03 0.  0.
          5    1    3    3  501    0  0.54544820698E+02 -0.99014447408E+01  0.75721383114E+00  0.55640268204E+02  0.47000000000E+01 0. -1.
         -5    1    3    3    0  501 -0.26303583357E+02  0.84645490604E+01  0.11070289624E+03  0.11419609593E+03  0.47000000000E+01 0. -1.
          5    1    4    4  502    0 -0.47849687788E+02  0.25547659455E+02  0.85491813723E+02  0.10135687317E+03  0.47000000000E+01 0. -1.
         -5    1    4    4    0  502  0.19608450447E+02 -0.24110763775E+02  0.38493783548E+03  0.38621891130E+03  0.47000000000E+01 0. -1.
<mgrwt>
<rscale>  0 0.30593307E+03</rscale>
<asrwt>0</asrwt>
<pdfrwt beam="1">  1       21 0.95330908E-01 0.30593307E+03</pdfrwt>
<pdfrwt beam="2">  1       21 0.58094150E-02 0.30593307E+03</pdfrwt>
<totfact> 0.18506622E+05</totfact>
</mgrwt>
</event>
<event>
 8    1  0.4760912E-006  0.3183384E+03  0.7546771E-02  0.1076417E+00
         21   -1    0    0  504  503  0.00000000000E+00  0.00000000000E+00  0.99395382821E+02  0.99395382821E+02  0.00000000000E+00 0. -1.
         21   -1    0    0  503  504 -0.00000000000E+00 -0.00000000000E+00 -0.25488943266E+03  0.25488943266E+03  0.00000000000E+00 0. -1.
         25    2    1    2    0    0 -0.79804638908E+02 -0.29379396325E+01 -0.14195201505E+03  0.20531625071E+03  0.12500790514E+03 0.  0.
         25    2    1    2    0    0  0.79804638908E+02  0.29379396325E+01 -0.13542034792E+02  0.14896856478E+03  0.12502333664E+03 0.  0.
          5    1    3    3  501    0  0.29816854921E+02 -0.31795498125E+01 -0.63658828579E+02  0.70524398830E+02  0.47000000000E+01 0. -1.
         -5    1    3    3    0  501 -0.10962149383E+03  0.24161018002E+00 -0.78293186470E+02  0.13479185188E+03  0.47000000000E+01 0. -1.
          5    1    4    4  502    0  0.10819157792E+03  0.42348827784E+01 -0.34062925405E+02  0.11360336550E+03  0.47000000000E+01 0. -1.
         -5    1    4    4    0  502 -0.28386939017E+02 -0.12969431459E+01  0.20520890613E+02  0.35365199276E+02  0.47000000000E+01 0. -1.
<mgrwt>
<rscale>  0 0.31833839E+03</rscale>
<asrwt>0</asrwt>
<pdfrwt beam="1">  1       21 0.15291597E-01 0.31833839E+03</pdfrwt>
<pdfrwt beam="2">  1       21 0.39213759E-01 0.31833839E+03</pdfrwt>
<totfact> 0.23014998E+05</totfact>
</mgrwt>
</event>
<event>
 8    1  0.4760912E-006  0.2886335E+03  0.7546771E-02  0.1091065E+00
         21   -1    0    0  504  503  0.00000000000E+00  0.00000000000E+00  0.19224025731E+03  0.19224025731E+03  0.00000000000E+00 0. -1.
         21   -1    0    0  503  504 -0.00000000000E+00 -0.00000000000E+00 -0.10834007457E+03  0.10834007457E+03  0.00000000000E+00 0. -1.
         25    2    1    2    0    0  0.65789013326E+02  0.25192558823E+02  0.57916813240E+02  0.15477138853E+03  0.12504785546E+03 0.  0.
         25    2    1    2    0    0 -0.65789013326E+02 -0.25192558823E+02  0.25983369504E+02  0.14580894336E+03  0.12498901223E+03 0.  0.
          5    1    3    3  501    0  0.95792846988E+02  0.45796689144E+00  0.15704060465E+02  0.97186350805E+02  0.47000000000E+01 0.  1.
         -5    1    3    3    0  501 -0.30003833661E+02  0.24734591931E+02  0.42212752775E+02  0.57585037720E+02  0.47000000000E+01 0.  1.
          5    1    4    4  502    0  0.24774165710E+02 -0.43268752070E+02  0.17077675410E+02  0.52912013662E+02  0.47000000000E+01 0.  1.
         -5    1    4    4    0  502 -0.90563179036E+02  0.18076193247E+02  0.89056940936E+01  0.92896929695E+02  0.47000000000E+01 0.  1.
<mgrwt>
<rscale>  0 0.28863350E+03</rscale>
<asrwt>0</asrwt>
<pdfrwt beam="1">  1       21 0.29575424E-01 0.28863350E+03</pdfrwt>
<pdfrwt beam="2">  1       21 0.16667704E-01 0.28863350E+03</pdfrwt>
<totfact> 0.34702494E+05</totfact>
</mgrwt>
</event>
<event>
 8    1  0.4760912E-006  0.3037453E+03  0.7546771E-02  0.1083383E+00
         21   -1    0    0  504  503  0.00000000000E+00  0.00000000000E+00  0.17082341964E+02  0.17082341964E+02  0.00000000000E+00 0. -1.
         21   -1    0    0  503  504 -0.00000000000E+00 -0.00000000000E+00 -0.13502427245E+04  0.13502427245E+04  0.00000000000E+00 0. -1.
         25    2    1    2    0    0 -0.21859954691E+02 -0.75499066085E+02 -0.82642219504E+03  0.83951258398E+03  0.12501906902E+03 0.  0.
         25    2    1    2    0    0  0.21859954691E+02  0.75499066085E+02 -0.50673818755E+03  0.52781248253E+03  0.12499783756E+03 0.  0.
          5    1    3    3  501    0  0.25178189079E+02 -0.25365021774E+02 -0.59976778225E+02  0.69975920581E+02  0.47000000000E+01 0. -1.
         -5    1    3    3    0  501 -0.47038143770E+02 -0.50134044311E+02 -0.76644541681E+03  0.76953666340E+03  0.47000000000E+01 0. -1.
          5    1    4    4  502    0  0.70313061439E+02  0.39548707403E+02 -0.21097418808E+03  0.22592083768E+03  0.47000000000E+01 0.  1.
         -5    1    4    4    0  502 -0.48453106748E+02  0.35950358682E+02 -0.29576399947E+03  0.30189164484E+03  0.47000000000E+01 0.  1.
<mgrwt>
<rscale>  0 0.30374534E+03</rscale>
<asrwt>0</asrwt>
<pdfrwt beam="1">  1       21 0.26280525E-02 0.30374534E+03</pdfrwt>
<pdfrwt beam="2">  1       21 0.20772966E+00 0.30374534E+03</pdfrwt>
<totfact> 0.89309108E+04</totfact>
</mgrwt>
</event>
<event>
 8    1  0.4760912E-006  0.3248867E+03  0.7546771E-02  0.1073422E+00
         21   -1    0    0  504  503  0.00000000000E+00  0.00000000000E+00  0.11070410016E+04  0.11070410016E+04  0.00000000000E+00 0.  1.
         21   -1    0    0  503  504 -0.00000000000E+00 -0.00000000000E+00 -0.23836366784E+02  0.23836366784E+02  0.00000000000E+00 0.  1.
         25    2    1    2    0    0  0.96159916047E+01  0.10259701093E+03  0.58346986892E+03  0.60554215322E+03  0.12500238976E+03 0.  0.
         25    2    1    2    0    0 -0.96159916047E+01 -0.10259701093E+03  0.49973476589E+03  0.52533521515E+03  0.12499455228E+03 0.  0.
          5    1    3    3  501    0  0.45636894562E+02  0.63766054075E+02  0.50295940603E+03  0.50905705958E+03  0.47000000000E+01 0. -1.
         -5    1    3    3    0  501 -0.36020902957E+02  0.38830956851E+02  0.80510462897E+02  0.96485093645E+02  0.47000000000E+01 0. -1.
          5    1    4    4  502    0 -0.44953332214E+02 -0.79941496609E+02  0.45352700218E+03  0.46273132233E+03  0.47000000000E+01 0.  1.
         -5    1    4    4    0  502  0.35337340609E+02 -0.22655514317E+02  0.46207763710E+02  0.62603892829E+02  0.47000000000E+01 0.  1.
<mgrwt>
<rscale>  0 0.32488666E+03</rscale>
<asrwt>0</asrwt>
<pdfrwt beam="1">  1       21 0.17031396E+00 0.32488666E+03</pdfrwt>
<pdfrwt beam="2">  1       21 0.36671342E-02 0.32488666E+03</pdfrwt>
<totfact> 0.90954482E+04</totfact>
</mgrwt>
</event>
<event>
 8    1  0.4760912E-006  0.2870427E+03  0.7546771E-02  0.1091903E+00
         21   -1    0    0  504  503  0.00000000000E+00  0.00000000000E+00  0.26411679023E+03  0.26411679023E+03  0.00000000000E+00 0.  1.
         21   -1    0    0  503  504 -0.00000000000E+00 -0.00000000000E+00 -0.77989649367E+02  0.77989649367E+02  0.00000000000E+00 0.  1.
         25    2    1    2    0    0  0.26808141941E+02 -0.41939594128E+02  0.33518515173E+02  0.13865403139E+03  0.12499537404E+03 0.  0.
         25    2    1    2    0    0 -0.26808141941E+02  0.41939594128E+02  0.15260862569E+03  0.20345240821E+03  0.12500353492E+03 0.  0.
          5    1    3    3  501    0  0.80575997783E+01  0.38054352010E+02  0.40138924290E+02  0.56091727235E+02  0.47000000000E+01 0. -1.
         -5    1    3    3    0  501  0.18750542163E+02 -0.79993946138E+02 -0.66204091167E+01  0.82562304153E+02  0.47000000000E+01 0. -1.
          5    1    4    4  502    0 -0.14445384733E+02 -0.43205254010E+02  0.34919661124E+02  0.57591977281E+02  0.47000000000E+01 0.  1.
         -5    1    4    4    0  502 -0.12362757208E+02  0.85144848138E+02  0.11768896457E+03  0.14586043093E+03  0.47000000000E+01 0.  1.
<mgrwt>
<rscale>  0 0.28704269E+03</rscale>
<asrwt>0</asrwt>
<pdfrwt beam="1">  1       21 0.40633352E-01 0.28704269E+03</pdfrwt>
<pdfrwt beam="2">  1       21 0.11998408E-01 0.28704269E+03</pdfrwt>
<totfact> 0.33525206E+05</totfact>
</mgrwt>
</event>
<event>
 8    1  0.4760912E-006  0.2910680E+03  0.7546771E-02  0.1089793E+00
         21   -1    0    0  504  503  0.00000000000E+00  0.00000000000E+00  0.64552649629E+02  0.64552649629E+02  0.00000000000E+00 0.  1.
         21   -1    0    0  503  504 -0.00000000000E+00 -0.00000000000E+00 -0.32810660519E+03  0.32810660519E+03  0.00000000000E+00 0.  1.
         25    2    1    2    0    0  0.53255415560E+02 -0.47170383980E+02 -0.10177681204E+03  0.17619265589E+03  0.12499659239E+03 0.  0.
         25    2    1    2    0    0 -0.53255415560E+02  0.47170383980E+02 -0.16177714352E+03  0.21646659893E+03  0.12499903949E+03 0.  0.
          5    1    3    3  501    0  0.83025855329E+02 -0.67276384606E+02 -0.68641025131E+02  0.12709478711E+03  0.47000000000E+01 0. -1.
         -5    1    3    3    0  501 -0.29770439769E+02  0.20106000625E+02 -0.33135786909E+02  0.49097868785E+02  0.47000000000E+01 0. -1.
          5    1    4    4  502    0  0.23112732342E+02  0.58717382423E+02 -0.95621143779E+02  0.11466221057E+03  0.47000000000E+01 0. -1.
         -5    1    4    4    0  502 -0.76368147901E+02 -0.11546998443E+02 -0.66155999741E+02  0.10180438836E+03  0.47000000000E+01 0. -1.
<mgrwt>
<rscale>  0 0.29106804E+03</rscale>
<asrwt>0</asrwt>
<pdfrwt beam="1">  1       21 0.99311769E-02 0.29106804E+03</pdfrwt>
<pdfrwt beam="2">  1       21 0.50477939E-01 0.29106804E+03</pdfrwt>
<totfact> 0.29970394E+05</totfact>
</mgrwt>
</event>
<event>
 8    1  0.4760912E-006  0.2817526E+03  0.7546771E-02  0.1094736E+00
         21   -1    0    0  504  503  0.00000000000E+00  0.00000000000E+00  0.79946124704E+02  0.79946124704E+02  0.00000000000E+00 0.  1.
         21   -1    0    0  503  504 -0.00000000000E+00 -0.00000000000E+00 -0.24824383584E+03  0.24824383584E+03  0.00000000000E+00 0.  1.
         25    2    1    2    0    0  0.92231036860E+00  0.81208858849E+01 -0.90708723358E+01  0.12559051888E+03  0.12499559297E+03 0.  0.
         25    2    1    2    0    0 -0.92231036860E+00 -0.81208858849E+01 -0.15922683880E+03  0.20259944167E+03  0.12500619235E+03 0.  0.
          5    1    3    3  501    0  0.69204241086E+00  0.65955848487E+02  0.34965428238E+01  0.66219096068E+02  0.47000000000E+01 0. -1.
         -5    1    3    3    0  501  0.23026795774E+00 -0.57834962602E+02 -0.12567415160E+02  0.59371422809E+02  0.47000000000E+01 0. -1.
          5    1    4    4  502    0  0.57776846281E+02  0.63769199239E+00 -0.43569693563E+02  0.72518816968E+02  0.47000000000E+01 0. -1.
         -5    1    4    4    0  502 -0.58699156649E+02 -0.87585778773E+01 -0.11565714523E+03  0.13008062470E+03  0.47000000000E+01 0. -1.
<mgrwt>
<rscale>  0 0.28175261E+03</rscale>
<asrwt>0</asrwt>
<pdfrwt beam="1">  1       21 0.12299404E-01 0.28175261E+03</pdfrwt>
<pdfrwt beam="2">  1       21 0.38191359E-01 0.28175261E+03</pdfrwt>
<totfact> 0.36403824E+05</totfact>
</mgrwt>
</event>
<event>
 8    1  0.4760912E-006  0.3379595E+03  0.7546771E-02  0.1067668E+00
         21   -1    0    0  504  503  0.00000000000E+00  0.00000000000E+00  0.43248772534E+03  0.43248772534E+03  0.00000000000E+00 0.  1.
         21   -1    0    0  503  504 -0.00000000000E+00 -0.00000000000E+00 -0.66023024462E+02  0.66023024462E+02  0.00000000000E+00 0.  1.
         25    2    1    2    0    0 -0.52580598423E+02 -0.18980583702E+02  0.32928326784E+03  0.35662019250E+03  0.12500203733E+03 0.  0.
         25    2    1    2    0    0  0.52580598423E+02  0.18980583702E+02  0.37181433043E+02  0.14189055730E+03  0.12500195758E+03 0.  0.
          5    1    3    3  501    0 -0.60515151772E+02  0.15914508838E+02  0.66734235589E+02  0.91601874354E+02  0.47000000000E+01 0.  1.
         -5    1    3    3    0  501  0.79345533487E+01 -0.34895092540E+02  0.26254903225E+03  0.26501831815E+03  0.47000000000E+01 0.  1.
          5    1    4    4  502    0  0.54805313037E+02  0.54645238542E+02  0.61029466632E+02  0.98673249818E+02  0.47000000000E+01 0. -1.
         -5    1    4    4    0  502 -0.22247146137E+01 -0.35664654840E+02 -0.23848033588E+02  0.43217307482E+02  0.47000000000E+01 0. -1.
<mgrwt>
<rscale>  0 0.33795945E+03</rscale>
<asrwt>0</asrwt>
<pdfrwt beam="1">  1       21 0.66536571E-01 0.33795945E+03</pdfrwt>
<pdfrwt beam="2">  1       21 0.10157389E-01 0.33795945E+03</pdfrwt>
<totfact> 0.15690359E+05</totfact>
</mgrwt>
</event>
<event>
 8    1  0.4760912E-006  0.2736722E+03  0.7546771E-02  0.1099196E+00
         21   -1    0    0  504  503  0.00000000000E+00  0.00000000000E+00  0.46365040110E+03  0.46365040110E+03  0.00000000000E+00 0. -1.
         21   -1    0    0  503  504 -0.00000000000E+00 -0.00000000000E+00 -0.40384136908E+02  0.40384136908E+02  0.00000000000E+00 0. -1.
         25    2    1    2    0    0  0.31277165599E+01 -0.54386682166E+02  0.19051700159E+03  0.23428453300E+03  0.12499928280E+03 0.  0.
         25    2    1    2    0    0 -0.31277165599E+01  0.54386682166E+02  0.23274926261E+03  0.26975000501E+03  0.12500060861E+03 0.  0.
          5    1    3    3  501    0  0.28876576798E+02  0.21585361089E+02  0.11619225599E+02  0.38169109296E+02  0.47000000000E+01 0. -1.
         -5    1    3    3    0  501 -0.25748860239E+02 -0.75972043255E+02  0.17889777599E+03  0.19611542370E+03  0.47000000000E+01 0. -1.
          5    1    4    4  502    0  0.39633959650E+02 -0.12645078745E+01  0.18049525774E+02  0.43821514332E+02  0.47000000000E+01 0. -1.
         -5    1    4    4    0  502 -0.42761676209E+02  0.55651190041E+02  0.21469973683E+03  0.22592849068E+03  0.47000000000E+01 0. -1.
<mgrwt>
<rscale>  0 0.27367222E+03</rscale>
<asrwt>0</asrwt>
<pdfrwt beam="1">  1       21 0.71330827E-01 0.27367222E+03</pdfrwt>
<pdfrwt beam="2">  1       21 0.62129445E-02 0.27367222E+03</pdfrwt>
<totfact> 0.32355489E+05</totfact>
</mgrwt>
</event>
<event>
 8    1  0.4760912E-006  0.3446543E+03  0.7546771E-02  0.1064831E+00
         21   -1    0    0  504  503  0.00000000000E+00  0.00000000000E+00  0.20028554626E+02  0.20028554626E+02  0.00000000000E+00 0.  1.
         21   -1    0    0  503  504 -0.00000000000E+00 -0.00000000000E+00 -0.14827153388E+04  0.14827153388E+04  0.00000000000E+00 0.  1.
         25    2    1    2    0    0  0.61722584941E+02  0.97209542156E+02 -0.85554021349E+03  0.87225867688E+03  0.12500707946E+03 0.  0.
         25    2    1    2    0    0 -0.61722584941E+02 -0.97209542156E+02 -0.60714657073E+03  0.63048521659E+03  0.12500110965E+03 0.  0.
          5    1    3    3  501    0  0.18751804569E+02  0.11967574633E+03 -0.61559009833E+03  0.62741308052E+03  0.47000000000E+01 0. -1.
         -5    1    3    3    0  501  0.42970780372E+02 -0.22466204176E+02 -0.23995011515E+03  0.24484559636E+03  0.47000000000E+01 0. -1.
          5    1    4    4  502    0  0.19349617439E+02 -0.74664026205E+02 -0.38948313880E+03  0.39707471579E+03  0.47000000000E+01 0. -1.
         -5    1    4    4    0  502 -0.81072202379E+02 -0.22545515951E+02 -0.21766343192E+03  0.23341050080E+03  0.47000000000E+01 0. -1.
<mgrwt>
<rscale>  0 0.34465429E+03</rscale>
<asrwt>0</asrwt>
<pdfrwt beam="1">  1       21 0.30813152E-02 0.34465429E+03</pdfrwt>
<pdfrwt beam="2">  1       21 0.22811011E+00 0.34465429E+03</pdfrwt>
<totfact> 0.50044080E+04</totfact>
</mgrwt>
</event>
<event>
 8    1  0.4760912E-006  0.5691104E+03  0.7546771E-02  0.9971649E-01
         21   -1    0    0  504  503  0.00000000000E+00  0.00000000000E+00  0.94322714930E+03  0.94322714930E+03  0.00000000000E+00 0. -1.
         21   -1    0    0  503  504 -0.00000000000E+00 -0.00000000000E+00 -0.85845356084E+02  0.85845356084E+02  0.00000000000E+00 0. -1.
         25    2    1    2    0    0 -0.10115526163E+03 -0.18733560942E+03  0.17285114308E+03  0.30137872799E+03  0.12499841003E+03 0.  0.
         25    2    1    2    0    0  0.10115526163E+03  0.18733560942E+03  0.68453065014E+03  0.72769377739E+03  0.12501601963E+03 0.  0.
          5    1    3    3  501    0 -0.12878686391E+03 -0.13047909584E+03  0.12464664813E+03  0.22174248049E+03  0.47000000000E+01 0.  1.
         -5    1    3    3    0  501  0.27631602284E+02 -0.56856513586E+02  0.48204494950E+02  0.79636247496E+02  0.47000000000E+01 0.  1.
          5    1    4    4  502    0  0.10283218641E+03  0.14154695747E+03  0.36423163432E+03  0.40409995443E+03  0.47000000000E+01 0. -1.
         -5    1    4    4    0  502 -0.16769247842E+01  0.45788651947E+02  0.32029901582E+03  0.32359382296E+03  0.47000000000E+01 0. -1.
<mgrwt>
<rscale>  0 0.56911043E+03</rscale>
<asrwt>0</asrwt>
<pdfrwt beam="1">  1       21 0.14511186E+00 0.56911043E+03</pdfrwt>
<pdfrwt beam="2">  1       21 0.13206979E-01 0.56911043E+03</pdfrwt>
<totfact> 0.13872819E+04</totfact>
</mgrwt>
</event>
<event>
 8    1  0.4760912E-006  0.2702136E+03  0.7546771E-02  0.1101157E+00
         21   -1    0    0  504  503  0.00000000000E+00  0.00000000000E+00  0.73885398379E+03  0.73885398379E+03  0.00000000000E+00 0. -1.
         21   -1    0    0  503  504 -0.00000000000E+00 -0.00000000000E+00 -0.24705613824E+02  0.24705613824E+02  0.00000000000E+00 0. -1.
         25    2    1    2    0    0  0.46927717982E+02  0.19512428176E+02  0.37465166088E+03  0.39822630945E+03  0.12504951408E+03 0.  0.
         25    2    1    2    0    0 -0.46927717982E+02 -0.19512428176E+02  0.33949670908E+03  0.36533328816E+03  0.12500980118E+03 0.  0.
          5    1    3    3  501    0 -0.66163240739E+01 -0.26830197096E+02  0.15301777179E+02  0.31935397372E+02  0.47000000000E+01 0. -1.
         -5    1    3    3    0  501  0.53544042055E+02  0.46342625272E+02  0.35934988370E+03  0.36629091208E+03  0.47000000000E+01 0. -1.
          5    1    4    4  502    0 -0.79197863006E+02 -0.28161980116E+02  0.30756943607E+03  0.31888312378E+03  0.47000000000E+01 0. -1.
         -5    1    4    4    0  502  0.32270145024E+02  0.86495519403E+01  0.31927273013E+02  0.46450164377E+02  0.47000000000E+01 0. -1.
<mgrwt>
<rscale>  0 0.27021355E+03</rscale>
<asrwt>0</asrwt>
<pdfrwt beam="1">  1       21 0.11366983E+00 0.27021355E+03</pdfrwt>
<pdfrwt beam="2">  1       21 0.38008642E-02 0.27021355E+03</pdfrwt>
<totfact> 0.25138951E+05</totfact>
</mgrwt>
</event>
<event>
 8    1  0.4760912E-006  0.3000394E+03  0.7546771E-02  0.1085221E+00
         21   -1    0    0  504  503  0.00000000000E+00  0.00000000000E+00  0.45256263918E+03  0.45256263918E+03  0.00000000000E+00 0. -1.
         21   -1    0    0  503  504 -0.00000000000E+00 -0.00000000000E+00 -0.49729930479E+02  0.49729930479E+02  0.00000000000E+00 0. -1.
         25    2    1    2    0    0  0.48321060616E+02  0.36286441625E+02  0.29655540630E+03  0.32744957551E+03  0.12500593887E+03 0.  0.
         25    2    1    2    0    0 -0.48321060616E+02 -0.36286441625E+02  0.10627730240E+03  0.17484299415E+03  0.12499430728E+03 0.  0.
          5    1    3    3  501    0  0.36440850126E+02  0.23344055096E+02  0.16112291764E+02  0.46417414966E+02  0.47000000000E+01 0. -1.
         -5    1    3    3    0  501  0.11880210490E+02  0.12942386529E+02  0.28044311454E+03  0.28103216055E+03  0.47000000000E+01 0. -1.
          5    1    4    4  502    0 -0.40956184406E+02  0.42680566743E+02  0.47700222493E+02  0.76134361786E+02  0.47000000000E+01 0. -1.
         -5    1    4    4    0  502 -0.73648762097E+01 -0.78967008368E+02  0.58577079907E+02  0.98708632361E+02  0.47000000000E+01 0. -1.
<mgrwt>
<rscale>  0 0.30003939E+03</rscale>
<asrwt>0</asrwt>
<pdfrwt beam="1">  1       21 0.69625018E-01 0.30003939E+03</pdfrwt>
<pdfrwt beam="2">  1       21 0.76507589E-02 0.30003939E+03</pdfrwt>
<totfact> 0.23632313E+05</totfact>
</mgrwt>
</event>
<event>
 8    1  0.4760912E-006  0.2778781E+03  0.7546771E-02  0.1096854E+00
         21   -1    0    0  504  503  0.00000000000E+00  0.00000000000E+00  0.75447875963E+02  0.75447875963E+02  0.00000000000E+00 0. -1.
         21   -1    0    0  503  504 -0.00000000000E+00 -0.00000000000E+00 -0.25585947679E+03  0.25585947679E+03  0.00000000000E+00 0. -1.
         25    2    1    2    0    0 -0.47732255435E+02 -0.21135208423E+02 -0.53359473628E+02  0.14559168544E+03  0.12499856079E+03 0.  0.
         25    2    1    2    0    0  0.47732255435E+02  0.21135208423E+02 -0.12705212720E+03  0.18571566732E+03  0.12499200301E+03 0.  0.
          5    1    3    3  501    0 -0.56030752720E+02 -0.30365021736E+02  0.23129459126E+02  0.67959853405E+02  0.47000000000E+01 0. -1.
         -5    1    3    3    0  501  0.82984972851E+01  0.92298133123E+01 -0.76488932753E+02  0.77631832033E+02  0.47000000000E+01 0. -1.
          5    1    4    4  502    0 -0.78329483605E+00  0.65565537846E+02 -0.41693184518E+02  0.77845134331E+02  0.47000000000E+01 0.  1.
         -5    1    4    4    0  502  0.48515550271E+02 -0.44430329423E+02 -0.85358942686E+02  0.10787053299E+03  0.47000000000E+01 0.  1.
<mgrwt>
<rscale>  0 0.27787806E+03</rscale>
<asrwt>0</asrwt>
<pdfrwt beam="1">  1       21 0.11607365E-01 0.27787806E+03</pdfrwt>
<pdfrwt beam="2">  1       21 0.39362997E-01 0.27787806E+03</pdfrwt>
<totfact> 0.38036646E+05</totfact>
</mgrwt>
</event>
<event>
 8    1  0.4760912E-006  0.3026966E+03  0.7546771E-02  0.1083900E+00
         21   -1    0    0  504  503  0.00000000000E+00  0.00000000000E+00  0.27257187886E+02  0.27257187886E+02  0.00000000000E+00 0. -1.
         21   -1    0    0  503  504 -0.00000000000E+00 -0.00000000000E+00 -0.84037651764E+03  0.84037651764E+03  0.00000000000E+00 0. -1.
         25    2    1    2    0    0 -0.84703584220E+02  0.96067758267E+01 -0.41756973691E+03  0.44413498218E+03  0.12499763954E+03 0.  0.
         25    2    1    2    0    0  0.84703584220E+02 -0.96067758267E+01 -0.39554959284E+03  0.42349872335E+03  0.12499880382E+03 0.  0.
          5    1    3    3  501    0 -0.20945544142E+02 -0.48221859204E+02 -0.80846658235E+02  0.96552243228E+02  0.47000000000E+01 0. -1.
         -5    1    3    3    0  501 -0.63758040077E+02  0.57828635031E+02 -0.33672307867E+03  0.34758273895E+03  0.47000000000E+01 0. -1.
          5    1    4    4  502    0  0.30192689511E+02 -0.12082488089E+02 -0.10386211843E+02  0.34460824349E+02  0.47000000000E+01 0. -1.
         -5    1    4    4    0  502  0.54510894708E+02  0.24757122627E+01 -0.38516338100E+03  0.38903789900E+03  0.47000000000E+01 0. -1.
<mgrwt>
<rscale>  0 0.30269655E+03</rscale>
<asrwt>0</asrwt>
<pdfrwt beam="1">  1       21 0.41934135E-02 0.30269655E+03</pdfrwt>
<pdfrwt beam="2">  1       21 0.12928870E+00 0.30269655E+03</pdfrwt>
<totfact> 0.15270953E+05</totfact>
</mgrwt>
</event>
<event>
 8    1  0.4760912E-006  0.2892763E+03  0.7546771E-02  0.1090728E+00
         21   -1    0    0  504  503  0.00000000000E+00  0.00000000000E+00  0.18256939570E+02  0.18256939570E+02  0.00000000000E+00 0. -1.
         21   -1    0    0  503  504 -0.00000000000E+00 -0.00000000000E+00 -0.11458759736E+04  0.11458759736E+04  0.00000000000E+00 0. -1.
         25    2    1    2    0    0 -0.34081123713E+02 -0.13550220248E+02 -0.81673483717E+03  0.82705747372E+03  0.12499255631E+03 0.  0.
         25    2    1    2    0    0  0.34081123713E+02  0.13550220248E+02 -0.31088419684E+03  0.33707543943E+03  0.12500294620E+03 0.  0.
          5    1    3    3  501    0  0.36178126904E+02 -0.38954703951E+02 -0.41383066567E+03  0.41725799653E+03  0.47000000000E+01 0.  1.
         -5    1    3    3    0  501 -0.70259250617E+02  0.25404483704E+02 -0.40290417150E+03  0.40979947719E+03  0.47000000000E+01 0.  1.
          5    1    4    4  502    0  0.33004772055E+02  0.55376955855E+02 -0.27263323566E+03  0.28019081606E+03  0.47000000000E+01 0.  1.
         -5    1    4    4    0  502  0.10763516582E+01 -0.41826735608E+02 -0.38250961184E+02  0.56884623370E+02  0.47000000000E+01 0.  1.
<mgrwt>
<rscale>  0 0.28927626E+03</rscale>
<asrwt>0</asrwt>
<pdfrwt beam="1">  1       21 0.28087605E-02 0.28927626E+03</pdfrwt>
<pdfrwt beam="2">  1       21 0.17628857E+00 0.28927626E+03</pdfrwt>
<totfact> 0.13058245E+05</totfact>
</mgrwt>
</event>
<event>
 8    1  0.4760912E-006  0.2693864E+03  0.7546771E-02  0.1101631E+00
         21   -1    0    0  504  503  0.00000000000E+00  0.00000000000E+00  0.63357425327E+02  0.63357425327E+02  0.00000000000E+00 0.  1.
         21   -1    0    0  503  504 -0.00000000000E+00 -0.00000000000E+00 -0.28634774865E+03  0.28634774865E+03  0.00000000000E+00 0.  1.
         25    2    1    2    0    0 -0.10599498253E+02  0.42794890029E+02 -0.14260309250E+03  0.19468809345E+03  0.12499623900E+03 0.  0.
         25    2    1    2    0    0  0.10599498253E+02 -0.42794890029E+02 -0.80387230825E+02  0.15501708053E+03  0.12499774559E+03 0.  0.
          5    1    3    3  501    0 -0.64451117385E+02  0.12242851046E+02 -0.98837360440E+02  0.11872130286E+03  0.47000000000E+01 0.  1.
         -5    1    3    3    0  501  0.53851619132E+02  0.30552038983E+02 -0.43765732061E+02  0.75966790586E+02  0.47000000000E+01 0.  1.
          5    1    4    4  502    0 -0.27810259976E+02  0.21682754421E+02 -0.70766875633E+02  0.79206016729E+02  0.47000000000E+01 0. -1.
         -5    1    4    4    0  502  0.38409758230E+02 -0.64477644450E+02 -0.96203551921E+01  0.75811063804E+02  0.47000000000E+01 0. -1.
<mgrwt>
<rscale>  0 0.26938638E+03</rscale>
<asrwt>0</asrwt>
<pdfrwt beam="1">  1       21 0.97472964E-02 0.26938638E+03</pdfrwt>
<pdfrwt beam="2">  1       21 0.44053499E-01 0.26938638E+03</pdfrwt>
<totfact> 0.41336805E+05</totfact>
</mgrwt>
</event>
<event>
 8    1  0.4760912E-006  0.3689212E+03  0.7546771E-02  0.1055106E+00
         21   -1    0    0  504  503  0.00000000000E+00  0.00000000000E+00  0.76782695751E+02  0.76782695751E+02  0.00000000000E+00 0. -1.
         21   -1    0    0  503  504 -0.00000000000E+00 -0.00000000000E+00 -0.44314301160E+03  0.44314301160E+03  0.00000000000E+00 0. -1.
         25    2    1    2    0    0  0.10595469486E+03  0.83533447233E+02 -0.20296428560E+03  0.27390346491E+03  0.12499749074E+03 0.  0.
         25    2    1    2    0    0 -0.10595469486E+03 -0.83533447233E+02 -0.16339603025E+03  0.24602224244E+03  0.12499778760E+03 0.  0.
          5    1    3    3  501    0 -0.20491340374E+02  0.47171269888E+02 -0.47313044303E+02  0.70040259097E+02  0.47000000000E+01 0.  1.
         -5    1    3    3    0  501  0.12644603523E+03  0.36362177345E+02 -0.15565124130E+03  0.20386320582E+03  0.47000000000E+01 0.  1.
          5    1    4    4  502    0 -0.80882816677E+01  0.19944017850E+01 -0.10156650537E+03  0.10201589558E+03  0.47000000000E+01 0. -1.
         -5    1    4    4    0  502 -0.97866413192E+02 -0.85527849018E+02 -0.61829524885E+02  0.14400634686E+03  0.47000000000E+01 0. -1.
<mgrwt>
<rscale>  0 0.36892121E+03</rscale>
<asrwt>0</asrwt>
<pdfrwt beam="1">  1       21 0.11812723E-01 0.36892121E+03</pdfrwt>
<pdfrwt beam="2">  1       21 0.68175847E-01 0.36892121E+03</pdfrwt>
<totfact> 0.11246570E+05</totfact>
</mgrwt>
</event>
<event>
 8    1  0.4760912E-006  0.2861952E+03  0.7546771E-02  0.1092353E+00
         21   -1    0    0  504  503  0.00000000000E+00  0.00000000000E+00  0.57524707556E+03  0.57524707556E+03  0.00000000000E+00 0. -1.
         21   -1    0    0  503  504 -0.00000000000E+00 -0.00000000000E+00 -0.35596741453E+02  0.35596741453E+02  0.00000000000E+00 0. -1.
         25    2    1    2    0    0 -0.49357931992E+02 -0.47184760002E+02  0.24018428309E+03  0.27924173267E+03  0.12499939357E+03 0.  0.
         25    2    1    2    0    0  0.49357931992E+02  0.47184760002E+02  0.29946605102E+03  0.33160208435E+03  0.12496967474E+03 0.  0.
          5    1    3    3  501    0  0.25041238656E+02 -0.46485524667E+02  0.42423122236E+02  0.67895352840E+02  0.47000000000E+01 0.  1.
         -5    1    3    3    0  501 -0.74399170648E+02 -0.69923533501E+00  0.19776116086E+03  0.21134637983E+03  0.47000000000E+01 0.  1.
          5    1    4    4  502    0  0.16213172108E+02  0.83441851324E+02  0.13246594369E+03  0.15746341080E+03  0.47000000000E+01 0. -1.
         -5    1    4    4    0  502  0.33144759885E+02 -0.36257091321E+02  0.16700010732E+03  0.17413867355E+03  0.47000000000E+01 0. -1.
<mgrwt>
<rscale>  0 0.28619519E+03</rscale>
<asrwt>0</asrwt>
<pdfrwt beam="1">  1       21 0.88499543E-01 0.28619519E+03</pdfrwt>
<pdfrwt beam="2">  1       21 0.54764222E-02 0.28619519E+03</pdfrwt>
<totfact> 0.24519474E+05</totfact>
</mgrwt>
</event>
<event>
 8    1  0.4760912E-006  0.4012577E+03  0.7546771E-02  0.1043345E+00
         21   -1    0    0  504  503  0.00000000000E+00  0.00000000000E+00  0.46481425069E+02  0.46481425069E+02  0.00000000000E+00 0.  1.
         21   -1    0    0  503  504 -0.00000000000E+00 -0.00000000000E+00 -0.86597913082E+03  0.86597913082E+03  0.00000000000E+00 0.  1.
         25    2    1    2    0    0 -0.71158611232E+02 -0.48334755063E+02 -0.70825507222E+03  0.72432715780E+03  0.12499915078E+03 0.  0.
         25    2    1    2    0    0  0.71158611232E+02  0.48334755063E+02 -0.11124263353E+03  0.18813339809E+03  0.12497781989E+03 0.  0.
          5    1    3    3  501    0 -0.52059853627E+02 -0.62475219785E+02 -0.68784344755E+03  0.69265004135E+03  0.47000000000E+01 0. -1.
         -5    1    3    3    0  501 -0.19098757605E+02  0.14140464723E+02 -0.20411624672E+02  0.31677116447E+02  0.47000000000E+01 0. -1.
          5    1    4    4  502    0 -0.32416003582E+02  0.31339923140E+02 -0.45309550824E+02  0.64093942510E+02  0.47000000000E+01 0. -1.
         -5    1    4    4    0  502  0.10357461481E+03  0.16994831923E+02 -0.65933082706E+02  0.12403945558E+03  0.47000000000E+01 0. -1.
<mgrwt>
<rscale>  0 0.40125774E+03</rscale>
<asrwt>0</asrwt>
<pdfrwt beam="1">  1       21 0.71509887E-02 0.40125774E+03</pdfrwt>
<pdfrwt beam="2">  1       21 0.13322755E+00 0.40125774E+03</pdfrwt>
<totfact> 0.54749348E+04</totfact>
</mgrwt>
</event>
<event>
 8    1  0.4760912E-006  0.2956326E+03  0.7546771E-02  0.1087444E+00
         21   -1    0    0  504  503  0.00000000000E+00  0.00000000000E+00  0.82538758893E+02  0.82538758893E+02  0.00000000000E+00 0. -1.
         21   -1    0    0  503  504 -0.00000000000E+00 -0.00000000000E+00 -0.26471998280E+03  0.26471998280E+03  0.00000000000E+00 0. -1.
         25    2    1    2    0    0  0.44128825374E+02  0.54749021441E+02 -0.49028222633E+02  0.15154837113E+03  0.12497333156E+03 0.  0.
         25    2    1    2    0    0 -0.44128825374E+02 -0.54749021441E+02 -0.13315300127E+03  0.19571037056E+03  0.12501207469E+03 0.  0.
          5    1    3    3  501    0 -0.14144240704E+02 -0.99546299142E+01  0.29289869624E+02  0.34338617683E+02  0.47000000000E+01 0. -1.
         -5    1    3    3    0  501  0.58273066078E+02  0.64703651355E+02 -0.78318092257E+02  0.11720975345E+03  0.47000000000E+01 0. -1.
          5    1    4    4  502    0 -0.28319031165E+02 -0.57525733174E+02 -0.15522784239E+03  0.16801473315E+03  0.47000000000E+01 0.  1.
         -5    1    4    4    0  502 -0.15809794209E+02  0.27767117336E+01  0.22074841118E+02  0.27695637407E+02  0.47000000000E+01 0.  1.
<mgrwt>
<rscale>  0 0.29563260E+03</rscale>
<asrwt>0</asrwt>
<pdfrwt beam="1">  1       21 0.12698271E-01 0.29563260E+03</pdfrwt>
<pdfrwt beam="2">  1       21 0.40726150E-01 0.29563260E+03</pdfrwt>
<totfact> 0.30064981E+05</totfact>
</mgrwt>
</event>
<event>
 8    1  0.4760912E-006  0.3309968E+03  0.7546771E-02  0.1070697E+00
         21   -1    0    0  504  503  0.00000000000E+00  0.00000000000E+00  0.16270215134E+03  0.16270215134E+03  0.00000000000E+00 0. -1.
         21   -1    0    0  503  504 -0.00000000000E+00 -0.00000000000E+00 -0.16834275270E+03  0.16834275270E+03  0.00000000000E+00 0. -1.
         25    2    1    2    0    0  0.49284410721E+02  0.16824892673E+01 -0.99445250249E+02  0.16716811114E+03  0.12499614264E+03 0.  0.
         25    2    1    2    0    0 -0.49284410721E+02 -0.16824892673E+01  0.93804648886E+02  0.16387679290E+03  0.12499802874E+03 0.  0.
          5    1    3    3  501    0  0.63673211147E+02  0.51668706118E+02 -0.61777768080E+02  0.10277410004E+03  0.47000000000E+01 0.  1.
         -5    1    3    3    0  501 -0.14388800426E+02 -0.49986216851E+02 -0.37667482169E+02  0.64394011101E+02  0.47000000000E+01 0.  1.
          5    1    4    4  502    0 -0.31683194043E+02  0.59251515626E+02  0.29818654586E+02  0.73660091298E+02  0.47000000000E+01 0.  1.
         -5    1    4    4    0  502 -0.17601216679E+02 -0.60934004894E+02  0.63985994300E+02  0.90216701600E+02  0.47000000000E+01 0.  1.
<mgrwt>
<rscale>  0 0.33099685E+03</rscale>
<asrwt>0</asrwt>
<pdfrwt beam="1">  1       21 0.25031100E-01 0.33099685E+03</pdfrwt>
<pdfrwt beam="2">  1       21 0.25898885E-01 0.33099685E+03</pdfrwt>
<totfact> 0.20659787E+05</totfact>
</mgrwt>
</event>
<event>
 8    1  0.4760912E-006  0.3227699E+03  0.7546771E-02  0.1074382E+00
         21   -1    0    0  504  503  0.00000000000E+00  0.00000000000E+00  0.34917261008E+03  0.34917261008E+03  0.00000000000E+00 0. -1.
         21   -1    0    0  503  504 -0.00000000000E+00 -0.00000000000E+00 -0.74590920865E+02  0.74590920865E+02  0.00000000000E+00 0. -1.
         25    2    1    2    0    0  0.34321582315E+02 -0.85085995031E+02  0.19602692171E+03  0.24993897334E+03  0.12500135518E+03 0.  0.
         25    2    1    2    0    0 -0.34321582315E+02  0.85085995031E+02  0.78554767506E+02  0.17382455760E+03  0.12500611091E+03 0.  0.
          5    1    3    3  501    0  0.59415446199E+02 -0.26541972642E+02  0.29536265620E+02  0.71618102080E+02  0.47000000000E+01 0. -1.
         -5    1    3    3    0  501 -0.25093863884E+02 -0.58544022389E+02  0.16649065609E+03  0.17832087126E+03  0.47000000000E+01 0. -1.
          5    1    4    4  502    0  0.13735534536E+02  0.16272098698E+02 -0.29647644706E+02  0.36803789773E+02  0.47000000000E+01 0. -1.
         -5    1    4    4    0  502 -0.48057116852E+02  0.68813896333E+02  0.10820241221E+03  0.13702076783E+03  0.47000000000E+01 0. -1.
<mgrwt>
<rscale>  0 0.32276993E+03</rscale>
<asrwt>0</asrwt>
<pdfrwt beam="1">  1       21 0.53718862E-01 0.32276993E+03</pdfrwt>
<pdfrwt beam="2">  1       21 0.11475526E-01 0.32276993E+03</pdfrwt>
<totfact> 0.20134668E+05</totfact>
</mgrwt>
</event>
<event>
 8    1  0.4760912E-006  0.3837740E+03  0.7546771E-02  0.1049548E+00
         21   -1    0    0  504  503  0.00000000000E+00  0.00000000000E+00  0.47480426512E+02  0.47480426512E+02  0.00000000000E+00 0. -1.
         21   -1    0    0  503  504 -0.00000000000E+00 -0.00000000000E+00 -0.77549048994E+03  0.77549048994E+03  0.00000000000E+00 0. -1.
         25    2    1    2    0    0 -0.12079117540E+03  0.80348777315E+02 -0.39014916667E+03  0.43461371483E+03  0.12500509906E+03 0.  0.
         25    2    1    2    0    0  0.12079117540E+03 -0.80348777315E+02 -0.33786089676E+03  0.38835720163E+03  0.12499958571E+03 0.  0.
          5    1    3    3  501    0 -0.14024772631E+03  0.46914903238E+02 -0.34226264072E+03  0.37287563358E+03  0.47000000000E+01 0.  1.
         -5    1    3    3    0  501  0.19456550907E+02  0.33433874077E+02 -0.47886525951E+02  0.61738081252E+02  0.47000000000E+01 0.  1.
          5    1    4    4  502    0  0.63945348704E+01 -0.73955747261E+01  0.10117497314E+02  0.14833689819E+02  0.47000000000E+01 0.  1.
         -5    1    4    4    0  502  0.11439664053E+03 -0.72953202589E+02 -0.34797839407E+03  0.37352351181E+03  0.47000000000E+01 0.  1.
<mgrwt>
<rscale>  0 0.38377399E+03</rscale>
<asrwt>0</asrwt>
<pdfrwt beam="1">  1       21 0.73046813E-02 0.38377399E+03</pdfrwt>
<pdfrwt beam="2">  1       21 0.11930622E+00 0.38377399E+03</pdfrwt>
<totfact> 0.70333120E+04</totfact>
</mgrwt>
</event>
<event>
 8    1  0.4760912E-006  0.2726550E+03  0.7546771E-02  0.1099770E+00
         21   -1    0    0  504  503  0.00000000000E+00  0.00000000000E+00  0.29432650999E+02  0.29432650999E+02  0.00000000000E+00 0. -1.
         21   -1    0    0  503  504 -0.00000000000E+00 -0.00000000000E+00 -0.63144810758E+03  0.63144810758E+03  0.00000000000E+00 0. -1.
         25    2    1    2    0    0 -0.24258907634E+02  0.40931959483E+02 -0.36494512996E+03  0.38868326109E+03  0.12500323863E+03 0.  0.
         25    2    1    2    0    0  0.24258907634E+02 -0.40931959483E+02 -0.23707032662E+03  0.27219749748E+03  0.12500087186E+03 0.  0.
          5    1    3    3  501    0 -0.42084582396E+02 -0.19185307770E+02 -0.27521544076E+03  0.27911434385E+03  0.47000000000E+01 0.  1.
         -5    1    3    3    0  501  0.17825674762E+02  0.60117267253E+02 -0.89729689197E+02  0.10956891724E+03  0.47000000000E+01 0.  1.
          5    1    4    4  502    0 -0.47943127896E+02 -0.72676918841E+01 -0.12871551510E+03  0.13762680221E+03  0.47000000000E+01 0. -1.
         -5    1    4    4    0  502  0.72202035530E+02 -0.33664267599E+02 -0.10835481152E+03  0.13457069527E+03  0.47000000000E+01 0. -1.
<mgrwt>
<rscale>  0 0.27265503E+03</rscale>
<asrwt>0</asrwt>
<pdfrwt beam="1">  1       21 0.45281002E-02 0.27265503E+03</pdfrwt>
<pdfrwt beam="2">  1       21 0.97145862E-01 0.27265503E+03</pdfrwt>
<totfact> 0.27336380E+05</totfact>
</mgrwt>
</event>
<event>
 8    1  0.4760912E-006  0.2532432E+03  0.7546771E-02  0.1111272E+00
         21   -1    0    0  504  503  0.00000000000E+00  0.00000000000E+00  0.72015130903E+02  0.72015130903E+02  0.00000000000E+00 0. -1.
         21   -1    0    0  503  504 -0.00000000000E+00 -0.00000000000E+00 -0.22263413453E+03  0.22263413453E+03  0.00000000000E+00 0. -1.
         25    2    1    2    0    0  0.32439346956E+01  0.28833163871E+01 -0.52383089338E+02  0.13560904332E+03  0.12500795157E+03 0.  0.
         25    2    1    2    0    0 -0.32439346956E+01 -0.28833163871E+01 -0.98235914286E+02  0.15904022211E+03  0.12499864307E+03 0.  0.
          5    1    3    3  501    0  0.51503953820E+02  0.32760466027E+02 -0.48267204365E+01  0.61410851024E+02  0.47000000000E+01 0.  1.
         -5    1    3    3    0  501 -0.48260019124E+02 -0.29877149640E+02 -0.47556368901E+02  0.74198192293E+02  0.47000000000E+01 0.  1.
          5    1    4    4  502    0  0.44849716502E+02  0.29007248644E+02 -0.83606946166E+02  0.99323355720E+02  0.47000000000E+01 0.  1.
         -5    1    4    4    0  502 -0.48093651198E+02 -0.31890565031E+02 -0.14628968120E+02  0.59716866393E+02  0.47000000000E+01 0.  1.
<mgrwt>
<rscale>  0 0.25324317E+03</rscale>
<asrwt>0</asrwt>
<pdfrwt beam="1">  1       21 0.11079251E-01 0.25324317E+03</pdfrwt>
<pdfrwt beam="2">  1       21 0.34251405E-01 0.25324317E+03</pdfrwt>
<totfact> 0.54951744E+05</totfact>
</mgrwt>
</event>
<event>
 8    1  0.4760912E-006  0.2802120E+03  0.7546771E-02  0.1095573E+00
         21   -1    0    0  504  503  0.00000000000E+00  0.00000000000E+00  0.24672099139E+03  0.24672099139E+03  0.00000000000E+00 0. -1.
         21   -1    0    0  503  504 -0.00000000000E+00 -0.00000000000E+00 -0.79562297787E+02  0.79562297787E+02  0.00000000000E+00 0. -1.
         25    2    1    2    0    0  0.56096501542E+02  0.28111463124E+02  0.73619884677E+02  0.15805516971E+03  0.12499790961E+03 0.  0.
         25    2    1    2    0    0 -0.56096501542E+02 -0.28111463124E+02  0.93538808927E+02  0.16822811947E+03  0.12495647066E+03 0.  0.
          5    1    3    3  501    0  0.63374160682E+02  0.40019301248E+02  0.10165554542E+03  0.12638737527E+03  0.47000000000E+01 0. -1.
         -5    1    3    3    0  501 -0.72776591399E+01 -0.11907838124E+02 -0.28035660740E+02  0.31667794436E+02  0.47000000000E+01 0. -1.
          5    1    4    4  502    0 -0.53390724503E+02 -0.19264255014E+02  0.12378088787E+03  0.13625519875E+03  0.47000000000E+01 0. -1.
         -5    1    4    4    0  502 -0.27057770388E+01 -0.88472081096E+01 -0.30242078941E+02  0.31972920721E+02  0.47000000000E+01 0. -1.
<mgrwt>
<rscale>  0 0.28021198E+03</rscale>
<asrwt>0</asrwt>
<pdfrwt beam="1">  1       21 0.37957075E-01 0.28021198E+03</pdfrwt>
<pdfrwt beam="2">  1       21 0.12240354E-01 0.28021198E+03</pdfrwt>
<totfact> 0.37192920E+05</totfact>
</mgrwt>
</event>
<event>
 8    1  0.4760912E-006  0.2771288E+03  0.7546771E-02  0.1097268E+00
         21   -1    0    0  504  503  0.00000000000E+00  0.00000000000E+00  0.39913129988E+02  0.39913129988E+02  0.00000000000E+00 0.  1.
         21   -1    0    0  503  504 -0.00000000000E+00 -0.00000000000E+00 -0.48104715450E+03  0.48104715450E+03  0.00000000000E+00 0.  1.
         25    2    1    2    0    0 -0.46447394342E+02  0.12851414607E+02 -0.28715765711E+03  0.31686511012E+03  0.12498583389E+03 0.  0.
         25    2    1    2    0    0  0.46447394342E+02 -0.12851414607E+02 -0.15397636740E+03  0.20409517437E+03  0.12499439661E+03 0.  0.
          5    1    3    3  501    0 -0.34074015662E+02  0.21661889679E+02 -0.29592782540E+03  0.29870661836E+03  0.47000000000E+01 0. -1.
         -5    1    3    3    0  501 -0.12373378680E+02 -0.88104750725E+01  0.87701682893E+01  0.18158491754E+02  0.47000000000E+01 0. -1.
          5    1    4    4  502    0  0.85913558861E+02  0.51334536504E+01 -0.76818474145E+02  0.11545847701E+03  0.47000000000E+01 0.  1.
         -5    1    4    4    0  502 -0.39466164519E+02 -0.17984868257E+02 -0.77157893257E+02  0.88636697366E+02  0.47000000000E+01 0.  1.
<mgrwt>
<rscale>  0 0.27712883E+03</rscale>
<asrwt>0</asrwt>
<pdfrwt beam="1">  1       21 0.61404818E-02 0.27712883E+03</pdfrwt>
<pdfrwt beam="2">  1       21 0.74007251E-01 0.27712883E+03</pdfrwt>
<totfact> 0.30379802E+05</totfact>
</mgrwt>
</event>
<event>
 8    1  0.4760912E-006  0.2802534E+03  0.7546771E-02  0.1095551E+00
         21   -1    0    0  504  503  0.00000000000E+00  0.00000000000E+00  0.14762573046E+03  0.14762573046E+03  0.00000000000E+00 0.  1.
         21   -1    0    0  503  504 -0.00000000000E+00 -0.00000000000E+00 -0.13300858957E+03  0.13300858957E+03  0.00000000000E+00 0.  1.
         25    2    1    2    0    0  0.97170530172E+01  0.56787520031E+02 -0.19051117793E+02  0.13895017021E+03  0.12499984464E+03 0.  0.
         25    2    1    2    0    0 -0.97170530172E+01 -0.56787520031E+02  0.33668258683E+02  0.14168414983E+03  0.12498641174E+03 0.  0.
          5    1    3    3  501    0  0.35627316742E+02 -0.30014565661E+02 -0.90957733710E+01  0.47696990925E+02  0.47000000000E+01 0.  1.
         -5    1    3    3    0  501 -0.25910263724E+02  0.86802085693E+02 -0.99553444215E+01  0.91253179284E+02  0.47000000000E+01 0.  1.
          5    1    4    4  502    0 -0.44677297275E+02 -0.52618579501E+02  0.64544865294E+02  0.94619794105E+02  0.47000000000E+01 0.  1.
         -5    1    4    4    0  502  0.34960244258E+02 -0.41689405302E+01 -0.30876606611E+02  0.47064355722E+02  0.47000000000E+01 0.  1.
<mgrwt>
<rscale>  0 0.28025339E+03</rscale>
<asrwt>0</asrwt>
<pdfrwt beam="1">  1       21 0.22711651E-01 0.28025339E+03</pdfrwt>
<pdfrwt beam="2">  1       21 0.20462860E-01 0.28025339E+03</pdfrwt>
<totfact> 0.39470887E+05</totfact>
</mgrwt>
</event>
<event>
 8    1  0.4760912E-006  0.2555592E+03  0.7546771E-02  0.1109841E+00
         21   -1    0    0  504  503  0.00000000000E+00  0.00000000000E+00  0.15460068270E+03  0.15460068270E+03  0.00000000000E+00 0.  1.
         21   -1    0    0  503  504 -0.00000000000E+00 -0.00000000000E+00 -0.10561159464E+03  0.10561159464E+03  0.00000000000E+00 0.  1.
         25    2    1    2    0    0 -0.94658274291E+01 -0.22197817193E+02  0.35638513267E+02  0.13220017385E+03  0.12499774943E+03 0.  0.
         25    2    1    2    0    0  0.94658274291E+01  0.22197817193E+02  0.13350574790E+02  0.12801210348E+03  0.12500606311E+03 0.  0.
          5    1    3    3  501    0  0.49121256740E+02 -0.41326511783E+02  0.93841150399E+01  0.65045599812E+02  0.47000000000E+01 0.  1.
         -5    1    3    3    0  501 -0.58587084169E+02  0.19128694590E+02  0.26254398227E+02  0.67154574039E+02  0.47000000000E+01 0.  1.
          5    1    4    4  502    0  0.11751613823E+02 -0.10014099103E+02  0.64968908738E+02  0.66943496405E+02  0.47000000000E+01 0.  1.
         -5    1    4    4    0  502 -0.22857863944E+01  0.32211916295E+02 -0.51618333948E+02  0.61068607078E+02  0.47000000000E+01 0.  1.
<mgrwt>
<rscale>  0 0.25555919E+03</rscale>
<asrwt>0</asrwt>
<pdfrwt beam="1">  1       21 0.23784720E-01 0.25555919E+03</pdfrwt>
<pdfrwt beam="2">  1       21 0.16247938E-01 0.25555919E+03</pdfrwt>
<totfact> 0.55814415E+05</totfact>
</mgrwt>
</event>
<event>
 8    1  0.4760912E-006  0.2645951E+03  0.7546771E-02  0.1104413E+00
         21   -1    0    0  504  503  0.00000000000E+00  0.00000000000E+00  0.16422548150E+04  0.16422548150E+04  0.00000000000E+00 0.  1.
         21   -1    0    0  503  504 -0.00000000000E+00 -0.00000000000E+00 -0.10657689777E+02  0.10657689777E+02  0.00000000000E+00 0.  1.
         25    2    1    2    0    0 -0.37250635763E+02 -0.59732823955E+01  0.68349174404E+03  0.69585851429E+03  0.12503926492E+03 0.  0.
         25    2    1    2    0    0  0.37250635763E+02  0.59732823955E+01  0.94810538117E+03  0.95705399047E+03  0.12500094764E+03 0.  0.
          5    1    3    3  501    0 -0.28274948095E+02 -0.95041247880E+01  0.68442293964E+03  0.68508879087E+03  0.47000000000E+01 0. -1.
         -5    1    3    3    0  501 -0.89756876677E+01  0.35308423925E+01 -0.93119560312E+00  0.10769723411E+02  0.47000000000E+01 0. -1.
          5    1    4    4  502    0 -0.38132398690E+02  0.14861972493E+01  0.57889793221E+03  0.58017341763E+03  0.47000000000E+01 0. -1.
         -5    1    4    4    0  502  0.75383034453E+02  0.44870851462E+01  0.36920744896E+03  0.37688057284E+03  0.47000000000E+01 0. -1.
<mgrwt>
<rscale>  0 0.26459510E+03</rscale>
<asrwt>0</asrwt>
<pdfrwt beam="1">  1       21 0.25265439E+00 0.26459510E+03</pdfrwt>
<pdfrwt beam="2">  1       21 0.16396459E-02 0.26459510E+03</pdfrwt>
<totfact> 0.10428503E+05</totfact>
</mgrwt>
</event>
<event>
 8    1  0.4760912E-006  0.4317514E+03  0.7546771E-02  0.1033308E+00
         21   -1    0    0  504  503  0.00000000000E+00  0.00000000000E+00  0.81011304048E+02  0.81011304048E+02  0.00000000000E+00 0.  1.
         21   -1    0    0  503  504 -0.00000000000E+00 -0.00000000000E+00 -0.57525707417E+03  0.57525707417E+03  0.00000000000E+00 0.  1.
         25    2    1    2    0    0  0.81615267072E+01 -0.16375859838E+03 -0.34437593963E+03  0.40137765842E+03  0.12500299124E+03 0.  0.
         25    2    1    2    0    0 -0.81615267072E+01  0.16375859838E+03 -0.14986983048E+03  0.25489071979E+03  0.12499929553E+03 0.  0.
          5    1    3    3  501    0  0.55953623377E+02 -0.74559797751E+02 -0.99771566790E+02  0.13662513293E+03  0.47000000000E+01 0.  1.
         -5    1    3    3    0  501 -0.47792096670E+02 -0.89198800634E+02 -0.24460437284E+03  0.26475252549E+03  0.47000000000E+01 0.  1.
          5    1    4    4  502    0  0.24971139772E+02  0.21495081364E+02 -0.91770624516E+02  0.97619331428E+02  0.47000000000E+01 0. -1.
         -5    1    4    4    0  502 -0.33132666480E+02  0.14226351702E+03 -0.58099205967E+02  0.15727138836E+03  0.47000000000E+01 0. -1.
<mgrwt>
<rscale>  0 0.43175144E+03</rscale>
<asrwt>0</asrwt>
<pdfrwt beam="1">  1       21 0.12463278E-01 0.43175144E+03</pdfrwt>
<pdfrwt beam="2">  1       21 0.88501086E-01 0.43175144E+03</pdfrwt>
<totfact> 0.55311057E+04</totfact>
</mgrwt>
</event>
<event>
 8    1  0.4760912E-006  0.3175220E+03  0.7546771E-02  0.1076795E+00
         21   -1    0    0  504  503  0.00000000000E+00  0.00000000000E+00  0.57053959366E+02  0.57053959366E+02  0.00000000000E+00 0. -1.
         21   -1    0    0  503  504 -0.00000000000E+00 -0.00000000000E+00 -0.44177577508E+03  0.44177577508E+03  0.00000000000E+00 0. -1.
         25    2    1    2    0    0  0.43187981097E+02 -0.87766314608E+02 -0.19764323384E+03  0.25348875016E+03  0.12500228352E+03 0.  0.
         25    2    1    2    0    0 -0.43187981097E+02  0.87766314608E+02 -0.18707858187E+03  0.24534098429E+03  0.12500270030E+03 0.  0.
          5    1    3    3  501    0 -0.36778956530E+02 -0.62395366332E+02 -0.71208998677E+02  0.10167932374E+03  0.47000000000E+01 0. -1.
         -5    1    3    3    0  501  0.79966937627E+02 -0.25370948276E+02 -0.12643423516E+03  0.15180942642E+03  0.47000000000E+01 0. -1.
          5    1    4    4  502    0  0.15797068657E+02  0.76495576007E+02 -0.43249200330E+02  0.89407515657E+02  0.47000000000E+01 0. -1.
         -5    1    4    4    0  502 -0.58985049754E+02  0.11270738602E+02 -0.14382938154E+03  0.15593346863E+03  0.47000000000E+01 0. -1.
<mgrwt>
<rscale>  0 0.31752201E+03</rscale>
<asrwt>0</asrwt>
<pdfrwt beam="1">  1       21 0.87775327E-02 0.31752201E+03</pdfrwt>
<pdfrwt beam="2">  1       21 0.67965500E-01 0.31752201E+03</pdfrwt>
<totfact> 0.19499899E+05</totfact>
</mgrwt>
</event>
<event>
 8    1  0.4760912E-006  0.2790284E+03  0.7546771E-02  0.1096221E+00
         21   -1    0    0  504  503  0.00000000000E+00  0.00000000000E+00  0.17046945219E+03  0.17046945219E+03  0.00000000000E+00 0. -1.
         21   -1    0    0  503  504 -0.00000000000E+00 -0.00000000000E+00 -0.11418005142E+03  0.11418005142E+03  0.00000000000E+00 0. -1.
         25    2    1    2    0    0  0.50975714968E+02 -0.31918471497E+02  0.43334676683E+02  0.14532993495E+03  0.12500233378E+03 0.  0.
         25    2    1    2    0    0 -0.50975714968E+02  0.31918471497E+02  0.12954724090E+02  0.13931956866E+03  0.12499921998E+03 0.  0.
          5    1    3    3  501    0  0.11058779990E+01  0.16231509411E+02  0.69161686990E+02  0.71204731663E+02  0.47000000000E+01 0.  1.
         -5    1    3    3    0  501  0.49869836969E+02 -0.48149980908E+02 -0.25827010306E+02  0.74125203285E+02  0.47000000000E+01 0.  1.
          5    1    4    4  502    0 -0.52357759783E+02  0.25351368952E+02  0.64582310760E+02  0.87045917655E+02  0.47000000000E+01 0.  1.
         -5    1    4    4    0  502  0.13820448154E+01  0.65671025451E+01 -0.51627586670E+02  0.52273651002E+02  0.47000000000E+01 0.  1.
<mgrwt>
<rscale>  0 0.27902839E+03</rscale>
<asrwt>0</asrwt>
<pdfrwt beam="1">  1       21 0.26226070E-01 0.27902839E+03</pdfrwt>
<pdfrwt beam="2">  1       21 0.17566162E-01 0.27902839E+03</pdfrwt>
<totfact> 0.39864019E+05</totfact>
</mgrwt>
</event>
<event>
 8    1  0.4760912E-006  0.2694385E+03  0.7546771E-02  0.1101601E+00
         21   -1    0    0  504  503  0.00000000000E+00  0.00000000000E+00  0.25128635252E+03  0.25128635252E+03  0.00000000000E+00 0.  1.
         21   -1    0    0  503  504 -0.00000000000E+00 -0.00000000000E+00 -0.72225502286E+02  0.72225502286E+02  0.00000000000E+00 0.  1.
         25    2    1    2    0    0  0.15564397476E+02  0.26675727568E+02  0.13711347182E+03  0.18808850454E+03  0.12499334572E+03 0.  0.
         25    2    1    2    0    0 -0.15564397476E+02 -0.26675727568E+02  0.41947378411E+02  0.13542335027E+03  0.12500422525E+03 0.  0.
          5    1    3    3  501    0  0.62648848495E+02  0.38468467917E+02  0.10971770427E+03  0.13215432597E+03  0.47000000000E+01 0.  1.
         -5    1    3    3    0  501 -0.47084451019E+02 -0.11792740348E+02  0.27395767550E+02  0.55934178570E+02  0.47000000000E+01 0.  1.
          5    1    4    4  502    0 -0.84434102165E+01  0.25377010694E+01  0.83401065474E+02  0.83997373917E+02  0.47000000000E+01 0. -1.
         -5    1    4    4    0  502 -0.71209872590E+01 -0.29213428638E+02 -0.41453687063E+02  0.51425976349E+02  0.47000000000E+01 0. -1.
<mgrwt>
<rscale>  0 0.26943855E+03</rscale>
<asrwt>0</asrwt>
<pdfrwt beam="1">  1       21 0.38659438E-01 0.26943855E+03</pdfrwt>
<pdfrwt beam="2">  1       21 0.11111616E-01 0.26943855E+03</pdfrwt>
<totfact> 0.42739196E+05</totfact>
</mgrwt>
</event>
<event>
 8    1  0.4760912E-006  0.3039312E+03  0.7546771E-02  0.1083292E+00
         21   -1    0    0  504  503  0.00000000000E+00  0.00000000000E+00  0.35179843032E+02  0.35179843032E+02  0.00000000000E+00 0. -1.
         21   -1    0    0  503  504 -0.00000000000E+00 -0.00000000000E+00 -0.65644268185E+03  0.65644268185E+03  0.00000000000E+00 0. -1.
         25    2    1    2    0    0 -0.61996175615E+02  0.59578468977E+02 -0.33046137049E+03  0.36362281949E+03  0.12499487075E+03 0.  0.
         25    2    1    2    0    0  0.61996175615E+02 -0.59578468977E+02 -0.29080146833E+03  0.32799970539E+03  0.12500077199E+03 0.  0.
          5    1    3    3  501    0 -0.32203738048E-01  0.42996071472E+02 -0.27593312915E+03  0.27930242563E+03  0.47000000000E+01 0. -1.
         -5    1    3    3    0  501 -0.61963971877E+02  0.16582397505E+02 -0.54528241334E+02  0.84320393860E+02  0.47000000000E+01 0. -1.
          5    1    4    4  502    0  0.50912356283E+02 -0.32246032315E+02 -0.29191953765E+03  0.29811236319E+03  0.47000000000E+01 0. -1.
         -5    1    4    4    0  502  0.11083819332E+02 -0.27332436662E+02  0.11180693235E+01  0.29887342202E+02  0.47000000000E+01 0. -1.
<mgrwt>
<rscale>  0 0.30393125E+03</rscale>
<asrwt>0</asrwt>
<pdfrwt beam="1">  1       21 0.54122840E-02 0.30393125E+03</pdfrwt>
<pdfrwt beam="2">  1       21 0.10099117E+00 0.30393125E+03</pdfrwt>
<totfact> 0.18222577E+05</totfact>
</mgrwt>
</event>
<event>
 8    1  0.4760912E-006  0.3279895E+03  0.7546771E-02  0.1072030E+00
         21   -1    0    0  504  503  0.00000000000E+00  0.00000000000E+00  0.95090307051E+02  0.95090307051E+02  0.00000000000E+00 0.  1.
         21   -1    0    0  503  504 -0.00000000000E+00 -0.00000000000E+00 -0.28282880877E+03  0.28282880877E+03  0.00000000000E+00 0.  1.
         25    2    1    2    0    0  0.96741348238E+02 -0.34455893514E+02 -0.12479100056E+03  0.20433026529E+03  0.12502786264E+03 0.  0.
         25    2    1    2    0    0 -0.96741348238E+02  0.34455893514E+02 -0.62947501157E+02  0.17358885053E+03  0.12499841627E+03 0.  0.
          5    1    3    3  501    0  0.23405809010E+02  0.27819491585E+02 -0.97576029203E+02  0.10423496286E+03  0.47000000000E+01 0. -1.
         -5    1    3    3    0  501  0.73335539228E+02 -0.62275385099E+02 -0.27214971360E+02  0.10009530243E+03  0.47000000000E+01 0. -1.
          5    1    4    4  502    0 -0.73402507733E+02  0.58493759766E+02  0.86769800401E+01  0.94375993006E+02  0.47000000000E+01 0.  1.
         -5    1    4    4    0  502 -0.23338840504E+02 -0.24037866252E+02 -0.71624481197E+02  0.79212857522E+02  0.47000000000E+01 0.  1.
<mgrwt>
<rscale>  0 0.32798950E+03</rscale>
<asrwt>0</asrwt>
<pdfrwt beam="1">  1       21 0.14629278E-01 0.32798950E+03</pdfrwt>
<pdfrwt beam="2">  1       21 0.43512124E-01 0.32798950E+03</pdfrwt>
<totfact> 0.20126256E+05</totfact>
</mgrwt>
</event>
<event>
 8    1  0.4760912E-006  0.2772035E+03  0.7546771E-02  0.1097226E+00
         21   -1    0    0  504  503  0.00000000000E+00  0.00000000000E+00  0.73199760153E+03  0.73199760153E+03  0.00000000000E+00 0. -1.
         21   -1    0    0  503  504 -0.00000000000E+00 -0.00000000000E+00 -0.26243869656E+02  0.26243869656E+02  0.00000000000E+00 0. -1.
         25    2    1    2    0    0 -0.18209344449E+01  0.59088389698E+02  0.32671568092E+03  0.35476990983E+03  0.12499519656E+03 0.  0.
         25    2    1    2    0    0  0.18209344449E+01 -0.59088389698E+02  0.37903805095E+03  0.40347156135E+03  0.12499881260E+03 0.  0.
          5    1    3    3  501    0  0.19496573705E+02  0.58849159306E+02  0.57547940238E+02  0.84718329557E+02  0.47000000000E+01 0. -1.
         -5    1    3    3    0  501 -0.21317508150E+02  0.23923039198E+00  0.26916774068E+03  0.27005158028E+03  0.47000000000E+01 0. -1.
          5    1    4    4  502    0 -0.44938723653E+01  0.32988516218E+02  0.19117284012E+03  0.19410714024E+03  0.47000000000E+01 0.  1.
         -5    1    4    4    0  502  0.63148068102E+01 -0.92076905916E+02  0.18786521083E+03  0.20936442112E+03  0.47000000000E+01 0.  1.
<mgrwt>
<rscale>  0 0.27720353E+03</rscale>
<asrwt>0</asrwt>
<pdfrwt beam="1">  1       21 0.11261500E+00 0.27720353E+03</pdfrwt>
<pdfrwt beam="2">  1       21 0.40375190E-02 0.27720353E+03</pdfrwt>
<totfact> 0.23185950E+05</totfact>
</mgrwt>
</event>
<event>
 8    1  0.4760912E-006  0.6553312E+03  0.7546771E-02  0.9796827E-01
         21   -1    0    0  504  503  0.00000000000E+00  0.00000000000E+00  0.44779324908E+03  0.44779324908E+03  0.00000000000E+00 0.  1.
         21   -1    0    0  503  504 -0.00000000000E+00 -0.00000000000E+00 -0.23976413308E+03  0.23976413308E+03  0.00000000000E+00 0.  1.
         25    2    1    2    0    0 -0.95222789812E+02  0.22122053153E+03 -0.88680259947E+02  0.28547554982E+03  0.12500479099E+03 0.  0.
         25    2    1    2    0    0  0.95222789812E+02 -0.22122053153E+03  0.29670937595E+03  0.40208183234E+03  0.12500977103E+03 0.  0.
          5    1    3    3  501    0 -0.78383463241E+02  0.19307892882E+03 -0.20212693815E+02  0.20941366492E+03  0.47000000000E+01 0.  1.
         -5    1    3    3    0  501 -0.16839326571E+02  0.28141602706E+02 -0.68467566132E+02  0.76061884898E+02  0.47000000000E+01 0.  1.
          5    1    4    4  502    0  0.50558652942E+01  0.74641654336E+01 -0.62320943581E+01  0.11924954490E+02  0.47000000000E+01 0. -1.
         -5    1    4    4    0  502  0.90166924518E+02 -0.22868469696E+03  0.30294147030E+03  0.39015687785E+03  0.47000000000E+01 0. -1.
<mgrwt>
<rscale>  0 0.65533124E+03</rscale>
<asrwt>0</asrwt>
<pdfrwt beam="1">  1       21 0.68891269E-01 0.65533124E+03</pdfrwt>
<pdfrwt beam="2">  1       21 0.36886790E-01 0.65533124E+03</pdfrwt>
<totfact> 0.11614590E+04</totfact>
</mgrwt>
</event>
<event>
 8    1  0.4760912E-006  0.3607698E+03  0.7546771E-02  0.1058279E+00
         21   -1    0    0  504  503  0.00000000000E+00  0.00000000000E+00  0.18686009973E+03  0.18686009973E+03  0.00000000000E+00 0. -1.
         21   -1    0    0  503  504 -0.00000000000E+00 -0.00000000000E+00 -0.17413409177E+03  0.17413409177E+03  0.00000000000E+00 0. -1.
         25    2    1    2    0    0  0.47146937241E+02 -0.61042531008E+02 -0.98385182727E+02  0.17678629147E+03  0.12499889755E+03 0.  0.
         25    2    1    2    0    0 -0.47146937241E+02  0.61042531008E+02  0.11111119068E+03  0.18420790003E+03  0.12505130729E+03 0.  0.
          5    1    3    3  501    0 -0.41367233983E+02 -0.27795258077E+02 -0.48834018189E+02  0.69933366511E+02  0.47000000000E+01 0.  1.
         -5    1    3    3    0  501  0.88514171224E+02 -0.33247272931E+02 -0.49551164538E+02  0.10685292496E+03  0.47000000000E+01 0.  1.
          5    1    4    4  502    0  0.35979162963E+02 -0.46442165414E+01  0.10579822139E+02  0.38080067638E+02  0.47000000000E+01 0. -1.
         -5    1    4    4    0  502 -0.83126100204E+02  0.65686747550E+02  0.10053136855E+03  0.14612783239E+03  0.47000000000E+01 0. -1.
<mgrwt>
<rscale>  0 0.36076981E+03</rscale>
<asrwt>0</asrwt>
<pdfrwt beam="1">  1       21 0.28747708E-01 0.36076981E+03</pdfrwt>
<pdfrwt beam="2">  1       21 0.26789860E-01 0.36076981E+03</pdfrwt>
<totfact> 0.14677928E+05</totfact>
</mgrwt>
</event>
<event>
 8    1  0.4760912E-006  0.2874570E+03  0.7546771E-02  0.1091684E+00
         21   -1    0    0  504  503  0.00000000000E+00  0.00000000000E+00  0.75383270906E+02  0.75383270906E+02  0.00000000000E+00 0.  1.
         21   -1    0    0  503  504 -0.00000000000E+00 -0.00000000000E+00 -0.27403810149E+03  0.27403810149E+03  0.00000000000E+00 0.  1.
         25    2    1    2    0    0 -0.19814969966E+01  0.63913564084E+02 -0.13668140492E+03  0.19594716255E+03  0.12499845622E+03 0.  0.
         25    2    1    2    0    0  0.19814969966E+01 -0.63913564084E+02 -0.61973425668E+02  0.15347420984E+03  0.12499903037E+03 0.  0.
          5    1    3    3  501    0 -0.11539839457E+02  0.10813261353E+02 -0.14067776782E+03  0.14164186836E+03  0.47000000000E+01 0. -1.
         -5    1    3    3    0  501  0.95583424601E+01  0.53100302730E+02  0.39963628982E+01  0.54305294190E+02  0.47000000000E+01 0. -1.
          5    1    4    4  502    0  0.54730842063E+02  0.30499189567E+01 -0.23210577617E+02  0.59712544678E+02  0.47000000000E+01 0. -1.
         -5    1    4    4    0  502 -0.52749345067E+02 -0.66963483040E+02 -0.38762848051E+02  0.93761665167E+02  0.47000000000E+01 0. -1.
<mgrwt>
<rscale>  0 0.28745705E+03</rscale>
<asrwt>0</asrwt>
<pdfrwt beam="1">  1       21 0.11597426E-01 0.28745705E+03</pdfrwt>
<pdfrwt beam="2">  1       21 0.42159707E-01 0.28745705E+03</pdfrwt>
<totfact> 0.33046538E+05</totfact>
</mgrwt>
</event>
<event>
 8    1  0.4760912E-006  0.3558419E+03  0.7546771E-02  0.1060243E+00
         21   -1    0    0  504  503  0.00000000000E+00  0.00000000000E+00  0.43770157001E+02  0.43770157001E+02  0.00000000000E+00 0.  1.
         21   -1    0    0  503  504 -0.00000000000E+00 -0.00000000000E+00 -0.72322949811E+03  0.72322949811E+03  0.00000000000E+00 0.  1.
         25    2    1    2    0    0 -0.22625973596E+02  0.25320993684E+02 -0.76815406117E+02  0.15059086411E+03  0.12499565726E+03 0.  0.
         25    2    1    2    0    0  0.22625973596E+02 -0.25320993684E+02 -0.60264393499E+03  0.61640879100E+03  0.12500799112E+03 0.  0.
          5    1    3    3  501    0  0.32152708205E+02  0.57193962350E+02 -0.43199907642E+02  0.78697318852E+02  0.47000000000E+01 0. -1.
         -5    1    3    3    0  501 -0.54778681801E+02 -0.31872968666E+02 -0.33615498476E+02  0.71893545254E+02  0.47000000000E+01 0. -1.
          5    1    4    4  502    0  0.66836171553E+02  0.90705756884E+01 -0.23647906126E+03  0.24595484461E+03  0.47000000000E+01 0.  1.
         -5    1    4    4    0  502 -0.44210197957E+02 -0.34391569372E+02 -0.36616487373E+03  0.37045394640E+03  0.47000000000E+01 0.  1.
<mgrwt>
<rscale>  0 0.35584192E+03</rscale>
<asrwt>0</asrwt>
<pdfrwt beam="1">  1       21 0.67338706E-02 0.35584192E+03</pdfrwt>
<pdfrwt beam="2">  1       21 0.11126607E+00 0.35584192E+03</pdfrwt>
<totfact> 0.97199296E+04</totfact>
</mgrwt>
</event>
<event>
 8    1  0.4760912E-006  0.3011973E+03  0.7546771E-02  0.1084644E+00
         21   -1    0    0  504  503  0.00000000000E+00  0.00000000000E+00  0.10944240262E+04  0.10944240262E+04  0.00000000000E+00 0. -1.
         21   -1    0    0  503  504 -0.00000000000E+00 -0.00000000000E+00 -0.20723184367E+02  0.20723184367E+02  0.00000000000E+00 0. -1.
         25    2    1    2    0    0 -0.27613355479E+02 -0.68891903963E+02  0.68235868448E+03  0.69767272164E+03  0.12500104158E+03 0.  0.
         25    2    1    2    0    0  0.27613355479E+02  0.68891903963E+02  0.39134215739E+03  0.41747448897E+03  0.12501069137E+03 0.  0.
          5    1    3    3  501    0  0.35232497165E+02 -0.74029164043E+02  0.37919085547E+03  0.38798123776E+03  0.47000000000E+01 0. -1.
         -5    1    3    3    0  501 -0.62845852644E+02  0.51372600802E+01  0.30316782902E+03  0.30969148388E+03  0.47000000000E+01 0. -1.
          5    1    4    4  502    0 -0.26312499021E+01  0.40907151702E+02  0.36715104307E+03  0.36946217257E+03  0.47000000000E+01 0. -1.
         -5    1    4    4    0  502  0.30244605381E+02  0.27984752261E+02  0.24191114327E+02  0.48012316401E+02  0.47000000000E+01 0. -1.
<mgrwt>
<rscale>  0 0.30119728E+03</rscale>
<asrwt>0</asrwt>
<pdfrwt beam="1">  1       21 0.16837288E+00 0.30119728E+03</pdfrwt>
<pdfrwt beam="2">  1       21 0.31881831E-02 0.30119728E+03</pdfrwt>
<totfact> 0.11980032E+05</totfact>
</mgrwt>
</event>
<event>
 8    1  0.4760912E-006  0.4753286E+03  0.7546771E-02  0.1020427E+00
         21   -1    0    0  504  503  0.00000000000E+00  0.00000000000E+00  0.93164577384E+02  0.93164577384E+02  0.00000000000E+00 0. -1.
         21   -1    0    0  503  504 -0.00000000000E+00 -0.00000000000E+00 -0.60628540251E+03  0.60628540251E+03  0.00000000000E+00 0. -1.
         25    2    1    2    0    0  0.19039164363E+03 -0.23832681358E+02 -0.35012162639E+03  0.41836167364E+03  0.12499744813E+03 0.  0.
         25    2    1    2    0    0 -0.19039164363E+03  0.23832681358E+02 -0.16299919874E+03  0.28108830626E+03  0.12499968985E+03 0.  0.
          5    1    3    3  501    0  0.16431698198E+03 -0.60520130612E+02 -0.22395807732E+03  0.28432739434E+03  0.47000000000E+01 0. -1.
         -5    1    3    3    0  501  0.26074661647E+02  0.36687449254E+02 -0.12616354907E+03  0.13403427929E+03  0.47000000000E+01 0. -1.
          5    1    4    4  502    0 -0.75162459589E+02  0.34314495580E+02 -0.20170915063E+01  0.82783081584E+02  0.47000000000E+01 0. -1.
         -5    1    4    4    0  502 -0.11522918404E+03 -0.10481814222E+02 -0.16098210724E+03  0.19830522468E+03  0.47000000000E+01 0. -1.
<mgrwt>
<rscale>  0 0.47532862E+03</rscale>
<asrwt>0</asrwt>
<pdfrwt beam="1">  1       21 0.14333012E-01 0.47532862E+03</pdfrwt>
<pdfrwt beam="2">  1       21 0.93274677E-01 0.47532862E+03</pdfrwt>
<totfact> 0.37389455E+04</totfact>
</mgrwt>
</event>
<event>
 8    1  0.4760912E-006  0.4646095E+03  0.7546771E-02  0.1023453E+00
         21   -1    0    0  504  503  0.00000000000E+00  0.00000000000E+00  0.82233420055E+02  0.82233420055E+02  0.00000000000E+00 0.  1.
         21   -1    0    0  503  504 -0.00000000000E+00 -0.00000000000E+00 -0.65624788130E+03  0.65624788130E+03  0.00000000000E+00 0.  1.
         25    2    1    2    0    0 -0.13330526618E+03  0.69677406286E+02 -0.87747297904E+02  0.21435723490E+03  0.12499680366E+03 0.  0.
         25    2    1    2    0    0  0.13330526618E+03 -0.69677406286E+02 -0.48626716334E+03  0.52412406645E+03  0.12500019183E+03 0.  0.
          5    1    3    3  501    0 -0.55756854129E+02  0.96602241419E+02 -0.36420011754E+02  0.11742796552E+03  0.47000000000E+01 0. -1.
         -5    1    3    3    0  501 -0.77548412053E+02 -0.26924835133E+02 -0.51327286150E+02  0.96929269379E+02  0.47000000000E+01 0. -1.
          5    1    4    4  502    0  0.63396211018E+01 -0.67189532324E+02 -0.19280901898E+03  0.20433313939E+03  0.47000000000E+01 0.  1.
         -5    1    4    4    0  502  0.12696564508E+03 -0.24878739619E+01 -0.29345814435E+03  0.31979092707E+03  0.47000000000E+01 0.  1.
<mgrwt>
<rscale>  0 0.46460955E+03</rscale>
<asrwt>0</asrwt>
<pdfrwt beam="1">  1       21 0.12651295E-01 0.46460955E+03</pdfrwt>
<pdfrwt beam="2">  1       21 0.10096121E+00 0.46460955E+03</pdfrwt>
<totfact> 0.38959938E+04</totfact>
</mgrwt>
</event>
<event>
 8    1  0.4760912E-006  0.3094264E+03  0.7546771E-02  0.1080621E+00
         21   -1    0    0  504  503  0.00000000000E+00  0.00000000000E+00  0.38092406455E+02  0.38092406455E+02  0.00000000000E+00 0.  1.
         21   -1    0    0  503  504 -0.00000000000E+00 -0.00000000000E+00 -0.62837113400E+03  0.62837113400E+03  0.00000000000E+00 0.  1.
         25    2    1    2    0    0 -0.20789885895E+02 -0.44676295726E+02 -0.12993471552E+03  0.18691288622E+03  0.12500082393E+03 0.  0.
         25    2    1    2    0    0  0.20789885895E+02  0.44676295726E+02 -0.46034401203E+03  0.47955065423E+03  0.12499611919E+03 0.  0.
          5    1    3    3  501    0 -0.64976340669E+02  0.14016800210E+01 -0.91219707218E+02  0.11210269639E+03  0.47000000000E+01 0.  1.
         -5    1    3    3    0  501  0.44186454773E+02 -0.46077975746E+02 -0.38715008301E+02  0.74810189828E+02  0.47000000000E+01 0.  1.
          5    1    4    4  502    0  0.30886065985E+02  0.37108788950E+02 -0.46324450696E+03  0.46577738730E+03  0.47000000000E+01 0.  1.
         -5    1    4    4    0  502 -0.10096180089E+02  0.75675067759E+01  0.29004949354E+01  0.13773266935E+02  0.47000000000E+01 0.  1.
<mgrwt>
<rscale>  0 0.30942636E+03</rscale>
<asrwt>0</asrwt>
<pdfrwt beam="1">  1       21 0.58603702E-02 0.30942636E+03</pdfrwt>
<pdfrwt beam="2">  1       21 0.96672482E-01 0.30942636E+03</pdfrwt>
<totfact> 0.17618680E+05</totfact>
</mgrwt>
</event>
<event>
 8    1  0.4760912E-006  0.2626782E+03  0.7546771E-02  0.1105545E+00
         21   -1    0    0  504  503  0.00000000000E+00  0.00000000000E+00  0.54676505763E+02  0.54676505763E+02  0.00000000000E+00 0.  1.
         21   -1    0    0  503  504 -0.00000000000E+00 -0.00000000000E+00 -0.31549126637E+03  0.31549126637E+03  0.00000000000E+00 0.  1.
         25    2    1    2    0    0  0.23633367617E+02  0.26270224245E+02 -0.10309436229E+03  0.16583826397E+03  0.12500088605E+03 0.  0.
         25    2    1    2    0    0 -0.23633367617E+02 -0.26270224245E+02 -0.15772039832E+03  0.20432950816E+03  0.12500465237E+03 0.  0.
          5    1    3    3  501    0  0.48124063358E+02  0.14277878905E+02 -0.12221342468E+03  0.13220436631E+03  0.47000000000E+01 0. -1.
         -5    1    3    3    0  501 -0.24490695741E+02  0.11992345340E+02  0.19119062391E+02  0.33633897654E+02  0.47000000000E+01 0. -1.
          5    1    4    4  502    0  0.21070570054E+01  0.48750395850E+02 -0.75278914042E+02  0.89833432998E+02  0.47000000000E+01 0. -1.
         -5    1    4    4    0  502 -0.25740424622E+02 -0.75020620095E+02 -0.82441484275E+02  0.11449607517E+03  0.47000000000E+01 0. -1.
<mgrwt>
<rscale>  0 0.26267821E+03</rscale>
<asrwt>0</asrwt>
<pdfrwt beam="1">  1       21 0.84117701E-02 0.26267821E+03</pdfrwt>
<pdfrwt beam="2">  1       21 0.48537118E-01 0.26267821E+03</pdfrwt>
<totfact> 0.43907068E+05</totfact>
</mgrwt>
</event>
<event>
 8    1  0.4760912E-006  0.3210115E+03  0.7546771E-02  0.1075185E+00
         21   -1    0    0  504  503  0.00000000000E+00  0.00000000000E+00  0.11198796306E+03  0.11198796306E+03  0.00000000000E+00 0.  1.
         21   -1    0    0  503  504 -0.00000000000E+00 -0.00000000000E+00 -0.23004338663E+03  0.23004338663E+03  0.00000000000E+00 0.  1.
         25    2    1    2    0    0  0.17641694197E+02 -0.62136746883E+02  0.23261954597E+02  0.14261435132E+03  0.12500211991E+03 0.  0.
         25    2    1    2    0    0 -0.17641694197E+02  0.62136746883E+02 -0.14131737816E+03  0.19941699838E+03  0.12499733271E+03 0.  0.
          5    1    3    3  501    0 -0.39944001837E+02 -0.48768074124E+01 -0.25407414583E+02  0.47821890898E+02  0.47000000000E+01 0.  1.
         -5    1    3    3    0  501  0.57585696034E+02 -0.57259939471E+02  0.48669369180E+02  0.94792460419E+02  0.47000000000E+01 0.  1.
          5    1    4    4  502    0 -0.45911248879E+02  0.15084961414E+02 -0.13559809353E+03  0.14402892697E+03  0.47000000000E+01 0.  1.
         -5    1    4    4    0  502  0.28269554682E+02  0.47051785470E+02 -0.57192846321E+01  0.55388071410E+02  0.47000000000E+01 0.  1.
<mgrwt>
<rscale>  0 0.32101147E+03</rscale>
<asrwt>0</asrwt>
<pdfrwt beam="1">  1       21 0.17228917E-01 0.32101147E+03</pdfrwt>
<pdfrwt beam="2">  1       21 0.35391290E-01 0.32101147E+03</pdfrwt>
<totfact> 0.22694199E+05</totfact>
</mgrwt>
</event>
<event>
 8    1  0.4760912E-006  0.3291489E+03  0.7546771E-02  0.1071514E+00
         21   -1    0    0  504  503  0.00000000000E+00  0.00000000000E+00  0.25724949943E+02  0.25724949943E+02  0.00000000000E+00 0. -1.
         21   -1    0    0  503  504 -0.00000000000E+00 -0.00000000000E+00 -0.10528589429E+04  0.10528589429E+04  0.00000000000E+00 0. -1.
         25    2    1    2    0    0 -0.10828033191E+02  0.36550039214E+02 -0.84137061948E+03  0.85146309877E+03  0.12502694742E+03 0.  0.
         25    2    1    2    0    0  0.10828033191E+02 -0.36550039214E+02 -0.18576337343E+03  0.22712079403E+03  0.12499068965E+03 0.  0.
          5    1    3    3  501    0  0.35011171005E+02  0.33596800576E+02 -0.71932158193E+03  0.72097167443E+03  0.47000000000E+01 0. -1.
         -5    1    3    3    0  501 -0.45839204196E+02  0.29532386375E+01 -0.12204903755E+03  0.13049142434E+03  0.47000000000E+01 0. -1.
          5    1    4    4  502    0  0.35647767376E+02 -0.29995168408E+02 -0.19414385900E+03  0.19971079449E+03  0.47000000000E+01 0. -1.
         -5    1    4    4    0  502 -0.24819734185E+02 -0.65548708054E+01  0.83804855686E+01  0.27409999538E+02  0.47000000000E+01 0. -1.
<mgrwt>
<rscale>  0 0.32914886E+03</rscale>
<asrwt>0</asrwt>
<pdfrwt beam="1">  1       21 0.39576841E-02 0.32914886E+03</pdfrwt>
<pdfrwt beam="2">  1       21 0.16197832E+00 0.32914886E+03</pdfrwt>
<totfact> 0.91833261E+04</totfact>
</mgrwt>
</event>
<event>
 8    1  0.4760912E-006  0.2883211E+03  0.7546771E-02  0.1091229E+00
         21   -1    0    0  504  503  0.00000000000E+00  0.00000000000E+00  0.62433042815E+03  0.62433042815E+03  0.00000000000E+00 0.  1.
         21   -1    0    0  503  504 -0.00000000000E+00 -0.00000000000E+00 -0.33287284249E+02  0.33287284249E+02  0.00000000000E+00 0.  1.
         25    2    1    2    0    0 -0.67489885538E+01 -0.48660990638E+02  0.17611145976E+03  0.22148527640E+03  0.12500816192E+03 0.  0.
         25    2    1    2    0    0  0.67489885538E+01  0.48660990638E+02  0.41493168413E+03  0.43613243599E+03  0.12501903204E+03 0.  0.
          5    1    3    3  501    0  0.52472972572E+02  0.32805557789E+01  0.49922291237E+02  0.72653286637E+02  0.47000000000E+01 0.  1.
         -5    1    3    3    0  501 -0.59221961126E+02 -0.51941546417E+02  0.12618916853E+03  0.14883198976E+03  0.47000000000E+01 0.  1.
          5    1    4    4  502    0 -0.10418622043E+02 -0.36156220874E+02  0.21360674126E+03  0.21694642174E+03  0.47000000000E+01 0. -1.
         -5    1    4    4    0  502  0.17167610597E+02  0.84817211512E+02  0.20132494287E+03  0.21918601425E+03  0.47000000000E+01 0. -1.
<mgrwt>
<rscale>  0 0.28832110E+03</rscale>
<asrwt>0</asrwt>
<pdfrwt beam="1">  1       21 0.96050826E-01 0.28832110E+03</pdfrwt>
<pdfrwt beam="2">  1       21 0.51211211E-02 0.28832110E+03</pdfrwt>
<totfact> 0.22676896E+05</totfact>
</mgrwt>
</event>
<event>
 8    1  0.4760912E-006  0.3897806E+03  0.7546771E-02  0.1047377E+00
         21   -1    0    0  504  503  0.00000000000E+00  0.00000000000E+00  0.11528288269E+04  0.11528288269E+04  0.00000000000E+00 0. -1.
         21   -1    0    0  503  504 -0.00000000000E+00 -0.00000000000E+00 -0.32946978321E+02  0.32946978321E+02  0.00000000000E+00 0. -1.
         25    2    1    2    0    0 -0.39778979809E+02  0.41770554285E+02  0.14028406284E+03  0.19654950478E+03  0.12499977242E+03 0.  0.
         25    2    1    2    0    0  0.39778979809E+02 -0.41770554285E+02  0.97959778578E+03  0.98922630048E+03  0.12501881942E+03 0.  0.
          5    1    3    3  501    0 -0.17770724216E+02  0.42429730193E+02  0.16004631325E+03  0.16659229583E+03  0.47000000000E+01 0. -1.
         -5    1    3    3    0  501 -0.22008255593E+02 -0.65917590849E+00 -0.19762250413E+02  0.29957208957E+02  0.47000000000E+01 0. -1.
          5    1    4    4  502    0 -0.10118010752E+02  0.10851148269E+02  0.70511688701E+03  0.70528861887E+03  0.47000000000E+01 0. -1.
         -5    1    4    4    0  502  0.49896990561E+02 -0.52621702553E+02  0.27448089877E+03  0.28393768161E+03  0.47000000000E+01 0. -1.
<mgrwt>
<rscale>  0 0.38978059E+03</rscale>
<asrwt>0</asrwt>
<pdfrwt beam="1">  1       21 0.17735825E+00 0.38978059E+03</pdfrwt>
<pdfrwt beam="2">  1       21 0.50687668E-02 0.38978059E+03</pdfrwt>
<totfact> 0.45692128E+04</totfact>
</mgrwt>
</event>
<event>
 8    1  0.4760912E-006  0.3239843E+03  0.7546771E-02  0.1073830E+00
         21   -1    0    0  504  503  0.00000000000E+00  0.00000000000E+00  0.99902020109E+02  0.99902020109E+02  0.00000000000E+00 0.  1.
         21   -1    0    0  503  504 -0.00000000000E+00 -0.00000000000E+00 -0.26267195579E+03  0.26267195579E+03  0.00000000000E+00 0.  1.
         25    2    1    2    0    0  0.36301984371E+02 -0.96233651312E+02 -0.88221985701E+02  0.18435636802E+03  0.12500160781E+03 0.  0.
         25    2    1    2    0    0 -0.36301984371E+02  0.96233651312E+02 -0.74547949980E+02  0.17821760788E+03  0.12500147678E+03 0.  0.
          5    1    3    3  501    0 -0.39580096818E+02 -0.68727776750E+02 -0.30895963889E+02  0.85245187229E+02  0.47000000000E+01 0.  1.
         -5    1    3    3    0  501  0.75882081190E+02 -0.27505874563E+02 -0.57326021812E+02  0.99111180792E+02  0.47000000000E+01 0.  1.
          5    1    4    4  502    0  0.29056638392E+01  0.65339578483E+02 -0.10184648966E+03  0.12113009888E+03  0.47000000000E+01 0.  1.
         -5    1    4    4    0  502 -0.39207648210E+02  0.30894072830E+02  0.27298539685E+02  0.57087508994E+02  0.47000000000E+01 0.  1.
<mgrwt>
<rscale>  0 0.32398431E+03</rscale>
<asrwt>0</asrwt>
<pdfrwt beam="1">  1       21 0.15369542E-01 0.32398431E+03</pdfrwt>
<pdfrwt beam="2">  1       21 0.40411070E-01 0.32398431E+03</pdfrwt>
<totfact> 0.21416286E+05</totfact>
</mgrwt>
</event>
<event>
 8    1  0.4760912E-006  0.2687089E+03  0.7546771E-02  0.1102021E+00
         21   -1    0    0  504  503  0.00000000000E+00  0.00000000000E+00  0.13407963274E+03  0.13407963274E+03  0.00000000000E+00 0.  1.
         21   -1    0    0  503  504 -0.00000000000E+00 -0.00000000000E+00 -0.13462986745E+03  0.13462986745E+03  0.00000000000E+00 0.  1.
         25    2    1    2    0    0 -0.35915640077E+02 -0.33166993000E+02  0.57367522523E+01  0.13434418161E+03  0.12500186471E+03 0.  0.
         25    2    1    2    0    0  0.35915640077E+02  0.33166993000E+02 -0.62869869701E+01  0.13436531858E+03  0.12499812000E+03 0.  0.
          5    1    3    3  501    0  0.40718803109E+02 -0.30454300403E+02 -0.17663635018E+02  0.54033131889E+02  0.47000000000E+01 0.  1.
         -5    1    3    3    0  501 -0.76634443186E+02 -0.27126925966E+01  0.23400387271E+02  0.80311049725E+02  0.47000000000E+01 0.  1.
          5    1    4    4  502    0  0.32788760342E+02  0.28950393176E+02 -0.63207817210E+02  0.77010039776E+02  0.47000000000E+01 0.  1.
         -5    1    4    4    0  502  0.31268797352E+01  0.42165998244E+01  0.56920830240E+02  0.57355278800E+02  0.47000000000E+01 0.  1.
<mgrwt>
<rscale>  0 0.26870894E+03</rscale>
<asrwt>0</asrwt>
<pdfrwt beam="1">  1       21 0.20627636E-01 0.26870894E+03</pdfrwt>
<pdfrwt beam="2">  1       21 0.20712287E-01 0.26870894E+03</pdfrwt>
<totfact> 0.46402618E+05</totfact>
</mgrwt>
</event>
<event>
 8    1  0.4760912E-006  0.3297444E+03  0.7546771E-02  0.1071250E+00
         21   -1    0    0  504  503  0.00000000000E+00  0.00000000000E+00  0.82564121063E+03  0.82564121063E+03  0.00000000000E+00 0. -1.
         21   -1    0    0  503  504 -0.00000000000E+00 -0.00000000000E+00 -0.32923317985E+02  0.32923317985E+02  0.00000000000E+00 0. -1.
         25    2    1    2    0    0 -0.36329611656E+02 -0.28106568323E+02  0.64943129974E+03  0.66294522853E+03  0.12500217229E+03 0.  0.
         25    2    1    2    0    0  0.36329611656E+02  0.28106568323E+02  0.14328659290E+03  0.19561930008E+03  0.12500417191E+03 0.  0.
          5    1    3    3  501    0  0.24614690775E+02 -0.14211789898E+02  0.50090636745E+03  0.50173412972E+03  0.47000000000E+01 0. -1.
         -5    1    3    3    0  501 -0.60944302431E+02 -0.13894778426E+02  0.14852493229E+03  0.16121109881E+03  0.47000000000E+01 0. -1.
          5    1    4    4  502    0  0.71673326734E+02  0.40728161036E+02  0.13278715870E+03  0.15636613567E+03  0.47000000000E+01 0.  1.
         -5    1    4    4    0  502 -0.35343715078E+02 -0.12621592712E+02  0.10499434192E+02  0.39253164414E+02  0.47000000000E+01 0.  1.
<mgrwt>
<rscale>  0 0.32974444E+03</rscale>
<asrwt>0</asrwt>
<pdfrwt beam="1">  1       21 0.12702171E+00 0.32974444E+03</pdfrwt>
<pdfrwt beam="2">  1       21 0.50651264E-02 0.32974444E+03</pdfrwt>
<totfact> 0.11488015E+05</totfact>
</mgrwt>
</event>
<event>
 8    1  0.4760912E-006  0.2743366E+03  0.7546771E-02  0.1098823E+00
         21   -1    0    0  504  503  0.00000000000E+00  0.00000000000E+00  0.64241410464E+02  0.64241410464E+02  0.00000000000E+00 0.  1.
         21   -1    0    0  503  504 -0.00000000000E+00 -0.00000000000E+00 -0.29288193551E+03  0.29288193551E+03  0.00000000000E+00 0.  1.
         25    2    1    2    0    0 -0.30080233248E+02  0.45116348107E+02 -0.13489902329E+03  0.19173525649E+03  0.12499742716E+03 0.  0.
         25    2    1    2    0    0  0.30080233248E+02 -0.45116348107E+02 -0.93741501757E+02  0.16538808949E+03  0.12500178276E+03 0.  0.
          5    1    3    3  501    0 -0.26349945605E+01  0.77739487435E+02 -0.39997139309E+02  0.87591279565E+02  0.47000000000E+01 0.  1.
         -5    1    3    3    0  501 -0.27445238687E+02 -0.32623139328E+02 -0.94901883977E+02  0.10414397692E+03  0.47000000000E+01 0.  1.
          5    1    4    4  502    0 -0.36362663523E-01 -0.57866813546E+02 -0.11307364911E+03  0.12710747246E+03  0.47000000000E+01 0.  1.
         -5    1    4    4    0  502  0.30116595912E+02  0.12750465439E+02  0.19332147357E+02  0.38280617023E+02  0.47000000000E+01 0.  1.
<mgrwt>
<rscale>  0 0.27433664E+03</rscale>
<asrwt>0</asrwt>
<pdfrwt beam="1">  1       21 0.98832939E-02 0.27433664E+03</pdfrwt>
<pdfrwt beam="2">  1       21 0.45058759E-01 0.27433664E+03</pdfrwt>
<totfact> 0.38456135E+05</totfact>
</mgrwt>
</event>
<event>
 8    1  0.4760912E-006  0.3878770E+03  0.7546771E-02  0.1048060E+00
         21   -1    0    0  504  503  0.00000000000E+00  0.00000000000E+00  0.14003305843E+03  0.14003305843E+03  0.00000000000E+00 0. -1.
         21   -1    0    0  503  504 -0.00000000000E+00 -0.00000000000E+00 -0.26859478281E+03  0.26859478281E+03  0.00000000000E+00 0. -1.
         25    2    1    2    0    0  0.11718519030E+03  0.84342411186E+02 -0.99874990060E+02  0.21551005054E+03  0.12499422824E+03 0.  0.
         25    2    1    2    0    0 -0.11718519030E+03 -0.84342411186E+02 -0.28686734319E+02  0.19311779070E+03  0.12500216482E+03 0.  0.
          5    1    3    3  501    0  0.40813078278E+02  0.46626261666E+02  0.22710425980E+02  0.66163200374E+02  0.47000000000E+01 0.  1.
         -5    1    3    3    0  501  0.76372112021E+02  0.37716149520E+02 -0.12258541604E+03  0.14934685017E+03  0.47000000000E+01 0.  1.
          5    1    4    4  502    0 -0.35508586456E+02 -0.17866014001E+02 -0.69398785832E+02  0.80114515809E+02  0.47000000000E+01 0. -1.
         -5    1    4    4    0  502 -0.81676603844E+02 -0.66476397185E+02  0.40712051514E+02  0.11300327489E+03  0.47000000000E+01 0. -1.
<mgrwt>
<rscale>  0 0.38787704E+03</rscale>
<asrwt>0</asrwt>
<pdfrwt beam="1">  1       21 0.21543548E-01 0.38787704E+03</pdfrwt>
<pdfrwt beam="2">  1       21 0.41322274E-01 0.38787704E+03</pdfrwt>
<totfact> 0.10708763E+05</totfact>
</mgrwt>
</event>
<event>
 8    1  0.4760912E-006  0.6654787E+03  0.7546771E-02  0.9778160E-01
         21   -1    0    0  504  503  0.00000000000E+00  0.00000000000E+00  0.62699969727E+03  0.62699969727E+03  0.00000000000E+00 0. -1.
         21   -1    0    0  503  504 -0.00000000000E+00 -0.00000000000E+00 -0.17657979358E+03  0.17657979358E+03  0.00000000000E+00 0. -1.
         25    2    1    2    0    0 -0.13715704767E+03  0.63653835093E+01 -0.10820212857E+03  0.21490608836E+03  0.12499740939E+03 0.  0.
         25    2    1    2    0    0  0.13715704767E+03 -0.63653835093E+01  0.55862203226E+03  0.58867340250E+03  0.12500090417E+03 0.  0.
          5    1    3    3  501    0 -0.45646034467E+02  0.54877579744E+02 -0.10237074006E+02  0.72263385649E+02  0.47000000000E+01 0. -1.
         -5    1    3    3    0  501 -0.91511013207E+02 -0.48512196235E+02 -0.97965054564E+02  0.14264270271E+03  0.47000000000E+01 0. -1.
          5    1    4    4  502    0  0.15962776249E+03  0.20881880523E+01  0.50674879824E+03  0.53132082361E+03  0.47000000000E+01 0. -1.
         -5    1    4    4    0  502 -0.22470714817E+02 -0.84535715616E+01  0.51873234020E+02  0.57352578880E+02  0.47000000000E+01 0. -1.
<mgrwt>
<rscale>  0 0.66547871E+03</rscale>
<asrwt>0</asrwt>
<pdfrwt beam="1">  1       21 0.96461491E-01 0.66547871E+03</pdfrwt>
<pdfrwt beam="2">  1       21 0.27166122E-01 0.66547871E+03</pdfrwt>
<totfact> 0.97598476E+03</totfact>
</mgrwt>
</event>
<event>
 8    1  0.4760912E-006  0.3900146E+03  0.7546771E-02  0.1047293E+00
         21   -1    0    0  504  503  0.00000000000E+00  0.00000000000E+00  0.69835990578E+02  0.69835990578E+02  0.00000000000E+00 0. -1.
         21   -1    0    0  503  504 -0.00000000000E+00 -0.00000000000E+00 -0.54453085991E+03  0.54453085991E+03  0.00000000000E+00 0. -1.
         25    2    1    2    0    0 -0.63179055463E+02  0.10534961225E+03 -0.10263428726E+03  0.20309453998E+03  0.12499384545E+03 0.  0.
         25    2    1    2    0    0  0.63179055463E+02 -0.10534961225E+03 -0.37206058208E+03  0.41127231051E+03  0.12500281119E+03 0.  0.
          5    1    3    3  501    0 -0.64650929507E+02  0.10101387286E+03 -0.12883787509E+03  0.17608189360E+03  0.47000000000E+01 0.  1.
         -5    1    3    3    0  501  0.14718740440E+01  0.43357393889E+01  0.26203587834E+02  0.27012646383E+02  0.47000000000E+01 0.  1.
          5    1    4    4  502    0  0.17395582598E+01 -0.33409584021E+02 -0.74983768091E+01  0.34605520112E+02  0.47000000000E+01 0. -1.
         -5    1    4    4    0  502  0.61439497203E+02 -0.71940028224E+02 -0.36456220527E+03  0.37666679040E+03  0.47000000000E+01 0. -1.
<mgrwt>
<rscale>  0 0.39001463E+03</rscale>
<asrwt>0</asrwt>
<pdfrwt beam="1">  1       21 0.10743998E-01 0.39001463E+03</pdfrwt>
<pdfrwt beam="2">  1       21 0.83773980E-01 0.39001463E+03</pdfrwt>
<totfact> 0.83127609E+04</totfact>
</mgrwt>
</event>
<event>
 8    1  0.4760912E-006  0.4312148E+03  0.7546771E-02  0.1033477E+00
         21   -1    0    0  504  503  0.00000000000E+00  0.00000000000E+00  0.23343917073E+03  0.23343917073E+03  0.00000000000E+00 0. -1.
         21   -1    0    0  503  504 -0.00000000000E+00 -0.00000000000E+00 -0.19913771673E+03  0.19913771673E+03  0.00000000000E+00 0. -1.
         25    2    1    2    0    0 -0.10275050631E+03 -0.38059897663E+02  0.15489869984E+03  0.22720918419E+03  0.12499673521E+03 0.  0.
         25    2    1    2    0    0  0.10275050631E+03  0.38059897663E+02 -0.12059724585E+03  0.20536770326E+03  0.12500390187E+03 0.  0.
          5    1    3    3  501    0  0.15806627921E+02  0.17238125499E+02  0.62729877971E+02  0.67112815819E+02  0.47000000000E+01 0.  1.
         -5    1    3    3    0  501 -0.11855713423E+03 -0.55298023162E+02  0.92168821871E+02  0.16009636838E+03  0.47000000000E+01 0.  1.
          5    1    4    4  502    0  0.64450670869E+02 -0.28325942194E+02 -0.10791848970E+02  0.71377881594E+02  0.47000000000E+01 0. -1.
         -5    1    4    4    0  502  0.38299835438E+02  0.66385839857E+02 -0.10980539688E+03  0.13398982167E+03  0.47000000000E+01 0. -1.
<mgrwt>
<rscale>  0 0.43121477E+03</rscale>
<asrwt>0</asrwt>
<pdfrwt beam="1">  1       21 0.35913718E-01 0.43121477E+03</pdfrwt>
<pdfrwt beam="2">  1       21 0.30636572E-01 0.43121477E+03</pdfrwt>
<totfact> 0.71185035E+04</totfact>
</mgrwt>
</event>
<event>
 8    1  0.4760912E-006  0.2592769E+03  0.7546771E-02  0.1107578E+00
         21   -1    0    0  504  503  0.00000000000E+00  0.00000000000E+00  0.27868218813E+03  0.27868218813E+03  0.00000000000E+00 0.  1.
         21   -1    0    0  503  504 -0.00000000000E+00 -0.00000000000E+00 -0.60305717333E+02  0.60305717333E+02  0.00000000000E+00 0.  1.
         25    2    1    2    0    0 -0.29575817812E+02  0.15888640628E+02  0.11880833952E+03  0.17569069223E+03  0.12499847958E+03 0.  0.
         25    2    1    2    0    0  0.29575817812E+02 -0.15888640628E+02  0.99568131271E+02  0.16329721323E+03  0.12499995673E+03 0.  0.
          5    1    3    3  501    0  0.18164645583E+02  0.45263718541E+02  0.10774394686E+03  0.11836218421E+03  0.47000000000E+01 0. -1.
         -5    1    3    3    0  501 -0.47740463394E+02 -0.29375077913E+02  0.11064392660E+02  0.57328508025E+02  0.47000000000E+01 0. -1.
          5    1    4    4  502    0 -0.17211987627E+02 -0.99197944544E+01 -0.23670240140E+02  0.31257400857E+02  0.47000000000E+01 0.  1.
         -5    1    4    4    0  502  0.46787805438E+02 -0.59688461739E+01  0.12323837141E+03  0.13203981237E+03  0.47000000000E+01 0.  1.
<mgrwt>
<rscale>  0 0.25927691E+03</rscale>
<asrwt>0</asrwt>
<pdfrwt beam="1">  1       21 0.42874182E-01 0.25927691E+03</pdfrwt>
<pdfrwt beam="2">  1       21 0.92778028E-02 0.25927691E+03</pdfrwt>
<totfact> 0.47800982E+05</totfact>
</mgrwt>
</event>
<event>
 8    1  0.4760912E-006  0.3693873E+03  0.7546771E-02  0.1054927E+00
         21   -1    0    0  504  503  0.00000000000E+00  0.00000000000E+00  0.29748452542E+03  0.29748452542E+03  0.00000000000E+00 0.  1.
         21   -1    0    0  503  504 -0.00000000000E+00 -0.00000000000E+00 -0.11466729206E+03  0.11466729206E+03  0.00000000000E+00 0.  1.
         25    2    1    2    0    0  0.85553548258E+02 -0.34578935228E+02 -0.20005481173E+02  0.15666051056E+03  0.12500873534E+03 0.  0.
         25    2    1    2    0    0 -0.85553548258E+02  0.34578935228E+02  0.20282271454E+03  0.25549130692E+03  0.12499456788E+03 0.  0.
          5    1    3    3  501    0 -0.30976798205E+02 -0.14553675021E+02 -0.16480437693E+02  0.38276184635E+02  0.47000000000E+01 0. -1.
         -5    1    3    3    0  501  0.11653034646E+03 -0.20025260207E+02 -0.35250434799E+01  0.11838432593E+03  0.47000000000E+01 0. -1.
          5    1    4    4  502    0 -0.11023831778E+03  0.64664323617E+01  0.18056055494E+03  0.21170381540E+03  0.47000000000E+01 0. -1.
         -5    1    4    4    0  502  0.24684769524E+02  0.28112502866E+02  0.22262159599E+02  0.43787491523E+02  0.47000000000E+01 0. -1.
<mgrwt>
<rscale>  0 0.36938730E+03</rscale>
<asrwt>0</asrwt>
<pdfrwt beam="1">  1       21 0.45766850E-01 0.36938730E+03</pdfrwt>
<pdfrwt beam="2">  1       21 0.17641122E-01 0.36938730E+03</pdfrwt>
<totfact> 0.12690632E+05</totfact>
</mgrwt>
</event>
<event>
 8    1  0.4760912E-006  0.3433777E+03  0.7546771E-02  0.1065366E+00
         21   -1    0    0  504  503  0.00000000000E+00  0.00000000000E+00  0.60943707238E+02  0.60943707238E+02  0.00000000000E+00 0. -1.
         21   -1    0    0  503  504 -0.00000000000E+00 -0.00000000000E+00 -0.48367688279E+03  0.48367688279E+03  0.00000000000E+00 0. -1.
         25    2    1    2    0    0 -0.53253287114E+02  0.54521374993E+02 -0.35365844966E+03  0.38274902178E+03  0.12495607924E+03 0.  0.
         25    2    1    2    0    0  0.53253287114E+02 -0.54521374993E+02 -0.69074725897E+02  0.16187156825E+03  0.12499037535E+03 0.  0.
          5    1    3    3  501    0 -0.50427793016E+02 -0.20001895725E+02 -0.66102819273E+02  0.85642926485E+02  0.47000000000E+01 0.  1.
         -5    1    3    3    0  501 -0.28254940987E+01  0.74523270719E+02 -0.28755563038E+03  0.29710609529E+03  0.47000000000E+01 0.  1.
          5    1    4    4  502    0 -0.24014188735E+01 -0.52032691274E+02 -0.88404429424E+02  0.10271611809E+03  0.47000000000E+01 0. -1.
         -5    1    4    4    0  502  0.55654705988E+02 -0.24886837191E+01  0.19329703527E+02  0.59155450160E+02  0.47000000000E+01 0. -1.
<mgrwt>
<rscale>  0 0.34337771E+03</rscale>
<asrwt>0</asrwt>
<pdfrwt beam="1">  1       21 0.93759549E-02 0.34337771E+03</pdfrwt>
<pdfrwt beam="2">  1       21 0.74411829E-01 0.34337771E+03</pdfrwt>
<totfact> 0.14073637E+05</totfact>
</mgrwt>
</event>
<event>
 8    1  0.4760912E-006  0.3153824E+03  0.7546771E-02  0.1077794E+00
         21   -1    0    0  504  503  0.00000000000E+00  0.00000000000E+00  0.12035520884E+03  0.12035520884E+03  0.00000000000E+00 0.  1.
         21   -1    0    0  503  504 -0.00000000000E+00 -0.00000000000E+00 -0.20660943124E+03  0.20660943124E+03  0.00000000000E+00 0.  1.
         25    2    1    2    0    0  0.81869392944E+02  0.32942850766E+02 -0.35953025521E+01  0.15305658705E+03  0.12500225486E+03 0.  0.
         25    2    1    2    0    0 -0.81869392944E+02 -0.32942850766E+02 -0.82658919844E+02  0.17390805303E+03  0.12499473973E+03 0.  0.
          5    1    3    3  501    0 -0.32818663544E+02  0.16049588465E+02 -0.38580576115E+01  0.37035504253E+02  0.47000000000E+01 0.  1.
         -5    1    3    3    0  501  0.11468805649E+03  0.16893262300E+02  0.26275505937E+00  0.11602108279E+03  0.47000000000E+01 0.  1.
          5    1    4    4  502    0  0.90953416738E+01 -0.57364038018E+02 -0.25258723829E+02  0.63509457778E+02  0.47000000000E+01 0. -1.
         -5    1    4    4    0  502 -0.90964734618E+02  0.24421187252E+02 -0.57400196015E+02  0.11039859525E+03  0.47000000000E+01 0. -1.
<mgrwt>
<rscale>  0 0.31538244E+03</rscale>
<asrwt>0</asrwt>
<pdfrwt beam="1">  1       21 0.18516186E-01 0.31538244E+03</pdfrwt>
<pdfrwt beam="2">  1       21 0.31786066E-01 0.31538244E+03</pdfrwt>
<totfact> 0.24612177E+05</totfact>
</mgrwt>
</event>
<event>
 8    1  0.4760912E-006  0.3525387E+03  0.7546771E-02  0.1061578E+00
         21   -1    0    0  504  503  0.00000000000E+00  0.00000000000E+00  0.14864339064E+03  0.14864339064E+03  0.00000000000E+00 0. -1.
         21   -1    0    0  503  504 -0.00000000000E+00 -0.00000000000E+00 -0.20902968665E+03  0.20902968665E+03  0.00000000000E+00 0. -1.
         25    2    1    2    0    0 -0.96561847943E+02 -0.25479673982E+02  0.44862190786E+02  0.16616305598E+03  0.12499656294E+03 0.  0.
         25    2    1    2    0    0  0.96561847943E+02  0.25479673982E+02 -0.10524848679E+03  0.19151002130E+03  0.12500176008E+03 0.  0.
          5    1    3    3  501    0 -0.11873773842E+03  0.35891515152E+01  0.17303309245E+02  0.12013753387E+03  0.47000000000E+01 0. -1.
         -5    1    3    3    0  501  0.22175890474E+02 -0.29068825497E+02  0.27558881541E+02  0.46025522114E+02  0.47000000000E+01 0. -1.
          5    1    4    4  502    0 -0.15463701741E+02 -0.27036085505E+02 -0.43637424313E+01  0.31799500609E+02  0.47000000000E+01 0.  1.
         -5    1    4    4    0  502  0.11202554968E+03  0.52515759486E+02 -0.10088474436E+03  0.15971052070E+03  0.47000000000E+01 0.  1.
<mgrwt>
<rscale>  0 0.35253869E+03</rscale>
<asrwt>0</asrwt>
<pdfrwt beam="1">  1       21 0.22868214E-01 0.35253869E+03</pdfrwt>
<pdfrwt beam="2">  1       21 0.32158413E-01 0.35253869E+03</pdfrwt>
<totfact> 0.15993638E+05</totfact>
</mgrwt>
</event>
<event>
 8    1  0.4760912E-006  0.2569556E+03  0.7546771E-02  0.1108986E+00
         21   -1    0    0  504  503  0.00000000000E+00  0.00000000000E+00  0.30534143950E+03  0.30534143950E+03  0.00000000000E+00 0.  1.
         21   -1    0    0  503  504 -0.00000000000E+00 -0.00000000000E+00 -0.54059298100E+02  0.54059298100E+02  0.00000000000E+00 0.  1.
         25    2    1    2    0    0 -0.24401723541E+02 -0.14478875565E+02  0.11338193624E+03  0.17112824957E+03  0.12499732952E+03 0.  0.
         25    2    1    2    0    0  0.24401723541E+02  0.14478875565E+02  0.13790020516E+03  0.18827248803E+03  0.12499992486E+03 0.  0.
          5    1    3    3  501    0 -0.11426581713E+02  0.25473836976E+02  0.12429055151E+03  0.12747436736E+03  0.47000000000E+01 0.  1.
         -5    1    3    3    0  501 -0.12975141828E+02 -0.39952712542E+02 -0.10908615269E+02  0.43653882210E+02  0.47000000000E+01 0.  1.
          5    1    4    4  502    0  0.41847358063E+02  0.21650002642E+01  0.15492532658E+03  0.16056100217E+03  0.47000000000E+01 0. -1.
         -5    1    4    4    0  502 -0.17445634522E+02  0.12313875301E+02 -0.17025121422E+02  0.27711485854E+02  0.47000000000E+01 0. -1.
<mgrwt>
<rscale>  0 0.25695559E+03</rscale>
<asrwt>0</asrwt>
<pdfrwt beam="1">  1       21 0.46975605E-01 0.25695559E+03</pdfrwt>
<pdfrwt beam="2">  1       21 0.83168153E-02 0.25695559E+03</pdfrwt>
<totfact> 0.48005635E+05</totfact>
</mgrwt>
</event>
<event>
 8    1  0.4760912E-006  0.5625168E+03  0.7546771E-02  0.9986376E-01
         21   -1    0    0  504  503  0.00000000000E+00  0.00000000000E+00  0.18372186581E+04  0.18372186581E+04  0.00000000000E+00 0. -1.
         21   -1    0    0  503  504 -0.00000000000E+00 -0.00000000000E+00 -0.43057639011E+02  0.43057639011E+02  0.00000000000E+00 0. -1.
         25    2    1    2    0    0 -0.12626422944E+03 -0.97670872618E+02  0.15486640419E+04  0.15618781980E+04  0.12498374141E+03 0.  0.
         25    2    1    2    0    0  0.12626422944E+03  0.97670872618E+02  0.24549697718E+03  0.31839809914E+03  0.12500531483E+03 0.  0.
          5    1    3    3  501    0 -0.36891494126E+02 -0.28952898739E+02  0.12244394466E+03  0.13120160925E+03  0.47000000000E+01 0.  1.
         -5    1    3    3    0  501 -0.89372735309E+02 -0.68717973880E+02  0.14262200972E+04  0.14306765887E+04  0.47000000000E+01 0.  1.
          5    1    4    4  502    0  0.47879810241E+02  0.11292598332E+03  0.15033492280E+03  0.19408099585E+03  0.47000000000E+01 0.  1.
         -5    1    4    4    0  502  0.78384419194E+02 -0.15255110702E+02  0.95162054381E+02  0.12431710328E+03  0.47000000000E+01 0.  1.
<mgrwt>
<rscale>  0 0.56251684E+03</rscale>
<asrwt>0</asrwt>
<pdfrwt beam="1">  1       21 0.28264896E+00 0.56251684E+03</pdfrwt>
<pdfrwt beam="2">  1       21 0.66242536E-02 0.56251684E+03</pdfrwt>
<totfact> 0.57375118E+03</totfact>
</mgrwt>
</event>
<event>
 8    1  0.4760912E-006  0.2793145E+03  0.7546771E-02  0.1096064E+00
         21   -1    0    0  504  503  0.00000000000E+00  0.00000000000E+00  0.61863648450E+02  0.61863648450E+02  0.00000000000E+00 0. -1.
         21   -1    0    0  503  504 -0.00000000000E+00 -0.00000000000E+00 -0.31527628011E+03  0.31527628011E+03  0.00000000000E+00 0. -1.
         25    2    1    2    0    0  0.38220481472E+02  0.48862556425E+02 -0.13370209114E+03  0.19328157172E+03  0.12503264441E+03 0.  0.
         25    2    1    2    0    0 -0.38220481472E+02 -0.48862556425E+02 -0.11971054052E+03  0.18385835684E+03  0.12499970898E+03 0.  0.
          5    1    3    3  501    0  0.59729941120E+02  0.47503008219E+02 -0.22200344329E+02  0.79618760003E+02  0.47000000000E+01 0.  1.
         -5    1    3    3    0  501 -0.21509459648E+02  0.13595482063E+01 -0.11150174681E+03  0.11366281172E+03  0.47000000000E+01 0.  1.
          5    1    4    4  502    0 -0.38325536897E+02  0.24427041813E+02 -0.27762635773E+01  0.45774717799E+02  0.47000000000E+01 0.  1.
         -5    1    4    4    0  502  0.10505542571E+00 -0.73289598238E+02 -0.11693427694E+03  0.13808363904E+03  0.47000000000E+01 0.  1.
<mgrwt>
<rscale>  0 0.27931445E+03</rscale>
<asrwt>0</asrwt>
<pdfrwt beam="1">  1       21 0.95174845E-02 0.27931445E+03</pdfrwt>
<pdfrwt beam="2">  1       21 0.48504042E-01 0.27931445E+03</pdfrwt>
<totfact> 0.35237169E+05</totfact>
</mgrwt>
</event>
<event>
 8    1  0.4760912E-006  0.3413113E+03  0.7546771E-02  0.1066239E+00
         21   -1    0    0  504  503  0.00000000000E+00  0.00000000000E+00  0.66149697563E+03  0.66149697563E+03  0.00000000000E+00 0. -1.
         21   -1    0    0  503  504 -0.00000000000E+00 -0.00000000000E+00 -0.44026423800E+02  0.44026423800E+02  0.00000000000E+00 0. -1.
         25    2    1    2    0    0  0.11339194886E+03 -0.14771166525E+02  0.35122886263E+03  0.38995237140E+03  0.12500086635E+03 0.  0.
         25    2    1    2    0    0 -0.11339194886E+03  0.14771166525E+02  0.26624168920E+03  0.31557102803E+03  0.12499806094E+03 0.  0.
          5    1    3    3  501    0  0.91688581711E+02 -0.27235511089E+02  0.10384084640E+03  0.14125714305E+03  0.47000000000E+01 0. -1.
         -5    1    3    3    0  501  0.21703367150E+02  0.12464344563E+02  0.24738801623E+03  0.24869522835E+03  0.47000000000E+01 0. -1.
          5    1    4    4  502    0 -0.28742744885E+02  0.29831088491E+02  0.20674955236E+03  0.21091113443E+03  0.47000000000E+01 0. -1.
         -5    1    4    4    0  502 -0.84649203975E+02 -0.15059921966E+02  0.59492136834E+02  0.10465989360E+03  0.47000000000E+01 0. -1.
<mgrwt>
<rscale>  0 0.34131127E+03</rscale>
<asrwt>0</asrwt>
<pdfrwt beam="1">  1       21 0.10176876E+00 0.34131127E+03</pdfrwt>
<pdfrwt beam="2">  1       21 0.67732964E-02 0.34131127E+03</pdfrwt>
<totfact> 0.12015300E+05</totfact>
</mgrwt>
</event>
<event>
 8    1  0.4760912E-006  0.2717536E+03  0.7546771E-02  0.1100280E+00
         21   -1    0    0  504  503  0.00000000000E+00  0.00000000000E+00  0.32303019118E+02  0.32303019118E+02  0.00000000000E+00 0. -1.
         21   -1    0    0  503  504 -0.00000000000E+00 -0.00000000000E+00 -0.57154118480E+03  0.57154118480E+03  0.00000000000E+00 0. -1.
         25    2    1    2    0    0 -0.37704499874E+02 -0.35008026495E+02 -0.23895274327E+03  0.27453492776E+03  0.12499528716E+03 0.  0.
         25    2    1    2    0    0  0.37704499874E+02  0.35008026495E+02 -0.30028542241E+03  0.32930927616E+03  0.12500429282E+03 0.  0.
          5    1    3    3  501    0 -0.31286512736E+02  0.11606449631E+02 -0.22162405732E+03  0.22417151544E+03  0.47000000000E+01 0. -1.
         -5    1    3    3    0  501 -0.64179871375E+01 -0.46614476127E+02 -0.17328685954E+02  0.50363412318E+02  0.47000000000E+01 0. -1.
          5    1    4    4  502    0  0.34087883751E+02  0.31894000359E+02 -0.31216512760E+03  0.31567129734E+03  0.47000000000E+01 0.  1.
         -5    1    4    4    0  502  0.36166161231E+01  0.31140261360E+01  0.11879705186E+02  0.13637978819E+02  0.47000000000E+01 0.  1.
<mgrwt>
<rscale>  0 0.27175361E+03</rscale>
<asrwt>0</asrwt>
<pdfrwt beam="1">  1       21 0.49696955E-02 0.27175361E+03</pdfrwt>
<pdfrwt beam="2">  1       21 0.87929408E-01 0.27175361E+03</pdfrwt>
<totfact> 0.29494856E+05</totfact>
</mgrwt>
</event>
<event>
 8    1  0.4760912E-006  0.4366646E+03  0.7546771E-02  0.1031775E+00
         21   -1    0    0  504  503  0.00000000000E+00  0.00000000000E+00  0.49635226162E+03  0.49635226162E+03  0.00000000000E+00 0. -1.
         21   -1    0    0  503  504 -0.00000000000E+00 -0.00000000000E+00 -0.96038616896E+02  0.96038616896E+02  0.00000000000E+00 0. -1.
         25    2    1    2    0    0 -0.14093597865E+03  0.73402344947E+02  0.88332072855E+02  0.22062697713E+03  0.12499141418E+03 0.  0.
         25    2    1    2    0    0  0.14093597865E+03 -0.73402344947E+02  0.31198157187E+03  0.37176390139E+03  0.12500017147E+03 0.  0.
          5    1    3    3  501    0 -0.98921228022E+02  0.10403415440E+03  0.87943063515E+02  0.16841789411E+03  0.47000000000E+01 0.  1.
         -5    1    3    3    0  501 -0.42014750631E+02 -0.30631809456E+02  0.38900934009E+00  0.52209083017E+02  0.47000000000E+01 0.  1.
          5    1    4    4  502    0  0.32029348706E+02  0.31597521242E+02  0.39437732178E+02  0.60014225368E+02  0.47000000000E+01 0. -1.
         -5    1    4    4    0  502  0.10890662995E+03 -0.10499986619E+03  0.27254383969E+03  0.31174967602E+03  0.47000000000E+01 0. -1.
<mgrwt>
<rscale>  0 0.43666456E+03</rscale>
<asrwt>0</asrwt>
<pdfrwt beam="1">  1       21 0.76361884E-01 0.43666456E+03</pdfrwt>
<pdfrwt beam="2">  1       21 0.14775172E-01 0.43666456E+03</pdfrwt>
<totfact> 0.56910135E+04</totfact>
</mgrwt>
</event>
<event>
 8    1  0.4760912E-006  0.5616936E+03  0.7546771E-02  0.9988230E-01
         21   -1    0    0  504  503  0.00000000000E+00  0.00000000000E+00  0.14323704177E+04  0.14323704177E+04  0.00000000000E+00 0.  1.
         21   -1    0    0  503  504 -0.00000000000E+00 -0.00000000000E+00 -0.55066014855E+02  0.55066014855E+02  0.00000000000E+00 0.  1.
         25    2    1    2    0    0 -0.12341334825E+03  0.15486424179E+03  0.10992063493E+04  0.11238743011E+04  0.12500023368E+03 0.  0.
         25    2    1    2    0    0  0.12341334825E+03 -0.15486424179E+03  0.27809805363E+03  0.36356213154E+03  0.12500043258E+03 0.  0.
          5    1    3    3  501    0 -0.22407048848E+02 -0.15228722743E+02  0.60058496363E+02  0.66053787324E+02  0.47000000000E+01 0. -1.
         -5    1    3    3    0  501 -0.10100629941E+03  0.17009296453E+03  0.10391478529E+04  0.10578205137E+04  0.47000000000E+01 0. -1.
          5    1    4    4  502    0 -0.63768166999E+01 -0.26831182358E+02 -0.33667832908E+01  0.28178029876E+02  0.47000000000E+01 0.  1.
         -5    1    4    4    0  502  0.12979016495E+03 -0.12803305943E+03  0.28146483692E+03  0.33538410166E+03  0.47000000000E+01 0.  1.
<mgrwt>
<rscale>  0 0.56169362E+03</rscale>
<asrwt>0</asrwt>
<pdfrwt beam="1">  1       21 0.22036465E+00 0.56169362E+03</pdfrwt>
<pdfrwt beam="2">  1       21 0.84716957E-02 0.56169362E+03</pdfrwt>
<totfact> 0.90529926E+03</totfact>
</mgrwt>
</event>
<event>
 8    1  0.4760912E-006  0.2597080E+03  0.7546771E-02  0.1107319E+00
         21   -1    0    0  504  503  0.00000000000E+00  0.00000000000E+00  0.17999479556E+03  0.17999479556E+03  0.00000000000E+00 0. -1.
         21   -1    0    0  503  504 -0.00000000000E+00 -0.00000000000E+00 -0.93680800077E+02  0.93680800077E+02  0.00000000000E+00 0. -1.
         25    2    1    2    0    0 -0.32119052922E+01  0.16818865853E+02  0.75524703317E+02  0.14703730498E+03  0.12499119033E+03 0.  0.
         25    2    1    2    0    0  0.32119052922E+01 -0.16818865853E+02  0.10789292168E+02  0.12663829066E+03  0.12501062855E+03 0.  0.
          5    1    3    3  501    0 -0.25966362204E+02 -0.41972287203E+02  0.13743357627E+01  0.49597415839E+02  0.47000000000E+01 0.  1.
         -5    1    3    3    0  501  0.22754456912E+02  0.58791153056E+02  0.74150367555E+02  0.97439889139E+02  0.47000000000E+01 0.  1.
          5    1    4    4  502    0 -0.41015264521E+02  0.28599017117E+02 -0.22326924321E+02  0.54961234096E+02  0.47000000000E+01 0.  1.
         -5    1    4    4    0  502  0.44227169813E+02 -0.45417882969E+02  0.33116216489E+02  0.71677056564E+02  0.47000000000E+01 0.  1.
<mgrwt>
<rscale>  0 0.25970796E+03</rscale>
<asrwt>0</asrwt>
<pdfrwt beam="1">  1       21 0.27691507E-01 0.25970796E+03</pdfrwt>
<pdfrwt beam="2">  1       21 0.14412431E-01 0.25970796E+03</pdfrwt>
<totfact> 0.51844740E+05</totfact>
</mgrwt>
</event>
<event>
 8    1  0.4760912E-006  0.4638305E+03  0.7546771E-02  0.1023676E+00
         21   -1    0    0  504  503  0.00000000000E+00  0.00000000000E+00  0.88806026445E+02  0.88806026445E+02  0.00000000000E+00 0. -1.
         21   -1    0    0  503  504 -0.00000000000E+00 -0.00000000000E+00 -0.60564217774E+03  0.60564217774E+03  0.00000000000E+00 0. -1.
         25    2    1    2    0    0 -0.19493753434E+03 -0.12324688458E+02 -0.25429092664E+03  0.34415266403E+03  0.12499856218E+03 0.  0.
         25    2    1    2    0    0  0.19493753434E+03  0.12324688458E+02 -0.26254522465E+03  0.35029554015E+03  0.12499772087E+03 0.  0.
          5    1    3    3  501    0 -0.17653308890E+03 -0.50634834375E+02 -0.23200535178E+03  0.29593308565E+03  0.47000000000E+01 0.  1.
         -5    1    3    3    0  501 -0.18404445441E+02  0.38310145917E+02 -0.22285574864E+02  0.48219578381E+02  0.47000000000E+01 0.  1.
          5    1    4    4  502    0  0.15501357872E+02  0.89975375994E+00  0.13309710131E+02  0.20984280700E+02  0.47000000000E+01 0.  1.
         -5    1    4    4    0  502  0.17943617647E+03  0.11424934698E+02 -0.27585493478E+03  0.32931125945E+03  0.47000000000E+01 0.  1.
<mgrwt>
<rscale>  0 0.46383047E+03</rscale>
<asrwt>0</asrwt>
<pdfrwt beam="1">  1       21 0.13662466E-01 0.46383047E+03</pdfrwt>
<pdfrwt beam="2">  1       21 0.93175717E-01 0.46383047E+03</pdfrwt>
<totfact> 0.41059069E+04</totfact>
</mgrwt>
</event>
<event>
 8    1  0.4760912E-006  0.2655805E+03  0.7546771E-02  0.1103836E+00
         21   -1    0    0  504  503  0.00000000000E+00  0.00000000000E+00  0.33823272528E+02  0.33823272528E+02  0.00000000000E+00 0.  1.
         21   -1    0    0  503  504 -0.00000000000E+00 -0.00000000000E+00 -0.52133492209E+03  0.52133492209E+03  0.00000000000E+00 0.  1.
         25    2    1    2    0    0  0.40757465447E+02  0.53774685210E+01 -0.28085953539E+03  0.31015786292E+03  0.12500293259E+03 0.  0.
         25    2    1    2    0    0 -0.40757465447E+02 -0.53774685210E+01 -0.20665211418E+03  0.24500033170E+03  0.12501991074E+03 0.  0.
          5    1    3    3  501    0 -0.21413139339E+01 -0.23103915261E+02  0.90186291402E+00  0.23691337710E+02  0.47000000000E+01 0. -1.
         -5    1    3    3    0  501  0.42898779381E+02  0.28481383782E+02 -0.28176139830E+03  0.28646652521E+03  0.47000000000E+01 0. -1.
          5    1    4    4  502    0 -0.22035679763E+02  0.22099422607E+02 -0.20897118973E+03  0.21134096574E+03  0.47000000000E+01 0. -1.
         -5    1    4    4    0  502 -0.18721785684E+02 -0.27476891128E+02  0.23190755534E+01  0.33659365958E+02  0.47000000000E+01 0. -1.
<mgrwt>
<rscale>  0 0.26558052E+03</rscale>
<asrwt>0</asrwt>
<pdfrwt beam="1">  1       21 0.52035806E-02 0.26558052E+03</pdfrwt>
<pdfrwt beam="2">  1       21 0.80205370E-01 0.26558052E+03</pdfrwt>
<totfact> 0.33743405E+05</totfact>
</mgrwt>
</event>
<event>
 8    1  0.4760912E-006  0.6414159E+03  0.7546771E-02  0.9823021E-01
         21   -1    0    0  504  503  0.00000000000E+00  0.00000000000E+00  0.24319427617E+03  0.24319427617E+03  0.00000000000E+00 0.  1.
         21   -1    0    0  503  504 -0.00000000000E+00 -0.00000000000E+00 -0.42292765044E+03  0.42292765044E+03  0.00000000000E+00 0.  1.
         25    2    1    2    0    0 -0.60918581065E+02  0.18446263838E+03 -0.32090363293E+03  0.39539954971E+03  0.12499649517E+03 0.  0.
         25    2    1    2    0    0  0.60918581065E+02 -0.18446263838E+03  0.14117025866E+03  0.27072237690E+03  0.12499609973E+03 0.  0.
          5    1    3    3  501    0 -0.56840411972E+02  0.16615175069E+02 -0.55405093749E+02  0.81232449729E+02  0.47000000000E+01 0.  1.
         -5    1    3    3    0  501 -0.40781690932E+01  0.16784746331E+03 -0.26549853918E+03  0.31416709998E+03  0.47000000000E+01 0.  1.
          5    1    4    4  502    0  0.11730763441E+02  0.11616575321E+02  0.42270788412E+02  0.45623077341E+02  0.47000000000E+01 0.  1.
         -5    1    4    4    0  502  0.49187817624E+02 -0.19607921370E+03  0.98899470247E+02  0.22509929956E+03  0.47000000000E+01 0.  1.
<mgrwt>
<rscale>  0 0.64141588E+03</rscale>
<asrwt>0</asrwt>
<pdfrwt beam="1">  1       21 0.37414504E-01 0.64141588E+03</pdfrwt>
<pdfrwt beam="2">  1       21 0.65065792E-01 0.64141588E+03</pdfrwt>
<totfact> 0.12864046E+04</totfact>
</mgrwt>
</event>
<event>
 8    1  0.4760912E-006  0.4816527E+03  0.7546771E-02  0.1018682E+00
         21   -1    0    0  504  503  0.00000000000E+00  0.00000000000E+00  0.63333644753E+03  0.63333644753E+03  0.00000000000E+00 0. -1.
         21   -1    0    0  503  504 -0.00000000000E+00 -0.00000000000E+00 -0.91574295960E+02  0.91574295960E+02  0.00000000000E+00 0. -1.
         25    2    1    2    0    0  0.65293063291E+02  0.76681858924E+02  0.68486324435E+00  0.16052318950E+03  0.12499573484E+03 0.  0.
         25    2    1    2    0    0 -0.65293063291E+02 -0.76681858924E+02  0.54107728832E+03  0.56438755399E+03  0.12500155021E+03 0.  0.
          5    1    3    3  501    0 -0.21714742880E+02  0.55396517179E+02  0.29142282824E+02  0.66420379569E+02  0.47000000000E+01 0. -1.
         -5    1    3    3    0  501  0.87007806170E+02  0.21285341745E+02 -0.28457419579E+02  0.94102809931E+02  0.47000000000E+01 0. -1.
          5    1    4    4  502    0  0.35314540087E+02 -0.13207130827E+02  0.86448933795E+02  0.94430149849E+02  0.47000000000E+01 0. -1.
         -5    1    4    4    0  502 -0.10060760338E+03 -0.63474728097E+02  0.45462835453E+03  0.46995740414E+03  0.47000000000E+01 0. -1.
<mgrwt>
<rscale>  0 0.48165274E+03</rscale>
<asrwt>0</asrwt>
<pdfrwt beam="1">  1       21 0.97436374E-01 0.48165274E+03</pdfrwt>
<pdfrwt beam="2">  1       21 0.14088354E-01 0.48165274E+03</pdfrwt>
<totfact> 0.34705953E+04</totfact>
</mgrwt>
</event>
<event>
 8    1  0.4760912E-006  0.2511873E+03  0.7546771E-02  0.1112557E+00
         21   -1    0    0  504  503  0.00000000000E+00  0.00000000000E+00  0.65187003531E+02  0.65187003531E+02  0.00000000000E+00 0. -1.
         21   -1    0    0  503  504 -0.00000000000E+00 -0.00000000000E+00 -0.24197723124E+03  0.24197723124E+03  0.00000000000E+00 0. -1.
         25    2    1    2    0    0  0.35557198815E+01 -0.11326306183E+02 -0.84898474905E+02  0.15157017764E+03  0.12499935741E+03 0.  0.
         25    2    1    2    0    0 -0.35557198815E+01  0.11326306183E+02 -0.91891752802E+02  0.15559405713E+03  0.12499795209E+03 0.  0.
          5    1    3    3  501    0  0.30470534268E+02 -0.56418364942E+02 -0.18731403573E+02  0.66965967783E+02  0.47000000000E+01 0. -1.
         -5    1    3    3    0  501 -0.26914814386E+02  0.45092058759E+02 -0.66167071332E+02  0.84604209855E+02  0.47000000000E+01 0. -1.
          5    1    4    4  502    0  0.41585968236E+02  0.88692460817E+01  0.10079515925E+02  0.43951597484E+02  0.47000000000E+01 0. -1.
         -5    1    4    4    0  502 -0.45141688117E+02  0.24570601009E+01 -0.10197126873E+03  0.11164245965E+03  0.47000000000E+01 0. -1.
<mgrwt>
<rscale>  0 0.25118735E+03</rscale>
<asrwt>0</asrwt>
<pdfrwt beam="1">  1       21 0.10028770E-01 0.25118735E+03</pdfrwt>
<pdfrwt beam="2">  1       21 0.37227267E-01 0.25118735E+03</pdfrwt>
<totfact> 0.55570019E+05</totfact>
</mgrwt>
</event>
<event>
 8    1  0.4760912E-006  0.3045235E+03  0.7546771E-02  0.1083001E+00
         21   -1    0    0  504  503  0.00000000000E+00  0.00000000000E+00  0.20035196747E+03  0.20035196747E+03  0.00000000000E+00 0.  1.
         21   -1    0    0  503  504 -0.00000000000E+00 -0.00000000000E+00 -0.11571454565E+03  0.11571454565E+03  0.00000000000E+00 0.  1.
         25    2    1    2    0    0  0.50230199501E+02 -0.57649739221E+02 -0.63137849220E+00  0.14653409520E+03  0.12500110816E+03 0.  0.
         25    2    1    2    0    0 -0.50230199501E+02  0.57649739221E+02  0.85268800310E+02  0.16953241792E+03  0.12499562810E+03 0.  0.
          5    1    3    3  501    0  0.16012746251E+02 -0.35179578504E+01 -0.57982788661E+02  0.60439042438E+02  0.47000000000E+01 0. -1.
         -5    1    3    3    0  501  0.34217453250E+02 -0.54131781370E+02  0.57351410169E+02  0.86095052759E+02  0.47000000000E+01 0. -1.
          5    1    4    4  502    0  0.41697152154E+02  0.13008979590E+02  0.30619810118E+02  0.53549498778E+02  0.47000000000E+01 0.  1.
         -5    1    4    4    0  502 -0.91927351655E+02  0.44640759631E+02  0.54648990192E+02  0.11598291914E+03  0.47000000000E+01 0.  1.
<mgrwt>
<rscale>  0 0.30452348E+03</rscale>
<asrwt>0</asrwt>
<pdfrwt beam="1">  1       21 0.30823380E-01 0.30452348E+03</pdfrwt>
<pdfrwt beam="2">  1       21 0.17802238E-01 0.30452348E+03</pdfrwt>
<totfact> 0.28214398E+05</totfact>
</mgrwt>
</event>
<event>
 8    1  0.4760912E-006  0.2980086E+03  0.7546771E-02  0.1086240E+00
         21   -1    0    0  504  503  0.00000000000E+00  0.00000000000E+00  0.73104719588E+02  0.73104719588E+02  0.00000000000E+00 0.  1.
         21   -1    0    0  503  504 -0.00000000000E+00 -0.00000000000E+00 -0.30370513083E+03  0.30370513083E+03  0.00000000000E+00 0.  1.
         25    2    1    2    0    0 -0.63439179850E+02  0.46652554443E+02 -0.90702712441E+02  0.17335854260E+03  0.12500084749E+03 0.  0.
         25    2    1    2    0    0  0.63439179850E+02 -0.46652554443E+02 -0.13989769880E+03  0.20345130781E+03  0.12498031103E+03 0.  0.
          5    1    3    3  501    0 -0.68511665888E+02  0.52861209653E+02 -0.46296775622E+01  0.86785250838E+02  0.47000000000E+01 0. -1.
         -5    1    3    3    0  501  0.50724860381E+01 -0.62086552098E+01 -0.86073034879E+02  0.86573291767E+02  0.47000000000E+01 0. -1.
          5    1    4    4  502    0  0.66134032828E+02 -0.58917768595E+02 -0.31343102848E+02  0.94071748418E+02  0.47000000000E+01 0. -1.
         -5    1    4    4    0  502 -0.26948529784E+01  0.12265214152E+02 -0.10855459595E+03  0.10937955940E+03  0.47000000000E+01 0. -1.
<mgrwt>
<rscale>  0 0.29800858E+03</rscale>
<asrwt>0</asrwt>
<pdfrwt beam="1">  1       21 0.11246880E-01 0.29800858E+03</pdfrwt>
<pdfrwt beam="2">  1       21 0.46723866E-01 0.29800858E+03</pdfrwt>
<totfact> 0.28168649E+05</totfact>
</mgrwt>
</event>
<event>
 8    1  0.4760912E-006  0.4235517E+03  0.7546771E-02  0.1035917E+00
         21   -1    0    0  504  503  0.00000000000E+00  0.00000000000E+00  0.12064404529E+04  0.12064404529E+04  0.00000000000E+00 0.  1.
         21   -1    0    0  503  504 -0.00000000000E+00 -0.00000000000E+00 -0.37174662833E+02  0.37174662833E+02  0.00000000000E+00 0.  1.
         25    2    1    2    0    0  0.10165788223E+02 -0.89035772521E+02  0.10120853205E+04  0.10237052211E+04  0.12499988625E+03 0.  0.
         25    2    1    2    0    0 -0.10165788223E+02  0.89035772521E+02  0.15718046947E+03  0.21990989460E+03  0.12499579882E+03 0.  0.
          5    1    3    3  501    0  0.81753220113E+01 -0.25420757205E+02  0.33756948845E+02  0.43297487020E+02  0.47000000000E+01 0.  1.
         -5    1    3    3    0  501  0.19904662119E+01 -0.63615015316E+02  0.97832837170E+03  0.98040773406E+03  0.47000000000E+01 0.  1.
          5    1    4    4  502    0  0.86745837962E+01  0.10876442915E+02  0.13579086387E+03  0.13658255425E+03  0.47000000000E+01 0.  1.
         -5    1    4    4    0  502 -0.18840372019E+02  0.78159329606E+02  0.21389605597E+02  0.83327340351E+02  0.47000000000E+01 0.  1.
<mgrwt>
<rscale>  0 0.42355173E+03</rscale>
<asrwt>0</asrwt>
<pdfrwt beam="1">  1       21 0.18560619E+00 0.42355173E+03</pdfrwt>
<pdfrwt beam="2">  1       21 0.57191798E-02 0.42355173E+03</pdfrwt>
<totfact> 0.32130592E+04</totfact>
</mgrwt>
</event>
<event>
 8    1  0.4760912E-006  0.3082913E+03  0.7546771E-02  0.1081168E+00
         21   -1    0    0  504  503  0.00000000000E+00  0.00000000000E+00  0.10192667378E+03  0.10192667378E+03  0.00000000000E+00 0. -1.
         21   -1    0    0  503  504 -0.00000000000E+00 -0.00000000000E+00 -0.23311736374E+03  0.23311736374E+03  0.00000000000E+00 0. -1.
         25    2    1    2    0    0  0.36698733574E+02  0.51100720277E+01  0.23785282076E+02  0.13252135848E+03  0.12499304352E+03 0.  0.
         25    2    1    2    0    0 -0.36698733574E+02 -0.51100720277E+01 -0.15497597204E+03  0.20252267904E+03  0.12499989494E+03 0.  0.
          5    1    3    3  501    0 -0.39253799575E+02 -0.11812815013E+02  0.34560955295E+02  0.53823350049E+02  0.47000000000E+01 0.  1.
         -5    1    3    3    0  501  0.75952533149E+02  0.16922887041E+02 -0.10775673220E+02  0.78698008430E+02  0.47000000000E+01 0.  1.
          5    1    4    4  502    0 -0.57441079080E+02  0.30631242262E+02 -0.31972282900E+02  0.72677833224E+02  0.47000000000E+01 0. -1.
         -5    1    4    4    0  502  0.20742345506E+02 -0.35741314289E+02 -0.12300368914E+03  0.12984484582E+03  0.47000000000E+01 0. -1.
<mgrwt>
<rscale>  0 0.30829127E+03</rscale>
<asrwt>0</asrwt>
<pdfrwt beam="1">  1       21 0.15681027E-01 0.30829127E+03</pdfrwt>
<pdfrwt beam="2">  1       21 0.35864210E-01 0.30829127E+03</pdfrwt>
<totfact> 0.26379033E+05</totfact>
</mgrwt>
</event>
<event>
 8    1  0.4760912E-006  0.3789233E+03  0.7546771E-02  0.1051332E+00
         21   -1    0    0  504  503  0.00000000000E+00  0.00000000000E+00  0.72206168336E+03  0.72206168336E+03  0.00000000000E+00 0.  1.
         21   -1    0    0  503  504 -0.00000000000E+00 -0.00000000000E+00 -0.49712802186E+02  0.49712802186E+02  0.00000000000E+00 0.  1.
         25    2    1    2    0    0 -0.12283128476E+03  0.53757118982E+02  0.23863047477E+03  0.30091061396E+03  0.12500136698E+03 0.  0.
         25    2    1    2    0    0  0.12283128476E+03 -0.53757118982E+02  0.43371840640E+03  0.47086387158E+03  0.12499510852E+03 0.  0.
          5    1    3    3  501    0 -0.14193538704E+03  0.26778277986E+02  0.21835398937E+03  0.26184591832E+03  0.47000000000E+01 0.  1.
         -5    1    3    3    0  501  0.19104102277E+02  0.26978840997E+02  0.20276485398E+02  0.39064695640E+02  0.47000000000E+01 0.  1.
          5    1    4    4  502    0  0.19108664644E+02  0.16763834131E+02  0.23095013187E+03  0.23239238501E+03  0.47000000000E+01 0.  1.
         -5    1    4    4    0  502  0.10372262012E+03 -0.70520953113E+02  0.20276827453E+03  0.23847148657E+03  0.47000000000E+01 0.  1.
<mgrwt>
<rscale>  0 0.37892326E+03</rscale>
<asrwt>0</asrwt>
<pdfrwt beam="1">  1       21 0.11108640E+00 0.37892326E+03</pdfrwt>
<pdfrwt beam="2">  1       21 0.76481240E-02 0.37892326E+03</pdfrwt>
<totfact> 0.77602119E+04</totfact>
</mgrwt>
</event>
<event>
 8    1  0.4760912E-006  0.3238215E+03  0.7546771E-02  0.1073904E+00
         21   -1    0    0  504  503  0.00000000000E+00  0.00000000000E+00  0.46818180066E+03  0.46818180066E+03  0.00000000000E+00 0. -1.
         21   -1    0    0  503  504 -0.00000000000E+00 -0.00000000000E+00 -0.55993393373E+02  0.55993393373E+02  0.00000000000E+00 0. -1.
         25    2    1    2    0    0 -0.45650514078E+02 -0.49098771255E+02  0.79700587770E+02  0.16269447445E+03  0.12499059785E+03 0.  0.
         25    2    1    2    0    0  0.45650514078E+02  0.49098771255E+02  0.33248781952E+03  0.36148071958E+03  0.12500200690E+03 0.  0.
          5    1    3    3  501    0 -0.76922770364E+02 -0.26940917129E+02  0.91201983217E+02  0.12240431920E+03  0.47000000000E+01 0. -1.
         -5    1    3    3    0  501  0.31272256286E+02 -0.22157854126E+02 -0.11501395447E+02  0.40290155248E+02  0.47000000000E+01 0. -1.
          5    1    4    4  502    0 -0.22398278465E+01  0.69262122815E+02  0.91316418739E+02  0.11473027855E+03  0.47000000000E+01 0. -1.
         -5    1    4    4    0  502  0.47890341924E+02 -0.20163351561E+02  0.24117140078E+03  0.24675044103E+03  0.47000000000E+01 0. -1.
<mgrwt>
<rscale>  0 0.32382148E+03</rscale>
<asrwt>0</asrwt>
<pdfrwt beam="1">  1       21 0.72027967E-01 0.32382148E+03</pdfrwt>
<pdfrwt beam="2">  1       21 0.86143685E-02 0.32382148E+03</pdfrwt>
<totfact> 0.17681705E+05</totfact>
</mgrwt>
</event>
<event>
 8    1  0.4760912E-006  0.3297831E+03  0.7546771E-02  0.1071233E+00
         21   -1    0    0  504  503  0.00000000000E+00  0.00000000000E+00  0.36770036985E+02  0.36770036985E+02  0.00000000000E+00 0.  1.
         21   -1    0    0  503  504 -0.00000000000E+00 -0.00000000000E+00 -0.73943957563E+03  0.73943957563E+03  0.00000000000E+00 0.  1.
         25    2    1    2    0    0 -0.87169678311E+02 -0.44324595044E+02 -0.24608170018E+03  0.29282354595E+03  0.12500481334E+03 0.  0.
         25    2    1    2    0    0  0.87169678311E+02  0.44324595044E+02 -0.45658783847E+03  0.48338606667E+03  0.12500565054E+03 0.  0.
          5    1    3    3  501    0 -0.19013008122E+02 -0.61538284779E+02 -0.19604927592E+03  0.20641187843E+03  0.47000000000E+01 0.  1.
         -5    1    3    3    0  501 -0.68156670189E+02  0.17213689735E+02 -0.50032424264E+02  0.86411667518E+02  0.47000000000E+01 0.  1.
          5    1    4    4  502    0  0.16613808908E+02  0.71323850981E+02 -0.30810559631E+03  0.31672426311E+03  0.47000000000E+01 0. -1.
         -5    1    4    4    0  502  0.70555869403E+02 -0.26999255937E+02 -0.14848224215E+03  0.16666180355E+03  0.47000000000E+01 0. -1.
<mgrwt>
<rscale>  0 0.32978308E+03</rscale>
<asrwt>0</asrwt>
<pdfrwt beam="1">  1       21 0.56569292E-02 0.32978308E+03</pdfrwt>
<pdfrwt beam="2">  1       21 0.11375993E+00 0.32978308E+03</pdfrwt>
<totfact> 0.12536943E+05</totfact>
</mgrwt>
</event>
<event>
 8    1  0.4760912E-006  0.3070400E+03  0.7546771E-02  0.1081773E+00
         21   -1    0    0  504  503  0.00000000000E+00  0.00000000000E+00  0.66610225311E+02  0.66610225311E+02  0.00000000000E+00 0.  1.
         21   -1    0    0  503  504 -0.00000000000E+00 -0.00000000000E+00 -0.35382548041E+03  0.35382548041E+03  0.00000000000E+00 0.  1.
         25    2    1    2    0    0 -0.36736340868E+02 -0.45206315896E+01 -0.32588242475E+02  0.13437650066E+03  0.12500022213E+03 0.  0.
         25    2    1    2    0    0  0.36736340868E+02  0.45206315896E+01 -0.25462701262E+03  0.28605920506E+03  0.12499983356E+03 0.  0.
          5    1    3    3  501    0 -0.72981716275E+02 -0.22361702165E+02 -0.48661822595E+02  0.90644578505E+02  0.47000000000E+01 0.  1.
         -5    1    3    3    0  501  0.36245375407E+02  0.17841070575E+02  0.16073580120E+02  0.43731922157E+02  0.47000000000E+01 0.  1.
          5    1    4    4  502    0  0.62736825872E+02 -0.36139773570E+02 -0.96938258509E+02  0.12108306453E+03  0.47000000000E+01 0. -1.
         -5    1    4    4    0  502 -0.26000485004E+02  0.40660405159E+02 -0.15768875411E+03  0.16497614052E+03  0.47000000000E+01 0. -1.
<mgrwt>
<rscale>  0 0.30704003E+03</rscale>
<asrwt>0</asrwt>
<pdfrwt beam="1">  1       21 0.10247727E-01 0.30704003E+03</pdfrwt>
<pdfrwt beam="2">  1       21 0.54434689E-01 0.30704003E+03</pdfrwt>
<totfact> 0.24063835E+05</totfact>
</mgrwt>
</event>
<event>
 8    1  0.4760912E-006  0.3025434E+03  0.7546771E-02  0.1083976E+00
         21   -1    0    0  504  503  0.00000000000E+00  0.00000000000E+00  0.36567607289E+03  0.36567607289E+03  0.00000000000E+00 0. -1.
         21   -1    0    0  503  504 -0.00000000000E+00 -0.00000000000E+00 -0.62577588156E+02  0.62577588156E+02  0.00000000000E+00 0. -1.
         25    2    1    2    0    0 -0.35850296721E+02  0.77259854188E+02  0.15405469665E+03  0.21590463501E+03  0.12501053163E+03 0.  0.
         25    2    1    2    0    0  0.35850296721E+02 -0.77259854188E+02  0.14904378809E+03  0.21234902604E+03  0.12499491688E+03 0.  0.
          5    1    3    3  501    0 -0.22321246026E+02  0.89727018578E+02  0.40977726677E+02  0.10124445649E+03  0.47000000000E+01 0. -1.
         -5    1    3    3    0  501 -0.13529050695E+02 -0.12467164390E+02  0.11307696997E+03  0.11466017852E+03  0.47000000000E+01 0. -1.
          5    1    4    4  502    0 -0.91285976820E+01 -0.50879287411E+02 -0.25513099365E+01  0.51967608810E+02  0.47000000000E+01 0.  1.
         -5    1    4    4    0  502  0.44978894403E+02 -0.26380566778E+02  0.15159509803E+03  0.16038141723E+03  0.47000000000E+01 0.  1.
<mgrwt>
<rscale>  0 0.30254340E+03</rscale>
<asrwt>0</asrwt>
<pdfrwt beam="1">  1       21 0.56257856E-01 0.30254340E+03</pdfrwt>
<pdfrwt beam="2">  1       21 0.96273215E-02 0.30254340E+03</pdfrwt>
<totfact> 0.25090960E+05</totfact>
</mgrwt>
</event>
<event>
 8    1  0.4760912E-006  0.8378189E+03  0.7546771E-02  0.9506833E-01
         21   -1    0    0  504  503  0.00000000000E+00  0.00000000000E+00  0.13254844361E+03  0.13254844361E+03  0.00000000000E+00 0. -1.
         21   -1    0    0  503  504 -0.00000000000E+00 -0.00000000000E+00 -0.13239320427E+04  0.13239320427E+04  0.00000000000E+00 0. -1.
         25    2    1    2    0    0 -0.12985735829E+03  0.36445049463E+03 -0.77102892265E+03  0.87166409482E+03  0.12500239235E+03 0.  0.
         25    2    1    2    0    0  0.12985735829E+03 -0.36445049463E+03 -0.42035467641E+03  0.58481639146E+03  0.12500024480E+03 0.  0.
          5    1    3    3  501    0 -0.14533201589E+03  0.31149909493E+03 -0.71251161497E+03  0.79110553812E+03  0.47000000000E+01 0.  1.
         -5    1    3    3    0  501  0.15474657605E+02  0.52951399702E+02 -0.58517307685E+02  0.80558556697E+02  0.47000000000E+01 0.  1.
          5    1    4    4  502    0 -0.54541711383E+01 -0.28839203077E+02 -0.90124885913E+02  0.94900119482E+02  0.47000000000E+01 0. -1.
         -5    1    4    4    0  502  0.13531152943E+03 -0.33561129155E+03 -0.33022979050E+03  0.48991627198E+03  0.47000000000E+01 0. -1.
<mgrwt>
<rscale>  0 0.83781891E+03</rscale>
<asrwt>0</asrwt>
<pdfrwt beam="1">  1       21 0.20392069E-01 0.83781891E+03</pdfrwt>
<pdfrwt beam="2">  1       21 0.20368184E+00 0.83781891E+03</pdfrwt>
<totfact> 0.21376951E+03</totfact>
</mgrwt>
</event>
<event>
 8    1  0.4760912E-006  0.3320225E+03  0.7546771E-02  0.1070245E+00
         21   -1    0    0  504  503  0.00000000000E+00  0.00000000000E+00  0.39930696162E+03  0.39930696162E+03  0.00000000000E+00 0. -1.
         21   -1    0    0  503  504 -0.00000000000E+00 -0.00000000000E+00 -0.69018935664E+02  0.69018935664E+02  0.00000000000E+00 0. -1.
         25    2    1    2    0    0 -0.45492453647E+02 -0.91571921515E+02  0.11089577125E+03  0.19590498981E+03  0.12500365116E+03 0.  0.
         25    2    1    2    0    0  0.45492453647E+02  0.91571921515E+02  0.21939225470E+03  0.27242090747E+03  0.12500083702E+03 0.  0.
          5    1    3    3  501    0  0.42104190362E+02 -0.46196687203E+02  0.40665524994E+02  0.74717278307E+02  0.47000000000E+01 0.  1.
         -5    1    3    3    0  501 -0.87596644010E+02 -0.45375234312E+02  0.70230246260E+02  0.12118771151E+03  0.47000000000E+01 0.  1.
          5    1    4    4  502    0  0.83803676278E+02  0.63308423823E+02  0.18737806920E+03  0.21485726309E+03  0.47000000000E+01 0. -1.
         -5    1    4    4    0  502 -0.38311222630E+02  0.28263497691E+02  0.32014185501E+02  0.57563644382E+02  0.47000000000E+01 0. -1.
<mgrwt>
<rscale>  0 0.33202254E+03</rscale>
<asrwt>0</asrwt>
<pdfrwt beam="1">  1       21 0.61431839E-01 0.33202254E+03</pdfrwt>
<pdfrwt beam="2">  1       21 0.10618298E-01 0.33202254E+03</pdfrwt>
<totfact> 0.17295624E+05</totfact>
</mgrwt>
</event>
<event>
 8    1  0.4760912E-006  0.3065040E+03  0.7546771E-02  0.1082034E+00
         21   -1    0    0  504  503  0.00000000000E+00  0.00000000000E+00  0.65095782393E+03  0.65095782393E+03  0.00000000000E+00 0.  1.
         21   -1    0    0  503  504 -0.00000000000E+00 -0.00000000000E+00 -0.36079408184E+02  0.36079408184E+02  0.00000000000E+00 0.  1.
         25    2    1    2    0    0  0.16002617624E+02  0.36910932471E+02  0.48454377625E+03  0.50202267790E+03  0.12500238926E+03 0.  0.
         25    2    1    2    0    0 -0.16002617624E+02 -0.36910932471E+02  0.13033463950E+03  0.18501455421E+03  0.12499906524E+03 0.  0.
          5    1    3    3  501    0  0.50637271788E+02  0.54279875812E+02  0.42046382133E+03  0.42699221686E+03  0.47000000000E+01 0.  1.
         -5    1    3    3    0  501 -0.34634654164E+02 -0.17368943340E+02  0.64079954920E+02  0.75030461043E+02  0.47000000000E+01 0.  1.
          5    1    4    4  502    0 -0.63806792102E+02 -0.23973138437E+02  0.11353536878E+03  0.13250806786E+03  0.47000000000E+01 0. -1.
         -5    1    4    4    0  502  0.47804174479E+02 -0.12937794034E+02  0.16799270719E+02  0.52506486349E+02  0.47000000000E+01 0. -1.
<mgrwt>
<rscale>  0 0.30650398E+03</rscale>
<asrwt>0</asrwt>
<pdfrwt beam="1">  1       21 0.10014735E+00 0.30650398E+03</pdfrwt>
<pdfrwt beam="2">  1       21 0.55506787E-02 0.30650398E+03</pdfrwt>
<totfact> 0.17793491E+05</totfact>
</mgrwt>
</event>
<event>
 8    1  0.4760912E-006  0.2625576E+03  0.7546771E-02  0.1105616E+00
         21   -1    0    0  504  503  0.00000000000E+00  0.00000000000E+00  0.77995136925E+02  0.77995136925E+02  0.00000000000E+00 0.  1.
         21   -1    0    0  503  504 -0.00000000000E+00 -0.00000000000E+00 -0.22096404628E+03  0.22096404628E+03  0.00000000000E+00 0.  1.
         25    2    1    2    0    0 -0.50004807084E+01  0.26279417168E+02 -0.37440889873E+02  0.13320489582E+03  0.12500444577E+03 0.  0.
         25    2    1    2    0    0  0.50004807084E+01 -0.26279417168E+02 -0.10552801948E+03  0.16575428738E+03  0.12499083292E+03 0.  0.
          5    1    3    3  501    0 -0.42775872476E+02  0.52411321445E+02 -0.51260046284E+02  0.85008259756E+02  0.47000000000E+01 0.  1.
         -5    1    3    3    0  501  0.37775391768E+02 -0.26131904277E+02  0.13819156411E+02  0.48196636068E+02  0.47000000000E+01 0.  1.
          5    1    4    4  502    0 -0.67063996537E+01 -0.75029733891E+02 -0.48688391069E+02  0.89816959361E+02  0.47000000000E+01 0. -1.
         -5    1    4    4    0  502  0.11706880362E+02  0.48750316723E+02 -0.56839628408E+02  0.75937328015E+02  0.47000000000E+01 0. -1.
<mgrwt>
<rscale>  0 0.26255758E+03</rscale>
<asrwt>0</asrwt>
<pdfrwt beam="1">  1       21 0.11999252E-01 0.26255758E+03</pdfrwt>
<pdfrwt beam="2">  1       21 0.33994469E-01 0.26255758E+03</pdfrwt>
<totfact> 0.48259302E+05</totfact>
</mgrwt>
</event>
<event>
 8    1  0.4760912E-006  0.3173856E+03  0.7546771E-02  0.1076859E+00
         21   -1    0    0  504  503  0.00000000000E+00  0.00000000000E+00  0.11124665213E+03  0.11124665213E+03  0.00000000000E+00 0.  1.
         21   -1    0    0  503  504 -0.00000000000E+00 -0.00000000000E+00 -0.22637443699E+03  0.22637443699E+03  0.00000000000E+00 0.  1.
         25    2    1    2    0    0 -0.46582389198E+02  0.85941287794E+02 -0.59087676237E+02  0.16932547633E+03  0.12499575800E+03 0.  0.
         25    2    1    2    0    0  0.46582389198E+02 -0.85941287794E+02 -0.56040108628E+02  0.16829561279E+03  0.12500838204E+03 0.  0.
          5    1    3    3  501    0 -0.73046793372E+02  0.87434479043E+01 -0.45027032330E+02  0.86381743115E+02  0.47000000000E+01 0. -1.
         -5    1    3    3    0  501  0.26464404174E+02  0.77197839890E+02 -0.14060643907E+02  0.82943733211E+02  0.47000000000E+01 0. -1.
          5    1    4    4  502    0  0.35556740209E+02 -0.13548047046E+02  0.34622455291E+02  0.51658840128E+02  0.47000000000E+01 0. -1.
         -5    1    4    4    0  502  0.11025648989E+02 -0.72393240748E+02 -0.90662563919E+02  0.11663677267E+03  0.47000000000E+01 0. -1.
<mgrwt>
<rscale>  0 0.31738556E+03</rscale>
<asrwt>0</asrwt>
<pdfrwt beam="1">  1       21 0.17114870E-01 0.31738556E+03</pdfrwt>
<pdfrwt beam="2">  1       21 0.34826836E-01 0.31738556E+03</pdfrwt>
<totfact> 0.23748281E+05</totfact>
</mgrwt>
</event>
<event>
 8    1  0.4760912E-006  0.3743303E+03  0.7546771E-02  0.1053049E+00
         21   -1    0    0  504  503  0.00000000000E+00  0.00000000000E+00  0.71870832793E+03  0.71870832793E+03  0.00000000000E+00 0.  1.
         21   -1    0    0  503  504 -0.00000000000E+00 -0.00000000000E+00 -0.48741316847E+02  0.48741316847E+02  0.00000000000E+00 0.  1.
         25    2    1    2    0    0 -0.84177447942E+02  0.11018635723E+03  0.36240625817E+03  0.40766441922E+03  0.12500042670E+03 0.  0.
         25    2    1    2    0    0  0.84177447942E+02 -0.11018635723E+03  0.30756075292E+03  0.35978522556E+03  0.12499966295E+03 0.  0.
          5    1    3    3  501    0 -0.10986040298E+03  0.75786412288E+02  0.20677336046E+03  0.24615076890E+03  0.47000000000E+01 0.  1.
         -5    1    3    3    0  501  0.25682955042E+02  0.34399944938E+02  0.15563289771E+03  0.16151365032E+03  0.47000000000E+01 0.  1.
          5    1    4    4  502    0  0.26398625935E+02  0.23986634040E+02  0.33367369843E+02  0.49068497369E+02  0.47000000000E+01 0.  1.
         -5    1    4    4    0  502  0.57778822008E+02 -0.13417299127E+03  0.27419338307E+03  0.31071672819E+03  0.47000000000E+01 0.  1.
<mgrwt>
<rscale>  0 0.37433028E+03</rscale>
<asrwt>0</asrwt>
<pdfrwt beam="1">  1       21 0.11057050E+00 0.37433028E+03</pdfrwt>
<pdfrwt beam="2">  1       21 0.74986646E-02 0.37433028E+03</pdfrwt>
<totfact> 0.81370161E+04</totfact>
</mgrwt>
</event>
<event>
 8    1  0.4760912E-006  0.3131211E+03  0.7546771E-02  0.1078859E+00
         21   -1    0    0  504  503  0.00000000000E+00  0.00000000000E+00  0.86463661859E+02  0.86463661859E+02  0.00000000000E+00 0.  1.
         21   -1    0    0  503  504 -0.00000000000E+00 -0.00000000000E+00 -0.28348567005E+03  0.28348567005E+03  0.00000000000E+00 0.  1.
         25    2    1    2    0    0  0.25890056779E+01  0.76530164553E+02 -0.16346016919E+03  0.21956822785E+03  0.12500964256E+03 0.  0.
         25    2    1    2    0    0 -0.25890056779E+01 -0.76530164553E+02 -0.33561839005E+02  0.15038110406E+03  0.12499804152E+03 0.  0.
          5    1    3    3  501    0 -0.43940177477E+02  0.13656094422E+02 -0.12293847275E+03  0.13135138443E+03  0.47000000000E+01 0.  1.
         -5    1    3    3    0  501  0.46529183155E+02  0.62874070131E+02 -0.40521696440E+02  0.88216843416E+02  0.47000000000E+01 0.  1.
          5    1    4    4  502    0 -0.14760278535E+02 -0.95212458597E+02 -0.61444553793E+02  0.11437133070E+03  0.47000000000E+01 0.  1.
         -5    1    4    4    0  502  0.12171272857E+02  0.18682294044E+02  0.27882714788E+02  0.36009773363E+02  0.47000000000E+01 0.  1.
<mgrwt>
<rscale>  0 0.31312112E+03</rscale>
<asrwt>0</asrwt>
<pdfrwt beam="1">  1       21 0.13302102E-01 0.31312112E+03</pdfrwt>
<pdfrwt beam="2">  1       21 0.43613180E-01 0.31312112E+03</pdfrwt>
<totfact> 0.23913336E+05</totfact>
</mgrwt>
</event>
<event>
 8    1  0.4760912E-006  0.3069210E+03  0.7546771E-02  0.1081831E+00
         21   -1    0    0  504  503  0.00000000000E+00  0.00000000000E+00  0.47571069663E+03  0.47571069663E+03  0.00000000000E+00 0.  1.
         21   -1    0    0  503  504 -0.00000000000E+00 -0.00000000000E+00 -0.49505146589E+02  0.49505146589E+02  0.00000000000E+00 0.  1.
         25    2    1    2    0    0 -0.73608547657E+02 -0.34504978190E+02  0.27504622500E+03  0.31286612983E+03  0.12500390994E+03 0.  0.
         25    2    1    2    0    0  0.73608547657E+02  0.34504978190E+02  0.15115932505E+03  0.21234971339E+03  0.12503778397E+03 0.  0.
          5    1    3    3  501    0 -0.35866866246E+02  0.13563112039E+02  0.87559663896E+01  0.39612460791E+02  0.47000000000E+01 0. -1.
         -5    1    3    3    0  501 -0.37741681411E+02 -0.48068090229E+02  0.26629025861E+03  0.27325366904E+03  0.47000000000E+01 0. -1.
          5    1    4    4  502    0  0.79813012282E+02 -0.12360284694E+01  0.29367129201E+02  0.85183114368E+02  0.47000000000E+01 0.  1.
         -5    1    4    4    0  502 -0.62044646247E+01  0.35741006659E+02  0.12179219585E+03  0.12716659903E+03  0.47000000000E+01 0.  1.
<mgrwt>
<rscale>  0 0.30692102E+03</rscale>
<asrwt>0</asrwt>
<pdfrwt beam="1">  1       21 0.73186258E-01 0.30692102E+03</pdfrwt>
<pdfrwt beam="2">  1       21 0.76161767E-02 0.30692102E+03</pdfrwt>
<totfact> 0.21271120E+05</totfact>
</mgrwt>
</event>
<event>
 8    1  0.4760912E-006  0.3709419E+03  0.7546771E-02  0.1054333E+00
         21   -1    0    0  504  503  0.00000000000E+00  0.00000000000E+00  0.37650464697E+03  0.37650464697E+03  0.00000000000E+00 0.  1.
         21   -1    0    0  503  504 -0.00000000000E+00 -0.00000000000E+00 -0.91365346990E+02  0.91365346990E+02  0.00000000000E+00 0.  1.
         25    2    1    2    0    0 -0.42688564195E+01  0.27413224378E+02 -0.26675884881E+02  0.13078965133E+03  0.12499848821E+03 0.  0.
         25    2    1    2    0    0  0.42688564195E+01 -0.27413224378E+02  0.31181518486E+03  0.33708034263E+03  0.12499895947E+03 0.  0.
          5    1    3    3  501    0  0.57427228118E+02  0.27698497709E+02 -0.25708642053E+02  0.68906585904E+02  0.47000000000E+01 0. -1.
         -5    1    3    3    0  501 -0.61696084538E+02 -0.28527333079E+00 -0.96724282781E+00  0.61883065429E+02  0.47000000000E+01 0. -1.
          5    1    4    4  502    0  0.53811411825E+02 -0.23537106477E+02  0.25378743738E+03  0.26053755352E+03  0.47000000000E+01 0. -1.
         -5    1    4    4    0  502 -0.49542555405E+02 -0.38761179004E+01  0.58027747482E+02  0.76542789104E+02  0.47000000000E+01 0. -1.
<mgrwt>
<rscale>  0 0.37094192E+03</rscale>
<asrwt>0</asrwt>
<pdfrwt beam="1">  1       21 0.57923791E-01 0.37094192E+03</pdfrwt>
<pdfrwt beam="2">  1       21 0.14056207E-01 0.37094192E+03</pdfrwt>
<totfact> 0.11712649E+05</totfact>
</mgrwt>
</event>
<event>
 8    1  0.4760912E-006  0.2646851E+03  0.7546771E-02  0.1104361E+00
         21   -1    0    0  504  503  0.00000000000E+00  0.00000000000E+00  0.19548206610E+03  0.19548206610E+03  0.00000000000E+00 0. -1.
         21   -1    0    0  503  504 -0.00000000000E+00 -0.00000000000E+00 -0.89596699622E+02  0.89596699622E+02  0.00000000000E+00 0. -1.
         25    2    1    2    0    0  0.17404235928E+02  0.29870735298E+02  0.24562988164E+02  0.13199904368E+03  0.12500095555E+03 0.  0.
         25    2    1    2    0    0 -0.17404235928E+02 -0.29870735298E+02  0.81322378319E+02  0.15307972205E+03  0.12499961532E+03 0.  0.
          5    1    3    3  501    0 -0.24379032965E+02  0.26619397992E+02  0.64406847911E+02  0.73981495359E+02  0.47000000000E+01 0.  1.
         -5    1    3    3    0  501  0.41783268893E+02  0.32513373056E+01 -0.39843859747E+02  0.58017548321E+02  0.47000000000E+01 0.  1.
          5    1    4    4  502    0 -0.44878301797E+02 -0.50412047824E+02  0.94336592896E+02  0.11609013437E+03  0.47000000000E+01 0. -1.
         -5    1    4    4    0  502  0.27474065869E+02  0.20541312526E+02 -0.13014214577E+02  0.36989587680E+02  0.47000000000E+01 0. -1.
<mgrwt>
<rscale>  0 0.26468508E+03</rscale>
<asrwt>0</asrwt>
<pdfrwt beam="1">  1       21 0.30074164E-01 0.26468508E+03</pdfrwt>
<pdfrwt beam="2">  1       21 0.13784108E-01 0.26468508E+03</pdfrwt>
<totfact> 0.47817411E+05</totfact>
</mgrwt>
</event>
<event>
 8    1  0.4760912E-006  0.2912111E+03  0.7546771E-02  0.1089719E+00
         21   -1    0    0  504  503  0.00000000000E+00  0.00000000000E+00  0.29155160651E+02  0.29155160651E+02  0.00000000000E+00 0.  1.
         21   -1    0    0  503  504 -0.00000000000E+00 -0.00000000000E+00 -0.72717753789E+03  0.72717753789E+03  0.00000000000E+00 0.  1.
         25    2    1    2    0    0 -0.61798304308E+01  0.70156814558E+02 -0.41352535310E+03  0.43770428340E+03  0.12498661173E+03 0.  0.
         25    2    1    2    0    0  0.61798304308E+01 -0.70156814558E+02 -0.28449702413E+03  0.31862841514E+03  0.12500136504E+03 0.  0.
          5    1    3    3  501    0 -0.65304596976E+02  0.33984289351E+02 -0.22517208352E+03  0.23694763031E+03  0.47000000000E+01 0. -1.
         -5    1    3    3    0  501  0.59124766546E+02  0.36172525207E+02 -0.18835326958E+03  0.20075665309E+03  0.47000000000E+01 0. -1.
          5    1    4    4  502    0 -0.14922024860E+02 -0.30111881017E+02 -0.36624671829E+01  0.34130570903E+02  0.47000000000E+01 0. -1.
         -5    1    4    4    0  502  0.21101855291E+02 -0.40044933541E+02 -0.28083455695E+03  0.28449784424E+03  0.47000000000E+01 0. -1.
<mgrwt>
<rscale>  0 0.29121111E+03</rscale>
<asrwt>0</asrwt>
<pdfrwt beam="1">  1       21 0.44854101E-02 0.29121111E+03</pdfrwt>
<pdfrwt beam="2">  1       21 0.11187345E+00 0.29121111E+03</pdfrwt>
<totfact> 0.19642573E+05</totfact>
</mgrwt>
</event>
<event>
 8    1  0.4760912E-006  0.3138089E+03  0.7546771E-02  0.1078534E+00
         21   -1    0    0  504  503  0.00000000000E+00  0.00000000000E+00  0.36056217962E+02  0.36056217962E+02  0.00000000000E+00 0.  1.
         21   -1    0    0  503  504 -0.00000000000E+00 -0.00000000000E+00 -0.68279518777E+03  0.68279518777E+03  0.00000000000E+00 0.  1.
         25    2    1    2    0    0 -0.75838360106E+02  0.22209818430E+02 -0.44343898883E+03  0.46744875553E+03  0.12500187732E+03 0.  0.
         25    2    1    2    0    0  0.75838360106E+02 -0.22209818430E+02 -0.20329998098E+03  0.25140265020E+03  0.12501070900E+03 0.  0.
          5    1    3    3  501    0  0.22808846699E+02  0.28125002263E+02 -0.50959786356E+02  0.62691698537E+02  0.47000000000E+01 0. -1.
         -5    1    3    3    0  501 -0.98647206805E+02 -0.59151838336E+01 -0.39247920247E+03  0.40475705699E+03  0.47000000000E+01 0. -1.
          5    1    4    4  502    0 -0.34283890540E+02 -0.11780455237E+02 -0.60870012045E+02  0.71002905874E+02  0.47000000000E+01 0.  1.
         -5    1    4    4    0  502  0.11012225065E+03 -0.10429363193E+02 -0.14242996893E+03  0.18039974433E+03  0.47000000000E+01 0.  1.
<mgrwt>
<rscale>  0 0.31380894E+03</rscale>
<asrwt>0</asrwt>
<pdfrwt beam="1">  1       21 0.55471104E-02 0.31380894E+03</pdfrwt>
<pdfrwt beam="2">  1       21 0.10504542E+00 0.31380894E+03</pdfrwt>
<totfact> 0.15836593E+05</totfact>
</mgrwt>
</event>
<event>
 8    1  0.4760912E-006  0.2528346E+03  0.7546771E-02  0.1111526E+00
         21   -1    0    0  504  503  0.00000000000E+00  0.00000000000E+00  0.24277754743E+03  0.24277754743E+03  0.00000000000E+00 0.  1.
         21   -1    0    0  503  504 -0.00000000000E+00 -0.00000000000E+00 -0.65827088621E+02  0.65827088621E+02  0.00000000000E+00 0.  1.
         25    2    1    2    0    0 -0.20742042347E+01 -0.15187927694E+02  0.10180923888E+03  0.16194936139E+03  0.12500999585E+03 0.  0.
         25    2    1    2    0    0  0.20742042347E+01  0.15187927694E+02  0.75141219927E+02  0.14665527466E+03  0.12500636456E+03 0.  0.
          5    1    3    3  501    0  0.56363279252E+02 -0.31328475413E+02  0.59535464368E+02  0.87891149368E+02  0.47000000000E+01 0.  1.
         -5    1    3    3    0  501 -0.58437483486E+02  0.16140547719E+02  0.42273774511E+02  0.74058212025E+02  0.47000000000E+01 0.  1.
          5    1    4    4  502    0 -0.46585118392E+02  0.43601450751E+01  0.83558941463E+02  0.95882067245E+02  0.47000000000E+01 0. -1.
         -5    1    4    4    0  502  0.48659322627E+02  0.10827782619E+02 -0.84177215367E+01  0.50773207411E+02  0.47000000000E+01 0. -1.
<mgrwt>
<rscale>  0 0.25283464E+03</rscale>
<asrwt>0</asrwt>
<pdfrwt beam="1">  1       21 0.37350392E-01 0.25283464E+03</pdfrwt>
<pdfrwt beam="2">  1       21 0.10127245E-01 0.25283464E+03</pdfrwt>
<totfact> 0.54235392E+05</totfact>
</mgrwt>
</event>
<event>
 8    1  0.4760912E-006  0.3396759E+03  0.7546771E-02  0.1066934E+00
         21   -1    0    0  504  503  0.00000000000E+00  0.00000000000E+00  0.16444572971E+02  0.16444572971E+02  0.00000000000E+00 0. -1.
         21   -1    0    0  503  504 -0.00000000000E+00 -0.00000000000E+00 -0.17540702528E+04  0.17540702528E+04  0.00000000000E+00 0. -1.
         25    2    1    2    0    0 -0.93469218726E+02 -0.62215563385E+02 -0.99783243292E+03  0.10118804343E+04  0.12500071202E+03 0.  0.
         25    2    1    2    0    0  0.93469218726E+02  0.62215563385E+02 -0.73979324694E+03  0.75863439147E+03  0.12499928214E+03 0.  0.
          5    1    3    3  501    0  0.24188414819E+02 -0.44742478760E+01 -0.35068107584E+03  0.35157418172E+03  0.47000000000E+01 0.  1.
         -5    1    3    3    0  501 -0.11765763355E+03 -0.57741315509E+02 -0.64715135708E+03  0.66030625260E+03  0.47000000000E+01 0.  1.
          5    1    4    4  502    0  0.39643879564E+02  0.87911874038E+02 -0.30974924277E+03  0.32444848309E+03  0.47000000000E+01 0.  1.
         -5    1    4    4    0  502  0.53825339162E+02 -0.25696310654E+02 -0.43004400417E+03  0.43418590838E+03  0.47000000000E+01 0.  1.
<mgrwt>
<rscale>  0 0.33967594E+03</rscale>
<asrwt>0</asrwt>
<pdfrwt beam="1">  1       21 0.25299344E-02 0.33967594E+03</pdfrwt>
<pdfrwt beam="2">  1       21 0.26985695E+00 0.33967594E+03</pdfrwt>
<totfact> 0.38851690E+04</totfact>
</mgrwt>
</event>
<event>
 8    1  0.4760912E-006  0.2974085E+03  0.7546771E-02  0.1086543E+00
         21   -1    0    0  504  503  0.00000000000E+00  0.00000000000E+00  0.12617104594E+03  0.12617104594E+03  0.00000000000E+00 0.  1.
         21   -1    0    0  503  504 -0.00000000000E+00 -0.00000000000E+00 -0.17526176356E+03  0.17526176356E+03  0.00000000000E+00 0.  1.
         25    2    1    2    0    0  0.31865968021E+02 -0.68777477763E+02  0.30561810768E+01  0.14621737961E+03  0.12499760194E+03 0.  0.
         25    2    1    2    0    0 -0.31865968021E+02  0.68777477763E+02 -0.52146898701E+02  0.15521542990E+03  0.12500699688E+03 0.  0.
          5    1    3    3  501    0  0.51104595877E+02  0.15432904037E+02  0.21539178033E+02  0.57757081272E+02  0.47000000000E+01 0.  1.
         -5    1    3    3    0  501 -0.19238627855E+02 -0.84210381800E+02 -0.18482996956E+02  0.88460298333E+02  0.47000000000E+01 0.  1.
          5    1    4    4  502    0 -0.12529059755E+02 -0.77847085676E+01 -0.72008649900E+02  0.73654020164E+02  0.47000000000E+01 0. -1.
         -5    1    4    4    0  502 -0.19336908266E+02  0.76562186331E+02  0.19861751199E+02  0.81561409734E+02  0.47000000000E+01 0. -1.
<mgrwt>
<rscale>  0 0.29740854E+03</rscale>
<asrwt>0</asrwt>
<pdfrwt beam="1">  1       21 0.19410930E-01 0.29740854E+03</pdfrwt>
<pdfrwt beam="2">  1       21 0.26963348E-01 0.29740854E+03</pdfrwt>
<totfact> 0.31231411E+05</totfact>
</mgrwt>
</event>
<event>
 8    1  0.4760912E-006  0.3067726E+03  0.7546771E-02  0.1081903E+00
         21   -1    0    0  504  503  0.00000000000E+00  0.00000000000E+00  0.10471206531E+04  0.10471206531E+04  0.00000000000E+00 0.  1.
         21   -1    0    0  503  504 -0.00000000000E+00 -0.00000000000E+00 -0.22468614325E+02  0.22468614325E+02  0.00000000000E+00 0.  1.
         25    2    1    2    0    0 -0.73705866884E+02 -0.48080668259E+02  0.46886438151E+03  0.49315632725E+03  0.12500019752E+03 0.  0.
         25    2    1    2    0    0  0.73705866884E+02  0.48080668259E+02  0.55578765725E+03  0.57643294016E+03  0.12502283424E+03 0.  0.
          5    1    3    3  501    0 -0.45377715712E+01 -0.55051333141E+02  0.75493233604E+02  0.93661939823E+02  0.47000000000E+01 0.  1.
         -5    1    3    3    0  501 -0.69168095313E+02  0.69706648818E+01  0.39337114790E+03  0.39949438742E+03  0.47000000000E+01 0.  1.
          5    1    4    4  502    0  0.37041751884E+02 -0.39901882692E+02  0.15211976359E+03  0.16163775580E+03  0.47000000000E+01 0.  1.
         -5    1    4    4    0  502  0.36664115000E+02  0.87982550951E+02  0.40366789366E+03  0.41479518437E+03  0.47000000000E+01 0.  1.
<mgrwt>
<rscale>  0 0.30677255E+03</rscale>
<asrwt>0</asrwt>
<pdfrwt beam="1">  1       21 0.16109545E+00 0.30677255E+03</pdfrwt>
<pdfrwt beam="2">  1       21 0.34567107E-02 0.30677255E+03</pdfrwt>
<totfact> 0.11801325E+05</totfact>
</mgrwt>
</event>
<event>
 8    1  0.4760912E-006  0.2536361E+03  0.7546771E-02  0.1111028E+00
         21   -1    0    0  504  503  0.00000000000E+00  0.00000000000E+00  0.15436441706E+03  0.15436441706E+03  0.00000000000E+00 0. -1.
         21   -1    0    0  503  504 -0.00000000000E+00 -0.00000000000E+00 -0.10418734324E+03  0.10418734324E+03  0.00000000000E+00 0. -1.
         25    2    1    2    0    0 -0.13788866329E+02  0.15618427066E+02  0.30084442080E+02  0.13024246009E+03  0.12499582655E+03 0.  0.
         25    2    1    2    0    0  0.13788866329E+02 -0.15618427066E+02  0.20092631734E+02  0.12830930021E+03  0.12500197827E+03 0.  0.
          5    1    3    3  501    0 -0.17623030985E+01  0.68145496276E+02  0.33387514685E+02  0.76050841624E+02  0.47000000000E+01 0.  1.
         -5    1    3    3    0  501 -0.12026563230E+02 -0.52527069210E+02 -0.33030726056E+01  0.54191618463E+02  0.47000000000E+01 0.  1.
          5    1    4    4  502    0  0.69323046890E+02 -0.31903066874E+01  0.13144613506E+02  0.70786536510E+02  0.47000000000E+01 0.  1.
         -5    1    4    4    0  502 -0.55534180561E+02 -0.12428120378E+02  0.69480182274E+01  0.57522763703E+02  0.47000000000E+01 0.  1.
<mgrwt>
<rscale>  0 0.25363611E+03</rscale>
<asrwt>0</asrwt>
<pdfrwt beam="1">  1       21 0.23748372E-01 0.25363611E+03</pdfrwt>
<pdfrwt beam="2">  1       21 0.16028822E-01 0.25363611E+03</pdfrwt>
<totfact> 0.57415009E+05</totfact>
</mgrwt>
</event>
<event>
 8    1  0.4760912E-006  0.2898046E+03  0.7546771E-02  0.1090451E+00
         21   -1    0    0  504  503  0.00000000000E+00  0.00000000000E+00  0.28644326291E+03  0.28644326291E+03  0.00000000000E+00 0. -1.
         21   -1    0    0  503  504 -0.00000000000E+00 -0.00000000000E+00 -0.73301327752E+02  0.73301327752E+02  0.00000000000E+00 0. -1.
         25    2    1    2    0    0 -0.73194258120E+02 -0.77017903971E-01  0.11124367091E+03  0.18264240646E+03  0.12500275584E+03 0.  0.
         25    2    1    2    0    0  0.73194258120E+02  0.77017903971E-01  0.10189826425E+03  0.17710218420E+03  0.12499808813E+03 0.  0.
          5    1    3    3  501    0 -0.71722117141E+02 -0.54503615469E+02  0.68781027943E+02  0.11343555876E+03  0.47000000000E+01 0. -1.
         -5    1    3    3    0  501 -0.14721409787E+01  0.54426597565E+02  0.42462642965E+02  0.69206847704E+02  0.47000000000E+01 0. -1.
          5    1    4    4  502    0 -0.14875108262E+02 -0.18887463973E+02  0.80834780706E+02  0.84465122464E+02  0.47000000000E+01 0.  1.
         -5    1    4    4    0  502  0.88069366382E+02  0.18964481877E+02  0.21063483546E+02  0.92637061735E+02  0.47000000000E+01 0.  1.
<mgrwt>
<rscale>  0 0.28980457E+03</rscale>
<asrwt>0</asrwt>
<pdfrwt beam="1">  1       21 0.44068194E-01 0.28980457E+03</pdfrwt>
<pdfrwt beam="2">  1       21 0.11277127E-01 0.28980457E+03</pdfrwt>
<totfact> 0.31708252E+05</totfact>
</mgrwt>
</event>
<event>
 8    1  0.4760912E-006  0.3722178E+03  0.7546771E-02  0.1053848E+00
         21   -1    0    0  504  503  0.00000000000E+00  0.00000000000E+00  0.19495330435E+03  0.19495330435E+03  0.00000000000E+00 0. -1.
         21   -1    0    0  503  504 -0.00000000000E+00 -0.00000000000E+00 -0.17766576658E+03  0.17766576658E+03  0.00000000000E+00 0. -1.
         25    2    1    2    0    0  0.12577703239E+03 -0.22162642925E+02 -0.43377821360E+02  0.18389598034E+03  0.12500020632E+03 0.  0.
         25    2    1    2    0    0 -0.12577703239E+03  0.22162642925E+02  0.60665359135E+02  0.18872309059E+03  0.12500029802E+03 0.  0.
          5    1    3    3  501    0  0.10618326838E+03  0.37042198837E+02 -0.45289588989E+02  0.12132702852E+03  0.47000000000E+01 0.  1.
         -5    1    3    3    0  501  0.19593764007E+02 -0.59204841762E+02  0.19117676295E+01  0.62568951817E+02  0.47000000000E+01 0.  1.
          5    1    4    4  502    0 -0.96856859022E+01  0.27107574139E+02 -0.29565748753E+02  0.41531392782E+02  0.47000000000E+01 0.  1.
         -5    1    4    4    0  502 -0.11609134649E+03 -0.49449312136E+01  0.90231107888E+02  0.14719169781E+03  0.47000000000E+01 0.  1.
<mgrwt>
<rscale>  0 0.37221783E+03</rscale>
<asrwt>0</asrwt>
<pdfrwt beam="1">  1       21 0.29992816E-01 0.37221783E+03</pdfrwt>
<pdfrwt beam="2">  1       21 0.27333195E-01 0.37221783E+03</pdfrwt>
<totfact> 0.12949778E+05</totfact>
</mgrwt>
</event>
<event>
 8    1  0.4760912E-006  0.3636095E+03  0.7546771E-02  0.1057164E+00
         21   -1    0    0  504  503  0.00000000000E+00  0.00000000000E+00  0.43762733478E+03  0.43762733478E+03  0.00000000000E+00 0. -1.
         21   -1    0    0  503  504 -0.00000000000E+00 -0.00000000000E+00 -0.75527660416E+02  0.75527660416E+02  0.00000000000E+00 0. -1.
         25    2    1    2    0    0 -0.10549146066E+03  0.73795760386E+02  0.13975957859E+03  0.22743815064E+03  0.12498443917E+03 0.  0.
         25    2    1    2    0    0  0.10549146066E+03 -0.73795760386E+02  0.22234009577E+03  0.28571684456E+03  0.12499893820E+03 0.  0.
          5    1    3    3  501    0 -0.59222188799E+02 -0.67005685612E+01  0.24329608976E+00  0.59785570652E+02  0.47000000000E+01 0.  1.
         -5    1    3    3    0  501 -0.46269271865E+02  0.80496328947E+02  0.13951628250E+03  0.16765257999E+03  0.47000000000E+01 0.  1.
          5    1    4    4  502    0  0.44918002600E+02  0.25415978558E+02  0.27194959976E+02  0.58525676174E+02  0.47000000000E+01 0.  1.
         -5    1    4    4    0  502  0.60573458065E+02 -0.99211738944E+02  0.19514513579E+03  0.22719116838E+03  0.47000000000E+01 0.  1.
<mgrwt>
<rscale>  0 0.36360951E+03</rscale>
<asrwt>0</asrwt>
<pdfrwt beam="1">  1       21 0.67327280E-01 0.36360951E+03</pdfrwt>
<pdfrwt beam="2">  1       21 0.11619640E-01 0.36360951E+03</pdfrwt>
<totfact> 0.11929339E+05</totfact>
</mgrwt>
</event>
<event>
 8    1  0.4760912E-006  0.2582905E+03  0.7546771E-02  0.1108175E+00
         21   -1    0    0  504  503  0.00000000000E+00  0.00000000000E+00  0.20685638156E+03  0.20685638156E+03  0.00000000000E+00 0. -1.
         21   -1    0    0  503  504 -0.00000000000E+00 -0.00000000000E+00 -0.80628362216E+02  0.80628362216E+02  0.00000000000E+00 0. -1.
         25    2    1    2    0    0  0.21954514818E+02  0.21313174419E+02  0.75187109764E+02  0.14904514880E+03  0.12500041113E+03 0.  0.
         25    2    1    2    0    0 -0.21954514818E+02 -0.21313174419E+02  0.51040909583E+02  0.13843959498E+03  0.12499637947E+03 0.  0.
          5    1    3    3  501    0  0.36769946055E+02 -0.39996713985E+01  0.10226606980E+03  0.10885065611E+03  0.47000000000E+01 0. -1.
         -5    1    3    3    0  501 -0.14815431238E+02  0.25312845817E+02 -0.27078960034E+02  0.40194492691E+02  0.47000000000E+01 0. -1.
          5    1    4    4  502    0  0.16004975435E+02 -0.58553426822E+02  0.58624405769E+02  0.84519666251E+02  0.47000000000E+01 0. -1.
         -5    1    4    4    0  502 -0.37959490253E+02  0.37240252404E+02 -0.75834961859E+01  0.53919928725E+02  0.47000000000E+01 0. -1.
<mgrwt>
<rscale>  0 0.25829047E+03</rscale>
<asrwt>0</asrwt>
<pdfrwt beam="1">  1       21 0.31824059E-01 0.25829047E+03</pdfrwt>
<pdfrwt beam="2">  1       21 0.12404363E-01 0.25829047E+03</pdfrwt>
<totfact> 0.51850358E+05</totfact>
</mgrwt>
</event>
<event>
 8    1  0.4760912E-006  0.7428281E+03  0.7546771E-02  0.9646670E-01
         21   -1    0    0  504  503  0.00000000000E+00  0.00000000000E+00  0.72985308023E+03  0.72985308023E+03  0.00000000000E+00 0.  1.
         21   -1    0    0  503  504 -0.00000000000E+00 -0.00000000000E+00 -0.18900843347E+03  0.18900843347E+03  0.00000000000E+00 0.  1.
         25    2    1    2    0    0  0.33414282536E+03  0.92374141790E+02  0.21325058064E+03  0.42577852739E+03  0.12500853746E+03 0.  0.
         25    2    1    2    0    0 -0.33414282536E+03 -0.92374141790E+02  0.32759406613E+03  0.49308298631E+03  0.12501419684E+03 0.  0.
          5    1    3    3  501    0  0.17376005675E+03  0.71894721988E+02  0.18058984707E+03  0.26076079314E+03  0.47000000000E+01 0. -1.
         -5    1    3    3    0  501  0.16038276861E+03  0.20479419801E+02  0.32660733565E+02  0.16501773426E+03  0.47000000000E+01 0. -1.
          5    1    4    4  502    0 -0.21899000102E+03  0.18996414008E+01  0.20855010983E+03  0.30244911555E+03  0.47000000000E+01 0. -1.
         -5    1    4    4    0  502 -0.11515282434E+03 -0.94273783191E+02  0.11904395630E+03  0.19063387076E+03  0.47000000000E+01 0. -1.
<mgrwt>
<rscale>  0 0.74282808E+03</rscale>
<asrwt>0</asrwt>
<pdfrwt beam="1">  1       21 0.11228509E+00 0.74282808E+03</pdfrwt>
<pdfrwt beam="2">  1       21 0.29078221E-01 0.74282808E+03</pdfrwt>
<totfact> 0.57588469E+03</totfact>
</mgrwt>
</event>
<event>
 8    1  0.4760912E-006  0.2733058E+03  0.7546771E-02  0.1099402E+00
         21   -1    0    0  504  503  0.00000000000E+00  0.00000000000E+00  0.10168795678E+03  0.10168795678E+03  0.00000000000E+00 0.  1.
         21   -1    0    0  503  504 -0.00000000000E+00 -0.00000000000E+00 -0.18364035668E+03  0.18364035668E+03  0.00000000000E+00 0.  1.
         25    2    1    2    0    0  0.50304621960E+02  0.13482440374E+02 -0.21716580838E+02  0.13712135158E+03  0.12497329309E+03 0.  0.
         25    2    1    2    0    0 -0.50304621960E+02 -0.13482440374E+02 -0.60235819064E+02  0.14820696188E+03  0.12499847385E+03 0.  0.
          5    1    3    3  501    0  0.66307705735E+02 -0.23081106409E+02  0.25746555821E+02  0.74929463161E+02  0.47000000000E+01 0.  1.
         -5    1    3    3    0  501 -0.16003083775E+02  0.36563546783E+02 -0.47463136659E+02  0.62191888420E+02  0.47000000000E+01 0.  1.
          5    1    4    4  502    0  0.27569944197E+02  0.16047593770E+01 -0.62735486529E+02  0.68705955678E+02  0.47000000000E+01 0.  1.
         -5    1    4    4    0  502 -0.77874566157E+02 -0.15087199751E+02  0.24996674646E+01  0.79501006206E+02  0.47000000000E+01 0.  1.
<mgrwt>
<rscale>  0 0.27330578E+03</rscale>
<asrwt>0</asrwt>
<pdfrwt beam="1">  1       21 0.15644301E-01 0.27330578E+03</pdfrwt>
<pdfrwt beam="2">  1       21 0.28252362E-01 0.27330578E+03</pdfrwt>
<totfact> 0.42791485E+05</totfact>
</mgrwt>
</event>
<event>
 8    1  0.4760912E-006  0.3309837E+03  0.7546771E-02  0.1070702E+00
         21   -1    0    0  504  503  0.00000000000E+00  0.00000000000E+00  0.22863295017E+03  0.22863295017E+03  0.00000000000E+00 0. -1.
         21   -1    0    0  503  504 -0.00000000000E+00 -0.00000000000E+00 -0.11978831526E+03  0.11978831526E+03  0.00000000000E+00 0. -1.
         25    2    1    2    0    0 -0.83831671526E+01 -0.10193593764E+03  0.92387637123E+02  0.18607021169E+03  0.12500174123E+03 0.  0.
         25    2    1    2    0    0  0.83831671526E+01  0.10193593764E+03  0.16456997789E+02  0.16235105374E+03  0.12500327596E+03 0.  0.
          5    1    3    3  501    0 -0.52219167518E+02 -0.41364411496E+02  0.88743153424E+02  0.11106436546E+03  0.47000000000E+01 0. -1.
         -5    1    3    3    0  501  0.43836000365E+02 -0.60571526144E+02  0.36444836984E+01  0.75005846231E+02  0.47000000000E+01 0. -1.
          5    1    4    4  502    0  0.30304124228E+02 -0.20520709027E+02  0.10981921526E+01  0.36915247123E+02  0.47000000000E+01 0. -1.
         -5    1    4    4    0  502 -0.21920957075E+02  0.12245664667E+03  0.15358805637E+02  0.12543580662E+03  0.47000000000E+01 0. -1.
<mgrwt>
<rscale>  0 0.33098372E+03</rscale>
<asrwt>0</asrwt>
<pdfrwt beam="1">  1       21 0.35174300E-01 0.33098372E+03</pdfrwt>
<pdfrwt beam="2">  1       21 0.18428972E-01 0.33098372E+03</pdfrwt>
<totfact> 0.20218436E+05</totfact>
</mgrwt>
</event>
<event>
 8    1  0.4760912E-006  0.3214636E+03  0.7546771E-02  0.1074978E+00
         21   -1    0    0  504  503  0.00000000000E+00  0.00000000000E+00  0.67125569458E+03  0.67125569458E+03  0.00000000000E+00 0. -1.
         21   -1    0    0  503  504 -0.00000000000E+00 -0.00000000000E+00 -0.38487138135E+02  0.38487138135E+02  0.00000000000E+00 0. -1.
         25    2    1    2    0    0  0.13313867326E+02 -0.99802998334E+02  0.33507654665E+03  0.37153647891E+03  0.12500066203E+03 0.  0.
         25    2    1    2    0    0 -0.13313867326E+02  0.99802998334E+02  0.29769200980E+03  0.33820635380E+03  0.12500043006E+03 0.  0.
          5    1    3    3  501    0  0.63915689277E+02 -0.22467033501E+02  0.13693258654E+03  0.15284831104E+03  0.47000000000E+01 0.  1.
         -5    1    3    3    0  501 -0.50601821952E+02 -0.77335964833E+02  0.19814396011E+03  0.21868816787E+03  0.47000000000E+01 0.  1.
          5    1    4    4  502    0  0.44786348705E+02  0.90924833935E+02  0.19341794196E+03  0.21841642047E+03  0.47000000000E+01 0. -1.
         -5    1    4    4    0  502 -0.58100216030E+02  0.88781643990E+01  0.10427406783E+03  0.11978993334E+03  0.47000000000E+01 0. -1.
<mgrwt>
<rscale>  0 0.32146359E+03</rscale>
<asrwt>0</asrwt>
<pdfrwt beam="1">  1       21 0.10327010E+00 0.32146359E+03</pdfrwt>
<pdfrwt beam="2">  1       21 0.59210987E-02 0.32146359E+03</pdfrwt>
<totfact> 0.14720658E+05</totfact>
</mgrwt>
</event>
<event>
 8    1  0.4760912E-006  0.3888876E+03  0.7546771E-02  0.1047697E+00
         21   -1    0    0  504  503  0.00000000000E+00  0.00000000000E+00  0.28188126995E+03  0.28188126995E+03  0.00000000000E+00 0. -1.
         21   -1    0    0  503  504 -0.00000000000E+00 -0.00000000000E+00 -0.13412876068E+03  0.13412876068E+03  0.00000000000E+00 0. -1.
         25    2    1    2    0    0  0.89466432879E+02  0.54121392097E+02 -0.39585885991E+02  0.16770488532E+03  0.12499807397E+03 0.  0.
         25    2    1    2    0    0 -0.89466432879E+02 -0.54121392097E+02  0.18733839526E+03  0.24830514531E+03  0.12500561250E+03 0.  0.
          5    1    3    3  501    0  0.10640099549E+03  0.50989413843E+02 -0.66416509971E+02  0.13547817153E+03  0.47000000000E+01 0. -1.
         -5    1    3    3    0  501 -0.16934562608E+02  0.31319782540E+01  0.26830623980E+02  0.32226713789E+02  0.47000000000E+01 0. -1.
          5    1    4    4  502    0 -0.55218610045E+02 -0.58079921149E+02  0.27704937178E+02  0.84923646177E+02  0.47000000000E+01 0.  1.
         -5    1    4    4    0  502 -0.34247822834E+02  0.39585290524E+01  0.15963345808E+03  0.16338149913E+03  0.47000000000E+01 0.  1.
<mgrwt>
<rscale>  0 0.38888757E+03</rscale>
<asrwt>0</asrwt>
<pdfrwt beam="1">  1       21 0.43366349E-01 0.38888757E+03</pdfrwt>
<pdfrwt beam="2">  1       21 0.20635194E-01 0.38888757E+03</pdfrwt>
<totfact> 0.10517663E+05</totfact>
</mgrwt>
</event>
<event>
 8    1  0.4760912E-006  0.3081829E+03  0.7546771E-02  0.1081220E+00
         21   -1    0    0  504  503  0.00000000000E+00  0.00000000000E+00  0.26655063144E+03  0.26655063144E+03  0.00000000000E+00 0. -1.
         21   -1    0    0  503  504 -0.00000000000E+00 -0.00000000000E+00 -0.89079417343E+02  0.89079417343E+02  0.00000000000E+00 0. -1.
         25    2    1    2    0    0  0.58567294891E+02 -0.37174105102E+02  0.22368219177E+02  0.14470155665E+03  0.12500464450E+03 0.  0.
         25    2    1    2    0    0 -0.58567294891E+02  0.37174105102E+02  0.15510299492E+03  0.21092849214E+03  0.12498738993E+03 0.  0.
          5    1    3    3  501    0  0.40256393991E+02 -0.19599971462E+02  0.74204987743E+02  0.86794045559E+02  0.47000000000E+01 0.  1.
         -5    1    3    3    0  501  0.18310900901E+02 -0.17574133640E+02 -0.51836768566E+02  0.57907511088E+02  0.47000000000E+01 0.  1.
          5    1    4    4  502    0 -0.95216563937E+02  0.27156108441E+02  0.82971614874E+02  0.12926727021E+03  0.47000000000E+01 0.  1.
         -5    1    4    4    0  502  0.36649269045E+02  0.10017996662E+02  0.72131380045E+02  0.81661221923E+02  0.47000000000E+01 0.  1.
<mgrwt>
<rscale>  0 0.30818290E+03</rscale>
<asrwt>0</asrwt>
<pdfrwt beam="1">  1       21 0.41007789E-01 0.30818290E+03</pdfrwt>
<pdfrwt beam="2">  1       21 0.13704526E-01 0.30818290E+03</pdfrwt>
<totfact> 0.25735892E+05</totfact>
</mgrwt>
</event>
<event>
 8    1  0.4760912E-006  0.4861048E+03  0.7546771E-02  0.1017471E+00
         21   -1    0    0  504  503  0.00000000000E+00  0.00000000000E+00  0.31524293095E+03  0.31524293095E+03  0.00000000000E+00 0. -1.
         21   -1    0    0  503  504 -0.00000000000E+00 -0.00000000000E+00 -0.18739351622E+03  0.18739351622E+03  0.00000000000E+00 0. -1.
         25    2    1    2    0    0  0.17026372862E+03 -0.48948699237E+02  0.17750045686E+03  0.28020274844E+03  0.12498582165E+03 0.  0.
         25    2    1    2    0    0 -0.17026372862E+03  0.48948699237E+02 -0.49651042134E+02  0.22243369873E+03  0.12500324758E+03 0.  0.
          5    1    3    3  501    0  0.23055449939E+02 -0.33063649173E+01  0.10885748370E+03  0.11142049891E+03  0.47000000000E+01 0. -1.
         -5    1    3    3    0  501  0.14720827868E+03 -0.45642334319E+02  0.68642973158E+02  0.16878224953E+03  0.47000000000E+01 0. -1.
          5    1    4    4  502    0 -0.39983311089E+02  0.48180355472E+01 -0.72355491441E+02  0.82941459921E+02  0.47000000000E+01 0.  1.
         -5    1    4    4    0  502 -0.13028041753E+03  0.44130663689E+02  0.22704449307E+02  0.13949223881E+03  0.47000000000E+01 0.  1.
<mgrwt>
<rscale>  0 0.48610485E+03</rscale>
<asrwt>0</asrwt>
<pdfrwt beam="1">  1       21 0.48498912E-01 0.48610485E+03</pdfrwt>
<pdfrwt beam="2">  1       21 0.28829772E-01 0.48610485E+03</pdfrwt>
<totfact> 0.42588603E+04</totfact>
</mgrwt>
</event>
<event>
 8    1  0.4760912E-006  0.2730720E+03  0.7546771E-02  0.1099534E+00
         21   -1    0    0  504  503  0.00000000000E+00  0.00000000000E+00  0.74031270081E+02  0.74031270081E+02  0.00000000000E+00 0. -1.
         21   -1    0    0  503  504 -0.00000000000E+00 -0.00000000000E+00 -0.25181358463E+03  0.25181358463E+03  0.00000000000E+00 0. -1.
         25    2    1    2    0    0  0.34919274475E+02  0.25180492908E+01 -0.38380659704E+02  0.13537000978E+03  0.12500507272E+03 0.  0.
         25    2    1    2    0    0 -0.34919274475E+02 -0.25180492908E+01 -0.13940165484E+03  0.19047484493E+03  0.12498859498E+03 0.  0.
          5    1    3    3  501    0  0.72132456527E+02 -0.88655975349E+01  0.95515505536E+01  0.73450746914E+02  0.47000000000E+01 0.  1.
         -5    1    3    3    0  501 -0.37213182051E+02  0.11383646826E+02 -0.47932210258E+02  0.61919262864E+02  0.47000000000E+01 0.  1.
          5    1    4    4  502    0  0.12898122303E+02  0.25190428745E+02 -0.13132863841E+03  0.13442552037E+03  0.47000000000E+01 0.  1.
         -5    1    4    4    0  502 -0.47817396779E+02 -0.27708478035E+02 -0.80730164337E+01  0.56049324564E+02  0.47000000000E+01 0.  1.
<mgrwt>
<rscale>  0 0.27307200E+03</rscale>
<asrwt>0</asrwt>
<pdfrwt beam="1">  1       21 0.11389426E-01 0.27307200E+03</pdfrwt>
<pdfrwt beam="2">  1       21 0.38740552E-01 0.27307200E+03</pdfrwt>
<totfact> 0.40685887E+05</totfact>
</mgrwt>
</event>
<event>
 8    1  0.4760912E-006  0.3930824E+03  0.7546771E-02  0.1046202E+00
         21   -1    0    0  504  503  0.00000000000E+00  0.00000000000E+00  0.44884404415E+03  0.44884404415E+03  0.00000000000E+00 0. -1.
         21   -1    0    0  503  504 -0.00000000000E+00 -0.00000000000E+00 -0.86062050513E+02  0.86062050513E+02  0.00000000000E+00 0. -1.
         25    2    1    2    0    0  0.59740135038E+02  0.13818675436E+03  0.15635346466E+03  0.25047079572E+03  0.12499900313E+03 0.  0.
         25    2    1    2    0    0 -0.59740135038E+02 -0.13818675436E+03  0.20642852898E+03  0.28443529894E+03  0.12500495547E+03 0.  0.
          5    1    3    3  501    0  0.29973623109E+02  0.15564778011E+03  0.14177898848E+03  0.21271582242E+03  0.47000000000E+01 0. -1.
         -5    1    3    3    0  501  0.29766511930E+02 -0.17461025753E+02  0.14574476182E+02  0.37754973299E+02  0.47000000000E+01 0. -1.
          5    1    4    4  502    0  0.55778801910E+01  0.17410294207E+02  0.15130163412E+01  0.18937009010E+02  0.47000000000E+01 0.  1.
         -5    1    4    4    0  502 -0.65318015229E+02 -0.15559704857E+03  0.20491551263E+03  0.26549828993E+03  0.47000000000E+01 0.  1.
<mgrwt>
<rscale>  0 0.39308238E+03</rscale>
<asrwt>0</asrwt>
<pdfrwt beam="1">  1       21 0.69052929E-01 0.39308238E+03</pdfrwt>
<pdfrwt beam="2">  1       21 0.13240316E-01 0.39308238E+03</pdfrwt>
<totfact> 0.88309071E+04</totfact>
</mgrwt>
</event>
<event>
 8    1  0.4760912E-006  0.3490800E+03  0.7546771E-02  0.1062993E+00
         21   -1    0    0  504  503  0.00000000000E+00  0.00000000000E+00  0.18305666056E+04  0.18305666056E+04  0.00000000000E+00 0. -1.
         21   -1    0    0  503  504 -0.00000000000E+00 -0.00000000000E+00 -0.16641954343E+02  0.16641954343E+02  0.00000000000E+00 0. -1.
         25    2    1    2    0    0 -0.22803356936E+01  0.12007999027E+03  0.79908649398E+03  0.81767187324E+03  0.12499465359E+03 0.  0.
         25    2    1    2    0    0  0.22803356936E+01 -0.12007999027E+03  0.10148381573E+04  0.10295366868E+04  0.12499959927E+03 0.  0.
          5    1    3    3  501    0 -0.59945497106E+02  0.46380315195E+02  0.27581375158E+03  0.28607675861E+03  0.47000000000E+01 0. -1.
         -5    1    3    3    0  501  0.57665161412E+02  0.73699675072E+02  0.52327274241E+03  0.53159511462E+03  0.47000000000E+01 0. -1.
          5    1    4    4  502    0 -0.24261578682E+02  0.73655734884E+01  0.53250111358E+02  0.59165363454E+02  0.47000000000E+01 0.  1.
         -5    1    4    4    0  502  0.26541914375E+02 -0.12744556375E+03  0.96158804596E+03  0.97037132330E+03  0.47000000000E+01 0.  1.
<mgrwt>
<rscale>  0 0.34907997E+03</rscale>
<asrwt>0</asrwt>
<pdfrwt beam="1">  1       21 0.28162547E+00 0.34907997E+03</pdfrwt>
<pdfrwt beam="2">  1       21 0.25603021E-02 0.34907997E+03</pdfrwt>
<totfact> 0.32263819E+04</totfact>
</mgrwt>
</event>
<event>
 8    1  0.4760912E-006  0.6671401E+03  0.7546771E-02  0.9775138E-01
         21   -1    0    0  504  503  0.00000000000E+00  0.00000000000E+00  0.26638694620E+03  0.26638694620E+03  0.00000000000E+00 0.  1.
         21   -1    0    0  503  504 -0.00000000000E+00 -0.00000000000E+00 -0.41769684250E+03  0.41769684250E+03  0.00000000000E+00 0.  1.
         25    2    1    2    0    0  0.15572218730E+02  0.22302263941E+03  0.14346000890E+03  0.29357529971E+03  0.12499636299E+03 0.  0.
         25    2    1    2    0    0 -0.15572218730E+02 -0.22302263941E+03 -0.29476990520E+03  0.39050848900E+03  0.12500396506E+03 0.  0.
          5    1    3    3  501    0  0.69129895730E+02  0.11209717722E+03  0.60615593266E+02  0.14505536795E+03  0.47000000000E+01 0. -1.
         -5    1    3    3    0  501 -0.53557677000E+02  0.11092546219E+03  0.82844415633E+02  0.14851993176E+03  0.47000000000E+01 0. -1.
          5    1    4    4  502    0  0.20660043477E+02 -0.51078228569E+01  0.40000687790E+00  0.21798560877E+02  0.47000000000E+01 0. -1.
         -5    1    4    4    0  502 -0.36232262207E+02 -0.21791481655E+03 -0.29516991208E+03  0.36870992812E+03  0.47000000000E+01 0. -1.
<mgrwt>
<rscale>  0 0.66714012E+03</rscale>
<asrwt>0</asrwt>
<pdfrwt beam="1">  1       21 0.40982607E-01 0.66714012E+03</pdfrwt>
<pdfrwt beam="2">  1       21 0.64261052E-01 0.66714012E+03</pdfrwt>
<totfact> 0.10900579E+04</totfact>
</mgrwt>
</event>
<event>
 8    1  0.4760912E-006  0.3152677E+03  0.7546771E-02  0.1077848E+00
         21   -1    0    0  504  503  0.00000000000E+00  0.00000000000E+00  0.66943768199E+02  0.66943768199E+02  0.00000000000E+00 0. -1.
         21   -1    0    0  503  504 -0.00000000000E+00 -0.00000000000E+00 -0.37118351371E+03  0.37118351371E+03  0.00000000000E+00 0. -1.
         25    2    1    2    0    0  0.17073952798E+02  0.43795173879E+02 -0.35729114647E+02  0.13823802611E+03  0.12499458032E+03 0.  0.
         25    2    1    2    0    0 -0.17073952798E+02 -0.43795173879E+02 -0.26851063086E+03  0.29988925580E+03  0.12500427888E+03 0.  0.
          5    1    3    3  501    0  0.44648198432E+02  0.54937861010E+02  0.21019032905E+02  0.73996756279E+02  0.47000000000E+01 0.  1.
         -5    1    3    3    0  501 -0.27574245634E+02 -0.11142687131E+02 -0.56748147553E+02  0.64241269830E+02  0.47000000000E+01 0.  1.
          5    1    4    4  502    0 -0.58641818682E+02  0.10012807865E+02 -0.16941281968E+03  0.17961601457E+03  0.47000000000E+01 0. -1.
         -5    1    4    4    0  502  0.41567865884E+02 -0.53807981744E+02 -0.99097811181E+02  0.12027324122E+03  0.47000000000E+01 0. -1.
<mgrwt>
<rscale>  0 0.31526765E+03</rscale>
<asrwt>0</asrwt>
<pdfrwt beam="1">  1       21 0.10299041E-01 0.31526765E+03</pdfrwt>
<pdfrwt beam="2">  1       21 0.57105156E-01 0.31526765E+03</pdfrwt>
<totfact> 0.21483763E+05</totfact>
</mgrwt>
</event>
<event>
 8    1  0.4760912E-006  0.4028023E+03  0.7546771E-02  0.1042814E+00
         21   -1    0    0  504  503  0.00000000000E+00  0.00000000000E+00  0.23774842637E+03  0.23774842637E+03  0.00000000000E+00 0. -1.
         21   -1    0    0  503  504 -0.00000000000E+00 -0.00000000000E+00 -0.17061065171E+03  0.17061065171E+03  0.00000000000E+00 0. -1.
         25    2    1    2    0    0  0.80604177893E+02 -0.39897668725E+02  0.16515482255E+03  0.22580794304E+03  0.12499701703E+03 0.  0.
         25    2    1    2    0    0 -0.80604177893E+02  0.39897668725E+02 -0.98017047887E+02  0.18255113504E+03  0.12501487018E+03 0.  0.
          5    1    3    3  501    0 -0.54859094320E+01 -0.42971899037E+01 -0.18223632902E+02  0.20068678071E+02  0.47000000000E+01 0.  1.
         -5    1    3    3    0  501  0.86090087325E+02 -0.35600478821E+02  0.18337845545E+03  0.20573926497E+03  0.47000000000E+01 0.  1.
          5    1    4    4  502    0 -0.55971637168E+02 -0.82689429652E+00  0.16417387070E+02  0.58524597561E+02  0.47000000000E+01 0.  1.
         -5    1    4    4    0  502 -0.24632540725E+02  0.40724563021E+02 -0.11443443496E+03  0.12402653748E+03  0.47000000000E+01 0.  1.
<mgrwt>
<rscale>  0 0.40280225E+03</rscale>
<asrwt>0</asrwt>
<pdfrwt beam="1">  1       21 0.36576681E-01 0.40280225E+03</pdfrwt>
<pdfrwt beam="2">  1       21 0.26247793E-01 0.40280225E+03</pdfrwt>
<totfact> 0.93577952E+04</totfact>
</mgrwt>
</event>
<event>
 8    1  0.4760912E-006  0.3712270E+03  0.7546771E-02  0.1054225E+00
         21   -1    0    0  504  503  0.00000000000E+00  0.00000000000E+00  0.48839060768E+03  0.48839060768E+03  0.00000000000E+00 0.  1.
         21   -1    0    0  503  504 -0.00000000000E+00 -0.00000000000E+00 -0.70542658509E+02  0.70542658509E+02  0.00000000000E+00 0.  1.
         25    2    1    2    0    0 -0.32521526486E+02  0.12933130650E+03  0.25754293087E+03  0.31581455340E+03  0.12500493738E+03 0.  0.
         25    2    1    2    0    0  0.32521526486E+02 -0.12933130650E+03  0.16030501830E+03  0.24311871279E+03  0.12499909236E+03 0.  0.
          5    1    3    3  501    0 -0.75921850162E+02  0.49809869120E+02  0.11126873253E+03  0.14369401948E+03  0.47000000000E+01 0.  1.
         -5    1    3    3    0  501  0.43400323676E+02  0.79521437380E+02  0.14627419834E+03  0.17212053392E+03  0.47000000000E+01 0.  1.
          5    1    4    4  502    0 -0.33941455757E+02 -0.96405821489E+02  0.12290606877E+03  0.15991903131E+03  0.47000000000E+01 0. -1.
         -5    1    4    4    0  502  0.66462982242E+02 -0.32925485011E+02  0.37398949530E+02  0.83199681476E+02  0.47000000000E+01 0. -1.
<mgrwt>
<rscale>  0 0.37122700E+03</rscale>
<asrwt>0</asrwt>
<pdfrwt beam="1">  1       21 0.75137014E-01 0.37122700E+03</pdfrwt>
<pdfrwt beam="2">  1       21 0.10852717E-01 0.37122700E+03</pdfrwt>
<totfact> 0.10526698E+05</totfact>
</mgrwt>
</event>
<event>
 8    1  0.4760912E-006  0.2693594E+03  0.7546771E-02  0.1101647E+00
         21   -1    0    0  504  503  0.00000000000E+00  0.00000000000E+00  0.19154172311E+03  0.19154172311E+03  0.00000000000E+00 0.  1.
         21   -1    0    0  503  504 -0.00000000000E+00 -0.00000000000E+00 -0.94697996030E+02  0.94697996030E+02  0.00000000000E+00 0.  1.
         25    2    1    2    0    0 -0.41924493655E+02  0.26572178421E+02  0.41856973789E+02  0.14093855839E+03  0.12509167499E+03 0.  0.
         25    2    1    2    0    0  0.41924493655E+02 -0.26572178421E+02  0.54986753292E+02  0.14530116076E+03  0.12500056178E+03 0.  0.
          5    1    3    3  501    0 -0.49618827611E+01  0.73840579312E+02  0.18955320267E+02  0.76540483407E+02  0.47000000000E+01 0.  1.
         -5    1    3    3    0  501 -0.36962610894E+02 -0.47268400892E+02  0.22901653522E+02  0.64398074979E+02  0.47000000000E+01 0.  1.
          5    1    4    4  502    0  0.14610010564E+02 -0.16147495602E+01  0.91686450758E+02  0.92976099496E+02  0.47000000000E+01 0.  1.
         -5    1    4    4    0  502  0.27314483090E+02 -0.24957428860E+02 -0.36699697466E+02  0.52325061260E+02  0.47000000000E+01 0.  1.
<mgrwt>
<rscale>  0 0.26935937E+03</rscale>
<asrwt>0</asrwt>
<pdfrwt beam="1">  1       21 0.29467957E-01 0.26935937E+03</pdfrwt>
<pdfrwt beam="2">  1       21 0.14568922E-01 0.26935937E+03</pdfrwt>
<totfact> 0.44943151E+05</totfact>
</mgrwt>
</event>
<event>
 8    1  0.4760912E-006  0.3988763E+03  0.7546771E-02  0.1044169E+00
         21   -1    0    0  504  503  0.00000000000E+00  0.00000000000E+00  0.15639125359E+03  0.15639125359E+03  0.00000000000E+00 0. -1.
         21   -1    0    0  503  504 -0.00000000000E+00 -0.00000000000E+00 -0.25433372735E+03  0.25433372735E+03  0.00000000000E+00 0. -1.
         25    2    1    2    0    0 -0.67859132700E+02 -0.58577953573E+02  0.81745566014E+02  0.17419174936E+03  0.12499675775E+03 0.  0.
         25    2    1    2    0    0  0.67859132700E+02  0.58577953573E+02 -0.17968803977E+03  0.23653323157E+03  0.12499575779E+03 0.  0.
          5    1    3    3  501    0 -0.26228880170E+02 -0.11278707211E+01  0.97738484383E+02  0.10131203076E+03  0.47000000000E+01 0.  1.
         -5    1    3    3    0  501 -0.41630252530E+02 -0.57450082852E+02 -0.15992918369E+02  0.72879718601E+02  0.47000000000E+01 0.  1.
          5    1    4    4  502    0 -0.34242614982E+02  0.24715694407E+02 -0.29465419810E+02  0.51708057355E+02  0.47000000000E+01 0.  1.
         -5    1    4    4    0  502  0.10210174768E+03  0.33862259166E+02 -0.15022261996E+03  0.18482517422E+03  0.47000000000E+01 0.  1.
<mgrwt>
<rscale>  0 0.39887627E+03</rscale>
<asrwt>0</asrwt>
<pdfrwt beam="1">  1       21 0.24060193E-01 0.39887627E+03</pdfrwt>
<pdfrwt beam="2">  1       21 0.39128266E-01 0.39887627E+03</pdfrwt>
<totfact> 0.96655589E+04</totfact>
</mgrwt>
</event>
<event>
 8    1  0.4760912E-006  0.4171538E+03  0.7546771E-02  0.1037997E+00
         21   -1    0    0  504  503  0.00000000000E+00  0.00000000000E+00  0.27566114766E+03  0.27566114766E+03  0.00000000000E+00 0.  1.
         21   -1    0    0  503  504 -0.00000000000E+00 -0.00000000000E+00 -0.15781814490E+03  0.15781814490E+03  0.00000000000E+00 0.  1.
         25    2    1    2    0    0  0.89230944609E+02  0.11823477375E+03  0.13899273398E+03  0.23850642964E+03  0.12499885473E+03 0.  0.
         25    2    1    2    0    0 -0.89230944609E+02 -0.11823477375E+03 -0.21149731221E+02  0.19497286291E+03  0.12500193175E+03 0.  0.
          5    1    3    3  501    0  0.11418461978E+03  0.65214289785E+02  0.74360008280E+02  0.15113746001E+03  0.47000000000E+01 0. -1.
         -5    1    3    3    0  501 -0.24953675167E+02  0.53020483970E+02  0.64632725697E+02  0.87368969639E+02  0.47000000000E+01 0. -1.
          5    1    4    4  502    0 -0.29872836932E+02 -0.60234478778E+01 -0.55402470177E+02  0.63404984129E+02  0.47000000000E+01 0.  1.
         -5    1    4    4    0  502 -0.59358107678E+02 -0.11221132588E+03  0.34252738956E+02  0.13156787879E+03  0.47000000000E+01 0.  1.
<mgrwt>
<rscale>  0 0.41715384E+03</rscale>
<asrwt>0</asrwt>
<pdfrwt beam="1">  1       21 0.42409407E-01 0.41715384E+03</pdfrwt>
<pdfrwt beam="2">  1       21 0.24279715E-01 0.41715384E+03</pdfrwt>
<totfact> 0.80138339E+04</totfact>
</mgrwt>
</event>
<event>
 8    1  0.4760912E-006  0.3437683E+03  0.7546771E-02  0.1065202E+00
         21   -1    0    0  504  503  0.00000000000E+00  0.00000000000E+00  0.35089864483E+03  0.35089864483E+03  0.00000000000E+00 0. -1.
         21   -1    0    0  503  504 -0.00000000000E+00 -0.00000000000E+00 -0.84195723529E+02  0.84195723529E+02  0.00000000000E+00 0. -1.
         25    2    1    2    0    0  0.17622935264E+02 -0.59579229115E+02  0.64137091167E+01  0.13973704404E+03  0.12500021369E+03 0.  0.
         25    2    1    2    0    0 -0.17622935264E+02  0.59579229115E+02  0.26028921218E+03  0.29535732432E+03  0.12500089063E+03 0.  0.
          5    1    3    3  501    0  0.38975137205E+02 -0.68954939157E+02 -0.39042580064E+02  0.88432222703E+02  0.47000000000E+01 0. -1.
         -5    1    3    3    0  501 -0.21352201941E+02  0.93757100416E+01  0.45456289180E+02  0.51304821338E+02  0.47000000000E+01 0. -1.
          5    1    4    4  502    0 -0.94195834978E+01 -0.11903524582E+02 -0.78276680918E+01  0.17713972973E+02  0.47000000000E+01 0. -1.
         -5    1    4    4    0  502 -0.82033517657E+01  0.71482753697E+02  0.26811688028E+03  0.27764335134E+03  0.47000000000E+01 0. -1.
<mgrwt>
<rscale>  0 0.34376832E+03</rscale>
<asrwt>0</asrwt>
<pdfrwt beam="1">  1       21 0.53984406E-01 0.34376832E+03</pdfrwt>
<pdfrwt beam="2">  1       21 0.12953188E-01 0.34376832E+03</pdfrwt>
<totfact> 0.15923934E+05</totfact>
</mgrwt>
</event>
<event>
 8    1  0.4760912E-006  0.2879818E+03  0.7546771E-02  0.1091408E+00
         21   -1    0    0  504  503  0.00000000000E+00  0.00000000000E+00  0.12480493940E+02  0.12480493940E+02  0.00000000000E+00 0. -1.
         21   -1    0    0  503  504 -0.00000000000E+00 -0.00000000000E+00 -0.16612630868E+04  0.16612630868E+04  0.00000000000E+00 0. -1.
         25    2    1    2    0    0  0.66166203006E+02 -0.22667338441E+02 -0.73900355477E+03  0.75275763804E+03  0.12500413194E+03 0.  0.
         25    2    1    2    0    0 -0.66166203006E+02  0.22667338441E+02 -0.90977903805E+03  0.92098594267E+03  0.12500173544E+03 0.  0.
          5    1    3    3  501    0  0.54929185845E+02 -0.50875427381E+02 -0.69529472288E+03  0.69932994089E+03  0.47000000000E+01 0.  1.
         -5    1    3    3    0  501  0.11237017161E+02  0.28208088940E+02 -0.43708831897E+02  0.53427697144E+02  0.47000000000E+01 0.  1.
          5    1    4    4  502    0 -0.53072891114E+02 -0.46735707937E+02 -0.38693598964E+03  0.39337324292E+03  0.47000000000E+01 0. -1.
         -5    1    4    4    0  502 -0.13093311893E+02  0.69403046378E+02 -0.52284304841E+03  0.52761269975E+03  0.47000000000E+01 0. -1.
<mgrwt>
<rscale>  0 0.28798183E+03</rscale>
<asrwt>0</asrwt>
<pdfrwt beam="1">  1       21 0.19200773E-02 0.28798183E+03</pdfrwt>
<pdfrwt beam="2">  1       21 0.25557876E+00 0.28798183E+03</pdfrwt>
<totfact> 0.76477390E+04</totfact>
</mgrwt>
</event>
<event>
 8    1  0.4760912E-006  0.3568630E+03  0.7546771E-02  0.1059833E+00
         21   -1    0    0  504  503  0.00000000000E+00  0.00000000000E+00  0.90187998752E+02  0.90187998752E+02  0.00000000000E+00 0.  1.
         21   -1    0    0  503  504 -0.00000000000E+00 -0.00000000000E+00 -0.35301587536E+03  0.35301587536E+03  0.00000000000E+00 0.  1.
         25    2    1    2    0    0 -0.11674902171E+03 -0.49765541375E+02 -0.11909660887E+03  0.21427771870E+03  0.12499598117E+03 0.  0.
         25    2    1    2    0    0  0.11674902171E+03  0.49765541375E+02 -0.14373126774E+03  0.22892615541E+03  0.12506623895E+03 0.  0.
          5    1    3    3  501    0 -0.86265249518E+02 -0.91093741246E+02 -0.73740066026E+02  0.14560031012E+03  0.47000000000E+01 0.  1.
         -5    1    3    3    0  501 -0.30483772194E+02  0.41328199870E+02 -0.45356542840E+02  0.68677408586E+02  0.47000000000E+01 0.  1.
          5    1    4    4  502    0  0.70157744303E+01  0.42913869718E+02  0.48767577058E+01  0.44007886460E+02  0.47000000000E+01 0. -1.
         -5    1    4    4    0  502  0.10973324728E+03  0.68516716579E+01 -0.14860802545E+03  0.18491826895E+03  0.47000000000E+01 0. -1.
<mgrwt>
<rscale>  0 0.35686297E+03</rscale>
<asrwt>0</asrwt>
<pdfrwt beam="1">  1       21 0.13875077E-01 0.35686297E+03</pdfrwt>
<pdfrwt beam="2">  1       21 0.54310135E-01 0.35686297E+03</pdfrwt>
<totfact> 0.13823598E+05</totfact>
</mgrwt>
</event>
<event>
 8    1  0.4760912E-006  0.2640053E+03  0.7546771E-02  0.1104760E+00
         21   -1    0    0  504  503  0.00000000000E+00  0.00000000000E+00  0.34226541485E+03  0.34226541485E+03  0.00000000000E+00 0.  1.
         21   -1    0    0  503  504 -0.00000000000E+00 -0.00000000000E+00 -0.50909892114E+02  0.50909892114E+02  0.00000000000E+00 0.  1.
         25    2    1    2    0    0  0.38131650902E+02  0.10254962188E+02  0.12237296074E+03  0.17931430889E+03  0.12497716913E+03 0.  0.
         25    2    1    2    0    0 -0.38131650902E+02 -0.10254962188E+02  0.16898256200E+03  0.21386099807E+03  0.12498893226E+03 0.  0.
          5    1    3    3  501    0  0.75226171675E+02  0.11059262796E+02  0.34135767831E+02  0.83478289656E+02  0.47000000000E+01 0.  1.
         -5    1    3    3    0  501 -0.37094520773E+02 -0.80430060759E+00  0.88237192909E+02  0.95836019238E+02  0.47000000000E+01 0.  1.
          5    1    4    4  502    0 -0.38299043308E+02  0.18120423960E+02  0.18421927581E+00  0.42629689414E+02  0.47000000000E+01 0.  1.
         -5    1    4    4    0  502  0.16739240621E+00 -0.28375386148E+02  0.16879834272E+03  0.17123130866E+03  0.47000000000E+01 0.  1.
<mgrwt>
<rscale>  0 0.26400527E+03</rscale>
<asrwt>0</asrwt>
<pdfrwt beam="1">  1       21 0.52656216E-01 0.26400527E+03</pdfrwt>
<pdfrwt beam="2">  1       21 0.78322913E-02 0.26400527E+03</pdfrwt>
<totfact> 0.41913351E+05</totfact>
</mgrwt>
</event>
<event>
 8    1  0.4760912E-006  0.3886310E+03  0.7546771E-02  0.1047789E+00
         21   -1    0    0  504  503  0.00000000000E+00  0.00000000000E+00  0.49315730706E+02  0.49315730706E+02  0.00000000000E+00 0.  1.
         21   -1    0    0  503  504 -0.00000000000E+00 -0.00000000000E+00 -0.76564841023E+03  0.76564841023E+03  0.00000000000E+00 0.  1.
         25    2    1    2    0    0  0.65391120020E+02 -0.56761779903E+02 -0.61184164103E+03  0.63046142531E+03  0.12503406283E+03 0.  0.
         25    2    1    2    0    0 -0.65391120020E+02  0.56761779903E+02 -0.10449103849E+03  0.18450271562E+03  0.12499990685E+03 0.  0.
          5    1    3    3  501    0  0.18997516461E+02 -0.27682957280E+02 -0.53455315567E+03  0.53562712589E+03  0.47000000000E+01 0.  1.
         -5    1    3    3    0  501  0.46393603559E+02 -0.29078822623E+02 -0.77288485360E+02  0.94834299416E+02  0.47000000000E+01 0.  1.
          5    1    4    4  502    0  0.27575795267E+02  0.50124608472E+02 -0.28146961808E+02  0.63931543999E+02  0.47000000000E+01 0. -1.
         -5    1    4    4    0  502 -0.92966915286E+02  0.66371714311E+01 -0.76344076679E+02  0.12057117162E+03  0.47000000000E+01 0. -1.
<mgrwt>
<rscale>  0 0.38863099E+03</rscale>
<asrwt>0</asrwt>
<pdfrwt beam="1">  1       21 0.75870359E-02 0.38863099E+03</pdfrwt>
<pdfrwt beam="2">  1       21 0.11779206E+00 0.38863099E+03</pdfrwt>
<totfact> 0.67859544E+04</totfact>
</mgrwt>
</event>
<event>
 8    1  0.4760912E-006  0.2953935E+03  0.7546771E-02  0.1087566E+00
         21   -1    0    0  504  503  0.00000000000E+00  0.00000000000E+00  0.11351065269E+02  0.11351065269E+02  0.00000000000E+00 0. -1.
         21   -1    0    0  503  504 -0.00000000000E+00 -0.00000000000E+00 -0.19217865809E+04  0.19217865809E+04  0.00000000000E+00 0. -1.
         25    2    1    2    0    0 -0.50337936389E+02 -0.47330955142E+02 -0.12014480804E+04  0.12099066814E+04  0.12499024260E+03 0.  0.
         25    2    1    2    0    0  0.50337936389E+02  0.47330955142E+02 -0.70898743521E+03  0.72323096470E+03  0.12500287144E+03 0.  0.
          5    1    3    3  501    0 -0.66467494326E+02  0.22376331344E+02 -0.65968143214E+03  0.66341563888E+03  0.47000000000E+01 0. -1.
         -5    1    3    3    0  501  0.16129557937E+02 -0.69707286486E+02 -0.54176664827E+03  0.54649104257E+03  0.47000000000E+01 0. -1.
          5    1    4    4  502    0  0.57216847851E+01  0.56132430525E+02 -0.12235763676E+03  0.13482235982E+03  0.47000000000E+01 0.  1.
         -5    1    4    4    0  502  0.44616251604E+02 -0.88014753834E+01 -0.58662979845E+03  0.58840860488E+03  0.47000000000E+01 0.  1.
<mgrwt>
<rscale>  0 0.29539347E+03</rscale>
<asrwt>0</asrwt>
<pdfrwt beam="1">  1       21 0.17463170E-02 0.29539347E+03</pdfrwt>
<pdfrwt beam="2">  1       21 0.29565959E+00 0.29539347E+03</pdfrwt>
<totfact> 0.51525884E+04</totfact>
</mgrwt>
</event>
<event>
 8    1  0.4760912E-006  0.3240063E+03  0.7546771E-02  0.1073820E+00
         21   -1    0    0  504  503  0.00000000000E+00  0.00000000000E+00  0.20381088198E+02  0.20381088198E+02  0.00000000000E+00 0.  1.
         21   -1    0    0  503  504 -0.00000000000E+00 -0.00000000000E+00 -0.12877142288E+04  0.12877142288E+04  0.00000000000E+00 0.  1.
         25    2    1    2    0    0  0.27282214767E+02 -0.78557615398E+02 -0.87937854973E+03  0.89210364779E+03  0.12500666579E+03 0.  0.
         25    2    1    2    0    0 -0.27282214767E+02  0.78557615398E+02 -0.38795459090E+03  0.41599166924E+03  0.12499874438E+03 0.  0.
          5    1    3    3  501    0  0.44088759462E+02  0.16348754676E+02 -0.42321467982E+03  0.42584487282E+03  0.47000000000E+01 0. -1.
         -5    1    3    3    0  501 -0.16806544695E+02 -0.94906370074E+02 -0.45616386991E+03  0.46625877497E+03  0.47000000000E+01 0. -1.
          5    1    4    4  502    0  0.26895375029E+02  0.89821571275E+02 -0.26294416296E+03  0.27920064237E+03  0.47000000000E+01 0. -1.
         -5    1    4    4    0  502 -0.54177589796E+02 -0.11263955878E+02 -0.12501042794E+03  0.13679102687E+03  0.47000000000E+01 0. -1.
<mgrwt>
<rscale>  0 0.32400628E+03</rscale>
<asrwt>0</asrwt>
<pdfrwt beam="1">  1       21 0.31355509E-02 0.32400628E+03</pdfrwt>
<pdfrwt beam="2">  1       21 0.19810996E+00 0.32400628E+03</pdfrwt>
<totfact> 0.76249985E+04</totfact>
</mgrwt>
</event>
<event>
 8    1  0.4760912E-006  0.2897197E+03  0.7546771E-02  0.1090496E+00
         21   -1    0    0  504  503  0.00000000000E+00  0.00000000000E+00  0.37663583274E+03  0.37663583274E+03  0.00000000000E+00 0. -1.
         21   -1    0    0  503  504 -0.00000000000E+00 -0.00000000000E+00 -0.55715279173E+02  0.55715279173E+02  0.00000000000E+00 0. -1.
         25    2    1    2    0    0 -0.53847024084E+02  0.48373715279E+02  0.17696325053E+03  0.22842020355E+03  0.12498111465E+03 0.  0.
         25    2    1    2    0    0  0.53847024084E+02 -0.48373715279E+02  0.14395730304E+03  0.20393090836E+03  0.12499836781E+03 0.  0.
          5    1    3    3  501    0 -0.82701019257E+02  0.41544116784E+02  0.17537973654E+03  0.19835703722E+03  0.47000000000E+01 0. -1.
         -5    1    3    3    0  501  0.28853995173E+02  0.68295984943E+01  0.15835139844E+01  0.30063166327E+02  0.47000000000E+01 0. -1.
          5    1    4    4  502    0 -0.20711804170E+02 -0.62806782506E+02  0.84271303905E+02  0.10722599229E+03  0.47000000000E+01 0.  1.
         -5    1    4    4    0  502  0.74558828253E+02  0.14433067227E+02  0.59685999133E+02  0.96704916073E+02  0.47000000000E+01 0.  1.
<mgrwt>
<rscale>  0 0.28971966E+03</rscale>
<asrwt>0</asrwt>
<pdfrwt beam="1">  1       21 0.57943973E-01 0.28971966E+03</pdfrwt>
<pdfrwt beam="2">  1       21 0.85715816E-02 0.28971966E+03</pdfrwt>
<totfact> 0.29005344E+05</totfact>
</mgrwt>
</event>
<event>
 8    1  0.4760912E-006  0.2912505E+03  0.7546771E-02  0.1089698E+00
         21   -1    0    0  504  503  0.00000000000E+00  0.00000000000E+00  0.12919186246E+02  0.12919186246E+02  0.00000000000E+00 0.  1.
         21   -1    0    0  503  504 -0.00000000000E+00 -0.00000000000E+00 -0.16414895546E+04  0.16414895546E+04  0.00000000000E+00 0.  1.
         25    2    1    2    0    0  0.64519620326E+02 -0.31299193546E+02 -0.69513086390E+03  0.70991053016E+03  0.12499448772E+03 0.  0.
         25    2    1    2    0    0 -0.64519620326E+02  0.31299193546E+02 -0.93343950443E+03  0.94449821067E+03  0.12500056237E+03 0.  0.
          5    1    3    3  501    0  0.70791256255E+02 -0.56744032511E+02 -0.28979895170E+03  0.30370513594E+03  0.47000000000E+01 0. -1.
         -5    1    3    3    0  501 -0.62716359293E+01  0.25444838965E+02 -0.40533191220E+03  0.40620539422E+03  0.47000000000E+01 0. -1.
          5    1    4    4  502    0 -0.86594948570E+02  0.60657357925E+02 -0.63311786835E+03  0.64190211514E+03  0.47000000000E+01 0.  1.
         -5    1    4    4    0  502  0.22075328244E+02 -0.29358164379E+02 -0.30032163608E+03  0.30259609553E+03  0.47000000000E+01 0.  1.
<mgrwt>
<rscale>  0 0.29125047E+03</rscale>
<asrwt>0</asrwt>
<pdfrwt beam="1">  1       21 0.19875672E-02 0.29125047E+03</pdfrwt>
<pdfrwt beam="2">  1       21 0.25253684E+00 0.29125047E+03</pdfrwt>
<totfact> 0.75241449E+04</totfact>
</mgrwt>
</event>
<event>
 8    1  0.4760912E-006  0.2778677E+03  0.7546771E-02  0.1096859E+00
         21   -1    0    0  504  503  0.00000000000E+00  0.00000000000E+00  0.44116585013E+03  0.44116585013E+03  0.00000000000E+00 0. -1.
         21   -1    0    0  503  504 -0.00000000000E+00 -0.00000000000E+00 -0.43753640803E+02  0.43753640803E+02  0.00000000000E+00 0. -1.
         25    2    1    2    0    0 -0.12752699750E-01  0.55923746915E+02  0.15778093733E+03  0.20891930361E+03  0.12499994241E+03 0.  0.
         25    2    1    2    0    0  0.12752699750E-01 -0.55923746915E+02  0.23963127199E+03  0.27600018733E+03  0.12500196501E+03 0.  0.
          5    1    3    3  501    0 -0.15187680169E+01  0.95897408259E+02  0.10165825923E+03  0.13983959109E+03  0.47000000000E+01 0. -1.
         -5    1    3    3    0  501  0.15060153172E+01 -0.39973661345E+02  0.56122678101E+02  0.69079712511E+02  0.47000000000E+01 0. -1.
          5    1    4    4  502    0 -0.12123902769E+02 -0.86291179855E+02  0.22203370074E+03  0.23856699479E+03  0.47000000000E+01 0.  1.
         -5    1    4    4    0  502  0.12136655469E+02  0.30367432940E+02  0.17597571251E+02  0.37433192534E+02  0.47000000000E+01 0.  1.
<mgrwt>
<rscale>  0 0.27786768E+03</rscale>
<asrwt>0</asrwt>
<pdfrwt beam="1">  1       21 0.67871666E-01 0.27786768E+03</pdfrwt>
<pdfrwt beam="2">  1       21 0.67313297E-02 0.27786768E+03</pdfrwt>
<totfact> 0.31422059E+05</totfact>
</mgrwt>
</event>
<event>
 8    1  0.4760912E-006  0.2711403E+03  0.7546771E-02  0.1100629E+00
         21   -1    0    0  504  503  0.00000000000E+00  0.00000000000E+00  0.12980422495E+03  0.12980422495E+03  0.00000000000E+00 0. -1.
         21   -1    0    0  503  504 -0.00000000000E+00 -0.00000000000E+00 -0.14159224290E+03  0.14159224290E+03  0.00000000000E+00 0. -1.
         25    2    1    2    0    0 -0.36482376420E+02 -0.33178321788E+02 -0.23889215745E+02  0.13647613124E+03  0.12499309958E+03 0.  0.
         25    2    1    2    0    0  0.36482376420E+02  0.33178321788E+02  0.12101197792E+02  0.13492033661E+03  0.12500117366E+03 0.  0.
          5    1    3    3  501    0 -0.79203378293E+02 -0.25144653382E+02 -0.36628430702E+02  0.90934925427E+02  0.47000000000E+01 0.  1.
         -5    1    3    3    0  501  0.42721001873E+02 -0.80336684055E+01  0.12739214957E+02  0.45541205812E+02  0.47000000000E+01 0.  1.
          5    1    4    4  502    0  0.35253139770E+02  0.24698462574E+02 -0.53368806459E+02  0.68724940306E+02  0.47000000000E+01 0.  1.
         -5    1    4    4    0  502  0.12292366504E+01  0.84798592134E+01  0.65470004251E+02  0.66195396303E+02  0.47000000000E+01 0.  1.
<mgrwt>
<rscale>  0 0.27114034E+03</rscale>
<asrwt>0</asrwt>
<pdfrwt beam="1">  1       21 0.19969881E-01 0.27114034E+03</pdfrwt>
<pdfrwt beam="2">  1       21 0.21783422E-01 0.27114034E+03</pdfrwt>
<totfact> 0.44815654E+05</totfact>
</mgrwt>
</event>
<event>
 8    1  0.4760912E-006  0.2835005E+03  0.7546771E-02  0.1093792E+00
         21   -1    0    0  504  503  0.00000000000E+00  0.00000000000E+00  0.97715363912E+03  0.97715363912E+03  0.00000000000E+00 0.  1.
         21   -1    0    0  503  504 -0.00000000000E+00 -0.00000000000E+00 -0.20562916951E+02  0.20562916951E+02  0.00000000000E+00 0.  1.
         25    2    1    2    0    0 -0.40932055404E+02  0.49817337500E+02  0.54036433164E+03  0.55836908834E+03  0.12500091050E+03 0.  0.
         25    2    1    2    0    0  0.40932055404E+02 -0.49817337500E+02  0.41622639053E+03  0.43934746774E+03  0.12499835582E+03 0.  0.
          5    1    3    3  501    0 -0.34809365998E+02  0.91611442713E+02  0.37128874953E+03  0.38403355833E+03  0.47000000000E+01 0.  1.
         -5    1    3    3    0  501 -0.61226894056E+01 -0.41794105214E+02  0.16907558211E+03  0.17433553001E+03  0.47000000000E+01 0.  1.
          5    1    4    4  502    0  0.30569387776E+02  0.31053559576E+02  0.25368191537E+03  0.25744011967E+03  0.47000000000E+01 0. -1.
         -5    1    4    4    0  502  0.10362667627E+02 -0.80870897075E+02  0.16254447516E+03  0.18190734806E+03  0.47000000000E+01 0. -1.
<mgrwt>
<rscale>  0 0.28350047E+03</rscale>
<asrwt>0</asrwt>
<pdfrwt beam="1">  1       21 0.15033129E+00 0.28350047E+03</pdfrwt>
<pdfrwt beam="2">  1       21 0.31635264E-02 0.28350047E+03</pdfrwt>
<totfact> 0.16641182E+05</totfact>
</mgrwt>
</event>
<event>
 8    1  0.4760912E-006  0.2554268E+03  0.7546771E-02  0.1109922E+00
         21   -1    0    0  504  503  0.00000000000E+00  0.00000000000E+00  0.14050792803E+03  0.14050792803E+03  0.00000000000E+00 0. -1.
         21   -1    0    0  503  504 -0.00000000000E+00 -0.00000000000E+00 -0.11608396824E+03  0.11608396824E+03  0.00000000000E+00 0. -1.
         25    2    1    2    0    0  0.17239842412E+01  0.15486627213E+02 -0.89534804963E+01  0.12628516677E+03  0.12499988316E+03 0.  0.
         25    2    1    2    0    0 -0.17239842412E+01 -0.15486627213E+02  0.33377440283E+02  0.13030672949E+03  0.12499192969E+03 0.  0.
          5    1    3    3  501    0  0.14984960473E+01  0.18849095069E+02  0.56917906769E+02  0.60160385523E+02  0.47000000000E+01 0.  1.
         -5    1    3    3    0  501  0.22548819383E+00 -0.33624678556E+01 -0.65871387265E+02  0.66124781249E+02  0.47000000000E+01 0.  1.
          5    1    4    4  502    0  0.15049012484E+01 -0.56108386689E+02  0.59296823002E+02  0.81783977665E+02  0.47000000000E+01 0.  1.
         -5    1    4    4    0  502 -0.32288854895E+01  0.40621759475E+02 -0.25919382720E+02  0.48522751828E+02  0.47000000000E+01 0.  1.
<mgrwt>
<rscale>  0 0.25542684E+03</rscale>
<asrwt>0</asrwt>
<pdfrwt beam="1">  1       21 0.21616604E-01 0.25542684E+03</pdfrwt>
<pdfrwt beam="2">  1       21 0.17859072E-01 0.25542684E+03</pdfrwt>
<totfact> 0.56195468E+05</totfact>
</mgrwt>
</event>
<event>
 8    1  0.4760912E-006  0.3409327E+03  0.7546771E-02  0.1066399E+00
         21   -1    0    0  504  503  0.00000000000E+00  0.00000000000E+00  0.14295150121E+02  0.14295150121E+02  0.00000000000E+00 0.  1.
         21   -1    0    0  503  504 -0.00000000000E+00 -0.00000000000E+00 -0.20327711279E+04  0.20327711279E+04  0.00000000000E+00 0.  1.
         25    2    1    2    0    0  0.51361042719E+02  0.78244860417E+02 -0.14197144246E+04  0.14282768625E+04  0.12500213480E+03 0.  0.
         25    2    1    2    0    0 -0.51361042719E+02 -0.78244860417E+02 -0.59876155319E+03  0.61878941551E+03  0.12499891311E+03 0.  0.
          5    1    3    3  501    0  0.50282978391E+02 -0.19123243349E+02 -0.35160343126E+03  0.35572621385E+03  0.47000000000E+01 0. -1.
         -5    1    3    3    0  501  0.10780643278E+01  0.97368103766E+02 -0.10681109933E+04  0.10725506486E+04  0.47000000000E+01 0. -1.
          5    1    4    4  502    0 -0.59520295015E+02 -0.34346150749E+02 -0.54228148425E+03  0.54663847445E+03  0.47000000000E+01 0.  1.
         -5    1    4    4    0  502  0.81592522962E+01 -0.43898709668E+02 -0.56480068945E+02  0.72150941065E+02  0.47000000000E+01 0.  1.
<mgrwt>
<rscale>  0 0.34093265E+03</rscale>
<asrwt>0</asrwt>
<pdfrwt beam="1">  1       21 0.21992536E-02 0.34093265E+03</pdfrwt>
<pdfrwt beam="2">  1       21 0.31273405E+00 0.34093265E+03</pdfrwt>
<totfact> 0.27236951E+04</totfact>
</mgrwt>
</event>
<event>
 8    1  0.4760912E-006  0.3461619E+03  0.7546771E-02  0.1064201E+00
         21   -1    0    0  504  503  0.00000000000E+00  0.00000000000E+00  0.91093955509E+03  0.91093955509E+03  0.00000000000E+00 0.  1.
         21   -1    0    0  503  504 -0.00000000000E+00 -0.00000000000E+00 -0.32885836324E+02  0.32885836324E+02  0.00000000000E+00 0.  1.
         25    2    1    2    0    0 -0.73328778711E+02  0.89077559690E+02  0.52623047087E+03  0.55304128518E+03  0.12499693280E+03 0.  0.
         25    2    1    2    0    0  0.73328778711E+02 -0.89077559690E+02  0.35182324790E+03  0.39078410624E+03  0.12498279282E+03 0.  0.
          5    1    3    3  501    0 -0.52023161169E+02  0.14547339435E+02  0.62024054850E+02  0.82383904755E+02  0.47000000000E+01 0.  1.
         -5    1    3    3    0  501 -0.21305617542E+02  0.74530220255E+02  0.46420641602E+03  0.47065738042E+03  0.47000000000E+01 0.  1.
          5    1    4    4  502    0  0.69289909030E+02 -0.11828188136E+02  0.73241489638E+02  0.10162383250E+03  0.47000000000E+01 0.  1.
         -5    1    4    4    0  502  0.40388696802E+01 -0.77249371554E+02  0.27858175826E+03  0.28916027374E+03  0.47000000000E+01 0.  1.
<mgrwt>
<rscale>  0 0.34616186E+03</rscale>
<asrwt>0</asrwt>
<pdfrwt beam="1">  1       21 0.14014453E+00 0.34616186E+03</pdfrwt>
<pdfrwt beam="2">  1       21 0.50593601E-02 0.34616186E+03</pdfrwt>
<totfact> 0.88798824E+04</totfact>
</mgrwt>
</event>
<event>
 8    1  0.4760912E-006  0.3608890E+03  0.7546771E-02  0.1058232E+00
         21   -1    0    0  504  503  0.00000000000E+00  0.00000000000E+00  0.15177131428E+03  0.15177131428E+03  0.00000000000E+00 0.  1.
         21   -1    0    0  503  504 -0.00000000000E+00 -0.00000000000E+00 -0.21453472656E+03  0.21453472656E+03  0.00000000000E+00 0.  1.
         25    2    1    2    0    0 -0.58000335443E+02  0.64441631356E+02 -0.12988774018E+03  0.20003110470E+03  0.12499942014E+03 0.  0.
         25    2    1    2    0    0  0.58000335443E+02 -0.64441631356E+02  0.67124327899E+02  0.16627493614E+03  0.12499966491E+03 0.  0.
          5    1    3    3  501    0 -0.12171859542E+01  0.89637907689E+02 -0.79301498564E+02  0.11978002217E+03  0.47000000000E+01 0.  1.
         -5    1    3    3    0  501 -0.56783149489E+02 -0.25196276333E+02 -0.50586241617E+02  0.80251082534E+02  0.47000000000E+01 0.  1.
          5    1    4    4  502    0  0.86804727366E+02 -0.18418735046E+02  0.13612643265E+02  0.89898301155E+02  0.47000000000E+01 0.  1.
         -5    1    4    4    0  502 -0.28804391923E+02 -0.46022896310E+02  0.53511684634E+02  0.76376634982E+02  0.47000000000E+01 0.  1.
<mgrwt>
<rscale>  0 0.36088900E+03</rscale>
<asrwt>0</asrwt>
<pdfrwt beam="1">  1       21 0.23349433E-01 0.36088900E+03</pdfrwt>
<pdfrwt beam="2">  1       21 0.33005342E-01 0.36088900E+03</pdfrwt>
<totfact> 0.14564408E+05</totfact>
</mgrwt>
</event>
<event>
 8    1  0.4760912E-006  0.2852023E+03  0.7546771E-02  0.1092881E+00
         21   -1    0    0  504  503  0.00000000000E+00  0.00000000000E+00  0.21577441899E+03  0.21577441899E+03  0.00000000000E+00 0.  1.
         21   -1    0    0  503  504 -0.00000000000E+00 -0.00000000000E+00 -0.94242357823E+02  0.94242357823E+02  0.00000000000E+00 0.  1.
         25    2    1    2    0    0 -0.66138429789E+02  0.18332654658E+02  0.60275115120E+02  0.15481700670E+03  0.12499935175E+03 0.  0.
         25    2    1    2    0    0  0.66138429789E+02 -0.18332654658E+02  0.61256946043E+02  0.15519977011E+03  0.12499670828E+03 0.  0.
          5    1    3    3  501    0 -0.26450817164E+02 -0.24480250670E+02  0.84077810371E+02  0.91597470480E+02  0.47000000000E+01 0.  1.
         -5    1    3    3    0  501 -0.39687612625E+02  0.42812905328E+02 -0.23802695251E+02  0.63219536219E+02  0.47000000000E+01 0.  1.
          5    1    4    4  502    0  0.87300897438E+02 -0.42634246098E+02  0.71879351624E+02  0.12094567716E+03  0.47000000000E+01 0.  1.
         -5    1    4    4    0  502 -0.21162467649E+02  0.24301591440E+02 -0.10622405581E+02  0.34254092950E+02  0.47000000000E+01 0.  1.
<mgrwt>
<rscale>  0 0.28520231E+03</rscale>
<asrwt>0</asrwt>
<pdfrwt beam="1">  1       21 0.33196064E-01 0.28520231E+03</pdfrwt>
<pdfrwt beam="2">  1       21 0.14498824E-01 0.28520231E+03</pdfrwt>
<totfact> 0.35730609E+05</totfact>
</mgrwt>
</event>
<event>
 8    1  0.4760912E-006  0.3340680E+03  0.7546771E-02  0.1069351E+00
         21   -1    0    0  504  503  0.00000000000E+00  0.00000000000E+00  0.13759316984E+02  0.13759316984E+02  0.00000000000E+00 0. -1.
         21   -1    0    0  503  504 -0.00000000000E+00 -0.00000000000E+00 -0.20277431219E+04  0.20277431219E+04  0.00000000000E+00 0. -1.
         25    2    1    2    0    0  0.84132522358E+02  0.62406748435E+02 -0.78647094100E+03  0.80320225409E+03  0.12499774543E+03 0.  0.
         25    2    1    2    0    0 -0.84132522358E+02 -0.62406748435E+02 -0.12275128639E+04  0.12383001848E+04  0.12500653192E+03 0.  0.
          5    1    3    3  501    0 -0.24746200057E+02  0.29639344230E+01 -0.30260905293E+03  0.30367003184E+03  0.47000000000E+01 0. -1.
         -5    1    3    3    0  501  0.10887872242E+03  0.59442814012E+02 -0.48386188807E+03  0.49953222224E+03  0.47000000000E+01 0. -1.
          5    1    4    4  502    0  0.11641258186E+02  0.27650559026E+02 -0.17748306626E+03  0.18006221457E+03  0.47000000000E+01 0.  1.
         -5    1    4    4    0  502 -0.95773780544E+02 -0.90057307461E+02 -0.10500297977E+04  0.10582379702E+04  0.47000000000E+01 0.  1.
<mgrwt>
<rscale>  0 0.33406802E+03</rscale>
<asrwt>0</asrwt>
<pdfrwt beam="1">  1       21 0.21168200E-02 0.33406802E+03</pdfrwt>
<pdfrwt beam="2">  1       21 0.31196019E+00 0.33406802E+03</pdfrwt>
<totfact> 0.29433759E+04</totfact>
</mgrwt>
</event>
<event>
 8    1  0.4760912E-006  0.2867346E+03  0.7546771E-02  0.1092066E+00
         21   -1    0    0  504  503  0.00000000000E+00  0.00000000000E+00  0.35899538072E+03  0.35899538072E+03  0.00000000000E+00 0. -1.
         21   -1    0    0  503  504 -0.00000000000E+00 -0.00000000000E+00 -0.57254741427E+02  0.57254741427E+02  0.00000000000E+00 0. -1.
         25    2    1    2    0    0 -0.30556535562E+02 -0.19598996833E+02  0.63682880212E+02  0.14493259666E+03  0.12502849995E+03 0.  0.
         25    2    1    2    0    0  0.30556535562E+02  0.19598996833E+02  0.23805775908E+03  0.27131752549E+03  0.12499552166E+03 0.  0.
          5    1    3    3  501    0 -0.19220884820E+01 -0.63865612120E+02  0.65961438703E+02  0.91953859253E+02  0.47000000000E+01 0. -1.
         -5    1    3    3    0  501 -0.28634447080E+02  0.44266615287E+02 -0.22785584914E+01  0.52978737408E+02  0.47000000000E+01 0. -1.
          5    1    4    4  502    0  0.22736194499E+01  0.30300222209E+02 -0.55357671223E+00  0.30751735861E+02  0.47000000000E+01 0.  1.
         -5    1    4    4    0  502  0.28282916112E+02 -0.10701225376E+02  0.23861133579E+03  0.24056578963E+03  0.47000000000E+01 0.  1.
<mgrwt>
<rscale>  0 0.28673463E+03</rscale>
<asrwt>0</asrwt>
<pdfrwt beam="1">  1       21 0.55230057E-01 0.28673463E+03</pdfrwt>
<pdfrwt beam="2">  1       21 0.88084220E-02 0.28673463E+03</pdfrwt>
<totfact> 0.30660225E+05</totfact>
</mgrwt>
</event>
<event>
 8    1  0.4760912E-006  0.3481885E+03  0.7546771E-02  0.1063361E+00
         21   -1    0    0  504  503  0.00000000000E+00  0.00000000000E+00  0.27078784455E+03  0.27078784455E+03  0.00000000000E+00 0. -1.
         21   -1    0    0  503  504 -0.00000000000E+00 -0.00000000000E+00 -0.11192822155E+03  0.11192822155E+03  0.00000000000E+00 0. -1.
         25    2    1    2    0    0 -0.63689783722E+02 -0.96929962647E+02  0.11803057548E+03  0.20737774093E+03  0.12499001751E+03 0.  0.
         25    2    1    2    0    0  0.63689783722E+02  0.96929962647E+02  0.40829047523E+02  0.17533832517E+03  0.12499884377E+03 0.  0.
          5    1    3    3  501    0 -0.11179147721E+02  0.12223892890E+02  0.77761587258E+02  0.79645159012E+02  0.47000000000E+01 0. -1.
         -5    1    3    3    0  501 -0.52510636001E+02 -0.10915385554E+03  0.40268988217E+02  0.12773258192E+03  0.47000000000E+01 0. -1.
          5    1    4    4  502    0 -0.97210898141E+01  0.73508861046E+02 -0.20125832016E+02  0.76975264558E+02  0.47000000000E+01 0.  1.
         -5    1    4    4    0  502  0.73410873536E+02  0.23421101600E+02  0.60954879538E+02  0.98363060612E+02  0.47000000000E+01 0.  1.
<mgrwt>
<rscale>  0 0.34818847E+03</rscale>
<asrwt>0</asrwt>
<pdfrwt beam="1">  1       21 0.41659668E-01 0.34818847E+03</pdfrwt>
<pdfrwt beam="2">  1       21 0.17219726E-01 0.34818847E+03</pdfrwt>
<totfact> 0.16210512E+05</totfact>
</mgrwt>
</event>
<event>
 8    1  0.4760912E-006  0.2882856E+03  0.7546771E-02  0.1091248E+00
         21   -1    0    0  504  503  0.00000000000E+00  0.00000000000E+00  0.21671114456E+03  0.21671114456E+03  0.00000000000E+00 0. -1.
         21   -1    0    0  503  504 -0.00000000000E+00 -0.00000000000E+00 -0.95874839979E+02  0.95874839979E+02  0.00000000000E+00 0. -1.
         25    2    1    2    0    0 -0.26193596209E+01  0.52685757004E+02  0.11319071430E+03  0.17669369307E+03  0.12500349329E+03 0.  0.
         25    2    1    2    0    0  0.26193596209E+01 -0.52685757004E+02  0.76455902847E+01  0.13589229146E+03  0.12500243915E+03 0.  0.
          5    1    3    3  501    0 -0.61596153582E+02  0.44075435108E+02  0.62630115003E+02  0.98393858657E+02  0.47000000000E+01 0. -1.
         -5    1    3    3    0  501  0.58976793961E+02  0.86103218958E+01  0.50560599292E+02  0.78299834418E+02  0.47000000000E+01 0. -1.
          5    1    4    4  502    0 -0.40170984887E+02  0.22304221938E+02 -0.10905292070E+02  0.47457367586E+02  0.47000000000E+01 0.  1.
         -5    1    4    4    0  502  0.42790344508E+02 -0.74989978942E+02  0.18550882355E+02  0.88434923876E+02  0.47000000000E+01 0.  1.
<mgrwt>
<rscale>  0 0.28828560E+03</rscale>
<asrwt>0</asrwt>
<pdfrwt beam="1">  1       21 0.33340176E-01 0.28828560E+03</pdfrwt>
<pdfrwt beam="2">  1       21 0.14749975E-01 0.28828560E+03</pdfrwt>
<totfact> 0.34305318E+05</totfact>
</mgrwt>
</event>
<event>
 8    1  0.4760912E-006  0.2957884E+03  0.7546771E-02  0.1087365E+00
         21   -1    0    0  504  503  0.00000000000E+00  0.00000000000E+00  0.64654734460E+02  0.64654734460E+02  0.00000000000E+00 0. -1.
         21   -1    0    0  503  504 -0.00000000000E+00 -0.00000000000E+00 -0.33829987208E+03  0.33829987208E+03  0.00000000000E+00 0. -1.
         25    2    1    2    0    0  0.35458011076E+02 -0.10048972115E+02 -0.23208353434E+03  0.26616958510E+03  0.12500091493E+03 0.  0.
         25    2    1    2    0    0 -0.35458011076E+02  0.10048972115E+02 -0.41561603286E+02  0.13678502144E+03  0.12499809131E+03 0.  0.
          5    1    3    3  501    0 -0.42037589545E+02 -0.55331599041E+01 -0.13613079900E+03  0.14265854069E+03  0.47000000000E+01 0.  1.
         -5    1    3    3    0  501  0.77495600620E+02 -0.45158122107E+01 -0.95952735332E+02  0.12351104442E+03  0.47000000000E+01 0.  1.
          5    1    4    4  502    0  0.28825774007E+00 -0.51090814708E+02 -0.41205892428E+02  0.65805546961E+02  0.47000000000E+01 0. -1.
         -5    1    4    4    0  502 -0.35746268816E+02  0.61139786823E+02 -0.35571085852E+00  0.70979474478E+02  0.47000000000E+01 0. -1.
<mgrwt>
<rscale>  0 0.29578836E+03</rscale>
<asrwt>0</asrwt>
<pdfrwt beam="1">  1       21 0.99468823E-02 0.29578836E+03</pdfrwt>
<pdfrwt beam="2">  1       21 0.52046134E-01 0.29578836E+03</pdfrwt>
<totfact> 0.27986891E+05</totfact>
</mgrwt>
</event>
<event>
 8    1  0.4760912E-006  0.4335152E+03  0.7546771E-02  0.1032755E+00
         21   -1    0    0  504  503  0.00000000000E+00  0.00000000000E+00  0.33419636999E+02  0.33419636999E+02  0.00000000000E+00 0.  1.
         21   -1    0    0  503  504 -0.00000000000E+00 -0.00000000000E+00 -0.14058755548E+04  0.14058755548E+04  0.00000000000E+00 0.  1.
         25    2    1    2    0    0 -0.33480798979E+02 -0.17265418229E+03 -0.61753610268E+03  0.65414660611E+03  0.12500605429E+03 0.  0.
         25    2    1    2    0    0  0.33480798979E+02  0.17265418229E+03 -0.75491981511E+03  0.78514858568E+03  0.12499577507E+03 0.  0.
          5    1    3    3  501    0 -0.69233432860E+02 -0.15775135443E+03 -0.54739313317E+03  0.57388159954E+03  0.47000000000E+01 0.  1.
         -5    1    3    3    0  501  0.35752633881E+02 -0.14902827853E+02 -0.70142969507E+02  0.80265006564E+02  0.47000000000E+01 0.  1.
          5    1    4    4  502    0 -0.18834183992E+02  0.56755210034E+02 -0.46074141033E+03  0.46462954873E+03  0.47000000000E+01 0. -1.
         -5    1    4    4    0  502  0.52314982971E+02  0.11589897225E+03 -0.29417840477E+03  0.32051903695E+03  0.47000000000E+01 0. -1.
<mgrwt>
<rscale>  0 0.43351517E+03</rscale>
<asrwt>0</asrwt>
<pdfrwt beam="1">  1       21 0.51414828E-02 0.43351517E+03</pdfrwt>
<pdfrwt beam="2">  1       21 0.21628854E+00 0.43351517E+03</pdfrwt>
<totfact> 0.24072497E+04</totfact>
</mgrwt>
</event>
<event>
 8    1  0.4760912E-006  0.2720153E+03  0.7546771E-02  0.1100132E+00
         21   -1    0    0  504  503  0.00000000000E+00  0.00000000000E+00  0.33816399273E+03  0.33816399273E+03  0.00000000000E+00 0. -1.
         21   -1    0    0  503  504 -0.00000000000E+00 -0.00000000000E+00 -0.54701508343E+02  0.54701508343E+02  0.00000000000E+00 0. -1.
         25    2    1    2    0    0  0.50711488708E+02  0.13919489951E+02  0.15658726273E+03  0.20714704168E+03  0.12499967497E+03 0.  0.
         25    2    1    2    0    0 -0.50711488708E+02 -0.13919489951E+02  0.12687522166E+03  0.18571845940E+03  0.12501446717E+03 0.  0.
          5    1    3    3  501    0 -0.11267245117E+02  0.46689653877E+00  0.14118509849E+03  0.14171270529E+03  0.47000000000E+01 0. -1.
         -5    1    3    3    0  501  0.61978733825E+02  0.13452593413E+02  0.15402164238E+02  0.65434336393E+02  0.47000000000E+01 0. -1.
          5    1    4    4  502    0  0.23049571231E+02 -0.48550694101E+02  0.47948153901E+02  0.72177337815E+02  0.47000000000E+01 0.  1.
         -5    1    4    4    0  502 -0.73761059938E+02  0.34631204149E+02  0.78927067763E+02  0.11354112158E+03  0.47000000000E+01 0.  1.
<mgrwt>
<rscale>  0 0.27201530E+03</rscale>
<asrwt>0</asrwt>
<pdfrwt beam="1">  1       21 0.52025228E-01 0.27201530E+03</pdfrwt>
<pdfrwt beam="2">  1       21 0.84156169E-02 0.27201530E+03</pdfrwt>
<totfact> 0.37844365E+05</totfact>
</mgrwt>
</event>
<event>
 8    1  0.4760912E-006  0.3444226E+03  0.7546771E-02  0.1064928E+00
         21   -1    0    0  504  503  0.00000000000E+00  0.00000000000E+00  0.16787688691E+03  0.16787688691E+03  0.00000000000E+00 0. -1.
         21   -1    0    0  503  504 -0.00000000000E+00 -0.00000000000E+00 -0.17665761286E+03  0.17665761286E+03  0.00000000000E+00 0. -1.
         25    2    1    2    0    0 -0.44735472703E+02  0.10204417244E+03  0.35851245356E+02  0.17124542676E+03  0.12500163498E+03 0.  0.
         25    2    1    2    0    0  0.44735472703E+02 -0.10204417244E+03 -0.44631971309E+02  0.17328907301E+03  0.12499125696E+03 0.  0.
          5    1    3    3  501    0  0.32238841578E+02  0.71208323985E+02  0.40306378569E+02  0.88071916434E+02  0.47000000000E+01 0.  1.
         -5    1    3    3    0  501 -0.76974314281E+02  0.30835848451E+02 -0.44551332122E+01  0.83173510331E+02  0.47000000000E+01 0.  1.
          5    1    4    4  502    0  0.26779725706E+02 -0.12314118044E+03 -0.69698700432E+01  0.12629953728E+03  0.47000000000E+01 0.  1.
         -5    1    4    4    0  502  0.17955746998E+02  0.21097008000E+02 -0.37662101266E+02  0.46989535735E+02  0.47000000000E+01 0.  1.
<mgrwt>
<rscale>  0 0.34442259E+03</rscale>
<asrwt>0</asrwt>
<pdfrwt beam="1">  1       21 0.25827213E-01 0.34442259E+03</pdfrwt>
<pdfrwt beam="2">  1       21 0.27178094E-01 0.34442259E+03</pdfrwt>
<totfact> 0.17654654E+05</totfact>
</mgrwt>
</event>
<event>
 8    1  0.4760912E-006  0.3226702E+03  0.7546771E-02  0.1074427E+00
         21   -1    0    0  504  503  0.00000000000E+00  0.00000000000E+00  0.52839170200E+02  0.52839170200E+02  0.00000000000E+00 0. -1.
         21   -1    0    0  503  504 -0.00000000000E+00 -0.00000000000E+00 -0.49260838777E+03  0.49260838777E+03  0.00000000000E+00 0. -1.
         25    2    1    2    0    0 -0.83612030164E+02  0.57941137682E+02 -0.20722953617E+03  0.26252058521E+03  0.12499931991E+03 0.  0.
         25    2    1    2    0    0  0.83612030164E+02 -0.57941137682E+02 -0.23253968141E+03  0.28292697276E+03  0.12499928585E+03 0.  0.
          5    1    3    3  501    0 -0.48197196921E+02  0.70131091005E+02 -0.45832394393E+02  0.96767960050E+02  0.47000000000E+01 0.  1.
         -5    1    3    3    0  501 -0.35414833244E+02 -0.12189953323E+02 -0.16139714177E+03  0.16575262516E+03  0.47000000000E+01 0.  1.
          5    1    4    4  502    0  0.10043016482E+03 -0.83069765560E+02 -0.19289247257E+03  0.23284415374E+03  0.47000000000E+01 0. -1.
         -5    1    4    4    0  502 -0.16818134659E+02  0.25128627878E+02 -0.39647208839E+02  0.50082819022E+02  0.47000000000E+01 0. -1.
<mgrwt>
<rscale>  0 0.32267022E+03</rscale>
<asrwt>0</asrwt>
<pdfrwt beam="1">  1       21 0.81291036E-02 0.32267022E+03</pdfrwt>
<pdfrwt beam="2">  1       21 0.75785901E-01 0.32267022E+03</pdfrwt>
<totfact> 0.17468283E+05</totfact>
</mgrwt>
</event>
<event>
 8    1  0.4760912E-006  0.3754164E+03  0.7546771E-02  0.1052641E+00
         21   -1    0    0  504  503  0.00000000000E+00  0.00000000000E+00  0.42860663575E+02  0.42860663575E+02  0.00000000000E+00 0.  1.
         21   -1    0    0  503  504 -0.00000000000E+00 -0.00000000000E+00 -0.82206773667E+03  0.82206773667E+03  0.00000000000E+00 0.  1.
         25    2    1    2    0    0 -0.10975047180E+03 -0.43476907463E+02 -0.56314793112E+03  0.58880807246E+03  0.12499578522E+03 0.  0.
         25    2    1    2    0    0  0.10975047180E+03  0.43476907463E+02 -0.21605914197E+03  0.27612032779E+03  0.12500190016E+03 0.  0.
          5    1    3    3  501    0 -0.46889537252E+02 -0.75465779847E+02 -0.20077876517E+03  0.21960854987E+03  0.47000000000E+01 0. -1.
         -5    1    3    3    0  501 -0.62860934547E+02  0.31988872384E+02 -0.36236916595E+03  0.36919952259E+03  0.47000000000E+01 0. -1.
          5    1    4    4  502    0  0.87018503050E+02  0.83162036326E+02 -0.12211409192E+03  0.17152867283E+03  0.47000000000E+01 0. -1.
         -5    1    4    4    0  502  0.22731968750E+02 -0.39685128863E+02 -0.93945050052E+02  0.10459165495E+03  0.47000000000E+01 0. -1.
<mgrwt>
<rscale>  0 0.37541640E+03</rscale>
<asrwt>0</asrwt>
<pdfrwt beam="1">  1       21 0.65939491E-02 0.37541640E+03</pdfrwt>
<pdfrwt beam="2">  1       21 0.12647194E+00 0.37541640E+03</pdfrwt>
<totfact> 0.72683010E+04</totfact>
</mgrwt>
</event>
<event>
 8    1  0.4760912E-006  0.3495311E+03  0.7546771E-02  0.1062808E+00
         21   -1    0    0  504  503  0.00000000000E+00  0.00000000000E+00  0.14151211256E+03  0.14151211256E+03  0.00000000000E+00 0.  1.
         21   -1    0    0  503  504 -0.00000000000E+00 -0.00000000000E+00 -0.21583312654E+03  0.21583312654E+03  0.00000000000E+00 0.  1.
         25    2    1    2    0    0  0.41629977512E+02  0.22520006500E+02 -0.15228775076E+03  0.20260755653E+03  0.12497222576E+03 0.  0.
         25    2    1    2    0    0 -0.41629977512E+02 -0.22520006500E+02  0.77966736778E+02  0.15473768257E+03  0.12499893057E+03 0.  0.
          5    1    3    3  501    0 -0.40235727290E+02  0.92390115741E+01 -0.19313099892E+02  0.45818761581E+02  0.47000000000E+01 0.  1.
         -5    1    3    3    0  501  0.81865704801E+02  0.13280994926E+02 -0.13297465087E+03  0.15678879495E+03  0.47000000000E+01 0.  1.
          5    1    4    4  502    0 -0.72763501092E+02 -0.77180736144E+01  0.91633288456E+02  0.11735776627E+03  0.47000000000E+01 0. -1.
         -5    1    4    4    0  502  0.31133523580E+02 -0.14801932885E+02 -0.13666551678E+02  0.37379916298E+02  0.47000000000E+01 0. -1.
<mgrwt>
<rscale>  0 0.34953112E+03</rscale>
<asrwt>0</asrwt>
<pdfrwt beam="1">  1       21 0.21771094E-01 0.34953112E+03</pdfrwt>
<pdfrwt beam="2">  1       21 0.33205096E-01 0.34953112E+03</pdfrwt>
<totfact> 0.16493247E+05</totfact>
</mgrwt>
</event>
<event>
 8    1  0.4760912E-006  0.2681343E+03  0.7546771E-02  0.1102352E+00
         21   -1    0    0  504  503  0.00000000000E+00  0.00000000000E+00  0.11607549061E+04  0.11607549061E+04  0.00000000000E+00 0. -1.
         21   -1    0    0  503  504 -0.00000000000E+00 -0.00000000000E+00 -0.15484745910E+02  0.15484745910E+02  0.00000000000E+00 0. -1.
         25    2    1    2    0    0  0.28570754919E+02 -0.36903298388E+02  0.63101474160E+03  0.64495740896E+03  0.12494924484E+03 0.  0.
         25    2    1    2    0    0 -0.28570754919E+02  0.36903298388E+02  0.51425541856E+03  0.53128224303E+03  0.12499617900E+03 0.  0.
          5    1    3    3  501    0  0.69533338471E+02 -0.54246749444E+02  0.39677605254E+03  0.40648606478E+03  0.47000000000E+01 0. -1.
         -5    1    3    3    0  501 -0.40962583551E+02  0.17343451056E+02  0.23423868906E+03  0.23847134419E+03  0.47000000000E+01 0. -1.
          5    1    4    4  502    0 -0.32453918219E+01 -0.26746197179E+01  0.45709807566E+03  0.45714158302E+03  0.47000000000E+01 0. -1.
         -5    1    4    4    0  502 -0.25325363097E+02  0.39577918106E+02  0.57157342905E+02  0.74140660002E+02  0.47000000000E+01 0. -1.
<mgrwt>
<rscale>  0 0.26813426E+03</rscale>
<asrwt>0</asrwt>
<pdfrwt beam="1">  1       21 0.17857761E+00 0.26813426E+03</pdfrwt>
<pdfrwt beam="2">  1       21 0.23822695E-02 0.26813426E+03</pdfrwt>
<totfact> 0.16664027E+05</totfact>
</mgrwt>
</event>
<event>
 8    1  0.4760912E-006  0.2757236E+03  0.7546771E-02  0.1098048E+00
         21   -1    0    0  504  503  0.00000000000E+00  0.00000000000E+00  0.31772464922E+03  0.31772464922E+03  0.00000000000E+00 0.  1.
         21   -1    0    0  503  504 -0.00000000000E+00 -0.00000000000E+00 -0.59818684922E+02  0.59818684922E+02  0.00000000000E+00 0.  1.
         25    2    1    2    0    0 -0.91955308208E+01 -0.53524935962E+02  0.15767609827E+03  0.20841126431E+03  0.12499610621E+03 0.  0.
         25    2    1    2    0    0  0.91955308208E+01  0.53524935962E+02  0.10022986603E+03  0.16913206983E+03  0.12494060367E+03 0.  0.
          5    1    3    3  501    0 -0.46125749724E+02 -0.14996690061E+02  0.14553592574E+03  0.15347729859E+03  0.47000000000E+01 0. -1.
         -5    1    3    3    0  501  0.36930218903E+02 -0.38528245901E+02  0.12140172521E+02  0.54933965716E+02  0.47000000000E+01 0. -1.
          5    1    4    4  502    0 -0.31652281652E+02  0.19260860003E+02  0.10870542605E+03  0.11494262619E+03  0.47000000000E+01 0. -1.
         -5    1    4    4    0  502  0.40847812473E+02  0.34264075959E+02 -0.84755600194E+01  0.54189443647E+02  0.47000000000E+01 0. -1.
<mgrwt>
<rscale>  0 0.27572356E+03</rscale>
<asrwt>0</asrwt>
<pdfrwt beam="1">  1       21 0.48880714E-01 0.27572356E+03</pdfrwt>
<pdfrwt beam="2">  1       21 0.92028748E-02 0.27572356E+03</pdfrwt>
<totfact> 0.36825864E+05</totfact>
</mgrwt>
</event>
<event>
 8    1  0.4760912E-006  0.2714429E+03  0.7546771E-02  0.1100457E+00
         21   -1    0    0  504  503  0.00000000000E+00  0.00000000000E+00  0.50788395153E+03  0.50788395153E+03  0.00000000000E+00 0. -1.
         21   -1    0    0  503  504 -0.00000000000E+00 -0.00000000000E+00 -0.36268730912E+02  0.36268730912E+02  0.00000000000E+00 0. -1.
         25    2    1    2    0    0 -0.49754155548E+01 -0.50645875266E+02  0.26453906891E+03  0.29697921689E+03  0.12500390731E+03 0.  0.
         25    2    1    2    0    0  0.49754155548E+01  0.50645875266E+02  0.20707615171E+03  0.24717346556E+03  0.12499772008E+03 0.  0.
          5    1    3    3  501    0 -0.50919593962E+02 -0.64605248394E+02  0.12858765726E+03  0.15272039408E+03  0.47000000000E+01 0.  1.
         -5    1    3    3    0  501  0.45944178408E+02  0.13959373129E+02  0.13595141165E+03  0.14425882280E+03  0.47000000000E+01 0.  1.
          5    1    4    4  502    0 -0.56848095753E+02  0.29032072706E+02  0.68046384246E+02  0.93418240431E+02  0.47000000000E+01 0. -1.
         -5    1    4    4    0  502  0.61823511308E+02  0.21613802560E+02  0.13902976747E+03  0.15375522512E+03  0.47000000000E+01 0. -1.
<mgrwt>
<rscale>  0 0.27144286E+03</rscale>
<asrwt>0</asrwt>
<pdfrwt beam="1">  1       21 0.78135987E-01 0.27144286E+03</pdfrwt>
<pdfrwt beam="2">  1       21 0.55798051E-02 0.27144286E+03</pdfrwt>
<totfact> 0.31731221E+05</totfact>
</mgrwt>
</event>
<event>
 8    1  0.4760912E-006  0.2732766E+03  0.7546771E-02  0.1099419E+00
         21   -1    0    0  504  503  0.00000000000E+00  0.00000000000E+00  0.15928126919E+04  0.15928126919E+04  0.00000000000E+00 0.  1.
         21   -1    0    0  503  504 -0.00000000000E+00 -0.00000000000E+00 -0.11721422695E+02  0.11721422695E+02  0.00000000000E+00 0.  1.
         25    2    1    2    0    0 -0.51744545928E+02 -0.18834821082E+02  0.76938409904E+03  0.78141470887E+03  0.12499922747E+03 0.  0.
         25    2    1    2    0    0  0.51744545928E+02  0.18834821082E+02  0.81170717017E+03  0.82311940572E+03  0.12499910984E+03 0.  0.
          5    1    3    3  501    0 -0.64558586543E+02 -0.55301132869E+02  0.65664674023E+03  0.66214277754E+03  0.47000000000E+01 0.  1.
         -5    1    3    3    0  501  0.12814040615E+02  0.36466311788E+02  0.11273735881E+03  0.11927193133E+03  0.47000000000E+01 0.  1.
          5    1    4    4  502    0  0.74738382446E+01 -0.43809859584E+02  0.50332429606E+03  0.50530446174E+03  0.47000000000E+01 0.  1.
         -5    1    4    4    0  502  0.44270707684E+02  0.62644680665E+02  0.30838287411E+03  0.31781494398E+03  0.47000000000E+01 0.  1.
<mgrwt>
<rscale>  0 0.27327664E+03</rscale>
<asrwt>0</asrwt>
<pdfrwt beam="1">  1       21 0.24504793E+00 0.27327664E+03</pdfrwt>
<pdfrwt beam="2">  1       21 0.18032971E-02 0.27327664E+03</pdfrwt>
<totfact> 0.98748343E+04</totfact>
</mgrwt>
</event>
<event>
 8    1  0.4760912E-006  0.3408534E+03  0.7546771E-02  0.1066433E+00
         21   -1    0    0  504  503  0.00000000000E+00  0.00000000000E+00  0.22657974784E+03  0.22657974784E+03  0.00000000000E+00 0. -1.
         21   -1    0    0  503  504 -0.00000000000E+00 -0.00000000000E+00 -0.12819002594E+03  0.12819002594E+03  0.00000000000E+00 0. -1.
         25    2    1    2    0    0  0.12612254820E+02 -0.85147452641E+02  0.12989620993E+03  0.19976530092E+03  0.12499596967E+03 0.  0.
         25    2    1    2    0    0 -0.12612254820E+02  0.85147452641E+02 -0.31506488037E+02  0.15500447287E+03  0.12499828062E+03 0.  0.
          5    1    3    3  501    0 -0.21056060852E+02 -0.14218607951E+02  0.11729561366E+03  0.12010777450E+03  0.47000000000E+01 0. -1.
         -5    1    3    3    0  501  0.33668315672E+02 -0.70928844690E+02  0.12600596276E+02  0.79657526423E+02  0.47000000000E+01 0. -1.
          5    1    4    4  502    0 -0.53799584454E+02  0.74168274891E+02  0.13619532394E+02  0.92751873029E+02  0.47000000000E+01 0. -1.
         -5    1    4    4    0  502  0.41187329635E+02  0.10979177750E+02 -0.45126020431E+02  0.62252599837E+02  0.47000000000E+01 0. -1.
<mgrwt>
<rscale>  0 0.34085342E+03</rscale>
<asrwt>0</asrwt>
<pdfrwt beam="1">  1       21 0.34858423E-01 0.34085342E+03</pdfrwt>
<pdfrwt beam="2">  1       21 0.19721542E-01 0.34085342E+03</pdfrwt>
<totfact> 0.18084987E+05</totfact>
</mgrwt>
</event>
<event>
 8    1  0.4760912E-006  0.2704952E+03  0.7546771E-02  0.1100996E+00
         21   -1    0    0  504  503  0.00000000000E+00  0.00000000000E+00  0.72163747577E+02  0.72163747577E+02  0.00000000000E+00 0.  1.
         21   -1    0    0  503  504 -0.00000000000E+00 -0.00000000000E+00 -0.25347796141E+03  0.25347796141E+03  0.00000000000E+00 0.  1.
         25    2    1    2    0    0  0.13004816153E+02  0.47230717426E+02 -0.11027277937E+03  0.17373879460E+03  0.12500086786E+03 0.  0.
         25    2    1    2    0    0 -0.13004816153E+02 -0.47230717426E+02 -0.71041434468E+02  0.15190291439E+03  0.12501097583E+03 0.  0.
          5    1    3    3  501    0  0.24538451299E+02 -0.32258988517E+02 -0.48054596091E+01  0.41084794929E+02  0.47000000000E+01 0. -1.
         -5    1    3    3    0  501 -0.11533635146E+02  0.79489705943E+02 -0.10546731976E+03  0.13265399967E+03  0.47000000000E+01 0. -1.
          5    1    4    4  502    0 -0.55914707172E+02 -0.25192782535E+02 -0.81712993802E+02  0.10227528600E+03  0.47000000000E+01 0. -1.
         -5    1    4    4    0  502  0.42909891018E+02 -0.22037934890E+02  0.10671559334E+02  0.49627628395E+02  0.47000000000E+01 0. -1.
<mgrwt>
<rscale>  0 0.27049525E+03</rscale>
<asrwt>0</asrwt>
<pdfrwt beam="1">  1       21 0.11102115E-01 0.27049525E+03</pdfrwt>
<pdfrwt beam="2">  1       21 0.38996611E-01 0.27049525E+03</pdfrwt>
<totfact> 0.42049619E+05</totfact>
</mgrwt>
</event>
<event>
 8    1  0.4760912E-006  0.3571225E+03  0.7546771E-02  0.1059729E+00
         21   -1    0    0  504  503  0.00000000000E+00  0.00000000000E+00  0.60193581820E+02  0.60193581820E+02  0.00000000000E+00 0. -1.
         21   -1    0    0  503  504 -0.00000000000E+00 -0.00000000000E+00 -0.52969302263E+03  0.52969302263E+03  0.00000000000E+00 0. -1.
         25    2    1    2    0    0  0.83077311391E+02 -0.36833825191E+02 -0.38250905817E+03  0.41254995518E+03  0.12500286231E+03 0.  0.
         25    2    1    2    0    0 -0.83077311391E+02  0.36833825191E+02 -0.86990382636E+02  0.17733664927E+03  0.12498956020E+03 0.  0.
          5    1    3    3  501    0  0.96974184556E+02 -0.13216886841E+02 -0.36871797832E+03  0.38151502736E+03  0.47000000000E+01 0.  1.
         -5    1    3    3    0  501 -0.13896873165E+02 -0.23616938350E+02 -0.13791079855E+02  0.31034927813E+02  0.47000000000E+01 0.  1.
          5    1    4    4  502    0 -0.95610163680E+02 -0.71717375991E+01 -0.89537559863E+02  0.13126995789E+03  0.47000000000E+01 0. -1.
         -5    1    4    4    0  502  0.12532852289E+02  0.44005562790E+02  0.25471772265E+01  0.46066691381E+02  0.47000000000E+01 0. -1.
<mgrwt>
<rscale>  0 0.35712250E+03</rscale>
<asrwt>0</asrwt>
<pdfrwt beam="1">  1       21 0.92605513E-02 0.35712250E+03</pdfrwt>
<pdfrwt beam="2">  1       21 0.81491232E-01 0.35712250E+03</pdfrwt>
<totfact> 0.11653977E+05</totfact>
</mgrwt>
</event>
<event>
 8    1  0.4760912E-006  0.3056418E+03  0.7546771E-02  0.1082454E+00
         21   -1    0    0  504  503  0.00000000000E+00  0.00000000000E+00  0.29826284522E+02  0.29826284522E+02  0.00000000000E+00 0. -1.
         21   -1    0    0  503  504 -0.00000000000E+00 -0.00000000000E+00 -0.78300801753E+03  0.78300801753E+03  0.00000000000E+00 0. -1.
         25    2    1    2    0    0  0.63521615759E+02 -0.36364933586E+02 -0.24708859806E+03  0.28641967090E+03  0.12500419404E+03 0.  0.
         25    2    1    2    0    0 -0.63521615759E+02  0.36364933586E+02 -0.50609313496E+03  0.52641463116E+03  0.12499879432E+03 0.  0.
          5    1    3    3  501    0 -0.31721253000E+01  0.28181767729E+02 -0.79008018826E+01  0.29812532291E+02  0.47000000000E+01 0.  1.
         -5    1    3    3    0  501  0.66693741059E+02 -0.64546701315E+02 -0.23918779617E+03  0.25660713861E+03  0.47000000000E+01 0.  1.
          5    1    4    4  502    0 -0.53877952798E+02 -0.15283655989E+02 -0.43097911039E+03  0.43462801053E+03  0.47000000000E+01 0. -1.
         -5    1    4    4    0  502 -0.96436629607E+01  0.51648589575E+02 -0.75114024562E+02  0.91786620628E+02  0.47000000000E+01 0. -1.
<mgrwt>
<rscale>  0 0.30564175E+03</rscale>
<asrwt>0</asrwt>
<pdfrwt beam="1">  1       21 0.45886592E-02 0.30564175E+03</pdfrwt>
<pdfrwt beam="2">  1       21 0.12046277E+00 0.30564175E+03</pdfrwt>
<totfact> 0.15666295E+05</totfact>
</mgrwt>
</event>
<event>
 8    1  0.4760912E-006  0.3221005E+03  0.7546771E-02  0.1074687E+00
         21   -1    0    0  504  503  0.00000000000E+00  0.00000000000E+00  0.62158151483E+03  0.62158151483E+03  0.00000000000E+00 0.  1.
         21   -1    0    0  503  504 -0.00000000000E+00 -0.00000000000E+00 -0.41727735001E+02  0.41727735001E+02  0.00000000000E+00 0.  1.
         25    2    1    2    0    0 -0.13139677292E+02 -0.19320143908E+02  0.86420536691E+02  0.15375638331E+03  0.12500638851E+03 0.  0.
         25    2    1    2    0    0  0.13139677292E+02  0.19320143908E+02  0.49343324314E+03  0.50955286652E+03  0.12498735640E+03 0.  0.
          5    1    3    3  501    0 -0.53324273714E+02 -0.49206073434E+02  0.31376143446E+02  0.79191339220E+02  0.47000000000E+01 0.  1.
         -5    1    3    3    0  501  0.40184596422E+02  0.29885929526E+02  0.55044393245E+02  0.74565044095E+02  0.47000000000E+01 0.  1.
          5    1    4    4  502    0  0.59321584384E+02 -0.23516729154E+02  0.24709776007E+03  0.25524787943E+03  0.47000000000E+01 0.  1.
         -5    1    4    4    0  502 -0.46181907091E+02  0.42836873062E+02  0.24633548308E+03  0.25430498709E+03  0.47000000000E+01 0.  1.
<mgrwt>
<rscale>  0 0.32210054E+03</rscale>
<asrwt>0</asrwt>
<pdfrwt beam="1">  1       21 0.95627919E-01 0.32210054E+03</pdfrwt>
<pdfrwt beam="2">  1       21 0.64196520E-02 0.32210054E+03</pdfrwt>
<totfact> 0.15391098E+05</totfact>
</mgrwt>
</event>
<event>
 8    1  0.4760912E-006  0.2763625E+03  0.7546771E-02  0.1097692E+00
         21   -1    0    0  504  503  0.00000000000E+00  0.00000000000E+00  0.18208893153E+04  0.18208893153E+04  0.00000000000E+00 0.  1.
         21   -1    0    0  503  504 -0.00000000000E+00 -0.00000000000E+00 -0.10486113582E+02  0.10486113582E+02  0.00000000000E+00 0.  1.
         25    2    1    2    0    0  0.48048489366E+02 -0.25611322609E+02  0.10534152774E+04  0.10622074076E+04  0.12504492345E+03 0.  0.
         25    2    1    2    0    0 -0.48048489366E+02  0.25611322609E+02  0.75698792432E+03  0.76916802131E+03  0.12499652097E+03 0.  0.
          5    1    3    3  501    0  0.86520434094E+02  0.45091390501E+01  0.71676696433E+03  0.72199936912E+03  0.47000000000E+01 0.  1.
         -5    1    3    3    0  501 -0.38471944728E+02 -0.30120461659E+02  0.33664831311E+03  0.34020803851E+03  0.47000000000E+01 0.  1.
          5    1    4    4  502    0  0.96359364566E+01 -0.37007948479E+02  0.10931906135E+03  0.11591025277E+03  0.47000000000E+01 0.  1.
         -5    1    4    4    0  502 -0.57684425823E+02  0.62619271088E+02  0.64766886297E+03  0.65325776854E+03  0.47000000000E+01 0.  1.
<mgrwt>
<rscale>  0 0.27636246E+03</rscale>
<asrwt>0</asrwt>
<pdfrwt beam="1">  1       21 0.28013657E+00 0.27636246E+03</pdfrwt>
<pdfrwt beam="2">  1       21 0.16132497E-02 0.27636246E+03</pdfrwt>
<totfact> 0.73148338E+04</totfact>
</mgrwt>
</event>
<event>
 8    1  0.4760912E-006  0.2958628E+03  0.7546771E-02  0.1087327E+00
         21   -1    0    0  504  503  0.00000000000E+00  0.00000000000E+00  0.43358035066E+02  0.43358035066E+02  0.00000000000E+00 0.  1.
         21   -1    0    0  503  504 -0.00000000000E+00 -0.00000000000E+00 -0.50472057441E+03  0.50472057441E+03  0.00000000000E+00 0.  1.
         25    2    1    2    0    0  0.31189999513E+02  0.64302542078E+02 -0.16784479486E+03  0.22114458331E+03  0.12500167430E+03 0.  0.
         25    2    1    2    0    0 -0.31189999513E+02 -0.64302542078E+02 -0.29351774449E+03  0.32693402617E+03  0.12500223258E+03 0.  0.
          5    1    3    3  501    0 -0.31262309155E+02  0.66426765255E+02 -0.54229368772E+02  0.91393443711E+02  0.47000000000E+01 0. -1.
         -5    1    3    3    0  501  0.62452308668E+02 -0.21242231767E+01 -0.11361542609E+03  0.12975113960E+03  0.47000000000E+01 0. -1.
          5    1    4    4  502    0 -0.34570628752E+02 -0.87473554390E+02 -0.28717570845E+03  0.30222297830E+03  0.47000000000E+01 0.  1.
         -5    1    4    4    0  502  0.33806292382E+01  0.23171012312E+02 -0.63420360370E+01  0.24711047867E+02  0.47000000000E+01 0.  1.
<mgrwt>
<rscale>  0 0.29586275E+03</rscale>
<asrwt>0</asrwt>
<pdfrwt beam="1">  1       21 0.66704664E-02 0.29586275E+03</pdfrwt>
<pdfrwt beam="2">  1       21 0.77649325E-01 0.29586275E+03</pdfrwt>
<totfact> 0.23511395E+05</totfact>
</mgrwt>
</event>
<event>
 8    1  0.4760912E-006  0.3881511E+03  0.7546771E-02  0.1047962E+00
         21   -1    0    0  504  503  0.00000000000E+00  0.00000000000E+00  0.84756305197E+02  0.84756305197E+02  0.00000000000E+00 0. -1.
         21   -1    0    0  503  504 -0.00000000000E+00 -0.00000000000E+00 -0.44439541700E+03  0.44439541700E+03  0.00000000000E+00 0. -1.
         25    2    1    2    0    0  0.10292674617E+03  0.95319422811E+02 -0.24595166487E+03  0.30951157134E+03  0.12500193558E+03 0.  0.
         25    2    1    2    0    0 -0.10292674617E+03 -0.95319422811E+02 -0.11368744694E+03  0.21964015087E+03  0.12504900175E+03 0.  0.
          5    1    3    3  501    0  0.13217489297E+03  0.79153315205E+02 -0.20324003964E+03  0.25507656371E+03  0.47000000000E+01 0.  1.
         -5    1    3    3    0  501 -0.29248146797E+02  0.16166107606E+02 -0.42711625225E+02  0.54435007629E+02  0.47000000000E+01 0.  1.
          5    1    4    4  502    0 -0.11922786699E+03 -0.45286523915E+02 -0.50442014914E+02  0.13723206762E+03  0.47000000000E+01 0.  1.
         -5    1    4    4    0  502  0.16301120820E+02 -0.50032898896E+02 -0.63245432026E+02  0.82408083244E+02  0.47000000000E+01 0.  1.
<mgrwt>
<rscale>  0 0.38815107E+03</rscale>
<asrwt>0</asrwt>
<pdfrwt beam="1">  1       21 0.13039432E-01 0.38815107E+03</pdfrwt>
<pdfrwt beam="2">  1       21 0.68368526E-01 0.38815107E+03</pdfrwt>
<totfact> 0.92963546E+04</totfact>
</mgrwt>
</event>
<event>
 8    1  0.4760912E-006  0.2675203E+03  0.7546771E-02  0.1102707E+00
         21   -1    0    0  504  503  0.00000000000E+00  0.00000000000E+00  0.11107188687E+03  0.11107188687E+03  0.00000000000E+00 0. -1.
         21   -1    0    0  503  504 -0.00000000000E+00 -0.00000000000E+00 -0.16108288828E+03  0.16108288828E+03  0.00000000000E+00 0. -1.
         25    2    1    2    0    0  0.13589313833E+02 -0.35150398299E+02  0.47966615261E+01  0.13064394864E+03  0.12499845361E+03 0.  0.
         25    2    1    2    0    0 -0.13589313833E+02  0.35150398299E+02 -0.54807662929E+02  0.14151082651E+03  0.12490482037E+03 0.  0.
          5    1    3    3  501    0 -0.29533573298E+02  0.34491962044E+02  0.14797843178E+02  0.47989515106E+02  0.47000000000E+01 0. -1.
         -5    1    3    3    0  501  0.43122887132E+02 -0.69642360343E+02 -0.10001181652E+02  0.82654433536E+02  0.47000000000E+01 0. -1.
          5    1    4    4  502    0  0.42488832616E+02 -0.23129386223E+02 -0.28439253956E+02  0.56312969818E+02  0.47000000000E+01 0.  1.
         -5    1    4    4    0  502 -0.56078146449E+02  0.58279784522E+02 -0.26368408973E+02  0.85197856692E+02  0.47000000000E+01 0.  1.
<mgrwt>
<rscale>  0 0.26752032E+03</rscale>
<asrwt>0</asrwt>
<pdfrwt beam="1">  1       21 0.17087983E-01 0.26752032E+03</pdfrwt>
<pdfrwt beam="2">  1       21 0.24781983E-01 0.26752032E+03</pdfrwt>
<totfact> 0.46899963E+05</totfact>
</mgrwt>
</event>
<event>
 8    1  0.4760912E-006  0.2669065E+03  0.7546771E-02  0.1103063E+00
         21   -1    0    0  504  503  0.00000000000E+00  0.00000000000E+00  0.30696309962E+03  0.30696309962E+03  0.00000000000E+00 0. -1.
         21   -1    0    0  503  504 -0.00000000000E+00 -0.00000000000E+00 -0.58019232440E+02  0.58019232440E+02  0.00000000000E+00 0. -1.
         25    2    1    2    0    0  0.81014213824E+01 -0.46059974739E+02  0.12284531109E+03  0.18136945017E+03  0.12496700643E+03 0.  0.
         25    2    1    2    0    0 -0.81014213824E+01  0.46059974739E+02  0.12609855609E+03  0.18361288189E+03  0.12500276095E+03 0.  0.
          5    1    3    3  501    0  0.24717999267E+02 -0.81882539930E+02  0.52235825219E+02  0.10033145703E+03  0.47000000000E+01 0. -1.
         -5    1    3    3    0  501 -0.16616577884E+02  0.35822565191E+02  0.70609485873E+02  0.81037993143E+02  0.47000000000E+01 0. -1.
          5    1    4    4  502    0 -0.36350340012E+02 -0.52074968184E+01  0.11880348499E+03  0.12443802991E+03  0.47000000000E+01 0.  1.
         -5    1    4    4    0  502  0.28248918630E+02  0.51267471557E+02  0.72950710913E+01  0.59174851971E+02  0.47000000000E+01 0.  1.
<mgrwt>
<rscale>  0 0.26690645E+03</rscale>
<asrwt>0</asrwt>
<pdfrwt beam="1">  1       21 0.47225091E-01 0.26690645E+03</pdfrwt>
<pdfrwt beam="2">  1       21 0.89260359E-02 0.26690645E+03</pdfrwt>
<totfact> 0.41844045E+05</totfact>
</mgrwt>
</event>
<event>
 8    1  0.4760912E-006  0.2754108E+03  0.7546771E-02  0.1098222E+00
         21   -1    0    0  504  503  0.00000000000E+00  0.00000000000E+00  0.15364784746E+04  0.15364784746E+04  0.00000000000E+00 0.  1.
         21   -1    0    0  503  504 -0.00000000000E+00 -0.00000000000E+00 -0.12341713742E+02  0.12341713742E+02  0.00000000000E+00 0.  1.
         25    2    1    2    0    0  0.12295128364E+02 -0.20554601810E+01  0.44483067662E+03  0.46222895693E+03  0.12500353061E+03 0.  0.
         25    2    1    2    0    0 -0.12295128364E+02  0.20554601810E+01  0.10793060842E+04  0.10865912314E+04  0.12499394229E+03 0.  0.
          5    1    3    3  501    0 -0.23378496458E+02  0.45024812968E+00  0.99299342908E+01  0.25835061738E+02  0.47000000000E+01 0. -1.
         -5    1    3    3    0  501  0.35673624822E+02 -0.25057083107E+01  0.43490074233E+03  0.43639389519E+03  0.47000000000E+01 0. -1.
          5    1    4    4  502    0  0.23048220367E+02 -0.38740310049E+02  0.84028184057E+03  0.84150323450E+03  0.47000000000E+01 0.  1.
         -5    1    4    4    0  502 -0.35343348731E+02  0.40795770230E+02  0.23902424366E+03  0.24508799690E+03  0.47000000000E+01 0.  1.
<mgrwt>
<rscale>  0 0.27541080E+03</rscale>
<asrwt>0</asrwt>
<pdfrwt beam="1">  1       21 0.23638115E+00 0.27541080E+03</pdfrwt>
<pdfrwt beam="2">  1       21 0.18987264E-02 0.27541080E+03</pdfrwt>
<totfact> 0.10231217E+05</totfact>
</mgrwt>
</event>
<event>
 8    1  0.4760912E-006  0.2700373E+03  0.7546771E-02  0.1101258E+00
         21   -1    0    0  504  503  0.00000000000E+00  0.00000000000E+00  0.14418841993E+03  0.14418841993E+03  0.00000000000E+00 0.  1.
         21   -1    0    0  503  504 -0.00000000000E+00 -0.00000000000E+00 -0.12643204500E+03  0.12643204500E+03  0.00000000000E+00 0.  1.
         25    2    1    2    0    0 -0.24125640516E+02  0.37671697797E+02  0.33497620377E+02  0.13692436009E+03  0.12499994588E+03 0.  0.
         25    2    1    2    0    0  0.24125640516E+02 -0.37671697797E+02 -0.15741245450E+02  0.13369610483E+03  0.12500263315E+03 0.  0.
          5    1    3    3  501    0 -0.61652419457E+02  0.36582146956E+02 -0.16998336041E+02  0.73826199475E+02  0.47000000000E+01 0. -1.
         -5    1    3    3    0  501  0.37526778941E+02  0.10895508413E+01  0.50495956418E+02  0.63098160618E+02  0.47000000000E+01 0. -1.
          5    1    4    4  502    0  0.15588188770E+02  0.27885515566E+02  0.36916814761E+02  0.49046251841E+02  0.47000000000E+01 0.  1.
         -5    1    4    4    0  502  0.85374517456E+01 -0.65557213363E+02 -0.52658060211E+02  0.84649852991E+02  0.47000000000E+01 0.  1.
<mgrwt>
<rscale>  0 0.27003731E+03</rscale>
<asrwt>0</asrwt>
<pdfrwt beam="1">  1       21 0.22182834E-01 0.27003731E+03</pdfrwt>
<pdfrwt beam="2">  1       21 0.19451084E-01 0.27003731E+03</pdfrwt>
<totfact> 0.45500480E+05</totfact>
</mgrwt>
</event>
<event>
 8    1  0.4760912E-006  0.2691862E+03  0.7546771E-02  0.1101746E+00
         21   -1    0    0  504  503  0.00000000000E+00  0.00000000000E+00  0.22853202933E+02  0.22853202933E+02  0.00000000000E+00 0. -1.
         21   -1    0    0  503  504 -0.00000000000E+00 -0.00000000000E+00 -0.79268099802E+03  0.79268099802E+03  0.00000000000E+00 0. -1.
         25    2    1    2    0    0 -0.34080106284E+02 -0.19847920997E+01 -0.49517017309E+03  0.51184467651E+03  0.12500431798E+03 0.  0.
         25    2    1    2    0    0  0.34080106284E+02  0.19847920997E+01 -0.27465762200E+03  0.30368952444E+03  0.12500049956E+03 0.  0.
          5    1    3    3  501    0  0.27253918556E+02 -0.26324043511E+02 -0.56357337914E+02  0.68073275815E+02  0.47000000000E+01 0.  1.
         -5    1    3    3    0  501 -0.61334024840E+02  0.24339251411E+02 -0.43881283518E+03  0.44377140070E+03  0.47000000000E+01 0.  1.
          5    1    4    4  502    0 -0.26045621115E+02  0.28706954310E+02 -0.27186867222E+02  0.47578139459E+02  0.47000000000E+01 0.  1.
         -5    1    4    4    0  502  0.60125727399E+02 -0.26722162210E+02 -0.24747075478E+03  0.25611138499E+03  0.47000000000E+01 0.  1.
<mgrwt>
<rscale>  0 0.26918618E+03</rscale>
<asrwt>0</asrwt>
<pdfrwt beam="1">  1       21 0.35158769E-02 0.26918618E+03</pdfrwt>
<pdfrwt beam="2">  1       21 0.12195094E+00 0.26918618E+03</pdfrwt>
<totfact> 0.24070860E+05</totfact>
</mgrwt>
</event>
<event>
 8    1  0.4760912E-006  0.2997787E+03  0.7546771E-02  0.1085351E+00
         21   -1    0    0  504  503  0.00000000000E+00  0.00000000000E+00  0.31869790183E+02  0.31869790183E+02  0.00000000000E+00 0. -1.
         21   -1    0    0  503  504 -0.00000000000E+00 -0.00000000000E+00 -0.70495635395E+03  0.70495635395E+03  0.00000000000E+00 0. -1.
         25    2    1    2    0    0  0.63745919674E+02 -0.38049678439E+02 -0.42621448606E+03  0.45032739697E+03  0.12499862412E+03 0.  0.
         25    2    1    2    0    0 -0.63745919674E+02  0.38049678439E+02 -0.24687207771E+03  0.28649874716E+03  0.12499755625E+03 0.  0.
          5    1    3    3  501    0  0.48469426579E+02 -0.33197641106E+02 -0.61319193121E+02  0.85049997842E+02  0.47000000000E+01 0.  1.
         -5    1    3    3    0  501  0.15276493095E+02 -0.48520373332E+01 -0.36489529294E+03  0.36527739913E+03  0.47000000000E+01 0.  1.
          5    1    4    4  502    0 -0.56197450294E+02  0.23327764933E+01 -0.24302262644E+03  0.24949084598E+03  0.47000000000E+01 0.  1.
         -5    1    4    4    0  502 -0.75484693801E+01  0.35716901946E+02 -0.38494512651E+01  0.37007901178E+02  0.47000000000E+01 0.  1.
<mgrwt>
<rscale>  0 0.29977866E+03</rscale>
<asrwt>0</asrwt>
<pdfrwt beam="1">  1       21 0.49030450E-02 0.29977866E+03</pdfrwt>
<pdfrwt beam="2">  1       21 0.10845482E+00 0.29977866E+03</pdfrwt>
<totfact> 0.18169370E+05</totfact>
</mgrwt>
</event>
<event>
 8    1  0.4760912E-006  0.4107149E+03  0.7546771E-02  0.1040131E+00
         21   -1    0    0  504  503  0.00000000000E+00  0.00000000000E+00  0.19773392322E+02  0.19773392322E+02  0.00000000000E+00 0. -1.
         21   -1    0    0  503  504 -0.00000000000E+00 -0.00000000000E+00 -0.21327486622E+04  0.21327486622E+04  0.00000000000E+00 0. -1.
         25    2    1    2    0    0 -0.36003716412E+01 -0.10704649046E+03 -0.16999681638E+04  0.17079195212E+04  0.12500167652E+03 0.  0.
         25    2    1    2    0    0  0.36003716412E+01  0.10704649046E+03 -0.41300710610E+03  0.44460253335E+03  0.12499851671E+03 0.  0.
          5    1    3    3  501    0 -0.50152593678E+02 -0.92780905723E+02 -0.84769766112E+03  0.85424644792E+03  0.47000000000E+01 0. -1.
         -5    1    3    3    0  501  0.46552222037E+02 -0.14265584740E+02 -0.85227050268E+03  0.85367307326E+03  0.47000000000E+01 0. -1.
          5    1    4    4  502    0 -0.42140954628E+02  0.95471945842E+02 -0.19213142564E+03  0.21869459805E+03  0.47000000000E+01 0. -1.
         -5    1    4    4    0  502  0.45741326269E+02  0.11574544620E+02 -0.22087568046E+03  0.22590793530E+03  0.47000000000E+01 0. -1.
<mgrwt>
<rscale>  0 0.41071487E+03</rscale>
<asrwt>0</asrwt>
<pdfrwt beam="1">  1       21 0.30420595E-02 0.41071487E+03</pdfrwt>
<pdfrwt beam="2">  1       21 0.32811527E+00 0.41071487E+03</pdfrwt>
<totfact> 0.12367102E+04</totfact>
</mgrwt>
</event>
<event>
 8    1  0.4760912E-006  0.2517926E+03  0.7546771E-02  0.1112177E+00
         21   -1    0    0  504  503  0.00000000000E+00  0.00000000000E+00  0.10850166255E+03  0.10850166255E+03  0.00000000000E+00 0. -1.
         21   -1    0    0  503  504 -0.00000000000E+00 -0.00000000000E+00 -0.14607957495E+03  0.14607957495E+03  0.00000000000E+00 0. -1.
         25    2    1    2    0    0  0.11589826962E+02 -0.78004569651E+01 -0.24221580596E+02  0.12809212294E+03  0.12500294306E+03 0.  0.
         25    2    1    2    0    0 -0.11589826962E+02  0.78004569651E+01 -0.13356331799E+02  0.12648911456E+03  0.12500373308E+03 0.  0.
          5    1    3    3  501    0 -0.99053181567E+01  0.48687880933E+02  0.19253547210E+02  0.53492187820E+02  0.47000000000E+01 0.  1.
         -5    1    3    3    0  501  0.21495145118E+02 -0.56488337898E+02 -0.43475127806E+02  0.74599935120E+02  0.47000000000E+01 0.  1.
          5    1    4    4  502    0  0.24191857975E+01 -0.48355765700E+02  0.27132567198E+02  0.55699180776E+02  0.47000000000E+01 0. -1.
         -5    1    4    4    0  502 -0.14009012759E+02  0.56156222665E+02 -0.40488898998E+02  0.70789933780E+02  0.47000000000E+01 0. -1.
<mgrwt>
<rscale>  0 0.25179259E+03</rscale>
<asrwt>0</asrwt>
<pdfrwt beam="1">  1       21 0.16692564E-01 0.25179259E+03</pdfrwt>
<pdfrwt beam="2">  1       21 0.22473781E-01 0.25179259E+03</pdfrwt>
<totfact> 0.59197571E+05</totfact>
</mgrwt>
</event>
<event>
 8    1  0.4760912E-006  0.3210168E+03  0.7546771E-02  0.1075182E+00
         21   -1    0    0  504  503  0.00000000000E+00  0.00000000000E+00  0.59064998846E+02  0.59064998846E+02  0.00000000000E+00 0. -1.
         21   -1    0    0  503  504 -0.00000000000E+00 -0.00000000000E+00 -0.43617954745E+03  0.43617954745E+03  0.00000000000E+00 0. -1.
         25    2    1    2    0    0 -0.41194681754E+01  0.65621179984E+02 -0.30619636645E+03  0.33720022285E+03  0.12499866472E+03 0.  0.
         25    2    1    2    0    0  0.41194681754E+01 -0.65621179984E+02 -0.70918182157E+02  0.15804432345E+03  0.12500204132E+03 0.  0.
          5    1    3    3  501    0 -0.48313976820E+02  0.73677219798E+02 -0.14443966744E+03  0.16925566639E+03  0.47000000000E+01 0. -1.
         -5    1    3    3    0  501  0.44194508645E+02 -0.80560398137E+01 -0.16175669901E+03  0.16794455646E+03  0.47000000000E+01 0. -1.
          5    1    4    4  502    0 -0.16972054179E+01 -0.10228088952E+03 -0.61541313755E+02  0.11947252473E+03  0.47000000000E+01 0.  1.
         -5    1    4    4    0  502  0.58166735933E+01  0.36659709537E+02 -0.93768684018E+01  0.38571798715E+02  0.47000000000E+01 0.  1.
<mgrwt>
<rscale>  0 0.32101679E+03</rscale>
<asrwt>0</asrwt>
<pdfrwt beam="1">  1       21 0.90869230E-02 0.32101679E+03</pdfrwt>
<pdfrwt beam="2">  1       21 0.67104545E-01 0.32101679E+03</pdfrwt>
<totfact> 0.18850049E+05</totfact>
</mgrwt>
</event>
<event>
 8    1  0.4760912E-006  0.3600265E+03  0.7546771E-02  0.1058573E+00
         21   -1    0    0  504  503  0.00000000000E+00  0.00000000000E+00  0.16037490450E+03  0.16037490450E+03  0.00000000000E+00 0.  1.
         21   -1    0    0  503  504 -0.00000000000E+00 -0.00000000000E+00 -0.20205638429E+03  0.20205638429E+03  0.00000000000E+00 0.  1.
         25    2    1    2    0    0 -0.72469338648E+02 -0.68044707330E+02 -0.10444476593E+03  0.19082872749E+03  0.12500002746E+03 0.  0.
         25    2    1    2    0    0  0.72469338648E+02  0.68044707330E+02  0.62763286136E+02  0.17160256130E+03  0.12500528677E+03 0.  0.
          5    1    3    3  501    0 -0.71637568907E+02 -0.32931952859E+02  0.16200131346E+01  0.79001071135E+02  0.47000000000E+01 0.  1.
         -5    1    3    3    0  501 -0.83176974072E+00 -0.35112754471E+02 -0.10606477907E+03  0.11182765635E+03  0.47000000000E+01 0.  1.
          5    1    4    4  502    0 -0.35653071010E+01  0.66278467533E+02 -0.87345637837E+01  0.67111320041E+02  0.47000000000E+01 0. -1.
         -5    1    4    4    0  502  0.76034645749E+02  0.17662397972E+01  0.71497849919E+02  0.10449124126E+03  0.47000000000E+01 0. -1.
<mgrwt>
<rscale>  0 0.36002652E+03</rscale>
<asrwt>0</asrwt>
<pdfrwt beam="1">  1       21 0.24673062E-01 0.36002652E+03</pdfrwt>
<pdfrwt beam="2">  1       21 0.31085598E-01 0.36002652E+03</pdfrwt>
<totfact> 0.14758583E+05</totfact>
</mgrwt>
</event>
<event>
 8    1  0.4760912E-006  0.2546869E+03  0.7546771E-02  0.1110378E+00
         21   -1    0    0  504  503  0.00000000000E+00  0.00000000000E+00  0.38157841101E+03  0.38157841101E+03  0.00000000000E+00 0.  1.
         21   -1    0    0  503  504 -0.00000000000E+00 -0.00000000000E+00 -0.42498088225E+02  0.42498088225E+02  0.00000000000E+00 0.  1.
         25    2    1    2    0    0  0.40939423748E+01  0.20450390380E+02  0.14868869707E+03  0.19536519877E+03  0.12499701366E+03 0.  0.
         25    2    1    2    0    0 -0.40939423748E+01 -0.20450390380E+02  0.19039162571E+03  0.22871130046E+03  0.12499963595E+03 0.  0.
          5    1    3    3  501    0 -0.30783058502E+02 -0.39186248760E+02  0.96312365500E+02  0.10854179163E+03  0.47000000000E+01 0. -1.
         -5    1    3    3    0  501  0.34877000877E+02  0.59636639140E+02  0.52376331569E+02  0.86823407136E+02  0.47000000000E+01 0. -1.
          5    1    4    4  502    0  0.34816640244E+02  0.17320490794E+02  0.16325933409E+03  0.16789251921E+03  0.47000000000E+01 0. -1.
         -5    1    4    4    0  502 -0.38910582619E+02 -0.37770881174E+02  0.27132291622E+02  0.60818781253E+02  0.47000000000E+01 0. -1.
<mgrwt>
<rscale>  0 0.25468689E+03</rscale>
<asrwt>0</asrwt>
<pdfrwt beam="1">  1       21 0.58704369E-01 0.25468689E+03</pdfrwt>
<pdfrwt beam="2">  1       21 0.65381677E-02 0.25468689E+03</pdfrwt>
<totfact> 0.45586616E+05</totfact>
</mgrwt>
</event>
<event>
 8    1  0.4760912E-006  0.4723089E+03  0.7546771E-02  0.1021271E+00
         21   -1    0    0  504  503  0.00000000000E+00  0.00000000000E+00  0.64973915459E+03  0.64973915459E+03  0.00000000000E+00 0. -1.
         21   -1    0    0  503  504 -0.00000000000E+00 -0.00000000000E+00 -0.85832795329E+02  0.85832795329E+02  0.00000000000E+00 0. -1.
         25    2    1    2    0    0 -0.98037584174E+02  0.75987448503E+01  0.55382976316E+03  0.57621385654E+03  0.12500357223E+03 0.  0.
         25    2    1    2    0    0  0.98037584174E+02 -0.75987448503E+01  0.10076596096E+02  0.15935809338E+03  0.12499742118E+03 0.  0.
          5    1    3    3  501    0 -0.76513649061E+02  0.58002510675E+02  0.43161303102E+03  0.44218834028E+03  0.47000000000E+01 0. -1.
         -5    1    3    3    0  501 -0.21523935113E+02 -0.50403765825E+02  0.12221673214E+03  0.13402551626E+03  0.47000000000E+01 0. -1.
          5    1    4    4  502    0  0.10923827811E+03 -0.19241171224E+02  0.45624989517E+02  0.12002897043E+03  0.47000000000E+01 0.  1.
         -5    1    4    4    0  502 -0.11200693938E+02  0.11642426373E+02 -0.35548393421E+02  0.39329122942E+02  0.47000000000E+01 0.  1.
<mgrwt>
<rscale>  0 0.47230892E+03</rscale>
<asrwt>0</asrwt>
<pdfrwt beam="1">  1       21 0.99959867E-01 0.47230892E+03</pdfrwt>
<pdfrwt beam="2">  1       21 0.13205046E-01 0.47230892E+03</pdfrwt>
<totfact> 0.36836829E+04</totfact>
</mgrwt>
</event>
<event>
 8    1  0.4760912E-006  0.3942156E+03  0.7546771E-02  0.1045801E+00
         21   -1    0    0  504  503  0.00000000000E+00  0.00000000000E+00  0.35615425839E+02  0.35615425839E+02  0.00000000000E+00 0. -1.
         21   -1    0    0  503  504 -0.00000000000E+00 -0.00000000000E+00 -0.10908611104E+04  0.10908611104E+04  0.00000000000E+00 0. -1.
         25    2    1    2    0    0  0.57035444970E+02  0.13804441134E+03 -0.44105904094E+03  0.48214847462E+03  0.12499908999E+03 0.  0.
         25    2    1    2    0    0 -0.57035444970E+02 -0.13804441134E+03 -0.61418664364E+03  0.64432806163E+03  0.12499646516E+03 0.  0.
          5    1    3    3  501    0  0.84000718860E+02  0.53902421419E+02 -0.29408196810E+03  0.31059279735E+03  0.47000000000E+01 0.  1.
         -5    1    3    3    0  501 -0.26965273890E+02  0.84141989918E+02 -0.14697707284E+03  0.17155567727E+03  0.47000000000E+01 0.  1.
          5    1    4    4  502    0  0.25287912015E+02 -0.35309851122E+02 -0.57190534312E+02  0.71966042654E+02  0.47000000000E+01 0.  1.
         -5    1    4    4    0  502 -0.82323356984E+02 -0.10273456022E+03 -0.55699610932E+03  0.57236201898E+03  0.47000000000E+01 0.  1.
<mgrwt>
<rscale>  0 0.39421559E+03</rscale>
<asrwt>0</asrwt>
<pdfrwt beam="1">  1       21 0.54792976E-02 0.39421559E+03</pdfrwt>
<pdfrwt beam="2">  1       21 0.16782475E+00 0.39421559E+03</pdfrwt>
<totfact> 0.46700158E+04</totfact>
</mgrwt>
</event>
<event>
 8    1  0.4760912E-006  0.2501106E+03  0.7546771E-02  0.1113235E+00
         21   -1    0    0  504  503  0.00000000000E+00  0.00000000000E+00  0.14404553521E+02  0.14404553521E+02  0.00000000000E+00 0.  1.
         21   -1    0    0  503  504 -0.00000000000E+00 -0.00000000000E+00 -0.10856865865E+04  0.10856865865E+04  0.00000000000E+00 0.  1.
         25    2    1    2    0    0  0.39551618014E+00  0.32258232219E+01 -0.54464716628E+03  0.55881570503E+03  0.12499557628E+03 0.  0.
         25    2    1    2    0    0 -0.39551618014E+00 -0.32258232219E+01 -0.52663486670E+03  0.54127543499E+03  0.12499700527E+03 0.  0.
          5    1    3    3  501    0  0.24394941085E+02  0.28937308160E+02 -0.50151453813E+03  0.50296262576E+03  0.47000000000E+01 0.  1.
         -5    1    3    3    0  501 -0.23999424905E+02 -0.25711484938E+02 -0.43132628143E+02  0.55853079271E+02  0.47000000000E+01 0.  1.
          5    1    4    4  502    0 -0.36331868508E+02 -0.39619358336E+02 -0.41376670026E+03  0.41727050036E+03  0.47000000000E+01 0. -1.
         -5    1    4    4    0  502  0.35936352328E+02  0.36393535114E+02 -0.11286816644E+03  0.12400493463E+03  0.47000000000E+01 0. -1.
<mgrwt>
<rscale>  0 0.25011062E+03</rscale>
<asrwt>0</asrwt>
<pdfrwt beam="1">  1       21 0.22160851E-02 0.25011062E+03</pdfrwt>
<pdfrwt beam="2">  1       21 0.16702871E+00 0.25011062E+03</pdfrwt>
<totfact> 0.22794986E+05</totfact>
</mgrwt>
</event>
<event>
 8    1  0.4760912E-006  0.3557263E+03  0.7546771E-02  0.1060289E+00
         21   -1    0    0  504  503  0.00000000000E+00  0.00000000000E+00  0.27978990743E+03  0.27978990743E+03  0.00000000000E+00 0. -1.
         21   -1    0    0  503  504 -0.00000000000E+00 -0.00000000000E+00 -0.11306803155E+03  0.11306803155E+03  0.00000000000E+00 0. -1.
         25    2    1    2    0    0 -0.82930069374E+02  0.17214365019E+02 -0.20447319309E+02  0.15237793224E+03  0.12500884208E+03 0.  0.
         25    2    1    2    0    0  0.82930069374E+02 -0.17214365019E+02  0.18716919518E+03  0.24048000674E+03  0.12499838097E+03 0.  0.
          5    1    3    3  501    0 -0.27192387040E+02 -0.32586903825E+02 -0.55221418400E+02  0.69805639199E+02  0.47000000000E+01 0. -1.
         -5    1    3    3    0  501 -0.55737682334E+02  0.49801268844E+02  0.34774099091E+02  0.82572293041E+02  0.47000000000E+01 0. -1.
          5    1    4    4  502    0  0.14684473523E+02  0.34387281247E+02  0.13499913675E+03  0.14016053581E+03  0.47000000000E+01 0. -1.
         -5    1    4    4    0  502  0.68245595851E+02 -0.51601646267E+02  0.52170058434E+02  0.10031947093E+03  0.47000000000E+01 0. -1.
<mgrwt>
<rscale>  0 0.35572627E+03</rscale>
<asrwt>0</asrwt>
<pdfrwt beam="1">  1       21 0.43044601E-01 0.35572627E+03</pdfrwt>
<pdfrwt beam="2">  1       21 0.17395082E-01 0.35572627E+03</pdfrwt>
<totfact> 0.14844173E+05</totfact>
</mgrwt>
</event>
<event>
 8    1  0.4760912E-006  0.2955840E+03  0.7546771E-02  0.1087469E+00
         21   -1    0    0  504  503  0.00000000000E+00  0.00000000000E+00  0.16826895578E+04  0.16826895578E+04  0.00000000000E+00 0. -1.
         21   -1    0    0  503  504 -0.00000000000E+00 -0.00000000000E+00 -0.12980692559E+02  0.12980692559E+02  0.00000000000E+00 0. -1.
         25    2    1    2    0    0 -0.14198740780E+02 -0.42266159290E+02  0.12079161246E+04  0.12151857212E+04  0.12500776172E+03 0.  0.
         25    2    1    2    0    0  0.14198740780E+02  0.42266159290E+02  0.46179274073E+03  0.48048452924E+03  0.12499925996E+03 0.  0.
          5    1    3    3  501    0 -0.60778407783E+02  0.10684687049E+02  0.59311318349E+03  0.59633339318E+03  0.47000000000E+01 0. -1.
         -5    1    3    3    0  501  0.46579667003E+02 -0.52950846339E+02  0.61480294107E+03  0.61885232799E+03  0.47000000000E+01 0. -1.
          5    1    4    4  502    0  0.63072659471E+02  0.44733113000E+02  0.20763549825E+03  0.22161633944E+03  0.47000000000E+01 0.  1.
         -5    1    4    4    0  502 -0.48873918691E+02 -0.24669537100E+01  0.25415724248E+03  0.25886818981E+03  0.47000000000E+01 0.  1.
<mgrwt>
<rscale>  0 0.29558400E+03</rscale>
<asrwt>0</asrwt>
<pdfrwt beam="1">  1       21 0.25887514E+00 0.29558400E+03</pdfrwt>
<pdfrwt beam="2">  1       21 0.19970310E-02 0.29558400E+03</pdfrwt>
<totfact> 0.68267232E+04</totfact>
</mgrwt>
</event>
<event>
 8    1  0.4760912E-006  0.4661075E+03  0.7546771E-02  0.1023025E+00
         21   -1    0    0  504  503  0.00000000000E+00  0.00000000000E+00  0.28541648958E+03  0.28541648958E+03  0.00000000000E+00 0.  1.
         21   -1    0    0  503  504 -0.00000000000E+00 -0.00000000000E+00 -0.19029751658E+03  0.19029751658E+03  0.00000000000E+00 0.  1.
         25    2    1    2    0    0  0.19438626606E+03  0.24832032374E+02  0.64845400514E+02  0.24131246392E+03  0.12499651600E+03 0.  0.
         25    2    1    2    0    0 -0.19438626606E+03 -0.24832032374E+02  0.30273572492E+02  0.23440154224E+03  0.12499977420E+03 0.  0.
          5    1    3    3  501    0  0.12279161817E+03 -0.45529208518E+02  0.47183121767E+02  0.13928039094E+03  0.47000000000E+01 0.  1.
         -5    1    3    3    0  501  0.71594647888E+02  0.70361240892E+02  0.17662278746E+02  0.10203207298E+03  0.47000000000E+01 0.  1.
          5    1    4    4  502    0 -0.39444852654E+02  0.32792614853E+02 -0.28526813128E+02  0.58882264367E+02  0.47000000000E+01 0.  1.
         -5    1    4    4    0  502 -0.15494141340E+03 -0.57624647228E+02  0.58800385620E+02  0.17551927787E+03  0.47000000000E+01 0.  1.
<mgrwt>
<rscale>  0 0.46610749E+03</rscale>
<asrwt>0</asrwt>
<pdfrwt beam="1">  1       21 0.43910229E-01 0.46610749E+03</pdfrwt>
<pdfrwt beam="2">  1       21 0.29276541E-01 0.46610749E+03</pdfrwt>
<totfact> 0.51136088E+04</totfact>
</mgrwt>
</event>
<event>
 8    1  0.4760912E-006  0.3411827E+03  0.7546771E-02  0.1066293E+00
         21   -1    0    0  504  503  0.00000000000E+00  0.00000000000E+00  0.10643851532E+04  0.10643851532E+04  0.00000000000E+00 0.  1.
         21   -1    0    0  503  504 -0.00000000000E+00 -0.00000000000E+00 -0.27341043823E+02  0.27341043823E+02  0.00000000000E+00 0.  1.
         25    2    1    2    0    0 -0.10088057263E+03  0.14697944644E+02  0.69612958125E+03  0.71457748725E+03  0.12502668467E+03 0.  0.
         25    2    1    2    0    0  0.10088057263E+03 -0.14697944644E+02  0.34091452815E+03  0.37714870980E+03  0.12500205713E+03 0.  0.
          5    1    3    3  501    0 -0.40696942809E+02 -0.14107562098E+02  0.57144141287E+03  0.57308170692E+03  0.47000000000E+01 0. -1.
         -5    1    3    3    0  501 -0.60183629819E+02  0.28805506742E+02  0.12468816838E+03  0.14149578033E+03  0.47000000000E+01 0. -1.
          5    1    4    4  502    0 -0.28810250460E+02 -0.93040407531E+01  0.80645633076E+02  0.86269367913E+02  0.47000000000E+01 0. -1.
         -5    1    4    4    0  502  0.12969082309E+03 -0.53939038912E+01  0.26026889507E+03  0.29087934188E+03  0.47000000000E+01 0. -1.
<mgrwt>
<rscale>  0 0.34118266E+03</rscale>
<asrwt>0</asrwt>
<pdfrwt beam="1">  1       21 0.16375153E+00 0.34118266E+03</pdfrwt>
<pdfrwt beam="2">  1       21 0.42063153E-02 0.34118266E+03</pdfrwt>
<totfact> 0.80035253E+04</totfact>
</mgrwt>
</event>
<event>
 8    1  0.4760912E-006  0.2803454E+03  0.7546771E-02  0.1095500E+00
         21   -1    0    0  504  503  0.00000000000E+00  0.00000000000E+00  0.38025357930E+02  0.38025357930E+02  0.00000000000E+00 0.  1.
         21   -1    0    0  503  504 -0.00000000000E+00 -0.00000000000E+00 -0.51671807666E+03  0.51671807666E+03  0.00000000000E+00 0.  1.
         25    2    1    2    0    0 -0.74699633530E+01 -0.62887316156E+02 -0.23222383713E+03  0.27122521909E+03  0.12499837621E+03 0.  0.
         25    2    1    2    0    0  0.74699633530E+01  0.62887316156E+02 -0.24646888160E+03  0.28351821549E+03  0.12500021614E+03 0.  0.
          5    1    3    3  501    0  0.38438980758E+02  0.18866223365E+02 -0.10169724534E+03  0.11044414578E+03  0.47000000000E+01 0. -1.
         -5    1    3    3    0  501 -0.45908944111E+02 -0.81753539521E+02 -0.13052659179E+03  0.16078107332E+03  0.47000000000E+01 0. -1.
          5    1    4    4  502    0 -0.12637029446E+02 -0.28052693388E+02 -0.16211796746E+02  0.35093595902E+02  0.47000000000E+01 0.  1.
         -5    1    4    4    0  502  0.20106992799E+02  0.90940009544E+02 -0.23025708485E+03  0.24842461959E+03  0.47000000000E+01 0.  1.
<mgrwt>
<rscale>  0 0.28034543E+03</rscale>
<asrwt>0</asrwt>
<pdfrwt beam="1">  1       21 0.58500552E-02 0.28034543E+03</pdfrwt>
<pdfrwt beam="2">  1       21 0.79495087E-01 0.28034543E+03</pdfrwt>
<totfact> 0.28069638E+05</totfact>
</mgrwt>
</event>
<event>
 8    1  0.4760912E-006  0.2734882E+03  0.7546771E-02  0.1099300E+00
         21   -1    0    0  504  503  0.00000000000E+00  0.00000000000E+00  0.14836915986E+03  0.14836915986E+03  0.00000000000E+00 0. -1.
         21   -1    0    0  503  504 -0.00000000000E+00 -0.00000000000E+00 -0.12602989369E+03  0.12602989369E+03  0.00000000000E+00 0. -1.
         25    2    1    2    0    0  0.14566190100E+02  0.48228696418E+02  0.34393959096E+02  0.13908903745E+03  0.12499853944E+03 0.  0.
         25    2    1    2    0    0 -0.14566190100E+02 -0.48228696418E+02 -0.12054692925E+02  0.13531001609E+03  0.12500121512E+03 0.  0.
          5    1    3    3  501    0  0.52817633895E+02  0.72013638957E+02  0.24643815859E+02  0.92763539746E+02  0.47000000000E+01 0. -1.
         -5    1    3    3    0  501 -0.38251443795E+02 -0.23784942540E+02  0.97501432367E+01  0.46325497700E+02  0.47000000000E+01 0. -1.
          5    1    4    4  502    0 -0.42858276390E+01 -0.85595180070E+02 -0.31836412318E+02  0.91545345698E+02  0.47000000000E+01 0.  1.
         -5    1    4    4    0  502 -0.10280362461E+02  0.37366483652E+02  0.19781719393E+02  0.43764670397E+02  0.47000000000E+01 0.  1.
<mgrwt>
<rscale>  0 0.27348820E+03</rscale>
<asrwt>0</asrwt>
<pdfrwt beam="1">  1       21 0.22826025E-01 0.27348820E+03</pdfrwt>
<pdfrwt beam="2">  1       21 0.19389214E-01 0.27348820E+03</pdfrwt>
<totfact> 0.43322446E+05</totfact>
</mgrwt>
</event>
<event>
 8    1  0.4760912E-006  0.6414637E+03  0.7546771E-02  0.9822930E-01
         21   -1    0    0  504  503  0.00000000000E+00  0.00000000000E+00  0.72460775750E+03  0.72460775750E+03  0.00000000000E+00 0.  1.
         21   -1    0    0  503  504 -0.00000000000E+00 -0.00000000000E+00 -0.14196498361E+03  0.14196498361E+03  0.00000000000E+00 0.  1.
         25    2    1    2    0    0  0.19299692349E+03 -0.10709640711E+03  0.55644960064E+03  0.61153708794E+03  0.12499599587E+03 0.  0.
         25    2    1    2    0    0 -0.19299692349E+03  0.10709640711E+03  0.26193173245E+02  0.25503565317E+03  0.12505858295E+03 0.  0.
          5    1    3    3  501    0  0.20010633262E+03 -0.12277943652E+03  0.52925564715E+03  0.57900860479E+03  0.47000000000E+01 0. -1.
         -5    1    3    3    0  501 -0.71094091290E+01  0.15683029405E+02  0.27193953494E+02  0.32528483151E+02  0.47000000000E+01 0. -1.
          5    1    4    4  502    0  0.83151510038E+01  0.40449209163E+02  0.32405824871E+01  0.41687787576E+02  0.47000000000E+01 0.  1.
         -5    1    4    4    0  502 -0.20131207449E+03  0.66647197951E+02  0.22952590758E+02  0.21334786559E+03  0.47000000000E+01 0.  1.
<mgrwt>
<rscale>  0 0.64146373E+03</rscale>
<asrwt>0</asrwt>
<pdfrwt beam="1">  1       21 0.11147811E+00 0.64146373E+03</pdfrwt>
<pdfrwt beam="2">  1       21 0.21840767E-01 0.64146373E+03</pdfrwt>
<totfact> 0.10503205E+04</totfact>
</mgrwt>
</event>
<event>
 8    1  0.4760912E-006  0.2692654E+03  0.7546771E-02  0.1101701E+00
         21   -1    0    0  504  503  0.00000000000E+00  0.00000000000E+00  0.11485091158E+04  0.11485091158E+04  0.00000000000E+00 0.  1.
         21   -1    0    0  503  504 -0.00000000000E+00 -0.00000000000E+00 -0.15782173575E+02  0.15782173575E+02  0.00000000000E+00 0.  1.
         25    2    1    2    0    0  0.18815099619E+02  0.45204238635E+02  0.52259801832E+03  0.53956546935E+03  0.12499910320E+03 0.  0.
         25    2    1    2    0    0 -0.18815099619E+02 -0.45204238635E+02  0.61012892389E+03  0.62472582001E+03  0.12501046057E+03 0.  0.
          5    1    3    3  501    0  0.38270337513E+02 -0.12043526953E+02  0.40723079991E+03  0.40922937294E+03  0.47000000000E+01 0. -1.
         -5    1    3    3    0  501 -0.19455237894E+02  0.57247765588E+02  0.11536721841E+03  0.13033609642E+03  0.47000000000E+01 0. -1.
          5    1    4    4  502    0 -0.51840223747E+02 -0.28728007668E+02  0.12767294830E+03  0.14083742028E+03  0.47000000000E+01 0.  1.
         -5    1    4    4    0  502  0.33025124128E+02 -0.16476230967E+02  0.48245597559E+03  0.48388839973E+03  0.47000000000E+01 0.  1.
<mgrwt>
<rscale>  0 0.26926545E+03</rscale>
<asrwt>0</asrwt>
<pdfrwt beam="1">  1       21 0.17669364E+00 0.26926545E+03</pdfrwt>
<pdfrwt beam="2">  1       21 0.24280276E-02 0.26926545E+03</pdfrwt>
<totfact> 0.16636782E+05</totfact>
</mgrwt>
</event>
<event>
 8    1  0.4760912E-006  0.2867810E+03  0.7546771E-02  0.1092042E+00
         21   -1    0    0  504  503  0.00000000000E+00  0.00000000000E+00  0.46419823734E+03  0.46419823734E+03  0.00000000000E+00 0. -1.
         21   -1    0    0  503  504 -0.00000000000E+00 -0.00000000000E+00 -0.44293217155E+02  0.44293217155E+02  0.00000000000E+00 0. -1.
         25    2    1    2    0    0  0.40917565158E+02 -0.56956106234E+02  0.20240874533E+03  0.24801582868E+03  0.12499722362E+03 0.  0.
         25    2    1    2    0    0 -0.40917565158E+02  0.56956106234E+02  0.21749627485E+03  0.26047562581E+03  0.12499870756E+03 0.  0.
          5    1    3    3  501    0 -0.33161345427E+02 -0.48313066713E+02  0.13552811203E+03  0.14772875954E+03  0.47000000000E+01 0.  1.
         -5    1    3    3    0  501  0.74078910585E+02 -0.86430395206E+01  0.66880633306E+02  0.10028706914E+03  0.47000000000E+01 0.  1.
          5    1    4    4  502    0 -0.25107262246E+02 -0.19091741190E+02  0.16146975982E+03  0.16458870719E+03  0.47000000000E+01 0.  1.
         -5    1    4    4    0  502 -0.15810302912E+02  0.76047847423E+02  0.56026515033E+02  0.95886918621E+02  0.47000000000E+01 0.  1.
<mgrwt>
<rscale>  0 0.28678098E+03</rscale>
<asrwt>0</asrwt>
<pdfrwt beam="1">  1       21 0.71415110E-01 0.28678098E+03</pdfrwt>
<pdfrwt beam="2">  1       21 0.68143414E-02 0.28678098E+03</pdfrwt>
<totfact> 0.27414061E+05</totfact>
</mgrwt>
</event>
<event>
 8    1  0.4760912E-006  0.2568981E+03  0.7546771E-02  0.1109021E+00
         21   -1    0    0  504  503  0.00000000000E+00  0.00000000000E+00  0.11435265075E+03  0.11435265075E+03  0.00000000000E+00 0. -1.
         21   -1    0    0  503  504 -0.00000000000E+00 -0.00000000000E+00 -0.14428317893E+03  0.14428317893E+03  0.00000000000E+00 0. -1.
         25    2    1    2    0    0  0.24293258804E+02 -0.15705546986E+02 -0.86537315087E+01  0.12859111266E+03  0.12499584216E+03 0.  0.
         25    2    1    2    0    0 -0.24293258804E+02  0.15705546986E+02 -0.21276796670E+02  0.13004471702E+03  0.12498839834E+03 0.  0.
          5    1    3    3  501    0 -0.13673179241E+01 -0.50324675884E+02  0.39233427857E+02  0.63998393906E+02  0.47000000000E+01 0.  1.
         -5    1    3    3    0  501  0.25660576728E+02  0.34619128898E+02 -0.47887159366E+02  0.64592718752E+02  0.47000000000E+01 0.  1.
          5    1    4    4  502    0 -0.28931801336E+00  0.63956398394E+01 -0.72281908268E+02  0.72716931843E+02  0.47000000000E+01 0.  1.
         -5    1    4    4    0  502 -0.24003940791E+02  0.93099071470E+01  0.51005111598E+02  0.57327785180E+02  0.47000000000E+01 0.  1.
<mgrwt>
<rscale>  0 0.25689814E+03</rscale>
<asrwt>0</asrwt>
<pdfrwt beam="1">  1       21 0.17592716E-01 0.25689814E+03</pdfrwt>
<pdfrwt beam="2">  1       21 0.22197412E-01 0.25689814E+03</pdfrwt>
<totfact> 0.54939413E+05</totfact>
</mgrwt>
</event>
<event>
 8    1  0.4760912E-006  0.2957324E+03  0.7546771E-02  0.1087394E+00
         21   -1    0    0  504  503  0.00000000000E+00  0.00000000000E+00  0.51653997438E+02  0.51653997438E+02  0.00000000000E+00 0. -1.
         21   -1    0    0  503  504 -0.00000000000E+00 -0.00000000000E+00 -0.42328602870E+03  0.42328602870E+03  0.00000000000E+00 0. -1.
         25    2    1    2    0    0  0.57649918852E+02 -0.32737633410E+02 -0.25481399004E+03  0.29146378184E+03  0.12500280326E+03 0.  0.
         25    2    1    2    0    0 -0.57649918852E+02  0.32737633410E+02 -0.11681804123E+03  0.18347624430E+03  0.12498724607E+03 0.  0.
          5    1    3    3  501    0  0.22042593461E+01 -0.50666557803E+02 -0.21446555367E+03  0.22043031223E+03  0.47000000000E+01 0. -1.
         -5    1    3    3    0  501  0.55445659506E+02  0.17928924393E+02 -0.40348436367E+02  0.71033469613E+02  0.47000000000E+01 0. -1.
          5    1    4    4  502    0  0.35834291871E+02  0.15107634305E+02 -0.62691049977E+02  0.73922897910E+02  0.47000000000E+01 0.  1.
         -5    1    4    4    0  502 -0.93484210723E+02  0.17629999105E+02 -0.54126991251E+02  0.10955334639E+03  0.47000000000E+01 0.  1.
<mgrwt>
<rscale>  0 0.29573242E+03</rscale>
<asrwt>0</asrwt>
<pdfrwt beam="1">  1       21 0.79467688E-02 0.29573242E+03</pdfrwt>
<pdfrwt beam="2">  1       21 0.65120928E-01 0.29573242E+03</pdfrwt>
<totfact> 0.25662535E+05</totfact>
</mgrwt>
</event>
<event>
 8    1  0.4760912E-006  0.2580483E+03  0.7546771E-02  0.1108322E+00
         21   -1    0    0  504  503  0.00000000000E+00  0.00000000000E+00  0.29509471133E+03  0.29509471133E+03  0.00000000000E+00 0. -1.
         21   -1    0    0  503  504 -0.00000000000E+00 -0.00000000000E+00 -0.56413191292E+02  0.56413191292E+02  0.00000000000E+00 0. -1.
         25    2    1    2    0    0  0.38804057477E+01  0.69783785159E+01  0.16156966322E+03  0.20442172201E+03  0.12497891439E+03 0.  0.
         25    2    1    2    0    0 -0.38804057477E+01 -0.69783785159E+01  0.77111856823E+02  0.14708618061E+03  0.12499740297E+03 0.  0.
          5    1    3    3  501    0 -0.35350016274E+02  0.50935711885E+02  0.57242721058E+02  0.84515616959E+02  0.47000000000E+01 0. -1.
         -5    1    3    3    0  501  0.39230422022E+02 -0.43957333369E+02  0.10432694216E+03  0.11990610505E+03  0.47000000000E+01 0. -1.
          5    1    4    4  502    0 -0.27636324083E+02 -0.58642161461E+02  0.57412893219E+02  0.86723698131E+02  0.47000000000E+01 0. -1.
         -5    1    4    4    0  502  0.23755918335E+02  0.51663782945E+02  0.19698963604E+02  0.60362482481E+02  0.47000000000E+01 0. -1.
<mgrwt>
<rscale>  0 0.25804832E+03</rscale>
<asrwt>0</asrwt>
<pdfrwt beam="1">  1       21 0.45399185E-01 0.25804832E+03</pdfrwt>
<pdfrwt beam="2">  1       21 0.86789527E-02 0.25804832E+03</pdfrwt>
<totfact> 0.47799979E+05</totfact>
</mgrwt>
</event>
<event>
 8    1  0.4760912E-006  0.4501361E+03  0.7546771E-02  0.1027681E+00
         21   -1    0    0  504  503  0.00000000000E+00  0.00000000000E+00  0.53283483769E+03  0.53283483769E+03  0.00000000000E+00 0. -1.
         21   -1    0    0  503  504 -0.00000000000E+00 -0.00000000000E+00 -0.95068180080E+02  0.95068180080E+02  0.00000000000E+00 0. -1.
         25    2    1    2    0    0 -0.15362957213E+03 -0.66313874130E+02  0.33573160394E+03  0.39540031040E+03  0.12500448088E+03 0.  0.
         25    2    1    2    0    0  0.15362957213E+03  0.66313874130E+02  0.10203505367E+03  0.23250270737E+03  0.12508709535E+03 0.  0.
          5    1    3    3  501    0 -0.17038621074E+03 -0.78055201449E+02  0.29401401824E+03  0.34869816204E+03  0.47000000000E+01 0.  1.
         -5    1    3    3    0  501  0.16756638612E+02  0.11741327319E+02  0.41717585703E+02  0.46702148362E+02  0.47000000000E+01 0.  1.
          5    1    4    4  502    0  0.57703759676E+02 -0.34385259234E+02  0.50270242532E+02  0.84031287135E+02  0.47000000000E+01 0.  1.
         -5    1    4    4    0  502  0.95925812456E+02  0.10069913336E+03  0.51764811136E+02  0.14847142024E+03  0.47000000000E+01 0.  1.
<mgrwt>
<rscale>  0 0.45013615E+03</rscale>
<asrwt>0</asrwt>
<pdfrwt beam="1">  1       21 0.81974589E-01 0.45013615E+03</pdfrwt>
<pdfrwt beam="2">  1       21 0.14625874E-01 0.45013615E+03</pdfrwt>
<totfact> 0.49099362E+04</totfact>
</mgrwt>
</event>
<event>
 8    1  0.4760912E-006  0.3460264E+03  0.7546771E-02  0.1064258E+00
         21   -1    0    0  504  503  0.00000000000E+00  0.00000000000E+00  0.10366226237E+04  0.10366226237E+04  0.00000000000E+00 0. -1.
         21   -1    0    0  503  504 -0.00000000000E+00 -0.00000000000E+00 -0.28876043410E+02  0.28876043410E+02  0.00000000000E+00 0. -1.
         25    2    1    2    0    0 -0.94686554958E+02  0.52962761989E+02  0.65898713848E+03  0.67945683087E+03  0.12500775369E+03 0.  0.
         25    2    1    2    0    0  0.94686554958E+02 -0.52962761989E+02  0.34875944181E+03  0.38604183624E+03  0.12499821291E+03 0.  0.
          5    1    3    3  501    0 -0.28642550046E+02 -0.11603508917E+02  0.28747895737E+02  0.42468442421E+02  0.47000000000E+01 0. -1.
         -5    1    3    3    0  501 -0.66044004912E+02  0.64566270906E+02  0.63023924274E+03  0.63698838845E+03  0.47000000000E+01 0. -1.
          5    1    4    4  502    0  0.56153931059E+02 -0.87872051222E+02  0.16706943166E+03  0.19700011765E+03  0.47000000000E+01 0. -1.
         -5    1    4    4    0  502  0.38532623899E+02  0.34909289233E+02  0.18169001015E+03  0.18904171859E+03  0.47000000000E+01 0. -1.
<mgrwt>
<rscale>  0 0.34602636E+03</rscale>
<asrwt>0</asrwt>
<pdfrwt beam="1">  1       21 0.15948037E+00 0.34602636E+03</pdfrwt>
<pdfrwt beam="2">  1       21 0.44424690E-02 0.34602636E+03</pdfrwt>
<totfact> 0.78341370E+04</totfact>
</mgrwt>
</event>
<event>
 8    1  0.4760912E-006  0.2972093E+03  0.7546771E-02  0.1086644E+00
         21   -1    0    0  504  503  0.00000000000E+00  0.00000000000E+00  0.59125165582E+02  0.59125165582E+02  0.00000000000E+00 0. -1.
         21   -1    0    0  503  504 -0.00000000000E+00 -0.00000000000E+00 -0.37350146535E+03  0.37350146535E+03  0.00000000000E+00 0. -1.
         25    2    1    2    0    0  0.76603939893E+02  0.24168141785E+02 -0.16066799885E+03  0.21884367898E+03  0.12500434910E+03 0.  0.
         25    2    1    2    0    0 -0.76603939893E+02 -0.24168141785E+02 -0.15370830092E+03  0.21378295195E+03  0.12499858434E+03 0.  0.
          5    1    3    3  501    0 -0.81633289599E+01  0.29945823843E+02  0.57663639564E+01  0.31917601079E+02  0.47000000000E+01 0. -1.
         -5    1    3    3    0  501  0.84767268853E+02 -0.57776820579E+01 -0.16643436280E+03  0.18692607790E+03  0.47000000000E+01 0. -1.
          5    1    4    4  502    0 -0.29783121498E+02 -0.46936732306E+02 -0.15151828398E+03  0.16146198174E+03  0.47000000000E+01 0.  1.
         -5    1    4    4    0  502 -0.46820818395E+02  0.22768590521E+02 -0.21900169360E+01  0.52320970210E+02  0.47000000000E+01 0.  1.
<mgrwt>
<rscale>  0 0.29720926E+03</rscale>
<asrwt>0</asrwt>
<pdfrwt beam="1">  1       21 0.90961794E-02 0.29720926E+03</pdfrwt>
<pdfrwt beam="2">  1       21 0.57461763E-01 0.29720926E+03</pdfrwt>
<totfact> 0.26546513E+05</totfact>
</mgrwt>
</event>
<event>
 8    1  0.4760912E-006  0.2724656E+03  0.7546771E-02  0.1099877E+00
         21   -1    0    0  504  503  0.00000000000E+00  0.00000000000E+00  0.16231713879E+03  0.16231713879E+03  0.00000000000E+00 0. -1.
         21   -1    0    0  503  504 -0.00000000000E+00 -0.00000000000E+00 -0.11434018123E+03  0.11434018123E+03  0.00000000000E+00 0. -1.
         25    2    1    2    0    0 -0.34896237983E+02  0.94506628776E+01 -0.16976483542E+02  0.13122180842E+03  0.12499559815E+03 0.  0.
         25    2    1    2    0    0  0.34896237983E+02 -0.94506628776E+01  0.64953441104E+02  0.14543551161E+03  0.12500190427E+03 0.  0.
          5    1    3    3  501    0  0.38566743599E+02  0.12253448093E+02 -0.36838621371E+02  0.54924627687E+02  0.47000000000E+01 0. -1.
         -5    1    3    3    0  501 -0.73462981582E+02 -0.28027852156E+01  0.19862137829E+02  0.76297180728E+02  0.47000000000E+01 0. -1.
          5    1    4    4  502    0 -0.31582862174E+02 -0.44525021322E+02  0.28706403356E+02  0.61855495313E+02  0.47000000000E+01 0. -1.
         -5    1    4    4    0  502  0.66479100157E+02  0.35074358444E+02  0.36247037749E+02  0.83580016293E+02  0.47000000000E+01 0. -1.
<mgrwt>
<rscale>  0 0.27246557E+03</rscale>
<asrwt>0</asrwt>
<pdfrwt beam="1">  1       21 0.24971867E-01 0.27246557E+03</pdfrwt>
<pdfrwt beam="2">  1       21 0.17590797E-01 0.27246557E+03</pdfrwt>
<totfact> 0.43755173E+05</totfact>
</mgrwt>
</event>
<event>
 8    1  0.4760912E-006  0.3723910E+03  0.7546771E-02  0.1053782E+00
         21   -1    0    0  504  503  0.00000000000E+00  0.00000000000E+00  0.18346602248E+03  0.18346602248E+03  0.00000000000E+00 0.  1.
         21   -1    0    0  503  504 -0.00000000000E+00 -0.00000000000E+00 -0.18896554614E+03  0.18896554614E+03  0.00000000000E+00 0.  1.
         25    2    1    2    0    0  0.12891316348E+03 -0.38016481285E+02 -0.34036815309E+02  0.18668178121E+03  0.12501090381E+03 0.  0.
         25    2    1    2    0    0 -0.12891316348E+03  0.38016481285E+02  0.28537291649E+02  0.18574978741E+03  0.12499899976E+03 0.  0.
          5    1    3    3  501    0 -0.10632565657E+02 -0.34492846017E+02 -0.29644333776E+02  0.46943417045E+02  0.47000000000E+01 0. -1.
         -5    1    3    3    0  501  0.13954572914E+03 -0.35236352676E+01 -0.43924815334E+01  0.13973836417E+03  0.47000000000E+01 0. -1.
          5    1    4    4  502    0 -0.21678348983E+00 -0.35126406075E+02  0.57085067705E+01  0.35896914190E+02  0.47000000000E+01 0. -1.
         -5    1    4    4    0  502 -0.12869637999E+03  0.73142887360E+02  0.22828784879E+02  0.14985287322E+03  0.47000000000E+01 0. -1.
<mgrwt>
<rscale>  0 0.37239096E+03</rscale>
<asrwt>0</asrwt>
<pdfrwt beam="1">  1       21 0.28225542E-01 0.37239096E+03</pdfrwt>
<pdfrwt beam="2">  1       21 0.29071622E-01 0.37239096E+03</pdfrwt>
<totfact> 0.12931189E+05</totfact>
</mgrwt>
</event>
<event>
 8    1  0.4760912E-006  0.2916250E+03  0.7546771E-02  0.1089504E+00
         21   -1    0    0  504  503  0.00000000000E+00  0.00000000000E+00  0.33941277494E+02  0.33941277494E+02  0.00000000000E+00 0. -1.
         21   -1    0    0  503  504 -0.00000000000E+00 -0.00000000000E+00 -0.62641365417E+03  0.62641365417E+03  0.00000000000E+00 0. -1.
         25    2    1    2    0    0 -0.27356847342E+02  0.64337304744E+02 -0.23427259484E+03  0.27458286009E+03  0.12499764991E+03 0.  0.
         25    2    1    2    0    0  0.27356847342E+02 -0.64337304744E+02 -0.35819978184E+03  0.38577207158E+03  0.12500128648E+03 0.  0.
          5    1    3    3  501    0 -0.34470855446E+02  0.66017470656E+02 -0.24763986988E+03  0.25863901767E+03  0.47000000000E+01 0.  1.
         -5    1    3    3    0  501  0.71140081034E+01 -0.16801659122E+01  0.13367275046E+02  0.15943842415E+02  0.47000000000E+01 0.  1.
          5    1    4    4  502    0  0.22446431768E+02  0.29760358652E+02 -0.44742958500E+02  0.58425538778E+02  0.47000000000E+01 0. -1.
         -5    1    4    4    0  502  0.49104155745E+01 -0.94097663396E+02 -0.31345682334E+03  0.32734653280E+03  0.47000000000E+01 0. -1.
<mgrwt>
<rscale>  0 0.29162496E+03</rscale>
<asrwt>0</asrwt>
<pdfrwt beam="1">  1       21 0.52217346E-02 0.29162496E+03</pdfrwt>
<pdfrwt beam="2">  1       21 0.96371339E-01 0.29162496E+03</pdfrwt>
<totfact> 0.21742965E+05</totfact>
</mgrwt>
</event>
<event>
 8    1  0.4760912E-006  0.4334661E+03  0.7546771E-02  0.1032771E+00
         21   -1    0    0  504  503  0.00000000000E+00  0.00000000000E+00  0.39991249409E+02  0.39991249409E+02  0.00000000000E+00 0.  1.
         21   -1    0    0  503  504 -0.00000000000E+00 -0.00000000000E+00 -0.11745873647E+04  0.11745873647E+04  0.00000000000E+00 0.  1.
         25    2    1    2    0    0  0.14204011336E+03 -0.74506606545E+02 -0.35719844679E+03  0.41102980949E+03  0.12501258207E+03 0.  0.
         25    2    1    2    0    0 -0.14204011336E+03  0.74506606545E+02 -0.77739766854E+03  0.80354880466E+03  0.12496766862E+03 0.  0.
          5    1    3    3  501    0  0.14170224377E+03 -0.10183008017E+03 -0.29229056398E+03  0.34044787399E+03  0.47000000000E+01 0.  1.
         -5    1    3    3    0  501  0.33786959156E+00  0.27323473627E+02 -0.64907882817E+02  0.70581935498E+02  0.47000000000E+01 0.  1.
          5    1    4    4  502    0 -0.20903854992E+02  0.44238110713E+01 -0.40666351467E+03  0.40725157510E+03  0.47000000000E+01 0. -1.
         -5    1    4    4    0  502 -0.12113625837E+03  0.70082795474E+02 -0.37073415388E+03  0.39629722957E+03  0.47000000000E+01 0. -1.
<mgrwt>
<rscale>  0 0.43346611E+03</rscale>
<asrwt>0</asrwt>
<pdfrwt beam="1">  1       21 0.61525009E-02 0.43346611E+03</pdfrwt>
<pdfrwt beam="2">  1       21 0.18070572E+00 0.43346611E+03</pdfrwt>
<totfact> 0.30519178E+04</totfact>
</mgrwt>
</event>
<event>
 8    1  0.4760912E-006  0.3044643E+03  0.7546771E-02  0.1083030E+00
         21   -1    0    0  504  503  0.00000000000E+00  0.00000000000E+00  0.28226347474E+03  0.28226347474E+03  0.00000000000E+00 0. -1.
         21   -1    0    0  503  504 -0.00000000000E+00 -0.00000000000E+00 -0.82102811681E+02  0.82102811681E+02  0.00000000000E+00 0. -1.
         25    2    1    2    0    0 -0.76743646002E+02 -0.40727994478E+02  0.10068677233E+03  0.18251936242E+03  0.12500853891E+03 0.  0.
         25    2    1    2    0    0  0.76743646002E+02  0.40727994478E+02  0.99473890733E+02  0.18184692400E+03  0.12499956838E+03 0.  0.
          5    1    3    3  501    0 -0.67478079178E+02 -0.43308923441E-01 -0.59601922373E+01  0.67903659229E+02  0.47000000000E+01 0. -1.
         -5    1    3    3    0  501 -0.92655668237E+01 -0.40684685555E+02  0.10664696457E+03  0.11461570319E+03  0.47000000000E+01 0. -1.
          5    1    4    4  502    0  0.79774267103E+02  0.47721426292E+02  0.11921165393E+02  0.93837478672E+02  0.47000000000E+01 0. -1.
         -5    1    4    4    0  502 -0.30306211015E+01 -0.69934318131E+01  0.87552725339E+02  0.88009445329E+02  0.47000000000E+01 0. -1.
<mgrwt>
<rscale>  0 0.30446428E+03</rscale>
<asrwt>0</asrwt>
<pdfrwt beam="1">  1       21 0.43425149E-01 0.30446428E+03</pdfrwt>
<pdfrwt beam="2">  1       21 0.12631202E-01 0.30446428E+03</pdfrwt>
<totfact> 0.26556095E+05</totfact>
</mgrwt>
</event>
<event>
 8    1  0.4760912E-006  0.3039876E+03  0.7546771E-02  0.1083264E+00
         21   -1    0    0  504  503  0.00000000000E+00  0.00000000000E+00  0.87210453607E+02  0.87210453607E+02  0.00000000000E+00 0. -1.
         21   -1    0    0  503  504 -0.00000000000E+00 -0.00000000000E+00 -0.26490073944E+03  0.26490073944E+03  0.00000000000E+00 0. -1.
         25    2    1    2    0    0 -0.57576735193E+02 -0.34592526736E+02 -0.15194738744E+03  0.20789281490E+03  0.12497876057E+03 0.  0.
         25    2    1    2    0    0  0.57576735193E+02  0.34592526736E+02 -0.25742898391E+02  0.14421837815E+03  0.12499808173E+03 0.  0.
          5    1    3    3  501    0 -0.68843730214E+02  0.28720420300E+02 -0.61371335676E+02  0.96710147217E+02  0.47000000000E+01 0. -1.
         -5    1    3    3    0  501  0.11266995022E+02 -0.63312947037E+02 -0.90576051764E+02  0.11118266768E+03  0.47000000000E+01 0. -1.
          5    1    4    4  502    0 -0.79381796036E+01  0.63913224218E+02 -0.31899505038E+02  0.72024880055E+02  0.47000000000E+01 0.  1.
         -5    1    4    4    0  502  0.65514914796E+02 -0.29320697481E+02  0.61566066466E+01  0.72193498093E+02  0.47000000000E+01 0.  1.
<mgrwt>
<rscale>  0 0.30398759E+03</rscale>
<asrwt>0</asrwt>
<pdfrwt beam="1">  1       21 0.13416993E-01 0.30398759E+03</pdfrwt>
<pdfrwt beam="2">  1       21 0.40753959E-01 0.30398759E+03</pdfrwt>
<totfact> 0.27116926E+05</totfact>
</mgrwt>
</event>
<event>
 8    1  0.4760912E-006  0.4130080E+03  0.7546771E-02  0.1039366E+00
         21   -1    0    0  504  503  0.00000000000E+00  0.00000000000E+00  0.33926875473E+03  0.33926875473E+03  0.00000000000E+00 0. -1.
         21   -1    0    0  503  504 -0.00000000000E+00 -0.00000000000E+00 -0.12569354717E+03  0.12569354717E+03  0.00000000000E+00 0. -1.
         25    2    1    2    0    0  0.19591302719E+02  0.15994021190E+03  0.70233705312E+02  0.21569169121E+03  0.12500176708E+03 0.  0.
         25    2    1    2    0    0 -0.19591302719E+02 -0.15994021190E+03  0.14334150225E+03  0.24927061069E+03  0.12499744221E+03 0.  0.
          5    1    3    3  501    0 -0.44691384781E+02  0.25960369363E+02  0.35891777543E+02  0.63099685786E+02  0.47000000000E+01 0. -1.
         -5    1    3    3    0  501  0.64282687500E+02  0.13397984253E+03  0.34341927769E+02  0.15259200543E+03  0.47000000000E+01 0. -1.
          5    1    4    4  502    0 -0.79298329097E+01 -0.10099641796E+03  0.87404542491E+01  0.10179216194E+03  0.47000000000E+01 0.  1.
         -5    1    4    4    0  502 -0.11661469810E+02 -0.58943793934E+02  0.13460104800E+03  0.14747844875E+03  0.47000000000E+01 0.  1.
<mgrwt>
<rscale>  0 0.41300796E+03</rscale>
<asrwt>0</asrwt>
<pdfrwt beam="1">  1       21 0.52195193E-01 0.41300796E+03</pdfrwt>
<pdfrwt beam="2">  1       21 0.19337469E-01 0.41300796E+03</pdfrwt>
<totfact> 0.80117781E+04</totfact>
</mgrwt>
</event>
<event>
 8    1  0.4760912E-006  0.2615574E+03  0.7546771E-02  0.1106211E+00
         21   -1    0    0  504  503  0.00000000000E+00  0.00000000000E+00  0.10473478673E+03  0.10473478673E+03  0.00000000000E+00 0. -1.
         21   -1    0    0  503  504 -0.00000000000E+00 -0.00000000000E+00 -0.16329888833E+03  0.16329888833E+03  0.00000000000E+00 0. -1.
         25    2    1    2    0    0 -0.26304551285E+02  0.12576899316E+02 -0.36131563995E+01  0.12840698833E+03  0.12500076775E+03 0.  0.
         25    2    1    2    0    0  0.26304551285E+02 -0.12576899316E+02 -0.54950945204E+02  0.13962668673E+03  0.12500358976E+03 0.  0.
          5    1    3    3  501    0 -0.48789728120E+02  0.37955451157E+02 -0.43584837855E+02  0.75781144973E+02  0.47000000000E+01 0.  1.
         -5    1    3    3    0  501  0.22485176835E+02 -0.25378551841E+02  0.39971681455E+02  0.52625843359E+02  0.47000000000E+01 0.  1.
          5    1    4    4  502    0  0.15401523612E+02  0.52921834232E+02 -0.33794172734E+01  0.55420555114E+02  0.47000000000E+01 0. -1.
         -5    1    4    4    0  502  0.10903027673E+02 -0.65498733548E+02 -0.51571527930E+02  0.84206131617E+02  0.47000000000E+01 0. -1.
<mgrwt>
<rscale>  0 0.26155744E+03</rscale>
<asrwt>0</asrwt>
<pdfrwt beam="1">  1       21 0.16113044E-01 0.26155744E+03</pdfrwt>
<pdfrwt beam="2">  1       21 0.25122906E-01 0.26155744E+03</pdfrwt>
<totfact> 0.50979278E+05</totfact>
</mgrwt>
</event>
<event>
 8    1  0.4760912E-006  0.3591752E+03  0.7546771E-02  0.1058911E+00
         21   -1    0    0  504  503  0.00000000000E+00  0.00000000000E+00  0.12534235546E+03  0.12534235546E+03  0.00000000000E+00 0. -1.
         21   -1    0    0  503  504 -0.00000000000E+00 -0.00000000000E+00 -0.25730885025E+03  0.25730885025E+03  0.00000000000E+00 0. -1.
         25    2    1    2    0    0 -0.12740371074E+03 -0.10711093566E+02 -0.48138268786E+02  0.18517310501E+03  0.12500141144E+03 0.  0.
         25    2    1    2    0    0  0.12740371074E+03  0.10711093566E+02 -0.83828226010E+02  0.19747810070E+03  0.12499598291E+03 0.  0.
          5    1    3    3  501    0 -0.10800327384E+03  0.46405775131E+02 -0.39247560822E+02  0.12401880565E+03  0.47000000000E+01 0.  1.
         -5    1    3    3    0  501 -0.19400436906E+02 -0.57116868697E+02 -0.88907079637E+01  0.61154299358E+02  0.47000000000E+01 0.  1.
          5    1    4    4  502    0  0.13459017459E+03 -0.97760715254E+00 -0.25111901202E+02  0.13699696491E+03  0.47000000000E+01 0. -1.
         -5    1    4    4    0  502 -0.71864638496E+01  0.11688700719E+02 -0.58716324808E+02  0.60481135787E+02  0.47000000000E+01 0. -1.
<mgrwt>
<rscale>  0 0.35917515E+03</rscale>
<asrwt>0</asrwt>
<pdfrwt beam="1">  1       21 0.19283439E-01 0.35917515E+03</pdfrwt>
<pdfrwt beam="2">  1       21 0.39585977E-01 0.35917515E+03</pdfrwt>
<totfact> 0.14524226E+05</totfact>
</mgrwt>
</event>
<event>
 8    1  0.4760912E-006  0.3113246E+03  0.7546771E-02  0.1079713E+00
         21   -1    0    0  504  503  0.00000000000E+00  0.00000000000E+00  0.10817915093E+03  0.10817915093E+03  0.00000000000E+00 0.  1.
         21   -1    0    0  503  504 -0.00000000000E+00 -0.00000000000E+00 -0.22398733043E+03  0.22398733043E+03  0.00000000000E+00 0.  1.
         25    2    1    2    0    0 -0.54032973730E+02  0.60533434224E+02 -0.10588989860E+03  0.18281445914E+03  0.12499838773E+03 0.  0.
         25    2    1    2    0    0  0.54032973730E+02 -0.60533434224E+02 -0.99182808954E+01  0.14935202222E+03  0.12499518125E+03 0.  0.
          5    1    3    3  501    0 -0.45971570593E+02  0.79789578697E+02 -0.12417705514E+03  0.15466671651E+03  0.47000000000E+01 0. -1.
         -5    1    3    3    0  501 -0.80614031367E+01 -0.19256144474E+02  0.18287156546E+02  0.28147742628E+02  0.47000000000E+01 0. -1.
          5    1    4    4  502    0 -0.19284401694E+02  0.19624503948E+02  0.22541176335E+02  0.35877624427E+02  0.47000000000E+01 0. -1.
         -5    1    4    4    0  502  0.73317375424E+02 -0.80157938172E+02 -0.32459457231E+02  0.11347439779E+03  0.47000000000E+01 0. -1.
<mgrwt>
<rscale>  0 0.31132465E+03</rscale>
<asrwt>0</asrwt>
<pdfrwt beam="1">  1       21 0.16642946E-01 0.31132465E+03</pdfrwt>
<pdfrwt beam="2">  1       21 0.34459589E-01 0.31132465E+03</pdfrwt>
<totfact> 0.25583798E+05</totfact>
</mgrwt>
</event>
<event>
 8    1  0.4760912E-006  0.3018430E+03  0.7546771E-02  0.1084323E+00
         21   -1    0    0  504  503  0.00000000000E+00  0.00000000000E+00  0.19625554235E+03  0.19625554235E+03  0.00000000000E+00 0. -1.
         21   -1    0    0  503  504 -0.00000000000E+00 -0.00000000000E+00 -0.11605941937E+03  0.11605941937E+03  0.00000000000E+00 0. -1.
         25    2    1    2    0    0 -0.22900242888E+02 -0.78876283926E+02  0.60900482999E+02  0.16150708930E+03  0.12501912563E+03 0.  0.
         25    2    1    2    0    0  0.22900242888E+02  0.78876283926E+02  0.19295639985E+02  0.15080787242E+03  0.12499921349E+03 0.  0.
          5    1    3    3  501    0  0.15357455004E+01 -0.10926388354E+03  0.52586941588E+02  0.12136074813E+03  0.47000000000E+01 0.  1.
         -5    1    3    3    0  501 -0.24435988388E+02  0.30387599613E+02  0.83135414112E+01  0.40146341173E+02  0.47000000000E+01 0.  1.
          5    1    4    4  502    0  0.49837084785E+02 -0.14347763853E+02  0.11613668345E+02  0.53353168977E+02  0.47000000000E+01 0.  1.
         -5    1    4    4    0  502 -0.26936841897E+02  0.93224047779E+02  0.76819716403E+01  0.97454703447E+02  0.47000000000E+01 0.  1.
<mgrwt>
<rscale>  0 0.30184303E+03</rscale>
<asrwt>0</asrwt>
<pdfrwt beam="1">  1       21 0.30193160E-01 0.30184303E+03</pdfrwt>
<pdfrwt beam="2">  1       21 0.17855295E-01 0.30184303E+03</pdfrwt>
<totfact> 0.29240971E+05</totfact>
</mgrwt>
</event>
<event>
 8    1  0.4760912E-006  0.2591606E+03  0.7546771E-02  0.1107649E+00
         21   -1    0    0  504  503  0.00000000000E+00  0.00000000000E+00  0.41668856775E+02  0.41668856775E+02  0.00000000000E+00 0. -1.
         21   -1    0    0  503  504 -0.00000000000E+00 -0.00000000000E+00 -0.40296422342E+03  0.40296422342E+03  0.00000000000E+00 0. -1.
         25    2    1    2    0    0  0.14922419378E+02  0.26119759126E+02 -0.15292600758E+03  0.19979184689E+03  0.12500199147E+03 0.  0.
         25    2    1    2    0    0 -0.14922419378E+02 -0.26119759126E+02 -0.20836935906E+03  0.24484123330E+03  0.12499807724E+03 0.  0.
          5    1    3    3  501    0 -0.51620862078E+02  0.32705380614E+02 -0.79242900814E+02  0.10017925260E+03  0.47000000000E+01 0.  1.
         -5    1    3    3    0  501  0.66543281456E+02 -0.65856214876E+01 -0.73683106771E+02  0.99612594287E+02  0.47000000000E+01 0.  1.
          5    1    4    4  502    0  0.30683725116E+02 -0.46675470271E+01 -0.10246036209E+01  0.31407272961E+02  0.47000000000E+01 0. -1.
         -5    1    4    4    0  502 -0.45606144495E+02 -0.21452212099E+02 -0.20734475544E+03  0.21343396034E+03  0.47000000000E+01 0. -1.
<mgrwt>
<rscale>  0 0.25916063E+03</rscale>
<asrwt>0</asrwt>
<pdfrwt beam="1">  1       21 0.64105931E-02 0.25916063E+03</pdfrwt>
<pdfrwt beam="2">  1       21 0.61994499E-01 0.25916063E+03</pdfrwt>
<totfact> 0.41878343E+05</totfact>
</mgrwt>
</event>
<event>
 8    1  0.4760912E-006  0.2669226E+03  0.7546771E-02  0.1103054E+00
         21   -1    0    0  504  503  0.00000000000E+00  0.00000000000E+00  0.30167523174E+03  0.30167523174E+03  0.00000000000E+00 0. -1.
         21   -1    0    0  503  504 -0.00000000000E+00 -0.00000000000E+00 -0.59043360209E+02  0.59043360209E+02  0.00000000000E+00 0. -1.
         25    2    1    2    0    0 -0.10249704730E+02 -0.44558292228E+02  0.13458920520E+03  0.18928801537E+03  0.12500080302E+03 0.  0.
         25    2    1    2    0    0  0.10249704730E+02  0.44558292228E+02  0.10804266633E+03  0.17143057658E+03  0.12499890793E+03 0.  0.
          5    1    3    3  501    0  0.16599857376E+02 -0.76692412462E+02  0.45727208547E+02  0.90941459168E+02  0.47000000000E+01 0.  1.
         -5    1    3    3    0  501 -0.26849562106E+02  0.32134120234E+02  0.88861996650E+02  0.98346556204E+02  0.47000000000E+01 0.  1.
          5    1    4    4  502    0 -0.19963160680E+02  0.25720043683E+01 -0.22728836305E+02  0.30721865024E+02  0.47000000000E+01 0.  1.
         -5    1    4    4    0  502  0.30212865409E+02  0.41986287860E+02  0.13077150264E+03  0.14070871155E+03  0.47000000000E+01 0.  1.
<mgrwt>
<rscale>  0 0.26692261E+03</rscale>
<asrwt>0</asrwt>
<pdfrwt beam="1">  1       21 0.46411573E-01 0.26692261E+03</pdfrwt>
<pdfrwt beam="2">  1       21 0.90835940E-02 0.26692261E+03</pdfrwt>
<totfact> 0.42064160E+05</totfact>
</mgrwt>
</event>
<event>
 8    1  0.4760912E-006  0.2830826E+03  0.7546771E-02  0.1094017E+00
         21   -1    0    0  504  503  0.00000000000E+00  0.00000000000E+00  0.23118475463E+03  0.23118475463E+03  0.00000000000E+00 0. -1.
         21   -1    0    0  503  504 -0.00000000000E+00 -0.00000000000E+00 -0.86657676961E+02  0.86657676961E+02  0.00000000000E+00 0. -1.
         25    2    1    2    0    0 -0.37511137574E+02 -0.30569193774E+02  0.12332876509E+03  0.18214130211E+03  0.12499563426E+03 0.  0.
         25    2    1    2    0    0  0.37511137574E+02  0.30569193774E+02  0.21198312577E+02  0.13570112948E+03  0.12499546806E+03 0.  0.
          5    1    3    3  501    0  0.41674064145E+02  0.83645941419E+01  0.23402046292E+02  0.48748741811E+02  0.47000000000E+01 0.  1.
         -5    1    3    3    0  501 -0.79185201718E+02 -0.38933787916E+02  0.99926718802E+02  0.13339256030E+03  0.47000000000E+01 0.  1.
          5    1    4    4  502    0  0.72440047443E+02  0.54791848461E+02  0.18777094161E+02  0.92867520675E+02  0.47000000000E+01 0.  1.
         -5    1    4    4    0  502 -0.34928909869E+02 -0.24222654687E+02  0.24212184160E+01  0.42833608806E+02  0.47000000000E+01 0.  1.
<mgrwt>
<rscale>  0 0.28308256E+03</rscale>
<asrwt>0</asrwt>
<pdfrwt beam="1">  1       21 0.35566885E-01 0.28308256E+03</pdfrwt>
<pdfrwt beam="2">  1       21 0.13331950E-01 0.28308256E+03</pdfrwt>
<totfact> 0.36297340E+05</totfact>
</mgrwt>
</event>
<event>
 8    1  0.4760912E-006  0.3831648E+03  0.7546771E-02  0.1049770E+00
         21   -1    0    0  504  503  0.00000000000E+00  0.00000000000E+00  0.30118855221E+03  0.30118855221E+03  0.00000000000E+00 0.  1.
         21   -1    0    0  503  504 -0.00000000000E+00 -0.00000000000E+00 -0.12186322538E+03  0.12186322538E+03  0.00000000000E+00 0.  1.
         25    2    1    2    0    0 -0.42080560577E+02 -0.33456934820E+02  0.23855835499E+03  0.27462590628E+03  0.12497663621E+03 0.  0.
         25    2    1    2    0    0  0.42080560577E+02  0.33456934820E+02 -0.59233028155E+02  0.14842587131E+03  0.12502618759E+03 0.  0.
          5    1    3    3  501    0 -0.69160731004E+02 -0.30668660739E+00  0.21423032104E+03  0.22516665211E+03  0.47000000000E+01 0.  1.
         -5    1    3    3    0  501  0.27080170427E+02 -0.33150248212E+02  0.24328033947E+02  0.49459254166E+02  0.47000000000E+01 0.  1.
          5    1    4    4  502    0  0.68599188030E+02  0.50554806183E+02 -0.49812122309E+01  0.85489996501E+02  0.47000000000E+01 0. -1.
         -5    1    4    4    0  502 -0.26518627452E+02 -0.17097871363E+02 -0.54251815924E+02  0.62935874810E+02  0.47000000000E+01 0. -1.
<mgrwt>
<rscale>  0 0.38316476E+03</rscale>
<asrwt>0</asrwt>
<pdfrwt beam="1">  1       21 0.46336700E-01 0.38316476E+03</pdfrwt>
<pdfrwt beam="2">  1       21 0.18748189E-01 0.38316476E+03</pdfrwt>
<totfact> 0.10997990E+05</totfact>
</mgrwt>
</event>
<event>
 8    1  0.4760912E-006  0.3928229E+03  0.7546771E-02  0.1046294E+00
         21   -1    0    0  504  503  0.00000000000E+00  0.00000000000E+00  0.96683520167E+02  0.96683520167E+02  0.00000000000E+00 0. -1.
         21   -1    0    0  503  504 -0.00000000000E+00 -0.00000000000E+00 -0.39900760701E+03  0.39900760701E+03  0.00000000000E+00 0. -1.
         25    2    1    2    0    0  0.88868805971E+02  0.10249796313E+03 -0.23626004542E+03  0.29974620350E+03  0.12500192131E+03 0.  0.
         25    2    1    2    0    0 -0.88868805971E+02 -0.10249796313E+03 -0.66064041419E+02  0.19594492367E+03  0.12500583356E+03 0.  0.
          5    1    3    3  501    0 -0.13086232293E+02 -0.20367439261E+02 -0.28650846866E+02  0.37802686198E+02  0.47000000000E+01 0.  1.
         -5    1    3    3    0  501  0.10195503826E+03  0.12286540239E+03 -0.20760919856E+03  0.26194351731E+03  0.47000000000E+01 0.  1.
          5    1    4    4  502    0 -0.12936548896E+02  0.13705149355E+02  0.23645604366E+02  0.30600490553E+02  0.47000000000E+01 0.  1.
         -5    1    4    4    0  502 -0.75932257075E+02 -0.11620311249E+03 -0.89709645785E+02  0.16534443312E+03  0.47000000000E+01 0.  1.
<mgrwt>
<rscale>  0 0.39282291E+03</rscale>
<asrwt>0</asrwt>
<pdfrwt beam="1">  1       21 0.14874388E-01 0.39282291E+03</pdfrwt>
<pdfrwt beam="2">  1       21 0.61385786E-01 0.39282291E+03</pdfrwt>
<totfact> 0.92533238E+04</totfact>
</mgrwt>
</event>
<event>
 8    1  0.4760912E-006  0.4131725E+03  0.7546771E-02  0.1039312E+00
         21   -1    0    0  504  503  0.00000000000E+00  0.00000000000E+00  0.11810360236E+04  0.11810360236E+04  0.00000000000E+00 0.  1.
         21   -1    0    0  503  504 -0.00000000000E+00 -0.00000000000E+00 -0.36135963366E+02  0.36135963366E+02  0.00000000000E+00 0.  1.
         25    2    1    2    0    0  0.66968120916E+02 -0.14862931281E+03  0.63681877213E+03  0.66913200100E+03  0.12499633747E+03 0.  0.
         25    2    1    2    0    0 -0.66968120916E+02  0.14862931281E+03  0.50808128810E+03  0.54803998596E+03  0.12500331616E+03 0.  0.
          5    1    3    3  501    0  0.84895480709E+02 -0.11707214580E+03  0.33245974177E+03  0.36258061154E+03  0.47000000000E+01 0. -1.
         -5    1    3    3    0  501 -0.17927359793E+02 -0.31557167008E+02  0.30435903036E+03  0.30655138946E+03  0.47000000000E+01 0. -1.
          5    1    4    4  502    0 -0.11335840125E+02  0.28702593184E+02  0.10132443055E+02  0.32819148817E+02  0.47000000000E+01 0.  1.
         -5    1    4    4    0  502 -0.55632280791E+02  0.11992671962E+03  0.49794884504E+03  0.51522083714E+03  0.47000000000E+01 0.  1.
<mgrwt>
<rscale>  0 0.41317248E+03</rscale>
<asrwt>0</asrwt>
<pdfrwt beam="1">  1       21 0.18169782E+00 0.41317248E+03</pdfrwt>
<pdfrwt beam="2">  1       21 0.55593799E-02 0.41317248E+03</pdfrwt>
<totfact> 0.36041843E+04</totfact>
</mgrwt>
</event>
<event>
 8    1  0.4760912E-006  0.3351918E+03  0.7546771E-02  0.1068862E+00
         21   -1    0    0  504  503  0.00000000000E+00  0.00000000000E+00  0.50064342729E+02  0.50064342729E+02  0.00000000000E+00 0.  1.
         21   -1    0    0  503  504 -0.00000000000E+00 -0.00000000000E+00 -0.56104581226E+03  0.56104581226E+03  0.00000000000E+00 0.  1.
         25    2    1    2    0    0  0.55983655847E+01  0.73514359976E+02 -0.10263999918E+03  0.17774782043E+03  0.12499446153E+03 0.  0.
         25    2    1    2    0    0 -0.55983655847E+01 -0.73514359976E+02 -0.40834147035E+03  0.43336233456E+03  0.12499781515E+03 0.  0.
          5    1    3    3  501    0  0.23120933372E+02  0.10354966016E+03 -0.93477046035E+02  0.14148200527E+03  0.47000000000E+01 0.  1.
         -5    1    3    3    0  501 -0.17522567787E+02 -0.30035300181E+02 -0.91629531478E+01  0.36265815160E+02  0.47000000000E+01 0.  1.
          5    1    4    4  502    0  0.26183691194E+02  0.27969190225E+02 -0.11486597773E+03  0.12117815037E+03  0.47000000000E+01 0. -1.
         -5    1    4    4    0  502 -0.31782056779E+02 -0.10148355020E+03 -0.29347549262E+03  0.31218418420E+03  0.47000000000E+01 0. -1.
<mgrwt>
<rscale>  0 0.33519182E+03</rscale>
<asrwt>0</asrwt>
<pdfrwt beam="1">  1       21 0.77022065E-02 0.33519182E+03</pdfrwt>
<pdfrwt beam="2">  1       21 0.86314742E-01 0.33519182E+03</pdfrwt>
<totfact> 0.14203462E+05</totfact>
</mgrwt>
</event>
<event>
 8    1  0.4760912E-006  0.3013032E+03  0.7546771E-02  0.1084591E+00
         21   -1    0    0  504  503  0.00000000000E+00  0.00000000000E+00  0.62242701712E+02  0.62242701712E+02  0.00000000000E+00 0. -1.
         21   -1    0    0  503  504 -0.00000000000E+00 -0.00000000000E+00 -0.36463568345E+03  0.36463568345E+03  0.00000000000E+00 0. -1.
         25    2    1    2    0    0 -0.71134427373E+02 -0.81790726310E+01 -0.88727900538E+02  0.16918868638E+03  0.12500066912E+03 0.  0.
         25    2    1    2    0    0  0.71134427373E+02  0.81790726310E+01 -0.21366508120E+03  0.25768969878E+03  0.12499683974E+03 0.  0.
          5    1    3    3  501    0 -0.29787606588E+02  0.54907860213E+02 -0.64283123590E+02  0.89758479253E+02  0.47000000000E+01 0.  1.
         -5    1    3    3    0  501 -0.41346820785E+02 -0.63086932844E+02 -0.24444776948E+02  0.79430207131E+02  0.47000000000E+01 0.  1.
          5    1    4    4  502    0 -0.10171529459E+02  0.12161145046E+02 -0.15822890992E+03  0.15909063893E+03  0.47000000000E+01 0. -1.
         -5    1    4    4    0  502  0.81305956833E+02 -0.39820724153E+01 -0.55436171282E+02  0.98599059851E+02  0.47000000000E+01 0. -1.
<mgrwt>
<rscale>  0 0.30130324E+03</rscale>
<asrwt>0</asrwt>
<pdfrwt beam="1">  1       21 0.95758003E-02 0.30130324E+03</pdfrwt>
<pdfrwt beam="2">  1       21 0.56097797E-01 0.30130324E+03</pdfrwt>
<totfact> 0.25493711E+05</totfact>
</mgrwt>
</event>
<event>
 8    1  0.4760912E-006  0.2609405E+03  0.7546771E-02  0.1106579E+00
         21   -1    0    0  504  503  0.00000000000E+00  0.00000000000E+00  0.17118742233E+03  0.17118742233E+03  0.00000000000E+00 0. -1.
         21   -1    0    0  503  504 -0.00000000000E+00 -0.00000000000E+00 -0.99437722954E+02  0.99437722954E+02  0.00000000000E+00 0. -1.
         25    2    1    2    0    0 -0.17243555805E+02 -0.63850193561E+01  0.21224606333E+01  0.12636478247E+03  0.12500177887E+03 0.  0.
         25    2    1    2    0    0  0.17243555805E+02  0.63850193561E+01  0.69627238740E+02  0.14426036282E+03  0.12499996486E+03 0.  0.
          5    1    3    3  501    0 -0.60855699276E+02 -0.31764050418E+02  0.21531641105E+02  0.72097660170E+02  0.47000000000E+01 0. -1.
         -5    1    3    3    0  501  0.43612143471E+02  0.25379031062E+02 -0.19409180472E+02  0.54267122296E+02  0.47000000000E+01 0. -1.
          5    1    4    4  502    0  0.29198608313E+02 -0.30104177603E+02  0.90823971746E+02  0.10014940879E+03  0.47000000000E+01 0.  1.
         -5    1    4    4    0  502 -0.11955052508E+02  0.36489196959E+02 -0.21196733006E+02  0.44110954029E+02  0.47000000000E+01 0.  1.
<mgrwt>
<rscale>  0 0.26094051E+03</rscale>
<asrwt>0</asrwt>
<pdfrwt beam="1">  1       21 0.26336526E-01 0.26094051E+03</pdfrwt>
<pdfrwt beam="2">  1       21 0.15298111E-01 0.26094051E+03</pdfrwt>
<totfact> 0.51216521E+05</totfact>
</mgrwt>
</event>
<event>
 8    1  0.4760912E-006  0.2967546E+03  0.7546771E-02  0.1086874E+00
         21   -1    0    0  504  503  0.00000000000E+00  0.00000000000E+00  0.51890631275E+03  0.51890631275E+03  0.00000000000E+00 0.  1.
         21   -1    0    0  503  504 -0.00000000000E+00 -0.00000000000E+00 -0.42427351275E+02  0.42427351275E+02  0.00000000000E+00 0.  1.
         25    2    1    2    0    0  0.24474939353E+02 -0.50226634886E+02  0.34637248654E+03  0.37245419050E+03  0.12500594816E+03 0.  0.
         25    2    1    2    0    0 -0.24474939353E+02  0.50226634886E+02  0.13010647493E+03  0.18887947353E+03  0.12500409271E+03 0.  0.
          5    1    3    3  501    0 -0.38551078810E+01  0.34348880096E+02  0.38798671734E+02  0.52174077365E+02  0.47000000000E+01 0. -1.
         -5    1    3    3    0  501  0.28330047234E+02 -0.84575514982E+02  0.30757381481E+03  0.32028011313E+03  0.47000000000E+01 0. -1.
          5    1    4    4  502    0 -0.67542170849E+02  0.10464042117E+02  0.34673474144E+02  0.76783988107E+02  0.47000000000E+01 0.  1.
         -5    1    4    4    0  502  0.43067231496E+02  0.39762592770E+02  0.95433000791E+02  0.11209548542E+03  0.47000000000E+01 0.  1.
<mgrwt>
<rscale>  0 0.29675458E+03</rscale>
<asrwt>0</asrwt>
<pdfrwt beam="1">  1       21 0.79831736E-01 0.29675458E+03</pdfrwt>
<pdfrwt beam="2">  1       21 0.65272852E-02 0.29675458E+03</pdfrwt>
<totfact> 0.22915481E+05</totfact>
</mgrwt>
</event>
<event>
 8    1  0.4760912E-006  0.2661351E+03  0.7546771E-02  0.1103512E+00
         21   -1    0    0  504  503  0.00000000000E+00  0.00000000000E+00  0.42857133537E+02  0.42857133537E+02  0.00000000000E+00 0.  1.
         21   -1    0    0  503  504 -0.00000000000E+00 -0.00000000000E+00 -0.41316266775E+03  0.41316266775E+03  0.00000000000E+00 0.  1.
         25    2    1    2    0    0  0.87363170947E+00  0.44976626266E+02 -0.17199972458E+03  0.21733110982E+03  0.12500098359E+03 0.  0.
         25    2    1    2    0    0 -0.87363170947E+00 -0.44976626266E+02 -0.19830580963E+03  0.23868869147E+03  0.12499374847E+03 0.  0.
          5    1    3    3  501    0 -0.11001072420E+02 -0.14178647334E+02 -0.15268157189E+03  0.15380445387E+03  0.47000000000E+01 0.  1.
         -5    1    3    3    0  501  0.11874704129E+02  0.59155273600E+02 -0.19318152685E+02  0.63526655949E+02  0.47000000000E+01 0.  1.
          5    1    4    4  502    0  0.14914870161E+02  0.39116107734E+02 -0.37149929854E+02  0.56166987852E+02  0.47000000000E+01 0.  1.
         -5    1    4    4    0  502 -0.15788501870E+02 -0.84092734000E+02 -0.16115587978E+03  0.18252170362E+03  0.47000000000E+01 0.  1.
<mgrwt>
<rscale>  0 0.26613506E+03</rscale>
<asrwt>0</asrwt>
<pdfrwt beam="1">  1       21 0.65934055E-02 0.26613506E+03</pdfrwt>
<pdfrwt beam="2">  1       21 0.63563484E-01 0.26613506E+03</pdfrwt>
<totfact> 0.37718689E+05</totfact>
</mgrwt>
</event>
<event>
 8    1  0.4760912E-006  0.4297582E+03  0.7546771E-02  0.1033936E+00
         21   -1    0    0  504  503  0.00000000000E+00  0.00000000000E+00  0.29440922921E+03  0.29440922921E+03  0.00000000000E+00 0. -1.
         21   -1    0    0  503  504 -0.00000000000E+00 -0.00000000000E+00 -0.15683280668E+03  0.15683280668E+03  0.00000000000E+00 0. -1.
         25    2    1    2    0    0 -0.63083560767E+02  0.11445224998E+03  0.19066033171E+03  0.26278052127E+03  0.12499354826E+03 0.  0.
         25    2    1    2    0    0  0.63083560767E+02 -0.11445224998E+03 -0.53083909187E+02  0.18846151462E+03  0.12498395063E+03 0.  0.
          5    1    3    3  501    0  0.73446492230E+01  0.10939244319E+03  0.10806426598E+03  0.15401501901E+03  0.47000000000E+01 0. -1.
         -5    1    3    3    0  501 -0.70428209990E+02  0.50598067910E+01  0.82596065730E+02  0.10876550226E+03  0.47000000000E+01 0. -1.
          5    1    4    4  502    0 -0.17348417710E+02 -0.14516132602E+01  0.23757802319E+02  0.29826128632E+02  0.47000000000E+01 0. -1.
         -5    1    4    4    0  502  0.80431978477E+02 -0.11300063672E+03 -0.76841711507E+02  0.15863538599E+03  0.47000000000E+01 0. -1.
<mgrwt>
<rscale>  0 0.42975819E+03</rscale>
<asrwt>0</asrwt>
<pdfrwt beam="1">  1       21 0.45293728E-01 0.42975819E+03</pdfrwt>
<pdfrwt beam="2">  1       21 0.24128124E-01 0.42975819E+03</pdfrwt>
<totfact> 0.70534691E+04</totfact>
</mgrwt>
</event>
<event>
 8    1  0.4760912E-006  0.2741097E+03  0.7546771E-02  0.1098950E+00
         21   -1    0    0  504  503  0.00000000000E+00  0.00000000000E+00  0.47450729990E+02  0.47450729990E+02  0.00000000000E+00 0.  1.
         21   -1    0    0  503  504 -0.00000000000E+00 -0.00000000000E+00 -0.39586400012E+03  0.39586400012E+03  0.00000000000E+00 0.  1.
         25    2    1    2    0    0  0.99160073895E+01 -0.36574404464E+02 -0.10707577964E+03  0.16889724158E+03  0.12500016546E+03 0.  0.
         25    2    1    2    0    0 -0.99160073895E+01  0.36574404464E+02 -0.24133749049E+03  0.27441748853E+03  0.12500063771E+03 0.  0.
          5    1    3    3  501    0 -0.27550068419E+02  0.37866678018E+02 -0.35713503319E+02  0.59079911081E+02  0.47000000000E+01 0.  1.
         -5    1    3    3    0  501  0.37466075808E+02 -0.74441082482E+02 -0.71362276316E+02  0.10981733050E+03  0.47000000000E+01 0.  1.
          5    1    4    4  502    0 -0.14834752859E+01  0.40103477833E+02 -0.84198499764E+01  0.41273157219E+02  0.47000000000E+01 0.  1.
         -5    1    4    4    0  502 -0.84325321036E+01 -0.35290733687E+01 -0.23291764052E+03  0.23314433131E+03  0.47000000000E+01 0.  1.
<mgrwt>
<rscale>  0 0.27410973E+03</rscale>
<asrwt>0</asrwt>
<pdfrwt beam="1">  1       21 0.73001124E-02 0.27410973E+03</pdfrwt>
<pdfrwt beam="2">  1       21 0.60902153E-01 0.27410973E+03</pdfrwt>
<totfact> 0.34626742E+05</totfact>
</mgrwt>
</event>
<event>
 8    1  0.4760912E-006  0.4193646E+03  0.7546771E-02  0.1037273E+00
         21   -1    0    0  504  503  0.00000000000E+00  0.00000000000E+00  0.36157471135E+03  0.36157471135E+03  0.00000000000E+00 0.  1.
         21   -1    0    0  503  504 -0.00000000000E+00 -0.00000000000E+00 -0.12159775005E+03  0.12159775005E+03  0.00000000000E+00 0.  1.
         25    2    1    2    0    0  0.42396666530E+02  0.14752029038E+03  0.40322789898E+02  0.20201604393E+03  0.12499936484E+03 0.  0.
         25    2    1    2    0    0 -0.42396666530E+02 -0.14752029038E+03  0.19965417140E+03  0.28115641747E+03  0.12500971770E+03 0.  0.
          5    1    3    3  501    0 -0.42469402170E+02  0.72175859254E+02  0.24181898494E+02  0.87291803707E+02  0.47000000000E+01 0. -1.
         -5    1    3    3    0  501  0.84866068699E+02  0.75344431127E+02  0.16140891404E+02  0.11472424022E+03  0.47000000000E+01 0. -1.
          5    1    4    4  502    0  0.44148671484E+02 -0.57322276728E+02  0.81533066673E+02  0.10910856779E+03  0.47000000000E+01 0. -1.
         -5    1    4    4    0  502 -0.86545338014E+02 -0.90198013653E+02  0.11812110473E+03  0.17204784968E+03  0.47000000000E+01 0. -1.
<mgrwt>
<rscale>  0 0.41936462E+03</rscale>
<asrwt>0</asrwt>
<pdfrwt beam="1">  1       21 0.55626878E-01 0.41936462E+03</pdfrwt>
<pdfrwt beam="2">  1       21 0.18707346E-01 0.41936462E+03</pdfrwt>
<totfact> 0.74293911E+04</totfact>
</mgrwt>
</event>
<event>
 8    1  0.4760912E-006  0.3673407E+03  0.7546771E-02  0.1055714E+00
         21   -1    0    0  504  503  0.00000000000E+00  0.00000000000E+00  0.18969041464E+03  0.18969041464E+03  0.00000000000E+00 0.  1.
         21   -1    0    0  503  504 -0.00000000000E+00 -0.00000000000E+00 -0.17784132549E+03  0.17784132549E+03  0.00000000000E+00 0.  1.
         25    2    1    2    0    0 -0.11940929108E+02 -0.71015750020E+02 -0.10782302182E+03  0.18010566513E+03  0.12500569603E+03 0.  0.
         25    2    1    2    0    0  0.11940929108E+02  0.71015750020E+02  0.11967211098E+03  0.18742607500E+03  0.12498518674E+03 0.  0.
          5    1    3    3  501    0 -0.36999509317E+02 -0.98312404540E+02 -0.91329322942E+02  0.13927464882E+03  0.47000000000E+01 0.  1.
         -5    1    3    3    0  501  0.25058580209E+02  0.27296654520E+02 -0.16493698880E+02  0.40831016309E+02  0.47000000000E+01 0.  1.
          5    1    4    4  502    0  0.68112762470E+02  0.30271512123E+02  0.63079175212E+02  0.97758811383E+02  0.47000000000E+01 0.  1.
         -5    1    4    4    0  502 -0.56171833363E+02  0.40744237898E+02  0.56592935768E+02  0.89667263614E+02  0.47000000000E+01 0.  1.
<mgrwt>
<rscale>  0 0.36734069E+03</rscale>
<asrwt>0</asrwt>
<pdfrwt beam="1">  1       21 0.29183141E-01 0.36734069E+03</pdfrwt>
<pdfrwt beam="2">  1       21 0.27360204E-01 0.36734069E+03</pdfrwt>
<totfact> 0.13656460E+05</totfact>
</mgrwt>
</event>
<event>
 8    1  0.4760912E-006  0.3829299E+03  0.7546771E-02  0.1049856E+00
         21   -1    0    0  504  503  0.00000000000E+00  0.00000000000E+00  0.43990970535E+03  0.43990970535E+03  0.00000000000E+00 0. -1.
         21   -1    0    0  503  504 -0.00000000000E+00 -0.00000000000E+00 -0.83332637910E+02  0.83332637910E+02  0.00000000000E+00 0. -1.
         25    2    1    2    0    0  0.94301740247E+02  0.37766091172E+02  0.36841654824E+02  0.16522617721E+03  0.12499314481E+03 0.  0.
         25    2    1    2    0    0 -0.94301740247E+02 -0.37766091172E+02  0.31973541261E+03  0.35801616605E+03  0.12500298083E+03 0.  0.
          5    1    3    3  501    0  0.52532435679E+02  0.33601685729E+02 -0.42313307331E+02  0.75506529914E+02  0.47000000000E+01 0. -1.
         -5    1    3    3    0  501  0.41769304568E+02  0.41644054427E+01  0.79154962156E+02  0.89719647295E+02  0.47000000000E+01 0. -1.
          5    1    4    4  502    0 -0.87575560767E+02  0.31690012625E+01  0.29858542854E+03  0.31121514993E+03  0.47000000000E+01 0. -1.
         -5    1    4    4    0  502 -0.67261794798E+01 -0.40935092435E+02  0.21149984075E+02  0.46801016115E+02  0.47000000000E+01 0. -1.
<mgrwt>
<rscale>  0 0.38292995E+03</rscale>
<asrwt>0</asrwt>
<pdfrwt beam="1">  1       21 0.67678415E-01 0.38292995E+03</pdfrwt>
<pdfrwt beam="2">  1       21 0.12820406E-01 0.38292995E+03</pdfrwt>
<totfact> 0.98196169E+04</totfact>
</mgrwt>
</event>
<event>
 8    1  0.4760912E-006  0.2584296E+03  0.7546771E-02  0.1108090E+00
         21   -1    0    0  504  503  0.00000000000E+00  0.00000000000E+00  0.19589281416E+02  0.19589281416E+02  0.00000000000E+00 0. -1.
         21   -1    0    0  503  504 -0.00000000000E+00 -0.00000000000E+00 -0.85232683729E+03  0.85232683729E+03  0.00000000000E+00 0. -1.
         25    2    1    2    0    0 -0.23795947168E+02  0.18209501830E+02 -0.37160353461E+03  0.39320553624E+03  0.12499429481E+03 0.  0.
         25    2    1    2    0    0  0.23795947168E+02 -0.18209501830E+02 -0.46113402127E+03  0.47871058247E+03  0.12498561174E+03 0.  0.
          5    1    3    3  501    0  0.23427752077E+02  0.25975147043E+02 -0.24925206367E+02  0.43207912976E+02  0.47000000000E+01 0. -1.
         -5    1    3    3    0  501 -0.47223699245E+02 -0.77656452135E+01 -0.34667832824E+03  0.34999762326E+03  0.47000000000E+01 0. -1.
          5    1    4    4  502    0 -0.29214563476E+01 -0.44922616627E+01 -0.44352067006E+03  0.44357794139E+03  0.47000000000E+01 0.  1.
         -5    1    4    4    0  502  0.26717403515E+02 -0.13717240167E+02 -0.17613351213E+02  0.35132641081E+02  0.47000000000E+01 0.  1.
<mgrwt>
<rscale>  0 0.25842964E+03</rscale>
<asrwt>0</asrwt>
<pdfrwt beam="1">  1       21 0.30137356E-02 0.25842964E+03</pdfrwt>
<pdfrwt beam="2">  1       21 0.13112721E+00 0.25842964E+03</pdfrwt>
<totfact> 0.25992612E+05</totfact>
</mgrwt>
</event>
<event>
 8    1  0.4760912E-006  0.3090204E+03  0.7546771E-02  0.1080816E+00
         21   -1    0    0  504  503  0.00000000000E+00  0.00000000000E+00  0.57565016502E+03  0.57565016502E+03  0.00000000000E+00 0.  1.
         21   -1    0    0  503  504 -0.00000000000E+00 -0.00000000000E+00 -0.41472056974E+02  0.41472056974E+02  0.00000000000E+00 0.  1.
         25    2    1    2    0    0 -0.42783765706E+01  0.88992012742E+02  0.23194258981E+03  0.27813751879E+03  0.12500092622E+03 0.  0.
         25    2    1    2    0    0  0.42783765706E+01 -0.88992012742E+02  0.30223551824E+03  0.33898470320E+03  0.12500575059E+03 0.  0.
          5    1    3    3  501    0  0.32592342246E+01  0.10790356998E+03  0.10918308260E+03  0.15361262497E+03  0.47000000000E+01 0. -1.
         -5    1    3    3    0  501 -0.75376107952E+01 -0.18911557239E+02  0.12275950720E+03  0.12452489383E+03  0.47000000000E+01 0. -1.
          5    1    4    4  502    0  0.27893107631E+02 -0.66558046519E+02  0.58446060102E+02  0.92984036002E+02  0.47000000000E+01 0.  1.
         -5    1    4    4    0  502 -0.23614731061E+02 -0.22433966223E+02  0.24378945814E+03  0.24600066720E+03  0.47000000000E+01 0.  1.
<mgrwt>
<rscale>  0 0.30902036E+03</rscale>
<asrwt>0</asrwt>
<pdfrwt beam="1">  1       21 0.88561558E-01 0.30902036E+03</pdfrwt>
<pdfrwt beam="2">  1       21 0.63803169E-02 0.30902036E+03</pdfrwt>
<totfact> 0.18702359E+05</totfact>
</mgrwt>
</event>
<event>
 8    1  0.4760912E-006  0.4079448E+03  0.7546771E-02  0.1041063E+00
         21   -1    0    0  504  503  0.00000000000E+00  0.00000000000E+00  0.22374497209E+04  0.22374497209E+04  0.00000000000E+00 0.  1.
         21   -1    0    0  503  504 -0.00000000000E+00 -0.00000000000E+00 -0.18594710888E+02  0.18594710888E+02  0.00000000000E+00 0.  1.
         25    2    1    2    0    0  0.14363852796E+03  0.43506830342E+02  0.78440813590E+03  0.80836089031E+03  0.12500533712E+03 0.  0.
         25    2    1    2    0    0 -0.14363852796E+03 -0.43506830342E+02  0.14344468741E+04  0.14476835414E+04  0.12499972250E+03 0.  0.
          5    1    3    3  501    0  0.58587863691E+02  0.59911861706E+02  0.19073922542E+03  0.20838788607E+03  0.47000000000E+01 0.  1.
         -5    1    3    3    0  501  0.85050664270E+02 -0.16405031365E+02  0.59366891048E+03  0.59997300424E+03  0.47000000000E+01 0.  1.
          5    1    4    4  502    0 -0.56374303253E+02 -0.30833370977E+02  0.10964692742E+04  0.10983604682E+04  0.47000000000E+01 0. -1.
         -5    1    4    4    0  502 -0.87264224708E+02 -0.12673459365E+02  0.33797759987E+03  0.34932307325E+03  0.47000000000E+01 0. -1.
<mgrwt>
<rscale>  0 0.40794475E+03</rscale>
<asrwt>0</asrwt>
<pdfrwt beam="1">  1       21 0.34422282E+00 0.40794475E+03</pdfrwt>
<pdfrwt beam="2">  1       21 0.28607265E-02 0.40794475E+03</pdfrwt>
<totfact> 0.10967813E+04</totfact>
</mgrwt>
</event>
<event>
 8    1  0.4760912E-006  0.2779810E+03  0.7546771E-02  0.1096797E+00
         21   -1    0    0  504  503  0.00000000000E+00  0.00000000000E+00  0.92918501471E+02  0.92918501471E+02  0.00000000000E+00 0. -1.
         21   -1    0    0  503  504 -0.00000000000E+00 -0.00000000000E+00 -0.20790642798E+03  0.20790642798E+03  0.00000000000E+00 0. -1.
         25    2    1    2    0    0  0.46317376678E+02 -0.34642110622E+02 -0.77745794086E+02  0.15816059684E+03  0.12499996274E+03 0.  0.
         25    2    1    2    0    0 -0.46317376678E+02  0.34642110622E+02 -0.37242132422E+02  0.14266433261E+03  0.12498303949E+03 0.  0.
          5    1    3    3  501    0 -0.73737663301E+00  0.26029694930E+02 -0.76800098666E+02  0.81230744780E+02  0.47000000000E+01 0. -1.
         -5    1    3    3    0  501  0.47054753311E+02 -0.60671805552E+02 -0.94569542053E+00  0.76929852060E+02  0.47000000000E+01 0. -1.
          5    1    4    4  502    0  0.67314952184E+01  0.39411509625E+02  0.34617123925E+02  0.53094400718E+02  0.47000000000E+01 0. -1.
         -5    1    4    4    0  502 -0.53048871896E+02 -0.47693990022E+01 -0.71859256347E+02  0.89569931892E+02  0.47000000000E+01 0. -1.
<mgrwt>
<rscale>  0 0.27798096E+03</rscale>
<asrwt>0</asrwt>
<pdfrwt beam="1">  1       21 0.14295154E-01 0.27798096E+03</pdfrwt>
<pdfrwt beam="2">  1       21 0.31985604E-01 0.27798096E+03</pdfrwt>
<totfact> 0.39528146E+05</totfact>
</mgrwt>
</event>
<event>
 8    1  0.4760912E-006  0.2981827E+03  0.7546771E-02  0.1086153E+00
         21   -1    0    0  504  503  0.00000000000E+00  0.00000000000E+00  0.25581135869E+03  0.25581135869E+03  0.00000000000E+00 0.  1.
         21   -1    0    0  503  504 -0.00000000000E+00 -0.00000000000E+00 -0.86893050604E+02  0.86893050604E+02  0.00000000000E+00 0.  1.
         25    2    1    2    0    0 -0.77213926237E+02 -0.14251638698E+02  0.10851375290E+03  0.18321051997E+03  0.12500304176E+03 0.  0.
         25    2    1    2    0    0  0.77213926237E+02  0.14251638698E+02  0.60404555184E+02  0.15949388932E+03  0.12499796332E+03 0.  0.
          5    1    3    3  501    0 -0.16652531448E+02  0.52824831049E+02  0.28747507560E+02  0.62580178730E+02  0.47000000000E+01 0. -1.
         -5    1    3    3    0  501 -0.60561394789E+02 -0.67076469747E+02  0.79766245340E+02  0.12063034124E+03  0.47000000000E+01 0. -1.
          5    1    4    4  502    0  0.92451878656E+02 -0.27819145848E+02  0.19333798347E+02  0.98575557321E+02  0.47000000000E+01 0.  1.
         -5    1    4    4    0  502 -0.15237952419E+02  0.42070784546E+02  0.41070756838E+02  0.60918331999E+02  0.47000000000E+01 0.  1.
<mgrwt>
<rscale>  0 0.29818269E+03</rscale>
<asrwt>0</asrwt>
<pdfrwt beam="1">  1       21 0.39355593E-01 0.29818269E+03</pdfrwt>
<pdfrwt beam="2">  1       21 0.13368162E-01 0.29818269E+03</pdfrwt>
<totfact> 0.29349533E+05</totfact>
</mgrwt>
</event>
<event>
 8    1  0.4760912E-006  0.4051825E+03  0.7546771E-02  0.1042000E+00
         21   -1    0    0  504  503  0.00000000000E+00  0.00000000000E+00  0.42681654300E+03  0.42681654300E+03  0.00000000000E+00 0.  1.
         21   -1    0    0  503  504 -0.00000000000E+00 -0.00000000000E+00 -0.96161241739E+02  0.96161241739E+02  0.00000000000E+00 0.  1.
         25    2    1    2    0    0 -0.14115917269E+02  0.15775516338E+03  0.18887249181E+03  0.27637640241E+03  0.12500058781E+03 0.  0.
         25    2    1    2    0    0  0.14115917269E+02 -0.15775516338E+03  0.14178280945E+03  0.24660138233E+03  0.12499570399E+03 0.  0.
          5    1    3    3  501    0  0.50230293143E+02  0.37174693772E+02  0.79711662761E+02  0.10139565763E+03  0.47000000000E+01 0. -1.
         -5    1    3    3    0  501 -0.64346210411E+02  0.12058046961E+03  0.10916082905E+03  0.17498074478E+03  0.47000000000E+01 0. -1.
          5    1    4    4  502    0 -0.16000383116E+02  0.16981793784E+02  0.23203756904E+02  0.33240004730E+02  0.47000000000E+01 0.  1.
         -5    1    4    4    0  502  0.30116300385E+02 -0.17473695716E+03  0.11857905254E+03  0.21336137759E+03  0.47000000000E+01 0.  1.
<mgrwt>
<rscale>  0 0.40518247E+03</rscale>
<asrwt>0</asrwt>
<pdfrwt beam="1">  1       21 0.65664083E-01 0.40518247E+03</pdfrwt>
<pdfrwt beam="2">  1       21 0.14794037E-01 0.40518247E+03</pdfrwt>
<totfact> 0.80332194E+04</totfact>
</mgrwt>
</event>
<event>
 8    1  0.4760912E-006  0.3580576E+03  0.7546771E-02  0.1059356E+00
         21   -1    0    0  504  503  0.00000000000E+00  0.00000000000E+00  0.11205257583E+03  0.11205257583E+03  0.00000000000E+00 0.  1.
         21   -1    0    0  503  504 -0.00000000000E+00 -0.00000000000E+00 -0.28603813788E+03  0.28603813788E+03  0.00000000000E+00 0.  1.
         25    2    1    2    0    0 -0.63523125535E+02 -0.98287023864E+02 -0.14509746067E+03  0.22444163604E+03  0.12500099342E+03 0.  0.
         25    2    1    2    0    0  0.63523125535E+02  0.98287023864E+02 -0.28888101375E+02  0.17364907767E+03  0.12499581287E+03 0.  0.
          5    1    3    3  501    0  0.21826340452E+02  0.14676064650E+02 -0.39790720054E+02  0.47928774380E+02  0.47000000000E+01 0. -1.
         -5    1    3    3    0  501 -0.85349465987E+02 -0.11296308851E+03 -0.10530674062E+03  0.17651286166E+03  0.47000000000E+01 0. -1.
          5    1    4    4  502    0  0.58867639244E+02  0.45427059212E+02 -0.73131724226E+02  0.10439997963E+03  0.47000000000E+01 0. -1.
         -5    1    4    4    0  502  0.46554862907E+01  0.52859964653E+02  0.44243622851E+02  0.69249098035E+02  0.47000000000E+01 0. -1.
<mgrwt>
<rscale>  0 0.35805759E+03</rscale>
<asrwt>0</asrwt>
<pdfrwt beam="1">  1       21 0.17238858E-01 0.35805759E+03</pdfrwt>
<pdfrwt beam="2">  1       21 0.44005867E-01 0.35805759E+03</pdfrwt>
<totfact> 0.14413462E+05</totfact>
</mgrwt>
</event>
<event>
 8    1  0.4760912E-006  0.3548911E+03  0.7546771E-02  0.1060625E+00
         21   -1    0    0  504  503  0.00000000000E+00  0.00000000000E+00  0.25529329243E+02  0.25529329243E+02  0.00000000000E+00 0. -1.
         21   -1    0    0  503  504 -0.00000000000E+00 -0.00000000000E+00 -0.12333630204E+04  0.12333630204E+04  0.00000000000E+00 0. -1.
         25    2    1    2    0    0  0.84340748215E+02  0.57403059138E+02 -0.86588188311E+03  0.88078554414E+03  0.12499306483E+03 0.  0.
         25    2    1    2    0    0 -0.84340748215E+02 -0.57403059138E+02 -0.34195180808E+03  0.37810680554E+03  0.12500097735E+03 0.  0.
          5    1    3    3  501    0  0.11586034174E+03  0.31183345737E+02 -0.64484982220E+03  0.65593399290E+03  0.47000000000E+01 0.  1.
         -5    1    3    3    0  501 -0.31519593529E+02  0.26219713401E+02 -0.22103206091E+03  0.22485155124E+03  0.47000000000E+01 0.  1.
          5    1    4    4  502    0 -0.10257601056E+03 -0.52380425758E+02 -0.33941207209E+03  0.35845249563E+03  0.47000000000E+01 0. -1.
         -5    1    4    4    0  502  0.18235262349E+02 -0.50226333797E+01 -0.25397359920E+01  0.19654309906E+02  0.47000000000E+01 0. -1.
<mgrwt>
<rscale>  0 0.35489114E+03</rscale>
<asrwt>0</asrwt>
<pdfrwt beam="1">  1       21 0.39275900E-02 0.35489114E+03</pdfrwt>
<pdfrwt beam="2">  1       21 0.18974811E+00 0.35489114E+03</pdfrwt>
<totfact> 0.58674632E+04</totfact>
</mgrwt>
</event>
<event>
 8    1  0.4760912E-006  0.3979457E+03  0.7546771E-02  0.1044493E+00
         21   -1    0    0  504  503  0.00000000000E+00  0.00000000000E+00  0.84085721495E+03  0.84085721495E+03  0.00000000000E+00 0. -1.
         21   -1    0    0  503  504 -0.00000000000E+00 -0.00000000000E+00 -0.47083126644E+02  0.47083126644E+02  0.00000000000E+00 0. -1.
         25    2    1    2    0    0 -0.12668045143E+03  0.70664245438E+02  0.27621844208E+03  0.33609811942E+03  0.12499578302E+03 0.  0.
         25    2    1    2    0    0  0.12668045143E+03 -0.70664245438E+02  0.51755564622E+03  0.55184222217E+03  0.12499847550E+03 0.  0.
          5    1    3    3  501    0 -0.82025621111E+02  0.78471143081E+02  0.26620509523E+03  0.28943594376E+03  0.47000000000E+01 0.  1.
         -5    1    3    3    0  501 -0.44654830319E+02 -0.78068976425E+01  0.10013346847E+02  0.46662175653E+02  0.47000000000E+01 0.  1.
          5    1    4    4  502    0  0.14657386325E+03 -0.67154076663E+02  0.38121387926E+03  0.41393197405E+03  0.47000000000E+01 0. -1.
         -5    1    4    4    0  502 -0.19893411820E+02 -0.35101687753E+01  0.13634176696E+03  0.13791024812E+03  0.47000000000E+01 0. -1.
<mgrwt>
<rscale>  0 0.39794566E+03</rscale>
<asrwt>0</asrwt>
<pdfrwt beam="1">  1       21 0.12936264E+00 0.39794566E+03</pdfrwt>
<pdfrwt beam="2">  1       21 0.72435586E-02 0.39794566E+03</pdfrwt>
<totfact> 0.57819557E+04</totfact>
</mgrwt>
</event>
<event>
 8    1  0.4760912E-006  0.2643671E+03  0.7546771E-02  0.1104547E+00
         21   -1    0    0  504  503  0.00000000000E+00  0.00000000000E+00  0.11877197978E+03  0.11877197978E+03  0.00000000000E+00 0. -1.
         21   -1    0    0  503  504 -0.00000000000E+00 -0.00000000000E+00 -0.14710950365E+03  0.14710950365E+03  0.00000000000E+00 0. -1.
         25    2    1    2    0    0  0.16795527033E+02 -0.33362013429E+02  0.70837809182E+01  0.13069555730E+03  0.12504413252E+03 0.  0.
         25    2    1    2    0    0 -0.16795527033E+02  0.33362013429E+02 -0.35421304785E+02  0.13518592614E+03  0.12500180849E+03 0.  0.
          5    1    3    3  501    0 -0.60526013033E+01  0.41379598610E+02 -0.21608661097E+02  0.47306758483E+02  0.47000000000E+01 0. -1.
         -5    1    3    3    0  501  0.22848128336E+02 -0.74741612040E+02  0.28692442016E+02  0.83388798814E+02  0.47000000000E+01 0. -1.
          5    1    4    4  502    0 -0.60790462560E+02  0.18354346061E+02 -0.55372192916E+02  0.84383245410E+02  0.47000000000E+01 0.  1.
         -5    1    4    4    0  502  0.43994935527E+02  0.15007667368E+02  0.19950888131E+02  0.50802680727E+02  0.47000000000E+01 0.  1.
<mgrwt>
<rscale>  0 0.26436707E+03</rscale>
<asrwt>0</asrwt>
<pdfrwt beam="1">  1       21 0.18272612E-01 0.26436707E+03</pdfrwt>
<pdfrwt beam="2">  1       21 0.22632231E-01 0.26436707E+03</pdfrwt>
<totfact> 0.49279277E+05</totfact>
</mgrwt>
</event>
<event>
 8    1  0.4760912E-006  0.2969360E+03  0.7546771E-02  0.1086782E+00
         21   -1    0    0  504  503  0.00000000000E+00  0.00000000000E+00  0.76472479883E+03  0.76472479883E+03  0.00000000000E+00 0.  1.
         21   -1    0    0  503  504 -0.00000000000E+00 -0.00000000000E+00 -0.28824420018E+02  0.28824420018E+02  0.00000000000E+00 0.  1.
         25    2    1    2    0    0  0.36639805019E+02  0.33803577876E+02  0.20034451310E+03  0.24134725577E+03  0.12500166698E+03 0.  0.
         25    2    1    2    0    0 -0.36639805019E+02 -0.33803577876E+02  0.53555586571E+03  0.55220196308E+03  0.12498706149E+03 0.  0.
          5    1    3    3  501    0 -0.30900009819E+02 -0.19114007640E+02  0.20388606663E+02  0.41927809107E+02  0.47000000000E+01 0.  1.
         -5    1    3    3    0  501  0.67539814838E+02  0.52917585516E+02  0.17995590644E+03  0.19941944666E+03  0.47000000000E+01 0.  1.
          5    1    4    4  502    0  0.38788571598E+02 -0.66041554312E+01  0.31487461250E+03  0.31735828295E+03  0.47000000000E+01 0.  1.
         -5    1    4    4    0  502 -0.75428376617E+02 -0.27199422445E+02  0.22068125321E+03  0.23484368013E+03  0.47000000000E+01 0.  1.
<mgrwt>
<rscale>  0 0.29693601E+03</rscale>
<asrwt>0</asrwt>
<pdfrwt beam="1">  1       21 0.11764995E+00 0.29693601E+03</pdfrwt>
<pdfrwt beam="2">  1       21 0.44345267E-02 0.29693601E+03</pdfrwt>
<totfact> 0.17659360E+05</totfact>
</mgrwt>
</event>
<event>
 8    1  0.4760912E-006  0.2724998E+03  0.7546771E-02  0.1099857E+00
         21   -1    0    0  504  503  0.00000000000E+00  0.00000000000E+00  0.38580274603E+02  0.38580274603E+02  0.00000000000E+00 0.  1.
         21   -1    0    0  503  504 -0.00000000000E+00 -0.00000000000E+00 -0.48117931096E+03  0.48117931096E+03  0.00000000000E+00 0.  1.
         25    2    1    2    0    0 -0.18079173971E+02 -0.28504153997E+01 -0.12396730330E+03  0.17699827012E+03  0.12500205574E+03 0.  0.
         25    2    1    2    0    0  0.18079173971E+02  0.28504153997E+01 -0.31863173306E+03  0.34276131544E+03  0.12499662655E+03 0.  0.
          5    1    3    3  501    0 -0.10313350830E+02  0.22952490304E+02  0.18719941667E+02  0.31712903250E+02  0.47000000000E+01 0. -1.
         -5    1    3    3    0  501 -0.77658231409E+01 -0.25802905704E+02 -0.14268724497E+03  0.14528536688E+03  0.47000000000E+01 0. -1.
          5    1    4    4  502    0  0.20130886515E+02  0.33655596134E+02 -0.23453953867E+02  0.45936148021E+02  0.47000000000E+01 0. -1.
         -5    1    4    4    0  502 -0.20517125447E+01 -0.30805180734E+02 -0.29517777919E+03  0.29682516742E+03  0.47000000000E+01 0. -1.
<mgrwt>
<rscale>  0 0.27249976E+03</rscale>
<asrwt>0</asrwt>
<pdfrwt beam="1">  1       21 0.59354267E-02 0.27249976E+03</pdfrwt>
<pdfrwt beam="2">  1       21 0.74027588E-01 0.27249976E+03</pdfrwt>
<totfact> 0.32226189E+05</totfact>
</mgrwt>
</event>
<event>
 8    1  0.4760912E-006  0.3311367E+03  0.7546771E-02  0.1070635E+00
         21   -1    0    0  504  503  0.00000000000E+00  0.00000000000E+00  0.48980680628E+02  0.48980680628E+02  0.00000000000E+00 0. -1.
         21   -1    0    0  503  504 -0.00000000000E+00 -0.00000000000E+00 -0.55966729598E+03  0.55966729598E+03  0.00000000000E+00 0. -1.
         25    2    1    2    0    0 -0.10247138924E+03  0.48263024229E+01 -0.32066935622E+03  0.35913571728E+03  0.12500379435E+03 0.  0.
         25    2    1    2    0    0  0.10247138924E+03 -0.48263024229E+01 -0.19001725913E+03  0.24951225932E+03  0.12500451982E+03 0.  0.
          5    1    3    3  501    0 -0.11106766752E+03 -0.47079677183E+01 -0.32599790987E+03  0.34446323312E+03  0.47000000000E+01 0.  1.
         -5    1    3    3    0  501  0.85962782773E+01  0.95342701412E+01  0.53285536596E+01  0.14672484161E+02  0.47000000000E+01 0.  1.
          5    1    4    4  502    0  0.12970543017E+03  0.72188143813E+01 -0.13945625827E+03  0.19064560805E+03  0.47000000000E+01 0. -1.
         -5    1    4    4    0  502 -0.27234040929E+02 -0.12045116804E+02 -0.50561000863E+02  0.58866651276E+02  0.47000000000E+01 0. -1.
<mgrwt>
<rscale>  0 0.33113674E+03</rscale>
<asrwt>0</asrwt>
<pdfrwt beam="1">  1       21 0.75354896E-02 0.33113674E+03</pdfrwt>
<pdfrwt beam="2">  1       21 0.86102657E-01 0.33113674E+03</pdfrwt>
<totfact> 0.14859164E+05</totfact>
</mgrwt>
</event>
<event>
 8    1  0.4760912E-006  0.3339127E+03  0.7546771E-02  0.1069419E+00
         21   -1    0    0  504  503  0.00000000000E+00  0.00000000000E+00  0.18993296514E+03  0.18993296514E+03  0.00000000000E+00 0. -1.
         21   -1    0    0  503  504 -0.00000000000E+00 -0.00000000000E+00 -0.14675927557E+03  0.14675927557E+03  0.00000000000E+00 0. -1.
         25    2    1    2    0    0  0.10258975910E+03 -0.38773044802E+02  0.36745648679E+02  0.17031008714E+03  0.12500910130E+03 0.  0.
         25    2    1    2    0    0 -0.10258975910E+03  0.38773044802E+02  0.64280408908E+01  0.16638215356E+03  0.12495476637E+03 0.  0.
          5    1    3    3  501    0  0.11985088915E+03 -0.52477353085E+02  0.45352743406E+01  0.13099911041E+03  0.47000000000E+01 0. -1.
         -5    1    3    3    0  501 -0.17261130046E+02  0.13704308283E+02  0.32210374338E+02  0.39310976724E+02  0.47000000000E+01 0. -1.
          5    1    4    4  502    0 -0.30320634861E+02  0.75281571605E+02 -0.14604858051E+02  0.82595688752E+02  0.47000000000E+01 0.  1.
         -5    1    4    4    0  502 -0.72269124239E+02 -0.36508526804E+02  0.21032898942E+02  0.83786464811E+02  0.47000000000E+01 0.  1.
<mgrwt>
<rscale>  0 0.33391271E+03</rscale>
<asrwt>0</asrwt>
<pdfrwt beam="1">  1       21 0.29220456E-01 0.33391271E+03</pdfrwt>
<pdfrwt beam="2">  1       21 0.22578350E-01 0.33391271E+03</pdfrwt>
<totfact> 0.19888641E+05</totfact>
</mgrwt>
</event>
<event>
 8    1  0.4760912E-006  0.2708683E+03  0.7546771E-02  0.1100784E+00
         21   -1    0    0  504  503  0.00000000000E+00  0.00000000000E+00  0.61964183664E+02  0.61964183664E+02  0.00000000000E+00 0. -1.
         21   -1    0    0  503  504 -0.00000000000E+00 -0.00000000000E+00 -0.29601622482E+03  0.29601622482E+03  0.00000000000E+00 0. -1.
         25    2    1    2    0    0 -0.41906056947E+02  0.30226122032E+02 -0.12573521314E+03  0.18467101324E+03  0.12499721295E+03 0.  0.
         25    2    1    2    0    0  0.41906056947E+02 -0.30226122032E+02 -0.10831682801E+03  0.17330939525E+03  0.12503549571E+03 0.  0.
          5    1    3    3  501    0 -0.46240933962E+02  0.25727906121E+02 -0.15002551871E+03  0.15915368482E+03  0.47000000000E+01 0.  1.
         -5    1    3    3    0  501  0.43348770156E+01  0.44982159105E+01  0.24290305567E+02  0.25517328419E+02  0.47000000000E+01 0.  1.
          5    1    4    4  502    0  0.64420359342E+02  0.10439035628E+02 -0.10837040626E+03  0.12659064387E+03  0.47000000000E+01 0. -1.
         -5    1    4    4    0  502 -0.22514302395E+02 -0.40665157660E+02  0.53578243192E-01  0.46718751380E+02  0.47000000000E+01 0. -1.
<mgrwt>
<rscale>  0 0.27086826E+03</rscale>
<asrwt>0</asrwt>
<pdfrwt beam="1">  1       21 0.95329512E-02 0.27086826E+03</pdfrwt>
<pdfrwt beam="2">  1       21 0.45540958E-01 0.27086826E+03</pdfrwt>
<totfact> 0.40134753E+05</totfact>
</mgrwt>
</event>
<event>
 8    1  0.4760912E-006  0.3024985E+03  0.7546771E-02  0.1083998E+00
         21   -1    0    0  504  503  0.00000000000E+00  0.00000000000E+00  0.54945062825E+03  0.54945062825E+03  0.00000000000E+00 0.  1.
         21   -1    0    0  503  504 -0.00000000000E+00 -0.00000000000E+00 -0.41634934076E+02  0.41634934076E+02  0.00000000000E+00 0.  1.
         25    2    1    2    0    0 -0.45280753264E+01 -0.82377410048E+02  0.29524844979E+03  0.33106319729E+03  0.12499860936E+03 0.  0.
         25    2    1    2    0    0  0.45280753264E+01  0.82377410048E+02  0.21256724438E+03  0.26002236504E+03  0.12498102169E+03 0.  0.
          5    1    3    3  501    0  0.26654303893E+02 -0.72771991757E+02  0.28667272000E+03  0.29700093113E+03  0.47000000000E+01 0.  1.
         -5    1    3    3    0  501 -0.31182379219E+02 -0.96054182912E+01  0.85757297899E+01  0.34062266157E+02  0.47000000000E+01 0.  1.
          5    1    4    4  502    0 -0.20027730650E+02  0.10777204569E+03  0.18450670820E+03  0.21466424760E+03  0.47000000000E+01 0.  1.
         -5    1    4    4    0  502  0.24555805977E+02 -0.25394635644E+02  0.28060536189E+02  0.45358117442E+02  0.47000000000E+01 0.  1.
<mgrwt>
<rscale>  0 0.30249853E+03</rscale>
<asrwt>0</asrwt>
<pdfrwt beam="1">  1       21 0.84530861E-01 0.30249853E+03</pdfrwt>
<pdfrwt beam="2">  1       21 0.64053749E-02 0.30249853E+03</pdfrwt>
<totfact> 0.20732585E+05</totfact>
</mgrwt>
</event>
<event>
 8    1  0.4760912E-006  0.3016337E+03  0.7546771E-02  0.1084427E+00
         21   -1    0    0  504  503  0.00000000000E+00  0.00000000000E+00  0.73563390304E+03  0.73563390304E+03  0.00000000000E+00 0. -1.
         21   -1    0    0  503  504 -0.00000000000E+00 -0.00000000000E+00 -0.30919901916E+02  0.30919901916E+02  0.00000000000E+00 0. -1.
         25    2    1    2    0    0 -0.25077777622E+02  0.80454058307E+02  0.34095655507E+03  0.37279337573E+03  0.12498711178E+03 0.  0.
         25    2    1    2    0    0  0.25077777622E+02 -0.80454058307E+02  0.36375744605E+03  0.39376042923E+03  0.12500418249E+03 0.  0.
          5    1    3    3  501    0  0.19133854661E+02 -0.23426372942E+02  0.12918404710E+03  0.13276109132E+03  0.47000000000E+01 0. -1.
         -5    1    3    3    0  501 -0.44211632283E+02  0.10388043125E+03  0.21177250798E+03  0.24003228441E+03  0.47000000000E+01 0. -1.
          5    1    4    4  502    0  0.17338852188E+02 -0.23285781533E+02  0.43594560277E+01  0.29731435781E+02  0.47000000000E+01 0.  1.
         -5    1    4    4    0  502  0.77389254339E+01 -0.57168276774E+02  0.35939799002E+03  0.36402899344E+03  0.47000000000E+01 0.  1.
<mgrwt>
<rscale>  0 0.30163374E+03</rscale>
<asrwt>0</asrwt>
<pdfrwt beam="1">  1       21 0.11317443E+00 0.30163374E+03</pdfrwt>
<pdfrwt beam="2">  1       21 0.47569085E-02 0.30163374E+03</pdfrwt>
<totfact> 0.17224510E+05</totfact>
</mgrwt>
</event>
<event>
 8    1  0.4760912E-006  0.2688250E+03  0.7546771E-02  0.1101954E+00
         21   -1    0    0  504  503  0.00000000000E+00  0.00000000000E+00  0.50297024739E+03  0.50297024739E+03  0.00000000000E+00 0.  1.
         21   -1    0    0  503  504 -0.00000000000E+00 -0.00000000000E+00 -0.35920064171E+02  0.35920064171E+02  0.00000000000E+00 0.  1.
         25    2    1    2    0    0 -0.82697975291E+01  0.10912799906E+00  0.13586256052E+03  0.18480044784E+03  0.12499667479E+03 0.  0.
         25    2    1    2    0    0  0.82697975291E+01 -0.10912799906E+00  0.33118762270E+03  0.35408986372E+03  0.12500395475E+03 0.  0.
          5    1    3    3  501    0  0.48213139461E+02 -0.31693889592E+02  0.82088250749E+02  0.10044690321E+03  0.47000000000E+01 0.  1.
         -5    1    3    3    0  501 -0.56482936990E+02  0.31803017591E+02  0.53774309770E+02  0.84353544622E+02  0.47000000000E+01 0.  1.
          5    1    4    4  502    0  0.10407299361E+02  0.54241186969E+02  0.25122346247E+03  0.25726588646E+03  0.47000000000E+01 0.  1.
         -5    1    4    4    0  502 -0.21375018317E+01 -0.54350314968E+02  0.79964160230E+02  0.96823977260E+02  0.47000000000E+01 0.  1.
<mgrwt>
<rscale>  0 0.26882503E+03</rscale>
<asrwt>0</asrwt>
<pdfrwt beam="1">  1       21 0.77380033E-01 0.26882503E+03</pdfrwt>
<pdfrwt beam="2">  1       21 0.55261641E-02 0.26882503E+03</pdfrwt>
<totfact> 0.33000443E+05</totfact>
</mgrwt>
</event>
<event>
 8    1  0.4760912E-006  0.4112202E+03  0.7546771E-02  0.1039962E+00
         21   -1    0    0  504  503  0.00000000000E+00  0.00000000000E+00  0.28387595338E+03  0.28387595338E+03  0.00000000000E+00 0. -1.
         21   -1    0    0  503  504 -0.00000000000E+00 -0.00000000000E+00 -0.14892246095E+03  0.14892246095E+03  0.00000000000E+00 0. -1.
         25    2    1    2    0    0 -0.72343058093E+02 -0.12291182233E+03  0.15106540233E+03  0.24245962653E+03  0.12500032236E+03 0.  0.
         25    2    1    2    0    0  0.72343058093E+02  0.12291182233E+03 -0.16111909895E+02  0.19033878780E+03  0.12501370476E+03 0.  0.
          5    1    3    3  501    0 -0.62093906940E+02 -0.11627340705E+03  0.17262034186E+03  0.21724417343E+03  0.47000000000E+01 0.  1.
         -5    1    3    3    0  501 -0.10249151153E+02 -0.66384152810E+01 -0.21554939528E+02  0.25215453096E+02  0.47000000000E+01 0.  1.
          5    1    4    4  502    0  0.37276673561E+02 -0.19902107885E+02 -0.29265660714E+01  0.42618060479E+02  0.47000000000E+01 0. -1.
         -5    1    4    4    0  502  0.35066384532E+02  0.14281393022E+03 -0.13185343823E+02  0.14772072732E+03  0.47000000000E+01 0. -1.
<mgrwt>
<rscale>  0 0.41122016E+03</rscale>
<asrwt>0</asrwt>
<pdfrwt beam="1">  1       21 0.43673224E-01 0.41122016E+03</pdfrwt>
<pdfrwt beam="2">  1       21 0.22911148E-01 0.41122016E+03</pdfrwt>
<totfact> 0.84437167E+04</totfact>
</mgrwt>
</event>
<event>
 8    1  0.4760912E-006  0.3535946E+03  0.7546771E-02  0.1061149E+00
         21   -1    0    0  504  503  0.00000000000E+00  0.00000000000E+00  0.15970282364E+03  0.15970282364E+03  0.00000000000E+00 0. -1.
         21   -1    0    0  503  504 -0.00000000000E+00 -0.00000000000E+00 -0.19572155685E+03  0.19572155685E+03  0.00000000000E+00 0. -1.
         25    2    1    2    0    0 -0.67834322487E+02 -0.96644188407E+02  0.23441727720E+02  0.17348263148E+03  0.12492043214E+03 0.  0.
         25    2    1    2    0    0  0.67834322487E+02  0.96644188407E+02 -0.59460460921E+02  0.18194174901E+03  0.12500263662E+03 0.  0.
          5    1    3    3  501    0 -0.47796851938E+02 -0.42868004744E+02  0.73129319193E+02  0.97427882105E+02  0.47000000000E+01 0.  1.
         -5    1    3    3    0  501 -0.20037470549E+02 -0.53776183663E+02 -0.49687591472E+02  0.76054749370E+02  0.47000000000E+01 0.  1.
          5    1    4    4  502    0 -0.36560376026E+02  0.17406750941E+02 -0.15821081040E+02  0.43727024581E+02  0.47000000000E+01 0.  1.
         -5    1    4    4    0  502  0.10439469851E+03  0.79237437466E+02 -0.43639379881E+02  0.13821472443E+03  0.47000000000E+01 0.  1.
<mgrwt>
<rscale>  0 0.35359460E+03</rscale>
<asrwt>0</asrwt>
<pdfrwt beam="1">  1       21 0.24569665E-01 0.35359460E+03</pdfrwt>
<pdfrwt beam="2">  1       21 0.30111008E-01 0.35359460E+03</pdfrwt>
<totfact> 0.15869255E+05</totfact>
</mgrwt>
</event>
<event>
 8    1  0.4760912E-006  0.2626259E+03  0.7546771E-02  0.1105576E+00
         21   -1    0    0  504  503  0.00000000000E+00  0.00000000000E+00  0.14393893599E+03  0.14393893599E+03  0.00000000000E+00 0. -1.
         21   -1    0    0  503  504 -0.00000000000E+00 -0.00000000000E+00 -0.11979452891E+03  0.11979452891E+03  0.00000000000E+00 0. -1.
         25    2    1    2    0    0 -0.35346567242E+02 -0.55273020256E+01 -0.63527855149E+01  0.13017568360E+03  0.12500167932E+03 0.  0.
         25    2    1    2    0    0  0.35346567242E+02  0.55273020256E+01  0.30497192597E+02  0.13355778131E+03  0.12501068477E+03 0.  0.
          5    1    3    3  501    0 -0.46172407136E+01  0.40616430683E+02 -0.46104367450E+02  0.61795760786E+02  0.47000000000E+01 0. -1.
         -5    1    3    3    0  501 -0.30729326528E+02 -0.46143732708E+02  0.39751581935E+02  0.68379922810E+02  0.47000000000E+01 0. -1.
          5    1    4    4  502    0  0.43133657083E+02 -0.45205459347E+02  0.48208250517E+02  0.79058025184E+02  0.47000000000E+01 0.  1.
         -5    1    4    4    0  502 -0.77870898412E+01  0.50732761373E+02 -0.17711057920E+02  0.54499756122E+02  0.47000000000E+01 0.  1.
<mgrwt>
<rscale>  0 0.26262595E+03</rscale>
<asrwt>0</asrwt>
<pdfrwt beam="1">  1       21 0.22144452E-01 0.26262595E+03</pdfrwt>
<pdfrwt beam="2">  1       21 0.18429928E-01 0.26262595E+03</pdfrwt>
<totfact> 0.50564476E+05</totfact>
</mgrwt>
</event>
<event>
 8    1  0.4760912E-006  0.3077342E+03  0.7546771E-02  0.1081437E+00
         21   -1    0    0  504  503  0.00000000000E+00  0.00000000000E+00  0.36418358200E+02  0.36418358200E+02  0.00000000000E+00 0. -1.
         21   -1    0    0  503  504 -0.00000000000E+00 -0.00000000000E+00 -0.65008646219E+03  0.65008646219E+03  0.00000000000E+00 0. -1.
         25    2    1    2    0    0  0.50024269912E+01 -0.64970261022E+01 -0.10749192662E+03  0.16506395887E+03  0.12499744240E+03 0.  0.
         25    2    1    2    0    0 -0.50024269912E+01  0.64970261022E+01 -0.50617617736E+03  0.52144086151E+03  0.12497605331E+03 0.  0.
          5    1    3    3  501    0  0.51277156008E+02  0.32408328922E+02 -0.73966243713E+02  0.95774431456E+02  0.47000000000E+01 0. -1.
         -5    1    3    3    0  501 -0.46274729017E+02 -0.38905355024E+02 -0.33525682911E+02  0.69289527418E+02  0.47000000000E+01 0. -1.
          5    1    4    4  502    0  0.51540090860E+01 -0.57325932775E+02 -0.18540072911E+03  0.19418637113E+03  0.47000000000E+01 0.  1.
         -5    1    4    4    0  502 -0.10156436077E+02  0.63822958877E+02 -0.32077544826E+03  0.32725449039E+03  0.47000000000E+01 0.  1.
<mgrwt>
<rscale>  0 0.30773418E+03</rscale>
<asrwt>0</asrwt>
<pdfrwt beam="1">  1       21 0.56028249E-02 0.30773418E+03</pdfrwt>
<pdfrwt beam="2">  1       21 0.10001329E+00 0.30773418E+03</pdfrwt>
<totfact> 0.17560507E+05</totfact>
</mgrwt>
</event>
<event>
 8    1  0.4760912E-006  0.3257861E+03  0.7546771E-02  0.1073017E+00
         21   -1    0    0  504  503  0.00000000000E+00  0.00000000000E+00  0.85321773884E+03  0.85321773884E+03  0.00000000000E+00 0.  1.
         21   -1    0    0  503  504 -0.00000000000E+00 -0.00000000000E+00 -0.31098914500E+02  0.31098914500E+02  0.00000000000E+00 0.  1.
         25    2    1    2    0    0 -0.61894940864E+02  0.24584840199E+02  0.19269932521E+03  0.23915610361E+03  0.12500885523E+03 0.  0.
         25    2    1    2    0    0  0.61894940864E+02 -0.24584840199E+02  0.62941949913E+03  0.64516054973E+03  0.12501132336E+03 0.  0.
          5    1    3    3  501    0 -0.54050067576E+02  0.42259445215E+02  0.20468236421E+03  0.21592644750E+03  0.47000000000E+01 0. -1.
         -5    1    3    3    0  501 -0.78448732876E+01 -0.17674605016E+02 -0.11983038994E+02  0.23229656109E+02  0.47000000000E+01 0. -1.
          5    1    4    4  502    0  0.47907657092E+02 -0.17047737970E+02  0.76416716588E+02  0.91909594450E+02  0.47000000000E+01 0. -1.
         -5    1    4    4    0  502  0.13987283772E+02 -0.75371022287E+01  0.55300278254E+03  0.55325095528E+03  0.47000000000E+01 0. -1.
<mgrwt>
<rscale>  0 0.32578610E+03</rscale>
<asrwt>0</asrwt>
<pdfrwt beam="1">  1       21 0.13126425E+00 0.32578610E+03</pdfrwt>
<pdfrwt beam="2">  1       21 0.47844490E-02 0.32578610E+03</pdfrwt>
<totfact> 0.11656037E+05</totfact>
</mgrwt>
</event>
<event>
 8    1  0.4760912E-006  0.3932024E+03  0.7546771E-02  0.1046159E+00
         21   -1    0    0  504  503  0.00000000000E+00  0.00000000000E+00  0.92806226416E+03  0.92806226416E+03  0.00000000000E+00 0. -1.
         21   -1    0    0  503  504 -0.00000000000E+00 -0.00000000000E+00 -0.41648109796E+02  0.41648109796E+02  0.00000000000E+00 0. -1.
         25    2    1    2    0    0 -0.11671037381E+03 -0.96884831921E+02  0.43221481818E+03  0.47481053941E+03  0.12500966869E+03 0.  0.
         25    2    1    2    0    0  0.11671037381E+03  0.96884831921E+02  0.45419933618E+03  0.49489983454E+03  0.12498330783E+03 0.  0.
          5    1    3    3  501    0 -0.36734305987E+02 -0.52945239107E+02  0.33586781530E+03  0.34202614949E+03  0.47000000000E+01 0.  1.
         -5    1    3    3    0  501 -0.79976067825E+02 -0.43939592814E+02  0.96347002880E+02  0.13278438992E+03  0.47000000000E+01 0.  1.
          5    1    4    4  502    0  0.41561270909E+01 -0.27654838960E+02  0.57181241015E+02  0.63826701578E+02  0.47000000000E+01 0.  1.
         -5    1    4    4    0  502  0.11255424672E+03  0.12453967088E+03  0.39701809516E+03  0.43107313296E+03  0.47000000000E+01 0.  1.
<mgrwt>
<rscale>  0 0.39320244E+03</rscale>
<asrwt>0</asrwt>
<pdfrwt beam="1">  1       21 0.14277879E+00 0.39320244E+03</pdfrwt>
<pdfrwt beam="2">  1       21 0.64074022E-02 0.39320244E+03</pdfrwt>
<totfact> 0.55414261E+04</totfact>
</mgrwt>
</event>
<event>
 8    1  0.4760912E-006  0.3790132E+03  0.7546771E-02  0.1051299E+00
         21   -1    0    0  504  503  0.00000000000E+00  0.00000000000E+00  0.10056021792E+03  0.10056021792E+03  0.00000000000E+00 0. -1.
         21   -1    0    0  503  504 -0.00000000000E+00 -0.00000000000E+00 -0.35712676922E+03  0.35712676922E+03  0.00000000000E+00 0. -1.
         25    2    1    2    0    0  0.13777545091E+03  0.22543696699E+02 -0.16238546614E+03  0.24795970792E+03  0.12499873602E+03 0.  0.
         25    2    1    2    0    0 -0.13777545091E+03 -0.22543696699E+02 -0.94181085165E+02  0.20972727922E+03  0.12500064685E+03 0.  0.
          5    1    3    3  501    0  0.84898967762E+02 -0.14091246459E+02 -0.16195302262E+03  0.18345917663E+03  0.47000000000E+01 0.  1.
         -5    1    3    3    0  501  0.52876483146E+02  0.36634943158E+02 -0.43244352423E+00  0.64500531296E+02  0.47000000000E+01 0.  1.
          5    1    4    4  502    0 -0.11978142710E+03  0.36514444446E+02 -0.67115339681E+02  0.14215292383E+03  0.47000000000E+01 0. -1.
         -5    1    4    4    0  502 -0.17994023805E+02 -0.59058141145E+02 -0.27065745485E+02  0.67574355393E+02  0.47000000000E+01 0. -1.
<mgrwt>
<rscale>  0 0.37901317E+03</rscale>
<asrwt>0</asrwt>
<pdfrwt beam="1">  1       21 0.15470803E-01 0.37901317E+03</pdfrwt>
<pdfrwt beam="2">  1       21 0.54942579E-01 0.37901317E+03</pdfrwt>
<totfact> 0.10979520E+05</totfact>
</mgrwt>
</event>
<event>
 8    1  0.4760912E-006  0.2987000E+03  0.7546771E-02  0.1085892E+00
         21   -1    0    0  504  503  0.00000000000E+00  0.00000000000E+00  0.15425391303E+03  0.15425391303E+03  0.00000000000E+00 0.  1.
         21   -1    0    0  503  504 -0.00000000000E+00 -0.00000000000E+00 -0.14460194693E+03  0.14460194693E+03  0.00000000000E+00 0.  1.
         25    2    1    2    0    0 -0.65784567559E+02  0.37299628162E+02 -0.26193426918E+02  0.14842635308E+03  0.12500166033E+03 0.  0.
         25    2    1    2    0    0  0.65784567559E+02 -0.37299628162E+02  0.35845393013E+02  0.15042950688E+03  0.12500109099E+03 0.  0.
          5    1    3    3  501    0  0.68655066690E+01  0.48406695865E+02 -0.50914000941E+02  0.70743684370E+02  0.47000000000E+01 0.  1.
         -5    1    3    3    0  501 -0.72650074228E+02 -0.11107067703E+02  0.24720574023E+02  0.77682668712E+02  0.47000000000E+01 0.  1.
          5    1    4    4  502    0  0.81905110175E+02  0.21188867738E+02  0.27056221641E+02  0.88946862330E+02  0.47000000000E+01 0.  1.
         -5    1    4    4    0  502 -0.16120542617E+02 -0.58488495900E+02  0.87891713728E+01  0.61482644545E+02  0.47000000000E+01 0.  1.
<mgrwt>
<rscale>  0 0.29869996E+03</rscale>
<asrwt>0</asrwt>
<pdfrwt beam="1">  1       21 0.23731371E-01 0.29869996E+03</pdfrwt>
<pdfrwt beam="2">  1       21 0.22246453E-01 0.29869996E+03</pdfrwt>
<totfact> 0.30862200E+05</totfact>
</mgrwt>
</event>
<event>
 8    1  0.4760912E-006  0.4453178E+03  0.7546771E-02  0.1029128E+00
         21   -1    0    0  504  503  0.00000000000E+00  0.00000000000E+00  0.26071794133E+03  0.26071794133E+03  0.00000000000E+00 0. -1.
         21   -1    0    0  503  504 -0.00000000000E+00 -0.00000000000E+00 -0.19015559895E+03  0.19015559895E+03  0.00000000000E+00 0. -1.
         25    2    1    2    0    0 -0.12099727929E+03 -0.39308010377E+02  0.17023726957E+03  0.24655591949E+03  0.12499452873E+03 0.  0.
         25    2    1    2    0    0  0.12099727929E+03  0.39308010377E+02 -0.99674927187E+02  0.20431762079E+03  0.12500055112E+03 0.  0.
          5    1    3    3  501    0 -0.13589237704E+03 -0.62905983424E+02  0.13843406237E+03  0.20398524582E+03  0.47000000000E+01 0.  1.
         -5    1    3    3    0  501  0.14895097750E+02  0.23597973047E+02  0.31803207199E+02  0.42570673674E+02  0.47000000000E+01 0.  1.
          5    1    4    4  502    0  0.13968835195E+02 -0.16298691875E+02 -0.78820206566E+02  0.81825978006E+02  0.47000000000E+01 0. -1.
         -5    1    4    4    0  502  0.10702844409E+03  0.55606702251E+02 -0.20854720621E+02  0.12249164278E+03  0.47000000000E+01 0. -1.
<mgrwt>
<rscale>  0 0.44531776E+03</rscale>
<asrwt>0</asrwt>
<pdfrwt beam="1">  1       21 0.40110453E-01 0.44531776E+03</pdfrwt>
<pdfrwt beam="2">  1       21 0.29254707E-01 0.44531776E+03</pdfrwt>
<totfact> 0.62060188E+04</totfact>
</mgrwt>
</event>
<event>
 8    1  0.4760912E-006  0.2647292E+03  0.7546771E-02  0.1104335E+00
         21   -1    0    0  504  503  0.00000000000E+00  0.00000000000E+00  0.25775312644E+03  0.25775312644E+03  0.00000000000E+00 0.  1.
         21   -1    0    0  503  504 -0.00000000000E+00 -0.00000000000E+00 -0.67973537808E+02  0.67973537808E+02  0.00000000000E+00 0.  1.
         25    2    1    2    0    0  0.27335055717E+02 -0.30114081465E+02  0.11403945134E+03  0.17402004544E+03  0.12499566623E+03 0.  0.
         25    2    1    2    0    0 -0.27335055717E+02  0.30114081465E+02  0.75740137283E+02  0.15170661881E+03  0.12499706645E+03 0.  0.
          5    1    3    3  501    0 -0.19208494665E+02 -0.65084154927E+02  0.84778123284E+02  0.10869376099E+03  0.47000000000E+01 0. -1.
         -5    1    3    3    0  501  0.46543550382E+02  0.34970073461E+02  0.29261328060E+02  0.65326284449E+02  0.47000000000E+01 0. -1.
          5    1    4    4  502    0 -0.14097720752E+02  0.79082944986E+02  0.44637865759E+02  0.92018949013E+02  0.47000000000E+01 0. -1.
         -5    1    4    4    0  502 -0.13237334965E+02 -0.48968863520E+02  0.31102271524E+02  0.59687669794E+02  0.47000000000E+01 0. -1.
<mgrwt>
<rscale>  0 0.26472923E+03</rscale>
<asrwt>0</asrwt>
<pdfrwt beam="1">  1       21 0.39654327E-01 0.26472923E+03</pdfrwt>
<pdfrwt beam="2">  1       21 0.10457467E-01 0.26472923E+03</pdfrwt>
<totfact> 0.45283353E+05</totfact>
</mgrwt>
</event>
<event>
 8    1  0.4760912E-006  0.2718825E+03  0.7546771E-02  0.1100207E+00
         21   -1    0    0  504  503  0.00000000000E+00  0.00000000000E+00  0.11786334211E+04  0.11786334211E+04  0.00000000000E+00 0.  1.
         21   -1    0    0  503  504 -0.00000000000E+00 -0.00000000000E+00 -0.15679191791E+02  0.15679191791E+02  0.00000000000E+00 0.  1.
         25    2    1    2    0    0 -0.57234215472E+01  0.49671774940E+02  0.49862143644E+03  0.51647578034E+03  0.12499540799E+03 0.  0.
         25    2    1    2    0    0  0.57234215472E+01 -0.49671774940E+02  0.66433279289E+03  0.67783683257E+03  0.12499867642E+03 0.  0.
          5    1    3    3  501    0  0.11357084768E+01  0.16999519290E+02  0.47495704545E+03  0.47528576510E+03  0.47000000000E+01 0. -1.
         -5    1    3    3    0  501 -0.68591300240E+01  0.32672255650E+02  0.23664390992E+02  0.41190015234E+02  0.47000000000E+01 0. -1.
          5    1    4    4  502    0 -0.37822569344E+02 -0.64704659870E+02  0.25311466365E+03  0.26401962563E+03  0.47000000000E+01 0. -1.
         -5    1    4    4    0  502  0.43545990891E+02  0.15032884930E+02  0.41121812923E+03  0.41381720694E+03  0.47000000000E+01 0. -1.
<mgrwt>
<rscale>  0 0.27188247E+03</rscale>
<asrwt>0</asrwt>
<pdfrwt beam="1">  1       21 0.18132815E+00 0.27188247E+03</pdfrwt>
<pdfrwt beam="2">  1       21 0.24121843E-02 0.27188247E+03</pdfrwt>
<totfact> 0.15603437E+05</totfact>
</mgrwt>
</event>
<event>
 8    1  0.4760912E-006  0.2691239E+03  0.7546771E-02  0.1101782E+00
         21   -1    0    0  504  503  0.00000000000E+00  0.00000000000E+00  0.40333286953E+03  0.40333286953E+03  0.00000000000E+00 0.  1.
         21   -1    0    0  503  504 -0.00000000000E+00 -0.00000000000E+00 -0.44893232048E+02  0.44893232048E+02  0.00000000000E+00 0.  1.
         25    2    1    2    0    0 -0.47417333712E+02 -0.15201949808E+02  0.18164223686E+03  0.22605020156E+03  0.12500115440E+03 0.  0.
         25    2    1    2    0    0  0.47417333712E+02  0.15201949808E+02  0.17679740062E+03  0.22217590001E+03  0.12500122746E+03 0.  0.
          5    1    3    3  501    0 -0.79265706833E+02 -0.39607697567E+02  0.15176983268E+03  0.17580669526E+03  0.47000000000E+01 0. -1.
         -5    1    3    3    0  501  0.31848373121E+02  0.24405747759E+02  0.29872404179E+02  0.50243506303E+02  0.47000000000E+01 0. -1.
          5    1    4    4  502    0  0.51344977507E+00  0.62690508745E+02  0.56522867521E+02  0.84541635128E+02  0.47000000000E+01 0. -1.
         -5    1    4    4    0  502  0.46903883937E+02 -0.47488558937E+02  0.12027453310E+03  0.13763426489E+03  0.47000000000E+01 0. -1.
<mgrwt>
<rscale>  0 0.26912388E+03</rscale>
<asrwt>0</asrwt>
<pdfrwt beam="1">  1       21 0.62051208E-01 0.26912388E+03</pdfrwt>
<pdfrwt beam="2">  1       21 0.69066513E-02 0.26912388E+03</pdfrwt>
<totfact> 0.36653171E+05</totfact>
</mgrwt>
</event>
<event>
 8    1  0.4760912E-006  0.3015806E+03  0.7546771E-02  0.1084453E+00
         21   -1    0    0  504  503  0.00000000000E+00  0.00000000000E+00  0.14424791582E+03  0.14424791582E+03  0.00000000000E+00 0. -1.
         21   -1    0    0  503  504 -0.00000000000E+00 -0.00000000000E+00 -0.15762937820E+03  0.15762937820E+03  0.00000000000E+00 0. -1.
         25    2    1    2    0    0  0.15000909361E+02  0.47294925153E+02 -0.74968441416E+02  0.15396367111E+03  0.12499083001E+03 0.  0.
         25    2    1    2    0    0 -0.15000909361E+02 -0.47294925153E+02  0.61586979038E+02  0.14791362291E+03  0.12499458639E+03 0.  0.
          5    1    3    3  501    0  0.61253627369E+02  0.12026414545E+02 -0.49194542277E+01  0.62792774605E+02  0.47000000000E+01 0. -1.
         -5    1    3    3    0  501 -0.46252718008E+02  0.35268510608E+02 -0.70048987188E+02  0.91170896506E+02  0.47000000000E+01 0. -1.
          5    1    4    4  502    0 -0.55966822941E+02 -0.63335412220E+02  0.59781816807E+02  0.10363211535E+03  0.47000000000E+01 0.  1.
         -5    1    4    4    0  502  0.40965913580E+02  0.16040487067E+02  0.18051622310E+01  0.44281507556E+02  0.47000000000E+01 0.  1.
<mgrwt>
<rscale>  0 0.30158056E+03</rscale>
<asrwt>0</asrwt>
<pdfrwt beam="1">  1       21 0.22191987E-01 0.30158056E+03</pdfrwt>
<pdfrwt beam="2">  1       21 0.24250674E-01 0.30158056E+03</pdfrwt>
<totfact> 0.29727552E+05</totfact>
</mgrwt>
</event>
<event>
 8    1  0.4760912E-006  0.2883343E+03  0.7546771E-02  0.1091222E+00
         21   -1    0    0  504  503  0.00000000000E+00  0.00000000000E+00  0.11208472252E+02  0.11208472252E+02  0.00000000000E+00 0.  1.
         21   -1    0    0  503  504 -0.00000000000E+00 -0.00000000000E+00 -0.18543268210E+04  0.18543268210E+04  0.00000000000E+00 0.  1.
         25    2    1    2    0    0 -0.21839100971E+00  0.43720557059E+02 -0.55287581047E+03  0.56851393449E+03  0.12499958841E+03 0.  0.
         25    2    1    2    0    0  0.21839100971E+00 -0.43720557059E+02 -0.12902425383E+04  0.12970213588E+04  0.12500825052E+03 0.  0.
          5    1    3    3  501    0  0.19781375433E+02  0.51821980014E+02 -0.95020434203E+02  0.11012626091E+03  0.47000000000E+01 0.  1.
         -5    1    3    3    0  501 -0.19999766443E+02 -0.81014229546E+01 -0.45785537626E+03  0.45838767357E+03  0.47000000000E+01 0.  1.
          5    1    4    4  502    0 -0.55940758566E+01 -0.47504138240E+02 -0.16780134722E+03  0.17454890135E+03  0.47000000000E+01 0. -1.
         -5    1    4    4    0  502  0.58124668664E+01  0.37835811812E+01 -0.11224411911E+04  0.11224724574E+04  0.47000000000E+01 0. -1.
<mgrwt>
<rscale>  0 0.28833432E+03</rscale>
<asrwt>0</asrwt>
<pdfrwt beam="1">  1       21 0.17243802E-02 0.28833432E+03</pdfrwt>
<pdfrwt beam="2">  1       21 0.28528107E+00 0.28833432E+03</pdfrwt>
<totfact> 0.60790525E+04</totfact>
</mgrwt>
</event>
<event>
 8    1  0.4760912E-006  0.2902355E+03  0.7546771E-02  0.1090226E+00
         21   -1    0    0  504  503  0.00000000000E+00  0.00000000000E+00  0.19714542975E+03  0.19714542975E+03  0.00000000000E+00 0.  1.
         21   -1    0    0  503  504 -0.00000000000E+00 -0.00000000000E+00 -0.10682047427E+03  0.10682047427E+03  0.00000000000E+00 0.  1.
         25    2    1    2    0    0  0.42798865047E+02 -0.59447744219E+02  0.53908072022E+02  0.15458480363E+03  0.12499841656E+03 0.  0.
         25    2    1    2    0    0 -0.42798865047E+02  0.59447744219E+02  0.36416883454E+02  0.14938110038E+03  0.12499098611E+03 0.  0.
          5    1    3    3  501    0  0.69848003437E+02 -0.69410290191E+02  0.63660925608E+01  0.98788405712E+02  0.47000000000E+01 0. -1.
         -5    1    3    3    0  501 -0.27049138390E+02  0.99625459726E+01  0.47541979461E+02  0.55796397921E+02  0.47000000000E+01 0. -1.
          5    1    4    4  502    0  0.45111916188E+01  0.19575587980E+02  0.74010181975E+02  0.76831969456E+02  0.47000000000E+01 0.  1.
         -5    1    4    4    0  502 -0.47310056666E+02  0.39872156238E+02 -0.37593298521E+02  0.72549130929E+02  0.47000000000E+01 0.  1.
<mgrwt>
<rscale>  0 0.29023555E+03</rscale>
<asrwt>0</asrwt>
<pdfrwt beam="1">  1       21 0.30330066E-01 0.29023555E+03</pdfrwt>
<pdfrwt beam="2">  1       21 0.16433919E-01 0.29023555E+03</pdfrwt>
<totfact> 0.33889578E+05</totfact>
</mgrwt>
</event>
<event>
 8    1  0.4760912E-006  0.3875205E+03  0.7546771E-02  0.1048189E+00
         21   -1    0    0  504  503  0.00000000000E+00  0.00000000000E+00  0.16725110236E+03  0.16725110236E+03  0.00000000000E+00 0.  1.
         21   -1    0    0  503  504 -0.00000000000E+00 -0.00000000000E+00 -0.22447102739E+03  0.22447102739E+03  0.00000000000E+00 0.  1.
         25    2    1    2    0    0 -0.62965921951E+02 -0.26083410999E+02  0.10425610571E+03  0.17646495842E+03  0.12500197725E+03 0.  0.
         25    2    1    2    0    0  0.62965921951E+02  0.26083410999E+02 -0.16147603074E+03  0.21525717133E+03  0.12496435352E+03 0.  0.
          5    1    3    3  501    0  0.29909543746E+02 -0.23647099699E+02  0.64981037298E+02  0.75487689987E+02  0.47000000000E+01 0.  1.
         -5    1    3    3    0  501 -0.92875465697E+02 -0.24363113001E+01  0.39275068414E+02  0.10097726843E+03  0.47000000000E+01 0.  1.
          5    1    4    4  502    0 -0.13535222465E+02 -0.88489656165E+01  0.13157877789E+02  0.21371153165E+02  0.47000000000E+01 0.  1.
         -5    1    4    4    0  502  0.76501144417E+02  0.34932376616E+02 -0.17463390853E+03  0.19388601817E+03  0.47000000000E+01 0.  1.
<mgrwt>
<rscale>  0 0.38752046E+03</rscale>
<asrwt>0</asrwt>
<pdfrwt beam="1">  1       21 0.25730939E-01 0.38752046E+03</pdfrwt>
<pdfrwt beam="2">  1       21 0.34534004E-01 0.38752046E+03</pdfrwt>
<totfact> 0.10960964E+05</totfact>
</mgrwt>
</event>
<event>
 8    1  0.4760912E-006  0.3527243E+03  0.7546771E-02  0.1061502E+00
         21   -1    0    0  504  503  0.00000000000E+00  0.00000000000E+00  0.34265002580E+03  0.34265002580E+03  0.00000000000E+00 0.  1.
         21   -1    0    0  503  504 -0.00000000000E+00 -0.00000000000E+00 -0.90773666705E+02  0.90773666705E+02  0.00000000000E+00 0.  1.
         25    2    1    2    0    0 -0.74161710617E+02  0.98075161955E+02  0.10261981033E+03  0.20316080817E+03  0.12499916716E+03 0.  0.
         25    2    1    2    0    0  0.74161710617E+02 -0.98075161955E+02  0.14925654876E+03  0.23026288433E+03  0.12499912735E+03 0.  0.
          5    1    3    3  501    0  0.50451079020E+00  0.74626589172E+02  0.99802351484E+02  0.12470758479E+03  0.47000000000E+01 0.  1.
         -5    1    3    3    0  501 -0.74666221407E+02  0.23448572783E+02  0.28174588457E+01  0.78453223382E+02  0.47000000000E+01 0.  1.
          5    1    4    4  502    0 -0.10134612331E+02 -0.86024233900E+02  0.97499274057E+02  0.13050317095E+03  0.47000000000E+01 0.  1.
         -5    1    4    4    0  502  0.84296322947E+02 -0.12050928055E+02  0.51757274706E+02  0.99759713384E+02  0.47000000000E+01 0.  1.
<mgrwt>
<rscale>  0 0.35272425E+03</rscale>
<asrwt>0</asrwt>
<pdfrwt beam="1">  1       21 0.52715388E-01 0.35272425E+03</pdfrwt>
<pdfrwt beam="2">  1       21 0.13965180E-01 0.35272425E+03</pdfrwt>
<totfact> 0.14572004E+05</totfact>
</mgrwt>
</event>
<event>
 8    1  0.4760912E-006  0.3033270E+03  0.7546771E-02  0.1083589E+00
         21   -1    0    0  504  503  0.00000000000E+00  0.00000000000E+00  0.36754054049E+02  0.36754054049E+02  0.00000000000E+00 0. -1.
         21   -1    0    0  503  504 -0.00000000000E+00 -0.00000000000E+00 -0.62583090409E+03  0.62583090409E+03  0.00000000000E+00 0. -1.
         25    2    1    2    0    0  0.77285422858E+02 -0.11821386529E+02 -0.37236951494E+03  0.40047943467E+03  0.12494774977E+03 0.  0.
         25    2    1    2    0    0 -0.77285422858E+02  0.11821386529E+02 -0.21670733510E+03  0.26210552346E+03  0.12499781830E+03 0.  0.
          5    1    3    3  501    0  0.58833640245E+02 -0.63930741244E+02 -0.17464865535E+03  0.19512247363E+03  0.47000000000E+01 0.  1.
         -5    1    3    3    0  501  0.18451782614E+02  0.52109354714E+02 -0.19772085960E+03  0.20535696105E+03  0.47000000000E+01 0.  1.
          5    1    4    4  502    0 -0.58880135802E+02  0.57148058999E+02 -0.71947400351E+02  0.10923044199E+03  0.47000000000E+01 0. -1.
         -5    1    4    4    0  502 -0.18405287056E+02 -0.45326672469E+02 -0.14475993474E+03  0.15287508147E+03  0.47000000000E+01 0. -1.
<mgrwt>
<rscale>  0 0.30332704E+03</rscale>
<asrwt>0</asrwt>
<pdfrwt beam="1">  1       21 0.56544704E-02 0.30332704E+03</pdfrwt>
<pdfrwt beam="2">  1       21 0.96281668E-01 0.30332704E+03</pdfrwt>
<totfact> 0.18949913E+05</totfact>
</mgrwt>
</event>
<event>
 8    1  0.4760912E-006  0.2909887E+03  0.7546771E-02  0.1089834E+00
         21   -1    0    0  504  503  0.00000000000E+00  0.00000000000E+00  0.14305242840E+03  0.14305242840E+03  0.00000000000E+00 0. -1.
         21   -1    0    0  503  504 -0.00000000000E+00 -0.00000000000E+00 -0.14797794053E+03  0.14797794053E+03  0.00000000000E+00 0. -1.
         25    2    1    2    0    0 -0.53682832999E+01 -0.51931304671E+02  0.50628586039E+02  0.14461553737E+03  0.12499888421E+03 0.  0.
         25    2    1    2    0    0  0.53682832999E+01  0.51931304671E+02 -0.55554098172E+02  0.14641483156E+03  0.12500146482E+03 0.  0.
          5    1    3    3  501    0  0.55313638290E+02 -0.49771381092E+02  0.28403569867E+02  0.79784971880E+02  0.47000000000E+01 0. -1.
         -5    1    3    3    0  501 -0.60681921590E+02 -0.21599235788E+01  0.22225016172E+02  0.64830565488E+02  0.47000000000E+01 0. -1.
          5    1    4    4  502    0  0.49009133805E+02 -0.18127547208E+02 -0.26558589865E+02  0.58804352387E+02  0.47000000000E+01 0.  1.
         -5    1    4    4    0  502 -0.43640850505E+02  0.70058851879E+02 -0.28995508308E+02  0.87610479176E+02  0.47000000000E+01 0.  1.
<mgrwt>
<rscale>  0 0.29098869E+03</rscale>
<asrwt>0</asrwt>
<pdfrwt beam="1">  1       21 0.22008066E-01 0.29098869E+03</pdfrwt>
<pdfrwt beam="2">  1       21 0.22765837E-01 0.29098869E+03</pdfrwt>
<totfact> 0.34158659E+05</totfact>
</mgrwt>
</event>
<event>
 8    1  0.4760912E-006  0.3017656E+03  0.7546771E-02  0.1084361E+00
         21   -1    0    0  504  503  0.00000000000E+00  0.00000000000E+00  0.35409065314E+03  0.35409065314E+03  0.00000000000E+00 0.  1.
         21   -1    0    0  503  504 -0.00000000000E+00 -0.00000000000E+00 -0.64293188305E+02  0.64293188305E+02  0.00000000000E+00 0.  1.
         25    2    1    2    0    0 -0.54752710155E+02  0.48638659756E+02  0.20333695654E+03  0.24967418057E+03  0.12501079974E+03 0.  0.
         25    2    1    2    0    0  0.54752710155E+02 -0.48638659756E+02  0.86460508295E+02  0.16870966088E+03  0.12499580668E+03 0.  0.
          5    1    3    3  501    0  0.40194145672E+02  0.82457352335E+01  0.65458085512E+02  0.77397754843E+02  0.47000000000E+01 0. -1.
         -5    1    3    3    0  501 -0.94946855828E+02  0.40392924523E+02  0.13787887103E+03  0.17227642572E+03  0.47000000000E+01 0. -1.
          5    1    4    4  502    0 -0.31125566428E+02 -0.30185602058E+02  0.64814195884E+02  0.78121325162E+02  0.47000000000E+01 0. -1.
         -5    1    4    4    0  502  0.85878276583E+02 -0.18453057699E+02  0.21646312411E+02  0.90588335719E+02  0.47000000000E+01 0. -1.
<mgrwt>
<rscale>  0 0.30176558E+03</rscale>
<asrwt>0</asrwt>
<pdfrwt beam="1">  1       21 0.54475484E-01 0.30176558E+03</pdfrwt>
<pdfrwt beam="2">  1       21 0.98912600E-02 0.30176558E+03</pdfrwt>
<totfact> 0.25621375E+05</totfact>
</mgrwt>
</event>
<event>
 8    1  0.4760912E-006  0.5684930E+03  0.7546771E-02  0.9973019E-01
         21   -1    0    0  504  503  0.00000000000E+00  0.00000000000E+00  0.76692981554E+02  0.76692981554E+02  0.00000000000E+00 0.  1.
         21   -1    0    0  503  504 -0.00000000000E+00 -0.00000000000E+00 -0.10535003501E+04  0.10535003501E+04  0.00000000000E+00 0.  1.
         25    2    1    2    0    0  0.24729132749E+03  0.61541733192E+02 -0.45756227317E+03  0.53843083779E+03  0.12491656287E+03 0.  0.
         25    2    1    2    0    0 -0.24729132749E+03 -0.61541733192E+02 -0.51924509534E+03  0.59176249383E+03  0.12500797773E+03 0.  0.
          5    1    3    3  501    0  0.66105218084E+02  0.66730695830E+01 -0.24433948227E+03  0.25325540925E+03  0.47000000000E+01 0.  1.
         -5    1    3    3    0  501  0.18118610940E+03  0.54868663609E+02 -0.21322279090E+03  0.28517542854E+03  0.47000000000E+01 0.  1.
          5    1    4    4  502    0 -0.16263279771E+03 -0.73412631520E+02 -0.23624758779E+03  0.29609771038E+03  0.47000000000E+01 0.  1.
         -5    1    4    4    0  502 -0.84658529777E+02  0.11870898327E+02 -0.28299750756E+03  0.29566478345E+03  0.47000000000E+01 0.  1.
<mgrwt>
<rscale>  0 0.56849304E+03</rscale>
<asrwt>0</asrwt>
<pdfrwt beam="1">  1       21 0.11798920E-01 0.56849304E+03</pdfrwt>
<pdfrwt beam="2">  1       21 0.16207698E+00 0.56849304E+03</pdfrwt>
<totfact> 0.12574692E+04</totfact>
</mgrwt>
</event>
<event>
 8    1  0.4760912E-006  0.2747323E+03  0.7546771E-02  0.1098601E+00
         21   -1    0    0  504  503  0.00000000000E+00  0.00000000000E+00  0.46000150648E+02  0.46000150648E+02  0.00000000000E+00 0. -1.
         21   -1    0    0  503  504 -0.00000000000E+00 -0.00000000000E+00 -0.41020443153E+03  0.41020443153E+03  0.00000000000E+00 0. -1.
         25    2    1    2    0    0 -0.39621867848E+02 -0.40913894789E+02 -0.17844759112E+03  0.22518902620E+03  0.12499086185E+03 0.  0.
         25    2    1    2    0    0  0.39621867848E+02  0.40913894789E+02 -0.18575668976E+03  0.23101555598E+03  0.12497519800E+03 0.  0.
          5    1    3    3  501    0 -0.46527599230E+02 -0.43201963201E+01 -0.44329694777E+01  0.47172267327E+02  0.47000000000E+01 0.  1.
         -5    1    3    3    0  501  0.69057313825E+01 -0.36593698469E+02 -0.17401462164E+03  0.17801675887E+03  0.47000000000E+01 0.  1.
          5    1    4    4  502    0 -0.29675012083E+02  0.57718465574E+02 -0.10110436843E+03  0.12023398408E+03  0.47000000000E+01 0.  1.
         -5    1    4    4    0  502  0.69296879931E+02 -0.16804570785E+02 -0.84652321328E+02  0.11078157190E+03  0.47000000000E+01 0.  1.
<mgrwt>
<rscale>  0 0.27473235E+03</rscale>
<asrwt>0</asrwt>
<pdfrwt beam="1">  1       21 0.70769461E-02 0.27473235E+03</pdfrwt>
<pdfrwt beam="2">  1       21 0.63108376E-01 0.27473235E+03</pdfrwt>
<totfact> 0.33821708E+05</totfact>
</mgrwt>
</event>
<event>
 8    1  0.4760912E-006  0.3611269E+03  0.7546771E-02  0.1058139E+00
         21   -1    0    0  504  503  0.00000000000E+00  0.00000000000E+00  0.84630901721E+02  0.84630901721E+02  0.00000000000E+00 0.  1.
         21   -1    0    0  503  504 -0.00000000000E+00 -0.00000000000E+00 -0.38523937265E+03  0.38523937265E+03  0.00000000000E+00 0.  1.
         25    2    1    2    0    0  0.38702170787E+02  0.10748857757E+03 -0.23180601868E+03  0.28708462514E+03  0.12502759441E+03 0.  0.
         25    2    1    2    0    0 -0.38702170787E+02 -0.10748857757E+03 -0.68802452253E+02  0.18278564924E+03  0.12500065519E+03 0.  0.
          5    1    3    3  501    0  0.81626691270E+02  0.61724567922E+02 -0.17245920070E+03  0.20059188648E+03  0.47000000000E+01 0. -1.
         -5    1    3    3    0  501 -0.42924520484E+02  0.45764009646E+02 -0.59346817978E+02  0.86492738665E+02  0.47000000000E+01 0. -1.
          5    1    4    4  502    0 -0.28788110000E+02  0.22039066636E+02 -0.19501959176E+01  0.36611050240E+02  0.47000000000E+01 0.  1.
         -5    1    4    4    0  502 -0.99140607871E+01 -0.12952764420E+03 -0.66852256336E+02  0.14617459900E+03  0.47000000000E+01 0.  1.
<mgrwt>
<rscale>  0 0.36112688E+03</rscale>
<asrwt>0</asrwt>
<pdfrwt beam="1">  1       21 0.13020139E-01 0.36112688E+03</pdfrwt>
<pdfrwt beam="2">  1       21 0.59267597E-01 0.36112688E+03</pdfrwt>
<totfact> 0.12848798E+05</totfact>
</mgrwt>
</event>
<event>
 8    1  0.4760912E-006  0.3417568E+03  0.7546771E-02  0.1066050E+00
         21   -1    0    0  504  503  0.00000000000E+00  0.00000000000E+00  0.50091201253E+02  0.50091201253E+02  0.00000000000E+00 0. -1.
         21   -1    0    0  503  504 -0.00000000000E+00 -0.00000000000E+00 -0.58292530246E+03  0.58292530246E+03  0.00000000000E+00 0. -1.
         25    2    1    2    0    0 -0.11446927110E+03 -0.67299619250E+01 -0.22818544886E+03  0.28432763640E+03  0.12500039735E+03 0.  0.
         25    2    1    2    0    0  0.11446927110E+03  0.67299619250E+01 -0.30464865235E+03  0.34868886731E+03  0.12499847357E+03 0.  0.
          5    1    3    3  501    0  0.13366571483E+02  0.30069848330E+02 -0.70695516933E+02  0.78120465477E+02  0.47000000000E+01 0.  1.
         -5    1    3    3    0  501 -0.12783584258E+03 -0.36799810255E+02 -0.15748993192E+03  0.20620717092E+03  0.47000000000E+01 0.  1.
          5    1    4    4  502    0  0.45362535848E+02  0.50869175036E+00 -0.26446554800E+03  0.26836939934E+03  0.47000000000E+01 0.  1.
         -5    1    4    4    0  502  0.69106735249E+02  0.62212701747E+01 -0.40183104350E+02  0.80319467968E+02  0.47000000000E+01 0.  1.
<mgrwt>
<rscale>  0 0.34175681E+03</rscale>
<asrwt>0</asrwt>
<pdfrwt beam="1">  1       21 0.77063387E-02 0.34175681E+03</pdfrwt>
<pdfrwt beam="2">  1       21 0.89680816E-01 0.34175681E+03</pdfrwt>
<totfact> 0.12954759E+05</totfact>
</mgrwt>
</event>
<event>
 8    1  0.4760912E-006  0.3428651E+03  0.7546771E-02  0.1065582E+00
         21   -1    0    0  504  503  0.00000000000E+00  0.00000000000E+00  0.12286753928E+03  0.12286753928E+03  0.00000000000E+00 0. -1.
         21   -1    0    0  503  504 -0.00000000000E+00 -0.00000000000E+00 -0.23919351692E+03  0.23919351692E+03  0.00000000000E+00 0. -1.
         25    2    1    2    0    0  0.33500926516E+02  0.20114418020E+02 -0.17498185574E+03  0.21855812950E+03  0.12498841643E+03 0.  0.
         25    2    1    2    0    0 -0.33500926516E+02 -0.20114418020E+02  0.58655878093E+02  0.14350292670E+03  0.12500270416E+03 0.  0.
          5    1    3    3  501    0 -0.79697446034E+01  0.22112714847E+02 -0.17514113970E+03  0.17677386063E+03  0.47000000000E+01 0.  1.
         -5    1    3    3    0  501  0.41470671120E+02 -0.19982968277E+01  0.15928395983E+00  0.41784268867E+02  0.47000000000E+01 0.  1.
          5    1    4    4  502    0 -0.20628276724E+02 -0.57698501566E+01 -0.38518818174E+02  0.44323879850E+02  0.47000000000E+01 0.  1.
         -5    1    4    4    0  502 -0.12872649792E+02 -0.14344567863E+02  0.97174696267E+02  0.99179046852E+02  0.47000000000E+01 0.  1.
<mgrwt>
<rscale>  0 0.34286510E+03</rscale>
<asrwt>0</asrwt>
<pdfrwt beam="1">  1       21 0.18902698E-01 0.34286510E+03</pdfrwt>
<pdfrwt beam="2">  1       21 0.36799003E-01 0.34286510E+03</pdfrwt>
<totfact> 0.17555452E+05</totfact>
</mgrwt>
</event>
<event>
 8    1  0.4760912E-006  0.3860672E+03  0.7546771E-02  0.1048714E+00
         21   -1    0    0  504  503  0.00000000000E+00  0.00000000000E+00  0.88963318214E+02  0.88963318214E+02  0.00000000000E+00 0.  1.
         21   -1    0    0  503  504 -0.00000000000E+00 -0.00000000000E+00 -0.41884648735E+03  0.41884648735E+03  0.00000000000E+00 0.  1.
         25    2    1    2    0    0  0.42897801754E+01  0.10116639983E+03 -0.24602689428E+02  0.16273788959E+03  0.12500114284E+03 0.  0.
         25    2    1    2    0    0 -0.42897801754E+01 -0.10116639983E+03 -0.30528047970E+03  0.34507191597E+03  0.12500165292E+03 0.  0.
          5    1    3    3  501    0 -0.45306672161E+02 -0.52463303986E+00 -0.19013071001E+02  0.49361489554E+02  0.47000000000E+01 0. -1.
         -5    1    3    3    0  501  0.49596452336E+02  0.10169103287E+03 -0.55896184272E+01  0.11337640004E+03  0.47000000000E+01 0. -1.
          5    1    4    4  502    0  0.30835988285E+02 -0.93691931727E+02 -0.28892104728E+03  0.30533014559E+03  0.47000000000E+01 0.  1.
         -5    1    4    4    0  502 -0.35125768460E+02 -0.74744681068E+01 -0.16359432420E+02  0.39741770375E+02  0.47000000000E+01 0.  1.
<mgrwt>
<rscale>  0 0.38606721E+03</rscale>
<asrwt>0</asrwt>
<pdfrwt beam="1">  1       21 0.13686664E-01 0.38606721E+03</pdfrwt>
<pdfrwt beam="2">  1       21 0.64437922E-01 0.38606721E+03</pdfrwt>
<totfact> 0.97076545E+04</totfact>
</mgrwt>
</event>
<event>
 8    1  0.4760912E-006  0.2901342E+03  0.7546771E-02  0.1090279E+00
         21   -1    0    0  504  503  0.00000000000E+00  0.00000000000E+00  0.21756497271E+04  0.21756497271E+04  0.00000000000E+00 0.  1.
         21   -1    0    0  503  504 -0.00000000000E+00 -0.00000000000E+00 -0.96727279540E+01  0.96727279540E+01  0.00000000000E+00 0.  1.
         25    2    1    2    0    0 -0.17954546610E+02  0.52435563836E+02  0.71819989780E+03  0.73109966518E+03  0.12499509237E+03 0.  0.
         25    2    1    2    0    0  0.17954546610E+02 -0.52435563836E+02  0.14477771013E+04  0.14542227899E+04  0.12503412866E+03 0.  0.
          5    1    3    3  501    0 -0.70757728301E+02  0.22917724222E+02  0.34079367767E+03  0.34884709965E+03  0.47000000000E+01 0.  1.
         -5    1    3    3    0  501  0.52803181691E+02  0.29517839614E+02  0.37740622013E+03  0.38225256552E+03  0.47000000000E+01 0.  1.
          5    1    4    4  502    0 -0.49235639510E+02 -0.48510667644E+02  0.74603033046E+03  0.74924013310E+03  0.47000000000E+01 0.  1.
         -5    1    4    4    0  502  0.67190186120E+02 -0.39248961915E+01  0.70174677086E+03  0.70498265676E+03  0.47000000000E+01 0.  1.
<mgrwt>
<rscale>  0 0.29013423E+03</rscale>
<asrwt>0</asrwt>
<pdfrwt beam="1">  1       21 0.33471495E+00 0.29013423E+03</pdfrwt>
<pdfrwt beam="2">  1       21 0.14881137E-02 0.29013423E+03</pdfrwt>
<totfact> 0.39418781E+04</totfact>
</mgrwt>
</event>
<event>
 8    1  0.4760912E-006  0.4842613E+03  0.7546771E-02  0.1017971E+00
         21   -1    0    0  504  503  0.00000000000E+00  0.00000000000E+00  0.80957313654E+03  0.80957313654E+03  0.00000000000E+00 0. -1.
         21   -1    0    0  503  504 -0.00000000000E+00 -0.00000000000E+00 -0.72417474008E+02  0.72417474008E+02  0.00000000000E+00 0. -1.
         25    2    1    2    0    0 -0.78678572128E+02  0.11238893752E+03  0.85361205922E+02  0.20428697310E+03  0.12500016366E+03 0.  0.
         25    2    1    2    0    0  0.78678572128E+02 -0.11238893752E+03  0.65179445661E+03  0.67770363744E+03  0.12499846218E+03 0.  0.
          5    1    3    3  501    0 -0.95295041760E+02  0.12383203980E+03  0.51496993403E+02  0.16458903182E+03  0.47000000000E+01 0.  1.
         -5    1    3    3    0  501  0.16616469632E+02 -0.11443102282E+02  0.33864212519E+02  0.39697941287E+02  0.47000000000E+01 0.  1.
          5    1    4    4  502    0  0.36077768888E+02 -0.19563181934E+01  0.37315306203E+03  0.37492763341E+03  0.47000000000E+01 0.  1.
         -5    1    4    4    0  502  0.42600803240E+02 -0.11043261932E+03  0.27864139457E+03  0.30277600403E+03  0.47000000000E+01 0.  1.
<mgrwt>
<rscale>  0 0.48426126E+03</rscale>
<asrwt>0</asrwt>
<pdfrwt beam="1">  1       21 0.12454971E+00 0.48426126E+03</pdfrwt>
<pdfrwt beam="2">  1       21 0.11141150E-01 0.48426126E+03</pdfrwt>
<totfact> 0.28917744E+04</totfact>
</mgrwt>
</event>
<event>
 8    1  0.4760912E-006  0.3844530E+03  0.7546771E-02  0.1049300E+00
         21   -1    0    0  504  503  0.00000000000E+00  0.00000000000E+00  0.84693121548E+03  0.84693121548E+03  0.00000000000E+00 0.  1.
         21   -1    0    0  503  504 -0.00000000000E+00 -0.00000000000E+00 -0.43629306864E+02  0.43629306864E+02  0.00000000000E+00 0.  1.
         25    2    1    2    0    0 -0.99989536697E+02 -0.29214279130E+02  0.16458387358E+03  0.23144069469E+03  0.12500224863E+03 0.  0.
         25    2    1    2    0    0  0.99989536697E+02  0.29214279130E+02  0.63871803503E+03  0.65911982765E+03  0.12500734928E+03 0.  0.
          5    1    3    3  501    0  0.95144687786E+01 -0.50016773046E+02  0.49823049511E+02  0.71390678415E+02  0.47000000000E+01 0.  1.
         -5    1    3    3    0  501 -0.10950400548E+03  0.20802493916E+02  0.11476082407E+03  0.16005001628E+03  0.47000000000E+01 0.  1.
          5    1    4    4  502    0  0.10467107959E+03 -0.19161985774E+02  0.33570113264E+03  0.35219391968E+03  0.47000000000E+01 0. -1.
         -5    1    4    4    0  502 -0.46815428975E+01  0.48376264904E+02  0.30301690239E+03  0.30692590797E+03  0.47000000000E+01 0. -1.
<mgrwt>
<rscale>  0 0.38445297E+03</rscale>
<asrwt>0</asrwt>
<pdfrwt beam="1">  1       21 0.13029710E+00 0.38445297E+03</pdfrwt>
<pdfrwt beam="2">  1       21 0.67122017E-02 0.38445297E+03</pdfrwt>
<totfact> 0.65100419E+04</totfact>
</mgrwt>
</event>
<event>
 8    1  0.4760912E-006  0.3924429E+03  0.7546771E-02  0.1046428E+00
         21   -1    0    0  504  503  0.00000000000E+00  0.00000000000E+00  0.89980015438E+03  0.89980015438E+03  0.00000000000E+00 0.  1.
         21   -1    0    0  503  504 -0.00000000000E+00 -0.00000000000E+00 -0.42790462497E+02  0.42790462497E+02  0.00000000000E+00 0.  1.
         25    2    1    2    0    0  0.41744561986E+01 -0.13399336598E+03  0.26021865209E+03  0.31829326348E+03  0.12500082586E+03 0.  0.
         25    2    1    2    0    0 -0.41744561986E+01  0.13399336598E+03  0.59679103979E+03  0.62429735340E+03  0.12496396311E+03 0.  0.
          5    1    3    3  501    0 -0.28144405836E+01 -0.12556514967E+03  0.10830016894E+03  0.16590824114E+03  0.47000000000E+01 0.  1.
         -5    1    3    3    0  501  0.69888967822E+01 -0.84282163171E+01  0.15191848315E+03  0.15238502234E+03  0.47000000000E+01 0.  1.
          5    1    4    4  502    0  0.14729071607E+01  0.14210966661E+03  0.59663790657E+03  0.61334835808E+03  0.47000000000E+01 0.  1.
         -5    1    4    4    0  502 -0.56473633593E+01 -0.81163006249E+01  0.15313321726E+00  0.10948995320E+02  0.47000000000E+01 0.  1.
<mgrwt>
<rscale>  0 0.39244294E+03</rscale>
<asrwt>0</asrwt>
<pdfrwt beam="1">  1       21 0.13843078E+00 0.39244294E+03</pdfrwt>
<pdfrwt beam="2">  1       21 0.65831488E-02 0.39244294E+03</pdfrwt>
<totfact> 0.57389666E+04</totfact>
</mgrwt>
</event>
<event>
 8    1  0.4760912E-006  0.2888814E+03  0.7546771E-02  0.1090935E+00
         21   -1    0    0  504  503  0.00000000000E+00  0.00000000000E+00  0.92210551985E+03  0.92210551985E+03  0.00000000000E+00 0. -1.
         21   -1    0    0  503  504 -0.00000000000E+00 -0.00000000000E+00 -0.22625511462E+02  0.22625511462E+02  0.00000000000E+00 0. -1.
         25    2    1    2    0    0 -0.65622558321E+01 -0.70709252594E+02  0.49558460937E+03  0.51601227793E+03  0.12498681661E+03 0.  0.
         25    2    1    2    0    0  0.65622558321E+01  0.70709252594E+02  0.40389539902E+03  0.42871875339E+03  0.12500165819E+03 0.  0.
          5    1    3    3  501    0 -0.24700246227E+02 -0.17987018699E+02  0.42413986339E+03  0.42526503351E+03  0.47000000000E+01 0.  1.
         -5    1    3    3    0  501  0.18137990395E+02 -0.52722233895E+02  0.71444745977E+02  0.90747244422E+02  0.47000000000E+01 0.  1.
          5    1    4    4  502    0  0.21077259569E+02  0.36551225121E+02  0.27752756146E+02  0.50720295765E+02  0.47000000000E+01 0.  1.
         -5    1    4    4    0  502 -0.14515003737E+02  0.34158027473E+02  0.37614264288E+03  0.37799845762E+03  0.47000000000E+01 0.  1.
<mgrwt>
<rscale>  0 0.28888135E+03</rscale>
<asrwt>0</asrwt>
<pdfrwt beam="1">  1       21 0.14186236E+00 0.28888135E+03</pdfrwt>
<pdfrwt beam="2">  1       21 0.34808486E-02 0.28888135E+03</pdfrwt>
<totfact> 0.16507107E+05</totfact>
</mgrwt>
</event>
<event>
 8    1  0.4760912E-006  0.3433075E+03  0.7546771E-02  0.1065396E+00
         21   -1    0    0  504  503  0.00000000000E+00  0.00000000000E+00  0.98498342651E+03  0.98498342651E+03  0.00000000000E+00 0. -1.
         21   -1    0    0  503  504 -0.00000000000E+00 -0.00000000000E+00 -0.29914210297E+02  0.29914210297E+02  0.00000000000E+00 0. -1.
         25    2    1    2    0    0 -0.23109536233E+02 -0.14245279265E+02  0.81594185332E+03  0.82590438428E+03  0.12497985969E+03 0.  0.
         25    2    1    2    0    0  0.23109536233E+02  0.14245279265E+02  0.13912736290E+03  0.18899325253E+03  0.12500019100E+03 0.  0.
          5    1    3    3  501    0 -0.31235808829E+02  0.35693482815E+01  0.79887748699E+03  0.79950969051E+03  0.47000000000E+01 0.  1.
         -5    1    3    3    0  501  0.81262725962E+01 -0.17814627546E+02  0.17064366329E+02  0.26394693768E+02  0.47000000000E+01 0.  1.
          5    1    4    4  502    0  0.71849180422E+02 -0.96611681226E+01  0.69090046615E+02  0.10025551076E+03  0.47000000000E+01 0.  1.
         -5    1    4    4    0  502 -0.48739644189E+02  0.23906447387E+02  0.70037316281E+02  0.88737741769E+02  0.47000000000E+01 0.  1.
<mgrwt>
<rscale>  0 0.34330745E+03</rscale>
<asrwt>0</asrwt>
<pdfrwt beam="1">  1       21 0.15153589E+00 0.34330745E+03</pdfrwt>
<pdfrwt beam="2">  1       21 0.46021870E-02 0.34330745E+03</pdfrwt>
<totfact> 0.84854607E+04</totfact>
</mgrwt>
</event>
<event>
 8    1  0.4760912E-006  0.2934549E+03  0.7546771E-02  0.1088559E+00
         21   -1    0    0  504  503  0.00000000000E+00  0.00000000000E+00  0.32171748054E+03  0.32171748054E+03  0.00000000000E+00 0. -1.
         21   -1    0    0  503  504 -0.00000000000E+00 -0.00000000000E+00 -0.66918789553E+02  0.66918789553E+02  0.00000000000E+00 0. -1.
         25    2    1    2    0    0 -0.28797247466E+02 -0.69477650888E+02  0.14824774750E+03  0.20798748288E+03  0.12499989184E+03 0.  0.
         25    2    1    2    0    0  0.28797247466E+02  0.69477650888E+02  0.10655094349E+03  0.18064878722E+03  0.12499782131E+03 0.  0.
          5    1    3    3  501    0 -0.40954183122E+02  0.22808112198E+02  0.78597894789E+02  0.91636096395E+02  0.47000000000E+01 0. -1.
         -5    1    3    3    0  501  0.12156935656E+02 -0.92285763086E+02  0.69649852714E+02  0.11635138648E+03  0.47000000000E+01 0. -1.
          5    1    4    4  502    0 -0.17347153600E+02  0.89744690640E+02  0.87327182320E+02  0.12650359682E+03  0.47000000000E+01 0.  1.
         -5    1    4    4    0  502  0.46144401067E+02 -0.20267039752E+02  0.19223761166E+02  0.54145190400E+02  0.47000000000E+01 0.  1.
<mgrwt>
<rscale>  0 0.29345490E+03</rscale>
<asrwt>0</asrwt>
<pdfrwt beam="1">  1       21 0.49494996E-01 0.29345490E+03</pdfrwt>
<pdfrwt beam="2">  1       21 0.10295199E-01 0.29345490E+03</pdfrwt>
<totfact> 0.29280098E+05</totfact>
</mgrwt>
</event>
<event>
 8    1  0.4760912E-006  0.2793823E+03  0.7546771E-02  0.1096027E+00
         21   -1    0    0  504  503  0.00000000000E+00  0.00000000000E+00  0.68064452828E+02  0.68064452828E+02  0.00000000000E+00 0. -1.
         21   -1    0    0  503  504 -0.00000000000E+00 -0.00000000000E+00 -0.28669327699E+03  0.28669327699E+03  0.00000000000E+00 0. -1.
         25    2    1    2    0    0  0.28440679145E+02  0.30701316343E+02 -0.16798771443E+03  0.21353330928E+03  0.12500063567E+03 0.  0.
         25    2    1    2    0    0 -0.28440679145E+02 -0.30701316343E+02 -0.50641109730E+02  0.14122442054E+03  0.12501348690E+03 0.  0.
          5    1    3    3  501    0  0.59815131654E+02  0.67571115782E+01 -0.25390118194E+02  0.65500050638E+02  0.47000000000E+01 0. -1.
         -5    1    3    3    0  501 -0.31374452509E+02  0.23944204765E+02 -0.14259759624E+03  0.14803325864E+03  0.47000000000E+01 0. -1.
          5    1    4    4  502    0 -0.40387089188E+02  0.26236815014E+02  0.17541599449E+02  0.51471206965E+02  0.47000000000E+01 0.  1.
         -5    1    4    4    0  502  0.11946410044E+02 -0.56938131357E+02 -0.68182709180E+02  0.89753213572E+02  0.47000000000E+01 0.  1.
<mgrwt>
<rscale>  0 0.27938233E+03</rscale>
<asrwt>0</asrwt>
<pdfrwt beam="1">  1       21 0.10471454E-01 0.27938233E+03</pdfrwt>
<pdfrwt beam="2">  1       21 0.44106658E-01 0.27938233E+03</pdfrwt>
<totfact> 0.36221978E+05</totfact>
</mgrwt>
</event>
<event>
 8    1  0.4760912E-006  0.4287647E+03  0.7546771E-02  0.1034251E+00
         21   -1    0    0  504  503  0.00000000000E+00  0.00000000000E+00  0.10405571518E+03  0.10405571518E+03  0.00000000000E+00 0. -1.
         21   -1    0    0  503  504 -0.00000000000E+00 -0.00000000000E+00 -0.44168450887E+03  0.44168450887E+03  0.00000000000E+00 0. -1.
         25    2    1    2    0    0 -0.47840277225E+02 -0.80709459100E+02  0.17956030270E+02  0.15732213685E+03  0.12500050723E+03 0.  0.
         25    2    1    2    0    0  0.47840277225E+02  0.80709459100E+02 -0.35558482396E+03  0.38841808719E+03  0.12500133805E+03 0.  0.
          5    1    3    3  501    0  0.14136646489E+02 -0.77792374151E+02  0.43143896777E+02  0.90194146590E+02  0.47000000000E+01 0. -1.
         -5    1    3    3    0  501 -0.61976923714E+02 -0.29170849482E+01 -0.25187866507E+02  0.67127990264E+02  0.47000000000E+01 0. -1.
          5    1    4    4  502    0  0.11393187020E+02  0.48155857196E+02 -0.32871467022E+03  0.33245182465E+03  0.47000000000E+01 0.  1.
         -5    1    4    4    0  502  0.36447090205E+02  0.32553601903E+02 -0.26870153738E+02  0.55966262544E+02  0.47000000000E+01 0.  1.
<mgrwt>
<rscale>  0 0.42876473E+03</rscale>
<asrwt>0</asrwt>
<pdfrwt beam="1">  1       21 0.16008571E-01 0.42876473E+03</pdfrwt>
<pdfrwt beam="2">  1       21 0.67951464E-01 0.42876473E+03</pdfrwt>
<totfact> 0.63958879E+04</totfact>
</mgrwt>
</event>
<event>
 8    1  0.4760912E-006  0.3420605E+03  0.7546771E-02  0.1065922E+00
         21   -1    0    0  504  503  0.00000000000E+00  0.00000000000E+00  0.31472904599E+03  0.31472904599E+03  0.00000000000E+00 0.  1.
         21   -1    0    0  503  504 -0.00000000000E+00 -0.00000000000E+00 -0.92941376618E+02  0.92941376618E+02  0.00000000000E+00 0.  1.
         25    2    1    2    0    0  0.62983296916E+02 -0.90383282274E+02  0.15689885423E+03  0.22886314395E+03  0.12500021919E+03 0.  0.
         25    2    1    2    0    0 -0.62983296916E+02  0.90383282274E+02  0.64888815147E+02  0.17880727866E+03  0.12500180465E+03 0.  0.
          5    1    3    3  501    0 -0.29665607127E+02  0.21279474743E+01  0.93175012505E+01  0.31519553237E+02  0.47000000000E+01 0. -1.
         -5    1    3    3    0  501  0.92648904043E+02 -0.92511229748E+02  0.14758135298E+03  0.19734359072E+03  0.47000000000E+01 0. -1.
          5    1    4    4  502    0 -0.63460249908E+02  0.11998453966E+03  0.46078545470E+02  0.14341832320E+03  0.47000000000E+01 0. -1.
         -5    1    4    4    0  502  0.47695299241E+00 -0.29601257390E+02  0.18810269677E+02  0.35388955460E+02  0.47000000000E+01 0. -1.
<mgrwt>
<rscale>  0 0.34206053E+03</rscale>
<asrwt>0</asrwt>
<pdfrwt beam="1">  1       21 0.48419853E-01 0.34206053E+03</pdfrwt>
<pdfrwt beam="2">  1       21 0.14298673E-01 0.34206053E+03</pdfrwt>
<totfact> 0.16744608E+05</totfact>
</mgrwt>
</event>
<event>
 8    1  0.4760912E-006  0.2714296E+03  0.7546771E-02  0.1100464E+00
         21   -1    0    0  504  503  0.00000000000E+00  0.00000000000E+00  0.54136475523E+03  0.54136475523E+03  0.00000000000E+00 0. -1.
         21   -1    0    0  503  504 -0.00000000000E+00 -0.00000000000E+00 -0.34022366410E+02  0.34022366410E+02  0.00000000000E+00 0. -1.
         25    2    1    2    0    0  0.51747691828E+01  0.52564186228E+02  0.25755977600E+03  0.29112106005E+03  0.12499864590E+03 0.  0.
         25    2    1    2    0    0 -0.51747691828E+01 -0.52564186228E+02  0.24978261281E+03  0.28426606159E+03  0.12500427272E+03 0.  0.
          5    1    3    3  501    0  0.53690292701E+02  0.11445601525E+02  0.19164378552E+03  0.19940681998E+03  0.47000000000E+01 0. -1.
         -5    1    3    3    0  501 -0.48515523518E+02  0.41118584702E+02  0.65915990485E+02  0.91714240071E+02  0.47000000000E+01 0. -1.
          5    1    4    4  502    0 -0.19766122054E+02 -0.47637104538E+02  0.22586137235E+02  0.56499707123E+02  0.47000000000E+01 0.  1.
         -5    1    4    4    0  502  0.14591352871E+02 -0.49270816896E+01  0.22719647558E+03  0.22776635447E+03  0.47000000000E+01 0.  1.
<mgrwt>
<rscale>  0 0.27142962E+03</rscale>
<asrwt>0</asrwt>
<pdfrwt beam="1">  1       21 0.83286879E-01 0.27142962E+03</pdfrwt>
<pdfrwt beam="2">  1       21 0.52342106E-02 0.27142962E+03</pdfrwt>
<totfact> 0.30602417E+05</totfact>
</mgrwt>
</event>
<event>
 8    1  0.4760912E-006  0.3144161E+03  0.7546771E-02  0.1078248E+00
         21   -1    0    0  504  503  0.00000000000E+00  0.00000000000E+00  0.62924539211E+03  0.62924539211E+03  0.00000000000E+00 0. -1.
         21   -1    0    0  503  504 -0.00000000000E+00 -0.00000000000E+00 -0.39276214273E+02  0.39276214273E+02  0.00000000000E+00 0. -1.
         25    2    1    2    0    0  0.15374122923E+02  0.94002088485E+02  0.28709816639E+03  0.32730475990E+03  0.12502116787E+03 0.  0.
         25    2    1    2    0    0 -0.15374122923E+02 -0.94002088485E+02  0.30287101145E+03  0.34121684648E+03  0.12500132180E+03 0.  0.
          5    1    3    3  501    0 -0.72958371853E+01  0.98159590089E+02  0.10617040853E+03  0.14485434068E+03  0.47000000000E+01 0. -1.
         -5    1    3    3    0  501  0.22669960108E+02 -0.41575016039E+01  0.18092775786E+03  0.18245041922E+03  0.47000000000E+01 0. -1.
          5    1    4    4  502    0  0.24545559797E+02  0.18892174677E+02  0.10795537832E+03  0.11240930779E+03  0.47000000000E+01 0.  1.
         -5    1    4    4    0  502 -0.39919682720E+02 -0.11289426316E+03  0.19491563313E+03  0.22880753869E+03  0.47000000000E+01 0.  1.
<mgrwt>
<rscale>  0 0.31441614E+03</rscale>
<asrwt>0</asrwt>
<pdfrwt beam="1">  1       21 0.96806976E-01 0.31441614E+03</pdfrwt>
<pdfrwt beam="2">  1       21 0.60424950E-02 0.31441614E+03</pdfrwt>
<totfact> 0.16635025E+05</totfact>
</mgrwt>
</event>
<event>
 8    1  0.4760912E-006  0.3344862E+03  0.7546771E-02  0.1069169E+00
         21   -1    0    0  504  503  0.00000000000E+00  0.00000000000E+00  0.24866196940E+03  0.24866196940E+03  0.00000000000E+00 0.  1.
         21   -1    0    0  503  504 -0.00000000000E+00 -0.00000000000E+00 -0.11248303295E+03  0.11248303295E+03  0.00000000000E+00 0.  1.
         25    2    1    2    0    0 -0.27033401391E+02 -0.10597094899E+02  0.18387891140E+03  0.22423359571E+03  0.12500459261E+03 0.  0.
         25    2    1    2    0    0  0.27033401391E+02  0.10597094899E+02 -0.47699974953E+02  0.13691140665E+03  0.12500536969E+03 0.  0.
          5    1    3    3  501    0 -0.56790896579E+02 -0.47010055862E+02  0.14615566048E+03  0.16376421580E+03  0.47000000000E+01 0.  1.
         -5    1    3    3    0  501  0.29757495188E+02  0.36412960963E+02  0.37723250929E+02  0.60469379909E+02  0.47000000000E+01 0.  1.
          5    1    4    4  502    0  0.65424459026E+01 -0.55890912096E+02 -0.33786531218E+02  0.65804386974E+02  0.47000000000E+01 0.  1.
         -5    1    4    4    0  502  0.20490955489E+02  0.66488006995E+02 -0.13913443735E+02  0.71107019679E+02  0.47000000000E+01 0.  1.
<mgrwt>
<rscale>  0 0.33448619E+03</rscale>
<asrwt>0</asrwt>
<pdfrwt beam="1">  1       21 0.38255688E-01 0.33448619E+03</pdfrwt>
<pdfrwt beam="2">  1       21 0.17305082E-01 0.33448619E+03</pdfrwt>
<totfact> 0.19177940E+05</totfact>
</mgrwt>
</event>
<event>
 8    1  0.4760912E-006  0.3772522E+03  0.7546771E-02  0.1051954E+00
         21   -1    0    0  504  503  0.00000000000E+00  0.00000000000E+00  0.19720113103E+03  0.19720113103E+03  0.00000000000E+00 0.  1.
         21   -1    0    0  503  504 -0.00000000000E+00 -0.00000000000E+00 -0.18042398516E+03  0.18042398516E+03  0.00000000000E+00 0.  1.
         25    2    1    2    0    0  0.81169781001E+02  0.50252031307E+02 -0.95815476121E+02  0.18417419460E+03  0.12500291394E+03 0.  0.
         25    2    1    2    0    0 -0.81169781001E+02 -0.50252031307E+02  0.11259262200E+03  0.19345092159E+03  0.12502943869E+03 0.  0.
          5    1    3    3  501    0 -0.30876061640E+02 -0.60365336878E+01 -0.19477269721E+02  0.37299128102E+02  0.47000000000E+01 0. -1.
         -5    1    3    3    0  501  0.11204584264E+03  0.56288564995E+02 -0.76338206400E+02  0.14687506650E+03  0.47000000000E+01 0. -1.
          5    1    4    4  502    0 -0.15666000872E+02  0.21022081685E+02  0.90105360755E+02  0.93959659101E+02  0.47000000000E+01 0. -1.
         -5    1    4    4    0  502 -0.65503780128E+02 -0.71274112992E+02  0.22487261241E+02  0.99491262491E+02  0.47000000000E+01 0. -1.
<mgrwt>
<rscale>  0 0.37725224E+03</rscale>
<asrwt>0</asrwt>
<pdfrwt beam="1">  1       21 0.30338635E-01 0.37725224E+03</pdfrwt>
<pdfrwt beam="2">  1       21 0.27757536E-01 0.37725224E+03</pdfrwt>
<totfact> 0.12269745E+05</totfact>
</mgrwt>
</event>
<event>
 8    1  0.4760912E-006  0.2910499E+03  0.7546771E-02  0.1089802E+00
         21   -1    0    0  504  503  0.00000000000E+00  0.00000000000E+00  0.90603315228E+01  0.90603315228E+01  0.00000000000E+00 0.  1.
         21   -1    0    0  503  504 -0.00000000000E+00 -0.00000000000E+00 -0.23373886317E+04  0.23373886317E+04  0.00000000000E+00 0.  1.
         25    2    1    2    0    0 -0.81665432346E+01  0.51159628600E+01 -0.17598290628E+04  0.17642893734E+04  0.12500318969E+03 0.  0.
         25    2    1    2    0    0  0.81665432346E+01 -0.51159628600E+01 -0.56849923735E+03  0.58215958977E+03  0.12500215830E+03 0.  0.
          5    1    3    3  501    0 -0.87379620880E+01 -0.20740524101E+01 -0.17536816113E+04  0.17537109048E+04  0.47000000000E+01 0.  1.
         -5    1    3    3    0  501  0.57141885341E+00  0.71900152701E+01 -0.61474514574E+01  0.10578468628E+02  0.47000000000E+01 0.  1.
          5    1    4    4  502    0 -0.44386446885E+02  0.31785144340E+01 -0.88221150928E+02  0.98920781902E+02  0.47000000000E+01 0.  1.
         -5    1    4    4    0  502  0.52552990120E+02 -0.82944772940E+01 -0.48027808643E+03  0.48323880786E+03  0.47000000000E+01 0.  1.
<mgrwt>
<rscale>  0 0.29104993E+03</rscale>
<asrwt>0</asrwt>
<pdfrwt beam="1">  1       21 0.13938960E-02 0.29104993E+03</pdfrwt>
<pdfrwt beam="2">  1       21 0.35959855E+00 0.29104993E+03</pdfrwt>
<totfact> 0.31042459E+04</totfact>
</mgrwt>
</event>
<event>
 8    1  0.4760912E-006  0.3240146E+03  0.7546771E-02  0.1073816E+00
         21   -1    0    0  504  503  0.00000000000E+00  0.00000000000E+00  0.25499979456E+03  0.25499979456E+03  0.00000000000E+00 0.  1.
         21   -1    0    0  503  504 -0.00000000000E+00 -0.00000000000E+00 -0.10292702083E+03  0.10292702083E+03  0.00000000000E+00 0.  1.
         25    2    1    2    0    0 -0.20815710307E+02 -0.10073596120E+03  0.69011082617E+02  0.17597798126E+03  0.12499877076E+03 0.  0.
         25    2    1    2    0    0  0.20815710307E+02  0.10073596120E+03  0.83061691112E+02  0.18194883413E+03  0.12500042415E+03 0.  0.
          5    1    3    3  501    0  0.32152741255E+02 -0.31522520805E+02  0.75950844830E+02  0.88419957693E+02  0.47000000000E+01 0.  1.
         -5    1    3    3    0  501 -0.52968451562E+02 -0.69213440391E+02 -0.69397622130E+01  0.87558023568E+02  0.47000000000E+01 0.  1.
          5    1    4    4  502    0  0.47489493306E+02  0.11257969806E+03  0.37979211070E+02  0.12803886466E+03  0.47000000000E+01 0. -1.
         -5    1    4    4    0  502 -0.26673782999E+02 -0.11843736862E+02  0.45082480042E+02  0.53909969477E+02  0.47000000000E+01 0. -1.
<mgrwt>
<rscale>  0 0.32401462E+03</rscale>
<asrwt>0</asrwt>
<pdfrwt beam="1">  1       21 0.39230738E-01 0.32401462E+03</pdfrwt>
<pdfrwt beam="2">  1       21 0.15834926E-01 0.32401462E+03</pdfrwt>
<totfact> 0.21533496E+05</totfact>
</mgrwt>
</event>
<event>
 8    1  0.4760912E-006  0.5337716E+03  0.7546771E-02  0.1005322E+00
         21   -1    0    0  504  503  0.00000000000E+00  0.00000000000E+00  0.30916117552E+02  0.30916117552E+02  0.00000000000E+00 0.  1.
         21   -1    0    0  503  504 -0.00000000000E+00 -0.00000000000E+00 -0.23039125242E+04  0.23039125242E+04  0.00000000000E+00 0.  1.
         25    2    1    2    0    0 -0.91318980381E+02  0.85324896024E+02 -0.20111659622E+04  0.20189186800E+04  0.12499846011E+03 0.  0.
         25    2    1    2    0    0  0.91318980381E+02 -0.85324896024E+02 -0.26183044444E+03  0.31590996171E+03  0.12499771282E+03 0.  0.
          5    1    3    3  501    0 -0.91023876149E+02  0.27316248322E+01 -0.12331553131E+04  0.12365221082E+04  0.47000000000E+01 0. -1.
         -5    1    3    3    0  501 -0.29510423256E+00  0.82593271192E+02 -0.77801064911E+03  0.78239657186E+03  0.47000000000E+01 0. -1.
          5    1    4    4  502    0  0.19850653873E+02  0.32682674411E+02 -0.63355589194E+02  0.74150025947E+02  0.47000000000E+01 0.  1.
         -5    1    4    4    0  502  0.71468326509E+02 -0.11800757043E+03 -0.19847485525E+03  0.24175993576E+03  0.47000000000E+01 0.  1.
<mgrwt>
<rscale>  0 0.53377160E+03</rscale>
<asrwt>0</asrwt>
<pdfrwt beam="1">  1       21 0.47563271E-02 0.53377160E+03</pdfrwt>
<pdfrwt beam="2">  1       21 0.35444798E+00 0.53377160E+03</pdfrwt>
<totfact> 0.37674576E+03</totfact>
</mgrwt>
</event>
<event>
 8    1  0.4760912E-006  0.3417954E+03  0.7546771E-02  0.1066034E+00
         21   -1    0    0  504  503  0.00000000000E+00  0.00000000000E+00  0.62013061269E+03  0.62013061269E+03  0.00000000000E+00 0.  1.
         21   -1    0    0  503  504 -0.00000000000E+00 -0.00000000000E+00 -0.47096568032E+02  0.47096568032E+02  0.00000000000E+00 0.  1.
         25    2    1    2    0    0  0.83748808583E+02 -0.74291382798E+02  0.22331509087E+03  0.27933357296E+03  0.12499817069E+03 0.  0.
         25    2    1    2    0    0 -0.83748808583E+02  0.74291382798E+02  0.34971895379E+03  0.38789360776E+03  0.12500012722E+03 0.  0.
          5    1    3    3  501    0 -0.31141498620E+02 -0.74857069829E+01  0.26668201402E+02  0.41941765716E+02  0.47000000000E+01 0. -1.
         -5    1    3    3    0  501  0.11489030720E+03 -0.66805675815E+02  0.19664688946E+03  0.23739180724E+03  0.47000000000E+01 0. -1.
          5    1    4    4  502    0 -0.37388468488E+02  0.95171133974E+02  0.29853057434E+03  0.31559156538E+03  0.47000000000E+01 0.  1.
         -5    1    4    4    0  502 -0.46360340095E+02 -0.20879751176E+02  0.51188379446E+02  0.72302042386E+02  0.47000000000E+01 0.  1.
<mgrwt>
<rscale>  0 0.34179540E+03</rscale>
<asrwt>0</asrwt>
<pdfrwt beam="1">  1       21 0.95404704E-01 0.34179540E+03</pdfrwt>
<pdfrwt beam="2">  1       21 0.72456263E-02 0.34179540E+03</pdfrwt>
<totfact> 0.12469666E+05</totfact>
</mgrwt>
</event>
<event>
 8    1  0.4760912E-006  0.4192854E+03  0.7546771E-02  0.1037299E+00
         21   -1    0    0  504  503  0.00000000000E+00  0.00000000000E+00  0.61727492622E+02  0.61727492622E+02  0.00000000000E+00 0. -1.
         21   -1    0    0  503  504 -0.00000000000E+00 -0.00000000000E+00 -0.71200130240E+03  0.71200130240E+03  0.00000000000E+00 0. -1.
         25    2    1    2    0    0 -0.36896921062E+02 -0.16145283120E+03 -0.38043258983E+03  0.43333736217E+03  0.12499565817E+03 0.  0.
         25    2    1    2    0    0  0.36896921062E+02  0.16145283120E+03 -0.26984121995E+03  0.34039143286E+03  0.12499457624E+03 0.  0.
          5    1    3    3  501    0  0.34435131588E+02 -0.11769838226E+03 -0.20533559976E+03  0.23921430978E+03  0.47000000000E+01 0. -1.
         -5    1    3    3    0  501 -0.71332052650E+02 -0.43754448937E+02 -0.17509699007E+03  0.19412305238E+03  0.47000000000E+01 0. -1.
          5    1    4    4  502    0 -0.45444314476E+02  0.48725884705E+02 -0.71988535437E+02  0.98203038613E+02  0.47000000000E+01 0.  1.
         -5    1    4    4    0  502  0.82341235539E+02  0.11272694650E+03 -0.19785268452E+03  0.24218839424E+03  0.47000000000E+01 0.  1.
<mgrwt>
<rscale>  0 0.41928537E+03</rscale>
<asrwt>0</asrwt>
<pdfrwt beam="1">  1       21 0.94965375E-02 0.41928537E+03</pdfrwt>
<pdfrwt beam="2">  1       21 0.10953866E+00 0.41928537E+03</pdfrwt>
<totfact> 0.54156885E+04</totfact>
</mgrwt>
</event>
<event>
 8    1  0.4760912E-006  0.2734506E+03  0.7546771E-02  0.1099321E+00
         21   -1    0    0  504  503  0.00000000000E+00  0.00000000000E+00  0.57105111545E+02  0.57105111545E+02  0.00000000000E+00 0. -1.
         21   -1    0    0  503  504 -0.00000000000E+00 -0.00000000000E+00 -0.32735775088E+03  0.32735775088E+03  0.00000000000E+00 0. -1.
         25    2    1    2    0    0 -0.23603718798E+02  0.24369539425E+02 -0.19671936955E+03  0.23552439029E+03  0.12498887178E+03 0.  0.
         25    2    1    2    0    0  0.23603718798E+02 -0.24369539425E+02 -0.73533269780E+02  0.14893847214E+03  0.12499806688E+03 0.  0.
          5    1    3    3  501    0 -0.10878538079E+02  0.75164213575E+02 -0.10290537982E+03  0.12798284568E+03  0.47000000000E+01 0. -1.
         -5    1    3    3    0  501 -0.12725180719E+02 -0.50794674150E+02 -0.93813989731E+02  0.10754154460E+03  0.47000000000E+01 0. -1.
          5    1    4    4  502    0 -0.29559954031E+02 -0.26400577344E+02 -0.85364948357E+02  0.94233994791E+02  0.47000000000E+01 0. -1.
         -5    1    4    4    0  502  0.53163672829E+02  0.20310379188E+01  0.11831678576E+02  0.54704477345E+02  0.47000000000E+01 0. -1.
<mgrwt>
<rscale>  0 0.27345055E+03</rscale>
<asrwt>0</asrwt>
<pdfrwt beam="1">  1       21 0.87854019E-02 0.27345055E+03</pdfrwt>
<pdfrwt beam="2">  1       21 0.50362730E-01 0.27345055E+03</pdfrwt>
<totfact> 0.37561148E+05</totfact>
</mgrwt>
</event>
<event>
 8    1  0.4760912E-006  0.7204203E+03  0.7546771E-02  0.9682934E-01
         21   -1    0    0  504  503  0.00000000000E+00  0.00000000000E+00  0.36453409854E+03  0.36453409854E+03  0.00000000000E+00 0. -1.
         21   -1    0    0  503  504 -0.00000000000E+00 -0.00000000000E+00 -0.35593752932E+03  0.35593752932E+03  0.00000000000E+00 0. -1.
         25    2    1    2    0    0 -0.31470004863E+03  0.80817302930E+02  0.96781588445E+02  0.36133058115E+03  0.12500222377E+03 0.  0.
         25    2    1    2    0    0  0.31470004863E+03 -0.80817302930E+02 -0.88185019221E+02  0.35914104671E+03  0.12505253599E+03 0.  0.
          5    1    3    3  501    0  0.11028810586E+02  0.10892528680E+01 -0.74461534356E+00  0.12060911523E+02  0.47000000000E+01 0. -1.
         -5    1    3    3    0  501 -0.32572885922E+03  0.79728050062E+02  0.97526203789E+02  0.34926966963E+03  0.47000000000E+01 0. -1.
          5    1    4    4  502    0  0.13731976968E+03 -0.95351937663E+02 -0.19760021520E+02  0.16840801529E+03  0.47000000000E+01 0. -1.
         -5    1    4    4    0  502  0.17738027895E+03  0.14534634733E+02 -0.68424997701E+02  0.19073303143E+03  0.47000000000E+01 0. -1.
<mgrwt>
<rscale>  0 0.72042034E+03</rscale>
<asrwt>0</asrwt>
<pdfrwt beam="1">  1       21 0.56082169E-01 0.72042034E+03</pdfrwt>
<pdfrwt beam="2">  1       21 0.54759620E-01 0.72042034E+03</pdfrwt>
<totfact> 0.78664709E+03</totfact>
</mgrwt>
</event>
<event>
 8    1  0.4760912E-006  0.2664811E+03  0.7546771E-02  0.1103311E+00
         21   -1    0    0  504  503  0.00000000000E+00  0.00000000000E+00  0.12530650289E+03  0.12530650289E+03  0.00000000000E+00 0.  1.
         21   -1    0    0  503  504 -0.00000000000E+00 -0.00000000000E+00 -0.14167694740E+03  0.14167694740E+03  0.00000000000E+00 0.  1.
         25    2    1    2    0    0 -0.31074073906E+02 -0.27058795428E+02 -0.28967452403E+02  0.13476731130E+03  0.12500135366E+03 0.  0.
         25    2    1    2    0    0  0.31074073906E+02  0.27058795428E+02  0.12597007884E+02  0.13221613899E+03  0.12499858529E+03 0.  0.
          5    1    3    3  501    0  0.59351807555E+01 -0.14174608546E+02 -0.73514743963E+02  0.75250604503E+02  0.47000000000E+01 0. -1.
         -5    1    3    3    0  501 -0.37009254661E+02 -0.12884186882E+02  0.44547291560E+02  0.59516706794E+02  0.47000000000E+01 0. -1.
          5    1    4    4  502    0 -0.22443254385E+02 -0.26166980092E+02  0.38860951823E+02  0.52160081395E+02  0.47000000000E+01 0. -1.
         -5    1    4    4    0  502  0.53517328290E+02  0.53225775521E+02 -0.26263943939E+02  0.80056057599E+02  0.47000000000E+01 0. -1.
<mgrwt>
<rscale>  0 0.26648109E+03</rscale>
<asrwt>0</asrwt>
<pdfrwt beam="1">  1       21 0.19277923E-01 0.26648109E+03</pdfrwt>
<pdfrwt beam="2">  1       21 0.21796454E-01 0.26648109E+03</pdfrwt>
<totfact> 0.47870384E+05</totfact>
</mgrwt>
</event>
<event>
 8    1  0.4760912E-006  0.2769147E+03  0.7546771E-02  0.1097386E+00
         21   -1    0    0  504  503  0.00000000000E+00  0.00000000000E+00  0.16615554657E+03  0.16615554657E+03  0.00000000000E+00 0. -1.
         21   -1    0    0  503  504 -0.00000000000E+00 -0.00000000000E+00 -0.11537641799E+03  0.11537641799E+03  0.00000000000E+00 0. -1.
         25    2    1    2    0    0  0.45188957430E+02 -0.38508385882E+02  0.21390587765E+02  0.14005156724E+03  0.12502778325E+03 0.  0.
         25    2    1    2    0    0 -0.45188957430E+02  0.38508385882E+02  0.29388540808E+02  0.14148039732E+03  0.12501231475E+03 0.  0.
          5    1    3    3  501    0  0.69728316559E+02  0.20514725747E+02  0.11728123902E+01  0.72844749924E+02  0.47000000000E+01 0.  1.
         -5    1    3    3    0  501 -0.24539359129E+02 -0.59023111629E+02  0.20217775375E+02  0.67206817318E+02  0.47000000000E+01 0.  1.
          5    1    4    4  502    0  0.10670478698E+01 -0.32972419974E+02 -0.23828022659E+02  0.40965640895E+02  0.47000000000E+01 0. -1.
         -5    1    4    4    0  502 -0.46256005300E+02  0.71480805856E+02  0.53216563467E+02  0.10051475643E+03  0.47000000000E+01 0. -1.
<mgrwt>
<rscale>  0 0.27691466E+03</rscale>
<asrwt>0</asrwt>
<pdfrwt beam="1">  1       21 0.25562392E-01 0.27691466E+03</pdfrwt>
<pdfrwt beam="2">  1       21 0.17750218E-01 0.27691466E+03</pdfrwt>
<totfact> 0.41099167E+05</totfact>
</mgrwt>
</event>
<event>
 8    1  0.4760912E-006  0.2927904E+03  0.7546771E-02  0.1088901E+00
         21   -1    0    0  504  503  0.00000000000E+00  0.00000000000E+00  0.12431132587E+03  0.12431132587E+03  0.00000000000E+00 0.  1.
         21   -1    0    0  503  504 -0.00000000000E+00 -0.00000000000E+00 -0.17240225519E+03  0.17240225519E+03  0.00000000000E+00 0.  1.
         25    2    1    2    0    0  0.71580022635E+02  0.86317988506E+01 -0.49083364139E+02  0.15242131801E+03  0.12499949583E+03 0.  0.
         25    2    1    2    0    0 -0.71580022635E+02 -0.86317988506E+01  0.99243481729E+00  0.14429226305E+03  0.12498425763E+03 0.  0.
          5    1    3    3  501    0  0.46636622573E+02  0.48283413205E+02 -0.73277677006E+02  0.99488544583E+02  0.47000000000E+01 0.  1.
         -5    1    3    3    0  501  0.24943400062E+02 -0.39651614354E+02  0.24194312867E+02  0.52932773427E+02  0.47000000000E+01 0.  1.
          5    1    4    4  502    0 -0.58691364259E+02 -0.51429075979E+02  0.37202157560E+02  0.86577806750E+02  0.47000000000E+01 0.  1.
         -5    1    4    4    0  502 -0.12888658376E+02  0.42797277128E+02 -0.36209722743E+02  0.57714456295E+02  0.47000000000E+01 0.  1.
<mgrwt>
<rscale>  0 0.29279039E+03</rscale>
<asrwt>0</asrwt>
<pdfrwt beam="1">  1       21 0.19124819E-01 0.29279039E+03</pdfrwt>
<pdfrwt beam="2">  1       21 0.26523424E-01 0.29279039E+03</pdfrwt>
<totfact> 0.33187224E+05</totfact>
</mgrwt>
</event>
<event>
 8    1  0.4760912E-006  0.4050321E+03  0.7546771E-02  0.1042051E+00
         21   -1    0    0  504  503  0.00000000000E+00  0.00000000000E+00  0.78885905480E+03  0.78885905480E+03  0.00000000000E+00 0. -1.
         21   -1    0    0  503  504 -0.00000000000E+00 -0.00000000000E+00 -0.51989971402E+02  0.51989971402E+02  0.00000000000E+00 0. -1.
         25    2    1    2    0    0  0.65460952091E+02 -0.76053394801E+02  0.62536886397E+03  0.64558536892E+03  0.12499998974E+03 0.  0.
         25    2    1    2    0    0 -0.65460952091E+02  0.76053394801E+02  0.11150021943E+03  0.19526365728E+03  0.12500536713E+03 0.  0.
          5    1    3    3  501    0  0.37726725539E+02 -0.10636991395E+03  0.52528364562E+03  0.53729215774E+03  0.47000000000E+01 0.  1.
         -5    1    3    3    0  501  0.27734226552E+02  0.30316519152E+02  0.10008521835E+03  0.10829321118E+03  0.47000000000E+01 0.  1.
          5    1    4    4  502    0  0.23114136526E+02  0.35934944704E+02 -0.51907537828E+01  0.43296853039E+02  0.47000000000E+01 0. -1.
         -5    1    4    4    0  502 -0.88575088618E+02  0.40118450097E+02  0.11669097321E+03  0.15196680424E+03  0.47000000000E+01 0. -1.
<mgrwt>
<rscale>  0 0.40503215E+03</rscale>
<asrwt>0</asrwt>
<pdfrwt beam="1">  1       21 0.12136292E+00 0.40503215E+03</pdfrwt>
<pdfrwt beam="2">  1       21 0.79984577E-02 0.40503215E+03</pdfrwt>
<totfact> 0.57074795E+04</totfact>
</mgrwt>
</event>
<event>
 8    1  0.4760912E-006  0.3411396E+03  0.7546771E-02  0.1066312E+00
         21   -1    0    0  504  503  0.00000000000E+00  0.00000000000E+00  0.59054978946E+02  0.59054978946E+02  0.00000000000E+00 0.  1.
         21   -1    0    0  503  504 -0.00000000000E+00 -0.00000000000E+00 -0.49266041652E+03  0.49266041652E+03  0.00000000000E+00 0.  1.
         25    2    1    2    0    0  0.11513920830E+03 -0.99710708310E+01 -0.19953036265E+03  0.26227916995E+03  0.12498615055E+03 0.  0.
         25    2    1    2    0    0 -0.11513920830E+03  0.99710708310E+01 -0.23407507493E+03  0.28943622552E+03  0.12500291357E+03 0.  0.
          5    1    3    3  501    0 -0.86020413721E+01 -0.20995708935E+02 -0.10106901072E+03  0.10369112709E+03  0.47000000000E+01 0.  1.
         -5    1    3    3    0  501  0.12374124967E+03  0.11024638104E+02 -0.98461351933E+02  0.15858804286E+03  0.47000000000E+01 0.  1.
          5    1    4    4  502    0 -0.12191105675E+03 -0.21117656970E+02 -0.22363245218E+03  0.25562047035E+03  0.47000000000E+01 0. -1.
         -5    1    4    4    0  502  0.67718484582E+01  0.31088727801E+02 -0.10442622750E+02  0.33815755170E+02  0.47000000000E+01 0. -1.
<mgrwt>
<rscale>  0 0.34113956E+03</rscale>
<asrwt>0</asrwt>
<pdfrwt beam="1">  1       21 0.90853813E-02 0.34113956E+03</pdfrwt>
<pdfrwt beam="2">  1       21 0.75793911E-01 0.34113956E+03</pdfrwt>
<totfact> 0.14283743E+05</totfact>
</mgrwt>
</event>
<event>
 8    1  0.4760912E-006  0.2555533E+03  0.7546771E-02  0.1109845E+00
         21   -1    0    0  504  503  0.00000000000E+00  0.00000000000E+00  0.92143046853E+03  0.92143046853E+03  0.00000000000E+00 0. -1.
         21   -1    0    0  503  504 -0.00000000000E+00 -0.00000000000E+00 -0.17719048582E+02  0.17719048582E+02  0.00000000000E+00 0. -1.
         25    2    1    2    0    0  0.43137961180E+01  0.62930080637E+00  0.54769469924E+03  0.56179722939E+03  0.12501055363E+03 0.  0.
         25    2    1    2    0    0 -0.43137961180E+01 -0.62930080637E+00  0.35601672071E+03  0.37735228773E+03  0.12501135455E+03 0.  0.
          5    1    3    3  501    0  0.38949817916E+02  0.24138115738E+02  0.47904214061E+03  0.48125170070E+03  0.47000000000E+01 0.  1.
         -5    1    3    3    0  501 -0.34636021798E+02 -0.23508814932E+02  0.68652558625E+02  0.80545528685E+02  0.47000000000E+01 0.  1.
          5    1    4    4  502    0  0.12241121911E+02 -0.41410347541E+02  0.42650670927E+02  0.60875542541E+02  0.47000000000E+01 0. -1.
         -5    1    4    4    0  502 -0.16554918029E+02  0.40781046735E+02  0.31336604979E+03  0.31647674518E+03  0.47000000000E+01 0. -1.
<mgrwt>
<rscale>  0 0.25555329E+03</rscale>
<asrwt>0</asrwt>
<pdfrwt beam="1">  1       21 0.14175850E+00 0.25555329E+03</pdfrwt>
<pdfrwt beam="2">  1       21 0.27260082E-02 0.25555329E+03</pdfrwt>
<totfact> 0.25125684E+05</totfact>
</mgrwt>
</event>
<event>
 8    1  0.4760912E-006  0.2858537E+03  0.7546771E-02  0.1092534E+00
         21   -1    0    0  504  503  0.00000000000E+00  0.00000000000E+00  0.80473516049E+03  0.80473516049E+03  0.00000000000E+00 0. -1.
         21   -1    0    0  503  504 -0.00000000000E+00 -0.00000000000E+00 -0.25384856517E+02  0.25384856517E+02  0.00000000000E+00 0. -1.
         25    2    1    2    0    0 -0.50466294483E+02 -0.40087204832E+02  0.31561454969E+03  0.34552992719E+03  0.12499822294E+03 0.  0.
         25    2    1    2    0    0  0.50466294483E+02  0.40087204832E+02  0.46373575428E+03  0.48459008981E+03  0.12499149762E+03 0.  0.
          5    1    3    3  501    0 -0.91430133439E+02 -0.34240282382E+02  0.24124229592E+03  0.26029176241E+03  0.47000000000E+01 0.  1.
         -5    1    3    3    0  501  0.40963838956E+02 -0.58469224508E+01  0.74372253771E+02  0.85238164780E+02  0.47000000000E+01 0.  1.
          5    1    4    4  502    0 -0.23914275417E+02  0.56147709953E+02  0.15669775231E+03  0.16822821844E+03  0.47000000000E+01 0. -1.
         -5    1    4    4    0  502  0.74380569900E+02 -0.16060505120E+02  0.30703800197E+03  0.31636187137E+03  0.47000000000E+01 0. -1.
<mgrwt>
<rscale>  0 0.28585371E+03</rscale>
<asrwt>0</asrwt>
<pdfrwt beam="1">  1       21 0.12380539E+00 0.28585371E+03</pdfrwt>
<pdfrwt beam="2">  1       21 0.39053632E-02 0.28585371E+03</pdfrwt>
<totfact> 0.19324767E+05</totfact>
</mgrwt>
</event>
<event>
 8    1  0.4760912E-006  0.2994448E+03  0.7546771E-02  0.1085518E+00
         21   -1    0    0  504  503  0.00000000000E+00  0.00000000000E+00  0.38601694041E+03  0.38601694041E+03  0.00000000000E+00 0. -1.
         21   -1    0    0  503  504 -0.00000000000E+00 -0.00000000000E+00 -0.58072052704E+02  0.58072052704E+02  0.00000000000E+00 0. -1.
         25    2    1    2    0    0  0.77471265468E+02 -0.22510766060E+01  0.12243803287E+03  0.19137671763E+03  0.12500844707E+03 0.  0.
         25    2    1    2    0    0 -0.77471265468E+02  0.22510766060E+01  0.20550685484E+03  0.25271227548E+03  0.12499424977E+03 0.  0.
          5    1    3    3  501    0  0.10220344685E+02 -0.55919605069E+02  0.70804968490E+02  0.90922446291E+02  0.47000000000E+01 0.  1.
         -5    1    3    3    0  501  0.67250920783E+02  0.53668528464E+02  0.51633064376E+02  0.10045427134E+03  0.47000000000E+01 0.  1.
          5    1    4    4  502    0 -0.55645605273E+02 -0.56463631903E+02  0.14591880217E+03  0.16612935304E+03  0.47000000000E+01 0.  1.
         -5    1    4    4    0  502 -0.21825660194E+02  0.58714708509E+02  0.59588052669E+02  0.86582922445E+02  0.47000000000E+01 0.  1.
<mgrwt>
<rscale>  0 0.29944479E+03</rscale>
<asrwt>0</asrwt>
<pdfrwt beam="1">  1       21 0.59387220E-01 0.29944479E+03</pdfrwt>
<pdfrwt beam="2">  1       21 0.89341622E-02 0.29944479E+03</pdfrwt>
<totfact> 0.25509069E+05</totfact>
</mgrwt>
</event>
<event>
 8    1  0.4760912E-006  0.2899934E+03  0.7546771E-02  0.1090353E+00
         21   -1    0    0  504  503  0.00000000000E+00  0.00000000000E+00  0.33495232648E+03  0.33495232648E+03  0.00000000000E+00 0. -1.
         21   -1    0    0  503  504 -0.00000000000E+00 -0.00000000000E+00 -0.62767256342E+02  0.62767256342E+02  0.00000000000E+00 0. -1.
         25    2    1    2    0    0 -0.23320051180E+01 -0.48685112457E+02  0.21150544549E+03  0.25046819992E+03  0.12499634905E+03 0.  0.
         25    2    1    2    0    0  0.23320051180E+01  0.48685112457E+02  0.60679624646E+02  0.14725138290E+03  0.12500109798E+03 0.  0.
          5    1    3    3  501    0 -0.25880297721E+02 -0.58508041260E+02  0.21493008969E+03  0.22429893927E+03  0.47000000000E+01 0.  1.
         -5    1    3    3    0  501  0.23548292603E+02  0.98229288026E+01 -0.34246442043E+01  0.26169260645E+02  0.47000000000E+01 0.  1.
          5    1    4    4  502    0 -0.53508559095E+02 -0.67858242603E+01  0.15239511580E+02  0.56245408884E+02  0.47000000000E+01 0.  1.
         -5    1    4    4    0  502  0.55840564213E+02  0.55470936718E+02  0.45440113066E+02  0.91005974020E+02  0.47000000000E+01 0.  1.
<mgrwt>
<rscale>  0 0.28999337E+03</rscale>
<asrwt>0</asrwt>
<pdfrwt beam="1">  1       21 0.51531126E-01 0.28999337E+03</pdfrwt>
<pdfrwt beam="2">  1       21 0.96565011E-02 0.28999337E+03</pdfrwt>
<totfact> 0.30166854E+05</totfact>
</mgrwt>
</event>
<event>
 8    1  0.4760912E-006  0.2837848E+03  0.7546771E-02  0.1093640E+00
         21   -1    0    0  504  503  0.00000000000E+00  0.00000000000E+00  0.22757092202E+03  0.22757092202E+03  0.00000000000E+00 0. -1.
         21   -1    0    0  503  504 -0.00000000000E+00 -0.00000000000E+00 -0.88471102605E+02  0.88471102605E+02  0.00000000000E+00 0. -1.
         25    2    1    2    0    0  0.15083236002E+02 -0.51950949490E+01  0.14217172166E+03  0.18998105319E+03  0.12500203642E+03 0.  0.
         25    2    1    2    0    0 -0.15083236002E+02  0.51950949490E+01 -0.30719022501E+01  0.12606097144E+03  0.12500975528E+03 0.  0.
          5    1    3    3  501    0  0.22026228530E+02 -0.12138950694E+02  0.16379011604E+03  0.16577635833E+03  0.47000000000E+01 0.  1.
         -5    1    3    3    0  501 -0.69429925280E+01  0.69438557448E+01 -0.21618394378E+02  0.24204694861E+02  0.47000000000E+01 0.  1.
          5    1    4    4  502    0  0.24080187178E+01 -0.50195426030E+02 -0.33244032129E+02  0.60437033520E+02  0.47000000000E+01 0.  1.
         -5    1    4    4    0  502 -0.17491254720E+02  0.55390520979E+02  0.30172129879E+02  0.65623937915E+02  0.47000000000E+01 0.  1.
<mgrwt>
<rscale>  0 0.28378478E+03</rscale>
<asrwt>0</asrwt>
<pdfrwt beam="1">  1       21 0.35010911E-01 0.28378478E+03</pdfrwt>
<pdfrwt beam="2">  1       21 0.13610939E-01 0.28378478E+03</pdfrwt>
<totfact> 0.36070633E+05</totfact>
</mgrwt>
</event>
<event>
 8    1  0.4760912E-006  0.2665802E+03  0.7546771E-02  0.1103253E+00
         21   -1    0    0  504  503  0.00000000000E+00  0.00000000000E+00  0.64212856170E+03  0.64212856170E+03  0.00000000000E+00 0. -1.
         21   -1    0    0  503  504 -0.00000000000E+00 -0.00000000000E+00 -0.27667748410E+02  0.27667748410E+02  0.00000000000E+00 0. -1.
         25    2    1    2    0    0  0.14571667960E+02 -0.25907732171E+02  0.21823089181E+03  0.25324458605E+03  0.12499821651E+03 0.  0.
         25    2    1    2    0    0 -0.14571667960E+02  0.25907732171E+02  0.39622992148E+03  0.41655172406E+03  0.12503457141E+03 0.  0.
          5    1    3    3  501    0 -0.30913750087E+02  0.38158984573E+02  0.74083557077E+02  0.89006918143E+02  0.47000000000E+01 0. -1.
         -5    1    3    3    0  501  0.45485418047E+02 -0.64066716743E+02  0.14414733473E+03  0.16423766791E+03  0.47000000000E+01 0. -1.
          5    1    4    4  502    0 -0.66579416476E+02  0.20299072501E+02  0.28691495865E+03  0.29527471030E+03  0.47000000000E+01 0.  1.
         -5    1    4    4    0  502  0.52007748515E+02  0.56086596699E+01  0.10931496283E+03  0.12127701377E+03  0.47000000000E+01 0.  1.
<mgrwt>
<rscale>  0 0.26658021E+03</rscale>
<asrwt>0</asrwt>
<pdfrwt beam="1">  1       21 0.98788999E-01 0.26658021E+03</pdfrwt>
<pdfrwt beam="2">  1       21 0.42565771E-02 0.26658021E+03</pdfrwt>
<totfact> 0.29216006E+05</totfact>
</mgrwt>
</event>
<event>
 8    1  0.4760912E-006  0.3859892E+03  0.7546771E-02  0.1048742E+00
         21   -1    0    0  504  503  0.00000000000E+00  0.00000000000E+00  0.78335168672E+03  0.78335168672E+03  0.00000000000E+00 0. -1.
         21   -1    0    0  503  504 -0.00000000000E+00 -0.00000000000E+00 -0.47548145992E+02  0.47548145992E+02  0.00000000000E+00 0. -1.
         25    2    1    2    0    0 -0.14474775014E+03  0.12889792273E+02  0.31958059974E+03  0.37265928806E+03  0.12500050933E+03 0.  0.
         25    2    1    2    0    0  0.14474775014E+03 -0.12889792273E+02  0.41622294099E+03  0.45824054465E+03  0.12499920897E+03 0.  0.
          5    1    3    3  501    0 -0.42003634630E+02  0.63329330624E+02  0.10937324544E+03  0.13326479752E+03  0.47000000000E+01 0. -1.
         -5    1    3    3    0  501 -0.10274411551E+03 -0.50439538351E+02  0.21020735430E+03  0.23939449054E+03  0.47000000000E+01 0. -1.
          5    1    4    4  502    0  0.48153555058E+02  0.43183139167E+02  0.74881467187E+02  0.99059943979E+02  0.47000000000E+01 0.  1.
         -5    1    4    4    0  502  0.96594195078E+02 -0.56072931440E+02  0.34134147380E+03  0.35918060067E+03  0.47000000000E+01 0.  1.
<mgrwt>
<rscale>  0 0.38598922E+03</rscale>
<asrwt>0</asrwt>
<pdfrwt beam="1">  1       21 0.12051564E+00 0.38598922E+03</pdfrwt>
<pdfrwt beam="2">  1       21 0.73150999E-02 0.38598922E+03</pdfrwt>
<totfact> 0.68346512E+04</totfact>
</mgrwt>
</event>
<event>
 8    1  0.4760912E-006  0.3025469E+03  0.7546771E-02  0.1083974E+00
         21   -1    0    0  504  503  0.00000000000E+00  0.00000000000E+00  0.20687526117E+03  0.20687526117E+03  0.00000000000E+00 0.  1.
         21   -1    0    0  503  504 -0.00000000000E+00 -0.00000000000E+00 -0.11061575544E+03  0.11061575544E+03  0.00000000000E+00 0.  1.
         25    2    1    2    0    0 -0.42351834443E+02  0.73241679444E+02  0.37728019413E+02  0.15559335469E+03  0.12501146782E+03 0.  0.
         25    2    1    2    0    0  0.42351834443E+02 -0.73241679444E+02  0.58531486314E+02  0.16189766192E+03  0.12500758600E+03 0.  0.
          5    1    3    3  501    0  0.35581204699E+02  0.11648241703E+02  0.41482996414E+02  0.56077024298E+02  0.47000000000E+01 0.  1.
         -5    1    3    3    0  501 -0.77933039142E+02  0.61593437741E+02 -0.37549770011E+01  0.99516330393E+02  0.47000000000E+01 0.  1.
          5    1    4    4  502    0 -0.87540891492E+01  0.29396356594E+02  0.31053420781E+02  0.43899712984E+02  0.47000000000E+01 0.  1.
         -5    1    4    4    0  502  0.51105923592E+02 -0.10263803604E+03  0.27478065533E+02  0.11799794894E+03  0.47000000000E+01 0.  1.
<mgrwt>
<rscale>  0 0.30254694E+03</rscale>
<asrwt>0</asrwt>
<pdfrwt beam="1">  1       21 0.31826963E-01 0.30254694E+03</pdfrwt>
<pdfrwt beam="2">  1       21 0.17017809E-01 0.30254694E+03</pdfrwt>
<totfact> 0.28810086E+05</totfact>
</mgrwt>
</event>
<event>
 8    1  0.4760912E-006  0.2814637E+03  0.7546771E-02  0.1094892E+00
         21   -1    0    0  504  503  0.00000000000E+00  0.00000000000E+00  0.21445952145E+02  0.21445952145E+02  0.00000000000E+00 0.  1.
         21   -1    0    0  503  504 -0.00000000000E+00 -0.00000000000E+00 -0.92350518471E+03  0.92350518471E+03  0.00000000000E+00 0.  1.
         25    2    1    2    0    0  0.18897047256E+02  0.60761581353E+02 -0.48960130811E+03  0.50929829526E+03  0.12500497784E+03 0.  0.
         25    2    1    2    0    0 -0.18897047256E+02 -0.60761581353E+02 -0.41245792445E+03  0.43565284159E+03  0.12499116282E+03 0.  0.
          5    1    3    3  501    0 -0.77859034462E+01 -0.31485706785E+02 -0.53624057496E+02  0.62845839691E+02  0.47000000000E+01 0.  1.
         -5    1    3    3    0  501  0.26682950702E+02  0.92247288138E+02 -0.43597725062E+03  0.44645245557E+03  0.47000000000E+01 0.  1.
          5    1    4    4  502    0 -0.55558704129E+02  0.12653576987E+02 -0.19373832984E+03  0.20199879471E+03  0.47000000000E+01 0.  1.
         -5    1    4    4    0  502  0.36661656872E+02 -0.73415158340E+02 -0.21871959461E+03  0.23365404688E+03  0.47000000000E+01 0.  1.
<mgrwt>
<rscale>  0 0.28146366E+03</rscale>
<asrwt>0</asrwt>
<pdfrwt beam="1">  1       21 0.32993766E-02 0.28146366E+03</pdfrwt>
<pdfrwt beam="2">  1       21 0.14207775E+00 0.28146366E+03</pdfrwt>
<totfact> 0.18026707E+05</totfact>
</mgrwt>
</event>
<event>
 8    1  0.4760912E-006  0.3641475E+03  0.7546771E-02  0.1056954E+00
         21   -1    0    0  504  503  0.00000000000E+00  0.00000000000E+00  0.23917748549E+02  0.23917748549E+02  0.00000000000E+00 0. -1.
         21   -1    0    0  503  504 -0.00000000000E+00 -0.00000000000E+00 -0.13860353002E+04  0.13860353002E+04  0.00000000000E+00 0. -1.
         25    2    1    2    0    0  0.11971656809E+03  0.53989247895E+02 -0.61629945235E+03  0.64241404818E+03  0.12499559499E+03 0.  0.
         25    2    1    2    0    0 -0.11971656809E+03 -0.53989247895E+02 -0.74581809935E+03  0.76753900062E+03  0.12499833834E+03 0.  0.
          5    1    3    3  501    0  0.77128891092E+02  0.72211756311E+02 -0.55734509727E+03  0.56729097563E+03  0.47000000000E+01 0. -1.
         -5    1    3    3    0  501  0.42587676996E+02 -0.18222508416E+02 -0.58954355080E+02  0.75123072540E+02  0.47000000000E+01 0. -1.
          5    1    4    4  502    0 -0.82202043225E+01 -0.63906494664E+02 -0.19437472988E+03  0.20482977673E+03  0.47000000000E+01 0.  1.
         -5    1    4    4    0  502 -0.11149636377E+03  0.99172467688E+01 -0.55144336947E+03  0.56270922389E+03  0.47000000000E+01 0.  1.
<mgrwt>
<rscale>  0 0.36414746E+03</rscale>
<asrwt>0</asrwt>
<pdfrwt beam="1">  1       21 0.36796531E-02 0.36414746E+03</pdfrwt>
<pdfrwt beam="2">  1       21 0.21323623E+00 0.36414746E+03</pdfrwt>
<totfact> 0.45735643E+04</totfact>
</mgrwt>
</event>
<event>
 8    1  0.4760912E-006  0.3154191E+03  0.7546771E-02  0.1077777E+00
         21   -1    0    0  504  503  0.00000000000E+00  0.00000000000E+00  0.40994316584E+02  0.40994316584E+02  0.00000000000E+00 0. -1.
         21   -1    0    0  503  504 -0.00000000000E+00 -0.00000000000E+00 -0.60672566021E+03  0.60672566021E+03  0.00000000000E+00 0. -1.
         25    2    1    2    0    0 -0.53406600746E+02  0.79971192366E+02 -0.28321656086E+03  0.32416794938E+03  0.12500232976E+03 0.  0.
         25    2    1    2    0    0  0.53406600746E+02 -0.79971192366E+02 -0.28251478276E+03  0.32355202742E+03  0.12499462130E+03 0.  0.
          5    1    3    3  501    0 -0.65895049822E+02 -0.85690795623E+01 -0.14370244334E+03  0.15839213660E+03  0.47000000000E+01 0.  1.
         -5    1    3    3    0  501  0.12488449076E+02  0.88540271928E+02 -0.13951411752E+03  0.16577581277E+03  0.47000000000E+01 0.  1.
          5    1    4    4  502    0 -0.40960909396E+02 -0.22430197281E+02 -0.77949409488E+02  0.90989616376E+02  0.47000000000E+01 0.  1.
         -5    1    4    4    0  502  0.94367510142E+02 -0.57540995085E+02 -0.20456537328E+03  0.23256241104E+03  0.47000000000E+01 0.  1.
<mgrwt>
<rscale>  0 0.31541911E+03</rscale>
<asrwt>0</asrwt>
<pdfrwt beam="1">  1       21 0.63068186E-02 0.31541911E+03</pdfrwt>
<pdfrwt beam="2">  1       21 0.93342399E-01 0.31541911E+03</pdfrwt>
<totfact> 0.16837423E+05</totfact>
</mgrwt>
</event>
<event>
 8    1  0.4760912E-006  0.4972378E+03  0.7546771E-02  0.1014502E+00
         21   -1    0    0  504  503  0.00000000000E+00  0.00000000000E+00  0.11085954442E+04  0.11085954442E+04  0.00000000000E+00 0.  1.
         21   -1    0    0  503  504 -0.00000000000E+00 -0.00000000000E+00 -0.55756461543E+02  0.55756461543E+02  0.00000000000E+00 0.  1.
         25    2    1    2    0    0  0.17855924090E+03 -0.11863889164E+03  0.56172740303E+03  0.61410310267E+03  0.12500542495E+03 0.  0.
         25    2    1    2    0    0 -0.17855924090E+03  0.11863889164E+03  0.49111157965E+03  0.55024880310E+03  0.12499829009E+03 0.  0.
          5    1    3    3  501    0  0.10783974558E+03 -0.12643630791E+03  0.30163972541E+03  0.34441858927E+03  0.47000000000E+01 0.  1.
         -5    1    3    3    0  501  0.70719495323E+02  0.77974162685E+01  0.26008767762E+03  0.26968451340E+03  0.47000000000E+01 0.  1.
          5    1    4    4  502    0 -0.34963733442E+02  0.29164895273E+02  0.20551706144E+02  0.50174858225E+02  0.47000000000E+01 0.  1.
         -5    1    4    4    0  502 -0.14359550746E+03  0.89473996371E+02  0.47055987351E+03  0.50007394488E+03  0.47000000000E+01 0.  1.
<mgrwt>
<rscale>  0 0.49723781E+03</rscale>
<asrwt>0</asrwt>
<pdfrwt beam="1">  1       21 0.17055313E+00 0.49723781E+03</pdfrwt>
<pdfrwt beam="2">  1       21 0.85779180E-02 0.49723781E+03</pdfrwt>
<totfact> 0.19710214E+04</totfact>
</mgrwt>
</event>
<event>
 8    1  0.4760912E-006  0.2510470E+03  0.7546771E-02  0.1112645E+00
         21   -1    0    0  504  503  0.00000000000E+00  0.00000000000E+00  0.31819923770E+03  0.31819923770E+03  0.00000000000E+00 0. -1.
         21   -1    0    0  503  504 -0.00000000000E+00 -0.00000000000E+00 -0.49516629262E+02  0.49516629262E+02  0.00000000000E+00 0. -1.
         25    2    1    2    0    0  0.11223500435E+02 -0.19315867858E+01  0.13479766097E+03  0.18419462670E+03  0.12501021203E+03 0.  0.
         25    2    1    2    0    0 -0.11223500435E+02  0.19315867858E+01  0.13388494747E+03  0.18352124026E+03  0.12500067392E+03 0.  0.
          5    1    3    3  501    0  0.33120971920E+02 -0.46332442990E+02  0.11900939326E+03  0.13201901280E+03  0.47000000000E+01 0.  1.
         -5    1    3    3    0  501 -0.21897471485E+02  0.44400856204E+02  0.15788267705E+02  0.52175613904E+02  0.47000000000E+01 0.  1.
          5    1    4    4  502    0  0.20631609388E+02  0.20932556820E+02 -0.12613674745E+02  0.32326924251E+02  0.47000000000E+01 0. -1.
         -5    1    4    4    0  502 -0.31855109823E+02 -0.19000970034E+02  0.14649862221E+03  0.15119431601E+03  0.47000000000E+01 0. -1.
<mgrwt>
<rscale>  0 0.25104704E+03</rscale>
<asrwt>0</asrwt>
<pdfrwt beam="1">  1       21 0.48953728E-01 0.25104704E+03</pdfrwt>
<pdfrwt beam="2">  1       21 0.76179432E-02 0.25104704E+03</pdfrwt>
<totfact> 0.51420312E+05</totfact>
</mgrwt>
</event>
<event>
 8    1  0.4760912E-006  0.3045596E+03  0.7546771E-02  0.1082983E+00
         21   -1    0    0  504  503  0.00000000000E+00  0.00000000000E+00  0.22168873340E+03  0.22168873340E+03  0.00000000000E+00 0.  1.
         21   -1    0    0  503  504 -0.00000000000E+00 -0.00000000000E+00 -0.10460226914E+03  0.10460226914E+03  0.00000000000E+00 0.  1.
         25    2    1    2    0    0 -0.10985442896E+02  0.54249219856E+02  0.13043331483E+03  0.18893488174E+03  0.12497952676E+03 0.  0.
         25    2    1    2    0    0  0.10985442896E+02 -0.54249219856E+02 -0.13346850565E+02  0.13735612080E+03  0.12499963076E+03 0.  0.
          5    1    3    3  501    0 -0.53805892970E+02  0.38292307400E+02  0.12656264357E+03  0.14283405641E+03  0.47000000000E+01 0.  1.
         -5    1    3    3    0  501  0.42820450073E+02  0.15956912456E+02  0.38706712598E+01  0.46100825325E+02  0.47000000000E+01 0.  1.
          5    1    4    4  502    0  0.21768460569E+02  0.30376703130E+02 -0.32554149693E+02  0.49784260874E+02  0.47000000000E+01 0.  1.
         -5    1    4    4    0  502 -0.10783017673E+02 -0.84625922986E+02  0.19207299128E+02  0.87571859927E+02  0.47000000000E+01 0.  1.
<mgrwt>
<rscale>  0 0.30455965E+03</rscale>
<asrwt>0</asrwt>
<pdfrwt beam="1">  1       21 0.34105959E-01 0.30455965E+03</pdfrwt>
<pdfrwt beam="2">  1       21 0.16092657E-01 0.30455965E+03</pdfrwt>
<totfact> 0.27834201E+05</totfact>
</mgrwt>
</event>
<event>
 8    1  0.4760912E-006  0.2659104E+03  0.7546771E-02  0.1103643E+00
         21   -1    0    0  504  503  0.00000000000E+00  0.00000000000E+00  0.61446374049E+01  0.61446374049E+01  0.00000000000E+00 0. -1.
         21   -1    0    0  503  504 -0.00000000000E+00 -0.00000000000E+00 -0.28768306259E+04  0.28768306259E+04  0.00000000000E+00 0. -1.
         25    2    1    2    0    0 -0.38816513820E+00  0.18030054019E+02 -0.18858454176E+04  0.18900695710E+04  0.12499924218E+03 0.  0.
         25    2    1    2    0    0  0.38816513820E+00 -0.18030054019E+02 -0.98484057086E+03  0.99290569228E+03  0.12500212097E+03 0.  0.
          5    1    3    3  501    0 -0.11837356758E+02  0.61663727222E+02 -0.57452828267E+03  0.57796831735E+03  0.47000000000E+01 0.  1.
         -5    1    3    3    0  501  0.11449191620E+02 -0.43633673203E+02 -0.13113171349E+04  0.13121012536E+04  0.47000000000E+01 0.  1.
          5    1    4    4  502    0 -0.24775045661E+02 -0.16403513262E+02 -0.94527278475E+03  0.94575134456E+03  0.47000000000E+01 0.  1.
         -5    1    4    4    0  502  0.25163210799E+02 -0.16265407576E+01 -0.39567786100E+02  0.47154347726E+02  0.47000000000E+01 0.  1.
<mgrwt>
<rscale>  0 0.26591037E+03</rscale>
<asrwt>0</asrwt>
<pdfrwt beam="1">  1       21 0.94532829E-03 0.26591037E+03</pdfrwt>
<pdfrwt beam="2">  1       21 0.44258958E+00 0.26591037E+03</pdfrwt>
<totfact> 0.17653358E+04</totfact>
</mgrwt>
</event>
<event>
 8    1  0.4760912E-006  0.2917821E+03  0.7546771E-02  0.1089422E+00
         21   -1    0    0  504  503  0.00000000000E+00  0.00000000000E+00  0.51610038069E+03  0.51610038069E+03  0.00000000000E+00 0.  1.
         21   -1    0    0  503  504 -0.00000000000E+00 -0.00000000000E+00 -0.41240416282E+02  0.41240416282E+02  0.00000000000E+00 0.  1.
         25    2    1    2    0    0  0.51457723928E+02 -0.15367061002E+02  0.33804702715E+03  0.36439738937E+03  0.12500248358E+03 0.  0.
         25    2    1    2    0    0 -0.51457723928E+02  0.15367061002E+02  0.13681293726E+03  0.19294340760E+03  0.12500133927E+03 0.  0.
          5    1    3    3  501    0  0.54672869067E+01  0.31985151121E+02  0.17648247886E+02  0.37235625036E+02  0.47000000000E+01 0.  1.
         -5    1    3    3    0  501  0.45990437021E+02 -0.47352212122E+02  0.32039877926E+03  0.32716176434E+03  0.47000000000E+01 0.  1.
          5    1    4    4  502    0 -0.34286867193E+02 -0.39383104743E+02  0.95867853375E+01  0.53297416956E+02  0.47000000000E+01 0. -1.
         -5    1    4    4    0  502 -0.17170856735E+02  0.54750165745E+02  0.12722615192E+03  0.13964599065E+03  0.47000000000E+01 0. -1.
<mgrwt>
<rscale>  0 0.29178207E+03</rscale>
<asrwt>0</asrwt>
<pdfrwt beam="1">  1       21 0.79400054E-01 0.29178207E+03</pdfrwt>
<pdfrwt beam="2">  1       21 0.63446798E-02 0.29178207E+03</pdfrwt>
<totfact> 0.24399392E+05</totfact>
</mgrwt>
</event>
<event>
 8    1  0.4760912E-006  0.2714377E+03  0.7546771E-02  0.1100460E+00
         21   -1    0    0  504  503  0.00000000000E+00  0.00000000000E+00  0.16009004686E+03  0.16009004686E+03  0.00000000000E+00 0. -1.
         21   -1    0    0  503  504 -0.00000000000E+00 -0.00000000000E+00 -0.11505780839E+03  0.11505780839E+03  0.00000000000E+00 0. -1.
         25    2    1    2    0    0  0.52656885306E+02 -0.38856190509E+01  0.25094239972E+02  0.13799885948E+03  0.12500447485E+03 0.  0.
         25    2    1    2    0    0 -0.52656885306E+02  0.38856190509E+01  0.19937998499E+02  0.13714899577E+03  0.12499791058E+03 0.  0.
          5    1    3    3  501    0  0.33563214310E+02  0.13948201730E+02  0.73873114001E+02  0.82464347802E+02  0.47000000000E+01 0. -1.
         -5    1    3    3    0  501  0.19093670996E+02 -0.17833820781E+02 -0.48778874028E+02  0.55534511677E+02  0.47000000000E+01 0. -1.
          5    1    4    4  502    0  0.25901273119E+02  0.34375888365E+02 -0.14975322874E+02  0.45814058380E+02  0.47000000000E+01 0.  1.
         -5    1    4    4    0  502 -0.78558158425E+02 -0.30490269314E+02  0.34913321372E+02  0.91334937385E+02  0.47000000000E+01 0.  1.
<mgrwt>
<rscale>  0 0.27143773E+03</rscale>
<asrwt>0</asrwt>
<pdfrwt beam="1">  1       21 0.24629238E-01 0.27143773E+03</pdfrwt>
<pdfrwt beam="2">  1       21 0.17701201E-01 0.27143773E+03</pdfrwt>
<totfact> 0.44421271E+05</totfact>
</mgrwt>
</event>
<event>
 8    1  0.4760912E-006  0.3232934E+03  0.7546771E-02  0.1074143E+00
         21   -1    0    0  504  503  0.00000000000E+00  0.00000000000E+00  0.73466652406E+03  0.73466652406E+03  0.00000000000E+00 0.  1.
         21   -1    0    0  503  504 -0.00000000000E+00 -0.00000000000E+00 -0.35566699243E+02  0.35566699243E+02  0.00000000000E+00 0.  1.
         25    2    1    2    0    0  0.16158359641E+02 -0.97310856968E+02  0.28324746687E+03  0.32493633753E+03  0.12499600191E+03 0.  0.
         25    2    1    2    0    0 -0.16158359641E+02  0.97310856968E+02  0.41585235795E+03  0.44529688577E+03  0.12500254955E+03 0.  0.
          5    1    3    3  501    0 -0.37082946188E+02 -0.25912325603E+02  0.25388622905E+02  0.52089016973E+02  0.47000000000E+01 0.  1.
         -5    1    3    3    0  501  0.53241305829E+02 -0.71398531365E+02  0.25785884396E+03  0.27284732056E+03  0.47000000000E+01 0.  1.
          5    1    4    4  502    0  0.16642879994E+02  0.44878012275E+02  0.35555349892E+03  0.35879158579E+03  0.47000000000E+01 0. -1.
         -5    1    4    4    0  502 -0.32801239635E+02  0.52432844693E+02  0.60298859030E+02  0.86505299979E+02  0.47000000000E+01 0. -1.
<mgrwt>
<rscale>  0 0.32329345E+03</rscale>
<asrwt>0</asrwt>
<pdfrwt beam="1">  1       21 0.11302561E+00 0.32329345E+03</pdfrwt>
<pdfrwt beam="2">  1       21 0.54718005E-02 0.32329345E+03</pdfrwt>
<totfact> 0.13514577E+05</totfact>
</mgrwt>
</event>
<event>
 8    1  0.4760912E-006  0.3380308E+03  0.7546771E-02  0.1067638E+00
         21   -1    0    0  504  503  0.00000000000E+00  0.00000000000E+00  0.19956281148E+03  0.19956281148E+03  0.00000000000E+00 0.  1.
         21   -1    0    0  503  504 -0.00000000000E+00 -0.00000000000E+00 -0.14314393461E+03  0.14314393461E+03  0.00000000000E+00 0.  1.
         25    2    1    2    0    0  0.59443440961E+02 -0.31930750714E+02 -0.64690928789E+02  0.15607985213E+03  0.12499163356E+03 0.  0.
         25    2    1    2    0    0 -0.59443440961E+02  0.31930750714E+02  0.12110980565E+03  0.18662689396E+03  0.12493565147E+03 0.  0.
          5    1    3    3  501    0 -0.10679147991E+02 -0.43209810483E+02  0.16866291529E+02  0.47829841247E+02  0.47000000000E+01 0. -1.
         -5    1    3    3    0  501  0.70122588952E+02  0.11279059769E+02 -0.81557220318E+02  0.10825001088E+03  0.47000000000E+01 0. -1.
          5    1    4    4  502    0 -0.88727826754E+02  0.44977254645E+02  0.56878801534E+02  0.11468595703E+03  0.47000000000E+01 0.  1.
         -5    1    4    4    0  502  0.29284385793E+02 -0.13046503931E+02  0.64231004119E+02  0.71940936929E+02  0.47000000000E+01 0.  1.
<mgrwt>
<rscale>  0 0.33803080E+03</rscale>
<asrwt>0</asrwt>
<pdfrwt beam="1">  1       21 0.30701971E-01 0.33803080E+03</pdfrwt>
<pdfrwt beam="2">  1       21 0.22022144E-01 0.33803080E+03</pdfrwt>
<totfact> 0.18903868E+05</totfact>
</mgrwt>
</event>
<event>
 8    1  0.4760912E-006  0.5157134E+03  0.7546771E-02  0.1009757E+00
         21   -1    0    0  504  503  0.00000000000E+00  0.00000000000E+00  0.16810707353E+03  0.16810707353E+03  0.00000000000E+00 0.  1.
         21   -1    0    0  503  504 -0.00000000000E+00 -0.00000000000E+00 -0.39552213010E+03  0.39552213010E+03  0.00000000000E+00 0.  1.
         25    2    1    2    0    0  0.83550382208E+02  0.17152198993E+03 -0.24516971870E+03  0.33486314481E+03  0.12499870155E+03 0.  0.
         25    2    1    2    0    0 -0.83550382208E+02 -0.17152198993E+03  0.17754662134E+02  0.22876605882E+03  0.12497288604E+03 0.  0.
          5    1    3    3  501    0  0.64133547738E+02  0.69536853360E+02 -0.20050233567E+03  0.22174706882E+03  0.47000000000E+01 0. -1.
         -5    1    3    3    0  501  0.19416834470E+02  0.10198513657E+03 -0.44667383032E+02  0.11311607599E+03  0.47000000000E+01 0. -1.
          5    1    4    4  502    0 -0.23544422979E+02 -0.15431535941E+03  0.41859728635E+02  0.16168455982E+03  0.47000000000E+01 0.  1.
         -5    1    4    4    0  502 -0.60005959230E+02 -0.17206630512E+02 -0.24105066500E+02  0.67081498997E+02  0.47000000000E+01 0.  1.
<mgrwt>
<rscale>  0 0.51571336E+03</rscale>
<asrwt>0</asrwt>
<pdfrwt beam="1">  1       21 0.25862627E-01 0.51571336E+03</pdfrwt>
<pdfrwt beam="2">  1       21 0.60849558E-01 0.51571336E+03</pdfrwt>
<totfact> 0.32110923E+04</totfact>
</mgrwt>
</event>
<event>
 8    1  0.4760912E-006  0.3709058E+03  0.7546771E-02  0.1054347E+00
         21   -1    0    0  504  503  0.00000000000E+00  0.00000000000E+00  0.11130542489E+04  0.11130542489E+04  0.00000000000E+00 0.  1.
         21   -1    0    0  503  504 -0.00000000000E+00 -0.00000000000E+00 -0.30899456527E+02  0.30899456527E+02  0.00000000000E+00 0.  1.
         25    2    1    2    0    0 -0.82736382805E+02  0.10849924747E+03  0.50346756237E+03  0.53640056841E+03  0.12501434992E+03 0.  0.
         25    2    1    2    0    0  0.82736382805E+02 -0.10849924747E+03  0.57868723000E+03  0.60755313701E+03  0.12499803356E+03 0.  0.
          5    1    3    3  501    0 -0.10522492794E+03  0.11566662582E+03  0.46868277128E+03  0.49410189625E+03  0.47000000000E+01 0.  1.
         -5    1    3    3    0  501  0.22488545134E+02 -0.71673783487E+01  0.34784791091E+02  0.42298672153E+02  0.47000000000E+01 0.  1.
          5    1    4    4  502    0  0.33188890101E+02 -0.44645373382E+02  0.57605306706E+02  0.80219530984E+02  0.47000000000E+01 0. -1.
         -5    1    4    4    0  502  0.49547492704E+02 -0.63853874088E+02  0.52108192329E+03  0.52733360603E+03  0.47000000000E+01 0. -1.
<mgrwt>
<rscale>  0 0.37090576E+03</rscale>
<asrwt>0</asrwt>
<pdfrwt beam="1">  1       21 0.17123908E+00 0.37090576E+03</pdfrwt>
<pdfrwt beam="2">  1       21 0.47537634E-02 0.37090576E+03</pdfrwt>
<totfact> 0.56750496E+04</totfact>
</mgrwt>
</event>
<event>
 8    1  0.4760912E-006  0.2923062E+03  0.7546771E-02  0.1089151E+00
         21   -1    0    0  504  503  0.00000000000E+00  0.00000000000E+00  0.18963613626E+03  0.18963613626E+03  0.00000000000E+00 0.  1.
         21   -1    0    0  503  504 -0.00000000000E+00 -0.00000000000E+00 -0.11264059450E+03  0.11264059450E+03  0.00000000000E+00 0.  1.
         25    2    1    2    0    0 -0.51040755998E+00 -0.73284339213E+02  0.18578707630E+02  0.14608409450E+03  0.12499815759E+03 0.  0.
         25    2    1    2    0    0  0.51040755998E+00  0.73284339213E+02  0.58416834130E+02  0.15619263626E+03  0.12495102329E+03 0.  0.
          5    1    3    3  501    0  0.29308017059E+02 -0.12838983034E+01 -0.39034784241E+02  0.49055199923E+02  0.47000000000E+01 0. -1.
         -5    1    3    3    0  501 -0.29818424619E+02 -0.72000440910E+02  0.57613491870E+02  0.97028894580E+02  0.47000000000E+01 0. -1.
          5    1    4    4  502    0 -0.24281376564E+02 -0.13629599494E+02 -0.21471099154E+02  0.35474629372E+02  0.47000000000E+01 0. -1.
         -5    1    4    4    0  502  0.24791784124E+02  0.86913938707E+02  0.79887933284E+02  0.12071800688E+03  0.47000000000E+01 0. -1.
<mgrwt>
<rscale>  0 0.29230619E+03</rscale>
<asrwt>0</asrwt>
<pdfrwt beam="1">  1       21 0.29174790E-01 0.29230619E+03</pdfrwt>
<pdfrwt beam="2">  1       21 0.17329322E-01 0.29230619E+03</pdfrwt>
<totfact> 0.33135249E+05</totfact>
</mgrwt>
</event>
<event>
 8    1  0.4760912E-006  0.3921220E+03  0.7546771E-02  0.1046542E+00
         21   -1    0    0  504  503  0.00000000000E+00  0.00000000000E+00  0.38586980626E+02  0.38586980626E+02  0.00000000000E+00 0. -1.
         21   -1    0    0  503  504 -0.00000000000E+00 -0.00000000000E+00 -0.99618896054E+03  0.99618896054E+03  0.00000000000E+00 0. -1.
         25    2    1    2    0    0 -0.11033307140E+03 -0.88560129764E+02 -0.33917479932E+03  0.38817422524E+03  0.12499360551E+03 0.  0.
         25    2    1    2    0    0  0.11033307140E+03  0.88560129764E+02 -0.61842718060E+03  0.64660171593E+03  0.12500127243E+03 0.  0.
          5    1    3    3  501    0 -0.10744390174E+02 -0.81336094040E+02 -0.20499490282E+03  0.22085289742E+03  0.47000000000E+01 0. -1.
         -5    1    3    3    0  501 -0.99588681230E+02 -0.72240357236E+01 -0.13417989649E+03  0.16732132782E+03  0.47000000000E+01 0. -1.
          5    1    4    4  502    0  0.22093802662E+02  0.83077769867E+02 -0.18267225154E+03  0.20194378784E+03  0.47000000000E+01 0. -1.
         -5    1    4    4    0  502  0.88239268742E+02  0.54823598971E+01 -0.43575492906E+03  0.44465792809E+03  0.47000000000E+01 0. -1.
<mgrwt>
<rscale>  0 0.39212204E+03</rscale>
<asrwt>0</asrwt>
<pdfrwt beam="1">  1       21 0.59364592E-02 0.39212204E+03</pdfrwt>
<pdfrwt beam="2">  1       21 0.15325982E+00 0.39212204E+03</pdfrwt>
<totfact> 0.52318215E+04</totfact>
</mgrwt>
</event>
<event>
 8    1  0.4760912E-006  0.2701258E+03  0.7546771E-02  0.1101208E+00
         21   -1    0    0  504  503  0.00000000000E+00  0.00000000000E+00  0.33196955664E+03  0.33196955664E+03  0.00000000000E+00 0.  1.
         21   -1    0    0  503  504 -0.00000000000E+00 -0.00000000000E+00 -0.54950764400E+02  0.54950764400E+02  0.00000000000E+00 0.  1.
         25    2    1    2    0    0  0.39448192866E+02  0.73110476084E+00  0.91866828890E+02  0.16006626638E+03  0.12500000379E+03 0.  0.
         25    2    1    2    0    0 -0.39448192866E+02 -0.73110476084E+00  0.18515196335E+03  0.22685405466E+03  0.12499927259E+03 0.  0.
          5    1    3    3  501    0 -0.37756058140E+02 -0.11845358677E+02  0.66816125558E+02  0.77796639278E+02  0.47000000000E+01 0. -1.
         -5    1    3    3    0  501  0.77204251006E+02  0.12576463438E+02  0.25050703332E+02  0.82269627102E+02  0.47000000000E+01 0. -1.
          5    1    4    4  502    0 -0.82101848256E+02  0.17952060821E+02  0.12325221108E+03  0.14925209383E+03  0.47000000000E+01 0.  1.
         -5    1    4    4    0  502  0.42653655390E+02 -0.18683165581E+02  0.61899752263E+02  0.77601960829E+02  0.47000000000E+01 0.  1.
<mgrwt>
<rscale>  0 0.27012576E+03</rscale>
<asrwt>0</asrwt>
<pdfrwt beam="1">  1       21 0.51072238E-01 0.27012576E+03</pdfrwt>
<pdfrwt beam="2">  1       21 0.84539639E-02 0.27012576E+03</pdfrwt>
<totfact> 0.39052371E+05</totfact>
</mgrwt>
</event>
<event>
 8    1  0.4760912E-006  0.2706873E+03  0.7546771E-02  0.1100887E+00
         21   -1    0    0  504  503  0.00000000000E+00  0.00000000000E+00  0.39496909664E+02  0.39496909664E+02  0.00000000000E+00 0.  1.
         21   -1    0    0  503  504 -0.00000000000E+00 -0.00000000000E+00 -0.46378081524E+03  0.46378081524E+03  0.00000000000E+00 0.  1.
         25    2    1    2    0    0  0.45686207272E+02  0.89503336479E+01 -0.25476129963E+03  0.28756860549E+03  0.12500018025E+03 0.  0.
         25    2    1    2    0    0 -0.45686207272E+02 -0.89503336479E+01 -0.16952260594E+03  0.21570911942E+03  0.12500068907E+03 0.  0.
          5    1    3    3  501    0  0.15627489088E+02 -0.19918908634E+02 -0.24251221765E+03  0.24387547447E+03  0.47000000000E+01 0. -1.
         -5    1    3    3    0  501  0.30058718184E+02  0.28869242282E+02 -0.12249081981E+02  0.43693131018E+02  0.47000000000E+01 0. -1.
          5    1    4    4  502    0 -0.34556870248E+02 -0.63658395331E+02 -0.66523136138E+02  0.98458042938E+02  0.47000000000E+01 0. -1.
         -5    1    4    4    0  502 -0.11129337024E+02  0.54708061683E+02 -0.10299946980E+03  0.11725107648E+03  0.47000000000E+01 0. -1.
<mgrwt>
<rscale>  0 0.27068734E+03</rscale>
<asrwt>0</asrwt>
<pdfrwt beam="1">  1       21 0.60764477E-02 0.27068734E+03</pdfrwt>
<pdfrwt beam="2">  1       21 0.71350894E-01 0.27068734E+03</pdfrwt>
<totfact> 0.33621606E+05</totfact>
</mgrwt>
</event>
<event>
 8    1  0.4760912E-006  0.2591640E+03  0.7546771E-02  0.1107647E+00
         21   -1    0    0  504  503  0.00000000000E+00  0.00000000000E+00  0.61106019738E+03  0.61106019738E+03  0.00000000000E+00 0.  1.
         21   -1    0    0  503  504 -0.00000000000E+00 -0.00000000000E+00 -0.27479274442E+02  0.27479274442E+02  0.00000000000E+00 0.  1.
         25    2    1    2    0    0 -0.70721992127E+01 -0.70635000386E+01  0.21131015850E+03  0.24571662647E+03  0.12499907360E+03 0.  0.
         25    2    1    2    0    0  0.70721992127E+01  0.70635000386E+01  0.37227076443E+03  0.39282284535E+03  0.12499742695E+03 0.  0.
          5    1    3    3  501    0  0.12881609602E+02  0.10974731558E+02 -0.11659514515E+02  0.21081149813E+02  0.47000000000E+01 0. -1.
         -5    1    3    3    0  501 -0.19953808815E+02 -0.18038231596E+02  0.22296967302E+03  0.22463547665E+03  0.47000000000E+01 0. -1.
          5    1    4    4  502    0  0.28840702236E+02  0.11412330435E+02  0.36848561056E+03  0.36981855359E+03  0.47000000000E+01 0.  1.
         -5    1    4    4    0  502 -0.21768503023E+02 -0.43488303963E+01  0.37851538760E+01  0.23004291764E+02  0.47000000000E+01 0.  1.
<mgrwt>
<rscale>  0 0.25916397E+03</rscale>
<asrwt>0</asrwt>
<pdfrwt beam="1">  1       21 0.94009250E-01 0.25916397E+03</pdfrwt>
<pdfrwt beam="2">  1       21 0.42275812E-02 0.25916397E+03</pdfrwt>
<totfact> 0.33301732E+05</totfact>
</mgrwt>
</event>
<event>
 8    1  0.4760912E-006  0.4345421E+03  0.7546771E-02  0.1032435E+00
         21   -1    0    0  504  503  0.00000000000E+00  0.00000000000E+00  0.60211137721E+03  0.60211137721E+03  0.00000000000E+00 0. -1.
         21   -1    0    0  503  504 -0.00000000000E+00 -0.00000000000E+00 -0.78401954741E+02  0.78401954741E+02  0.00000000000E+00 0. -1.
         25    2    1    2    0    0 -0.13133112731E+03  0.36120741810E+02  0.44063025491E+03  0.47783425587E+03  0.12497192305E+03 0.  0.
         25    2    1    2    0    0  0.13133112731E+03 -0.36120741810E+02  0.83079167555E+02  0.20267907608E+03  0.12499634718E+03 0.  0.
          5    1    3    3  501    0 -0.63408321742E+02  0.14105452535E+02  0.53898427050E+02  0.84538213228E+02  0.47000000000E+01 0.  1.
         -5    1    3    3    0  501 -0.67922805572E+02  0.22015289275E+02  0.38673182786E+03  0.39329604265E+03  0.47000000000E+01 0.  1.
          5    1    4    4  502    0  0.71341604191E+02 -0.10521085434E+02  0.11028507916E+03  0.13185297271E+03  0.47000000000E+01 0. -1.
         -5    1    4    4    0  502  0.59989523122E+02 -0.25599656376E+02 -0.27205911609E+02  0.70826103362E+02  0.47000000000E+01 0. -1.
<mgrwt>
<rscale>  0 0.43454210E+03</rscale>
<asrwt>0</asrwt>
<pdfrwt beam="1">  1       21 0.92632517E-01 0.43454210E+03</pdfrwt>
<pdfrwt beam="2">  1       21 0.12061840E-01 0.43454210E+03</pdfrwt>
<totfact> 0.52664304E+04</totfact>
</mgrwt>
</event>
<event>
 8    1  0.4760912E-006  0.2572331E+03  0.7546771E-02  0.1108817E+00
         21   -1    0    0  504  503  0.00000000000E+00  0.00000000000E+00  0.57212775966E+03  0.57212775966E+03  0.00000000000E+00 0. -1.
         21   -1    0    0  503  504 -0.00000000000E+00 -0.00000000000E+00 -0.28913494051E+02  0.28913494051E+02  0.00000000000E+00 0. -1.
         25    2    1    2    0    0  0.84670630137E+01  0.12120932832E+02  0.20979899683E+03  0.24465924025E+03  0.12499566633E+03 0.  0.
         25    2    1    2    0    0 -0.84670630137E+01 -0.12120932832E+02  0.33341526878E+03  0.35638201346E+03  0.12499515948E+03 0.  0.
          5    1    3    3  501    0 -0.30715072765E+02  0.42691474772E+02  0.17753652077E+03  0.18522225547E+03  0.47000000000E+01 0.  1.
         -5    1    3    3    0  501  0.39182135778E+02 -0.30570541940E+02  0.32262476060E+02  0.59436984783E+02  0.47000000000E+01 0.  1.
          5    1    4    4  502    0  0.33775827099E+01 -0.42384128413E+00  0.33834568271E+03  0.33839544724E+03  0.47000000000E+01 0. -1.
         -5    1    4    4    0  502 -0.11844645724E+02 -0.11697091548E+02 -0.49304139252E+01  0.17986566222E+02  0.47000000000E+01 0. -1.
<mgrwt>
<rscale>  0 0.25723307E+03</rscale>
<asrwt>0</asrwt>
<pdfrwt beam="1">  1       21 0.88019647E-01 0.25723307E+03</pdfrwt>
<pdfrwt beam="2">  1       21 0.44482303E-02 0.25723307E+03</pdfrwt>
<totfact> 0.35653873E+05</totfact>
</mgrwt>
</event>
<event>
 8    1  0.4760912E-006  0.2546470E+03  0.7546771E-02  0.1110403E+00
         21   -1    0    0  504  503  0.00000000000E+00  0.00000000000E+00  0.19842392425E+02  0.19842392425E+02  0.00000000000E+00 0.  1.
         21   -1    0    0  503  504 -0.00000000000E+00 -0.00000000000E+00 -0.81700166548E+03  0.81700166548E+03  0.00000000000E+00 0.  1.
         25    2    1    2    0    0  0.22507181536E+02 -0.17686332186E+01 -0.36980675637E+03  0.39101321207E+03  0.12499837470E+03 0.  0.
         25    2    1    2    0    0 -0.22507181536E+02  0.17686332186E+01 -0.42735251669E+03  0.44583084583E+03  0.12500107316E+03 0.  0.
          5    1    3    3  501    0  0.60186678925E+02 -0.40552664811E+02 -0.21497751584E+03  0.22694575841E+03  0.47000000000E+01 0. -1.
         -5    1    3    3    0  501 -0.37679497389E+02  0.38784031592E+02 -0.15482924052E+03  0.16406745366E+03  0.47000000000E+01 0. -1.
          5    1    4    4  502    0 -0.60172166974E+01  0.61291868513E+02 -0.16279629598E+03  0.17411956819E+03  0.47000000000E+01 0. -1.
         -5    1    4    4    0  502 -0.16489964839E+02 -0.59523235295E+02 -0.26455622071E+03  0.27171127764E+03  0.47000000000E+01 0. -1.
<mgrwt>
<rscale>  0 0.25464695E+03</rscale>
<asrwt>0</asrwt>
<pdfrwt beam="1">  1       21 0.30526759E-02 0.25464695E+03</pdfrwt>
<pdfrwt beam="2">  1       21 0.12569256E+00 0.25464695E+03</pdfrwt>
<totfact> 0.28362658E+05</totfact>
</mgrwt>
</event>
<event>
 8    1  0.4760912E-006  0.3766565E+03  0.7546771E-02  0.1052176E+00
         21   -1    0    0  504  503  0.00000000000E+00  0.00000000000E+00  0.25870641263E+02  0.25870641263E+02  0.00000000000E+00 0.  1.
         21   -1    0    0  503  504 -0.00000000000E+00 -0.00000000000E+00 -0.13709567219E+04  0.13709567219E+04  0.00000000000E+00 0.  1.
         25    2    1    2    0    0 -0.13315113238E+03  0.36996136585E+02 -0.57143976821E+03  0.60105583642E+03  0.12500708633E+03 0.  0.
         25    2    1    2    0    0  0.13315113238E+03 -0.36996136585E+02 -0.77364631243E+03  0.79577152675E+03  0.12500307140E+03 0.  0.
          5    1    3    3  501    0  0.58610660310E+01  0.38075488435E+02 -0.63549952363E+02  0.74463288672E+02  0.47000000000E+01 0.  1.
         -5    1    3    3    0  501 -0.13901219841E+03 -0.10793518494E+01 -0.50788981585E+03  0.52659254775E+03  0.47000000000E+01 0.  1.
          5    1    4    4  502    0 -0.20551927677E+02  0.11061894271E+02 -0.70778652526E+02  0.74675664640E+02  0.47000000000E+01 0.  1.
         -5    1    4    4    0  502  0.15370306005E+03 -0.48058030857E+02 -0.70286765991E+03  0.72109586211E+03  0.47000000000E+01 0.  1.
<mgrwt>
<rscale>  0 0.37665650E+03</rscale>
<asrwt>0</asrwt>
<pdfrwt beam="1">  1       21 0.39800977E-02 0.37665650E+03</pdfrwt>
<pdfrwt beam="2">  1       21 0.21091647E+00 0.37665650E+03</pdfrwt>
<totfact> 0.41246760E+04</totfact>
</mgrwt>
</event>
<event>
 8    1  0.4760912E-006  0.2745590E+03  0.7546771E-02  0.1098698E+00
         21   -1    0    0  504  503  0.00000000000E+00  0.00000000000E+00  0.59482337170E+03  0.59482337170E+03  0.00000000000E+00 0.  1.
         21   -1    0    0  503  504 -0.00000000000E+00 -0.00000000000E+00 -0.31682791344E+02  0.31682791344E+02  0.00000000000E+00 0.  1.
         25    2    1    2    0    0  0.17440052450E+02 -0.29854750383E+02  0.17882503120E+03  0.22090241487E+03  0.12499609419E+03 0.  0.
         25    2    1    2    0    0 -0.17440052450E+02  0.29854750383E+02  0.38431554915E+03  0.40560374817E+03  0.12498198934E+03 0.  0.
          5    1    3    3  501    0  0.11278768092E+02 -0.62756581602E+02  0.34455038515E+02  0.72628085635E+02  0.47000000000E+01 0.  1.
         -5    1    3    3    0  501  0.61612843579E+01  0.32901831218E+02  0.14436999268E+03  0.14827432923E+03  0.47000000000E+01 0.  1.
          5    1    4    4  502    0  0.26563160728E+02 -0.11978336413E+02  0.18676441596E+02  0.34928233877E+02  0.47000000000E+01 0.  1.
         -5    1    4    4    0  502 -0.44003213178E+02  0.41833086796E+02  0.36563910756E+03  0.37067551429E+03  0.47000000000E+01 0.  1.
<mgrwt>
<rscale>  0 0.27455903E+03</rscale>
<asrwt>0</asrwt>
<pdfrwt beam="1">  1       21 0.91511280E-01 0.27455903E+03</pdfrwt>
<pdfrwt beam="2">  1       21 0.48742760E-02 0.27455903E+03</pdfrwt>
<totfact> 0.27753941E+05</totfact>
</mgrwt>
</event>
<event>
 8    1  0.4760912E-006  0.3082091E+03  0.7546771E-02  0.1081207E+00
         21   -1    0    0  504  503  0.00000000000E+00  0.00000000000E+00  0.55881862367E+02  0.55881862367E+02  0.00000000000E+00 0. -1.
         21   -1    0    0  503  504 -0.00000000000E+00 -0.00000000000E+00 -0.42497180324E+03  0.42497180324E+03  0.00000000000E+00 0. -1.
         25    2    1    2    0    0  0.10313689421E+02  0.13548313883E+02 -0.32262017156E+03  0.34641251071E+03  0.12501169335E+03 0.  0.
         25    2    1    2    0    0 -0.10313689421E+02 -0.13548313883E+02 -0.46469769306E+02  0.13444115490E+03  0.12500022269E+03 0.  0.
          5    1    3    3  501    0  0.15605008663E+02 -0.44965030546E+02 -0.57361944659E+02  0.74685025021E+02  0.47000000000E+01 0.  1.
         -5    1    3    3    0  501 -0.52913192423E+01  0.58513344429E+02 -0.26525822690E+03  0.27172748568E+03  0.47000000000E+01 0.  1.
          5    1    4    4  502    0  0.53250389647E+02 -0.14093873992E+02 -0.43994783913E+02  0.70653183179E+02  0.47000000000E+01 0. -1.
         -5    1    4    4    0  502 -0.63564079068E+02  0.54556010931E+00 -0.24749853930E+01  0.63787971721E+02  0.47000000000E+01 0. -1.
<mgrwt>
<rscale>  0 0.30820912E+03</rscale>
<asrwt>0</asrwt>
<pdfrwt beam="1">  1       21 0.85972100E-02 0.30820912E+03</pdfrwt>
<pdfrwt beam="2">  1       21 0.65380275E-01 0.30820912E+03</pdfrwt>
<totfact> 0.22086858E+05</totfact>
</mgrwt>
</event>
<event>
 8    1  0.4760912E-006  0.2827750E+03  0.7546771E-02  0.1094183E+00
         21   -1    0    0  504  503  0.00000000000E+00  0.00000000000E+00  0.62404240416E+02  0.62404240416E+02  0.00000000000E+00 0. -1.
         21   -1    0    0  503  504 -0.00000000000E+00 -0.00000000000E+00 -0.32033756039E+03  0.32033756039E+03  0.00000000000E+00 0. -1.
         25    2    1    2    0    0  0.34770137841E+02  0.53203403502E+02 -0.10447808590E+03  0.17486824192E+03  0.12499466777E+03 0.  0.
         25    2    1    2    0    0 -0.34770137841E+02 -0.53203403502E+02 -0.15345523408E+03  0.20787355888E+03  0.12499337177E+03 0.  0.
          5    1    3    3  501    0  0.54163919315E+02  0.58265353416E+01  0.40005740183E+01  0.54824932851E+02  0.47000000000E+01 0. -1.
         -5    1    3    3    0  501 -0.19393781474E+02  0.47376868161E+02 -0.10847865991E+03  0.12004330907E+03  0.47000000000E+01 0. -1.
          5    1    4    4  502    0 -0.49585959788E+02 -0.86223797452E+02 -0.87798600075E+02  0.13275539473E+03  0.47000000000E+01 0.  1.
         -5    1    4    4    0  502  0.14815821947E+02  0.33020393950E+02 -0.65656634001E+02  0.75118164148E+02  0.47000000000E+01 0.  1.
<mgrwt>
<rscale>  0 0.28277498E+03</rscale>
<asrwt>0</asrwt>
<pdfrwt beam="1">  1       21 0.96006522E-02 0.28277498E+03</pdfrwt>
<pdfrwt beam="2">  1       21 0.49282702E-01 0.28277498E+03</pdfrwt>
<totfact> 0.33533880E+05</totfact>
</mgrwt>
</event>
<event>
 8    1  0.4760912E-006  0.2782321E+03  0.7546771E-02  0.1096658E+00
         21   -1    0    0  504  503  0.00000000000E+00  0.00000000000E+00  0.13285178751E+03  0.13285178751E+03  0.00000000000E+00 0.  1.
         21   -1    0    0  503  504 -0.00000000000E+00 -0.00000000000E+00 -0.14567570693E+03  0.14567570693E+03  0.00000000000E+00 0.  1.
         25    2    1    2    0    0 -0.44456173789E+01  0.30188276079E-01 -0.67379333771E+02  0.14207477252E+03  0.12500200775E+03 0.  0.
         25    2    1    2    0    0  0.44456173789E+01 -0.30188276079E-01  0.54555414350E+02  0.13645272191E+03  0.12499315044E+03 0.  0.
          5    1    3    3  501    0 -0.53165899208E+02 -0.19238287782E+00  0.61679698408E+01  0.53728797695E+02  0.47000000000E+01 0.  1.
         -5    1    3    3    0  501  0.48720281829E+02  0.22257115390E+00 -0.73547303612E+02  0.88345974827E+02  0.47000000000E+01 0.  1.
          5    1    4    4  502    0  0.42470354505E+02  0.28604959287E+02  0.69396363412E+02  0.86370828191E+02  0.47000000000E+01 0.  1.
         -5    1    4    4    0  502 -0.38024737126E+02 -0.28635147563E+02 -0.14840949062E+02  0.50081893719E+02  0.47000000000E+01 0.  1.
<mgrwt>
<rscale>  0 0.27823212E+03</rscale>
<asrwt>0</asrwt>
<pdfrwt beam="1">  1       21 0.20438737E-01 0.27823212E+03</pdfrwt>
<pdfrwt beam="2">  1       21 0.22411647E-01 0.27823212E+03</pdfrwt>
<totfact> 0.40588980E+05</totfact>
</mgrwt>
</event>
<event>
 8    1  0.4760912E-006  0.3064366E+03  0.7546771E-02  0.1082067E+00
         21   -1    0    0  504  503  0.00000000000E+00  0.00000000000E+00  0.82146588982E+03  0.82146588982E+03  0.00000000000E+00 0. -1.
         21   -1    0    0  503  504 -0.00000000000E+00 -0.00000000000E+00 -0.28577988009E+02  0.28577988009E+02  0.00000000000E+00 0. -1.
         25    2    1    2    0    0  0.73691977950E+02  0.29372751480E+02  0.50588589412E+03  0.52710504984E+03  0.12500371813E+03 0.  0.
         25    2    1    2    0    0 -0.73691977950E+02 -0.29372751480E+02  0.28700200769E+03  0.32293882800E+03  0.12500427219E+03 0.  0.
          5    1    3    3  501    0  0.91314573885E+02  0.61691149312E+02  0.35615153453E+03  0.37284065612E+03  0.47000000000E+01 0.  1.
         -5    1    3    3    0  501 -0.17622595935E+02 -0.32318397833E+02  0.14973435959E+03  0.15426439372E+03  0.47000000000E+01 0.  1.
          5    1    4    4  502    0  0.10089868076E+02 -0.58214429010E+02  0.11910683372E+03  0.13303853961E+03  0.47000000000E+01 0.  1.
         -5    1    4    4    0  502 -0.83781846026E+02  0.28841677530E+02  0.16789517397E+03  0.18990028838E+03  0.47000000000E+01 0.  1.
<mgrwt>
<rscale>  0 0.30643657E+03</rscale>
<asrwt>0</asrwt>
<pdfrwt beam="1">  1       21 0.12637935E+00 0.30643657E+03</pdfrwt>
<pdfrwt beam="2">  1       21 0.43966142E-02 0.30643657E+03</pdfrwt>
<totfact> 0.14918643E+05</totfact>
</mgrwt>
</event>
<event>
 8    1  0.4760912E-006  0.3793058E+03  0.7546771E-02  0.1051191E+00
         21   -1    0    0  504  503  0.00000000000E+00  0.00000000000E+00  0.32403329768E+02  0.32403329768E+02  0.00000000000E+00 0. -1.
         21   -1    0    0  503  504 -0.00000000000E+00 -0.00000000000E+00 -0.11100160079E+04  0.11100160079E+04  0.00000000000E+00 0. -1.
         25    2    1    2    0    0  0.10274509833E+03  0.14779412528E+02 -0.83342589610E+03  0.84911703332E+03  0.12500410278E+03 0.  0.
         25    2    1    2    0    0 -0.10274509833E+03 -0.14779412528E+02 -0.24418678204E+03  0.29330230436E+03  0.12499628375E+03 0.  0.
          5    1    3    3  501    0  0.34352037762E+02  0.39869185277E+02 -0.11015425382E+03  0.12217063505E+03  0.47000000000E+01 0. -1.
         -5    1    3    3    0  501  0.68393060572E+02 -0.25089772749E+02 -0.72327164228E+03  0.72694639827E+03  0.47000000000E+01 0. -1.
          5    1    4    4  502    0  0.19092731798E+02 -0.11652405792E+02 -0.10838570808E+03  0.11076941222E+03  0.47000000000E+01 0. -1.
         -5    1    4    4    0  502 -0.12183783013E+03 -0.31270067368E+01 -0.13580107396E+03  0.18253289214E+03  0.47000000000E+01 0. -1.
<mgrwt>
<rscale>  0 0.37930576E+03</rscale>
<asrwt>0</asrwt>
<pdfrwt beam="1">  1       21 0.49851279E-02 0.37930576E+03</pdfrwt>
<pdfrwt beam="2">  1       21 0.17077169E+00 0.37930576E+03</pdfrwt>
<totfact> 0.52570941E+04</totfact>
</mgrwt>
</event>
<event>
 8    1  0.4760912E-006  0.3410843E+03  0.7546771E-02  0.1066335E+00
         21   -1    0    0  504  503  0.00000000000E+00  0.00000000000E+00  0.26448785365E+03  0.26448785365E+03  0.00000000000E+00 0.  1.
         21   -1    0    0  503  504 -0.00000000000E+00 -0.00000000000E+00 -0.10996581414E+03  0.10996581414E+03  0.00000000000E+00 0.  1.
         25    2    1    2    0    0  0.34007538935E+02 -0.84725001628E+02  0.15584752984E+03  0.21965413665E+03  0.12499859434E+03 0.  0.
         25    2    1    2    0    0 -0.34007538935E+02  0.84725001628E+02 -0.13254903317E+01  0.15479953113E+03  0.12500519713E+03 0.  0.
          5    1    3    3  501    0 -0.17259828802E+02 -0.94147428970E+02  0.68389962088E+02  0.11773239565E+03  0.47000000000E+01 0. -1.
         -5    1    3    3    0  501  0.51267367737E+02  0.94224273426E+01  0.87457567750E+02  0.10192174100E+03  0.47000000000E+01 0. -1.
          5    1    4    4  502    0 -0.67843782291E+02  0.15091657387E+02 -0.24510203751E+02  0.73846983731E+02  0.47000000000E+01 0.  1.
         -5    1    4    4    0  502  0.33836243356E+02  0.69633344241E+02  0.23184713419E+02  0.80952547403E+02  0.47000000000E+01 0.  1.
<mgrwt>
<rscale>  0 0.34108428E+03</rscale>
<asrwt>0</asrwt>
<pdfrwt beam="1">  1       21 0.40690439E-01 0.34108428E+03</pdfrwt>
<pdfrwt beam="2">  1       21 0.16917818E-01 0.34108428E+03</pdfrwt>
<totfact> 0.17611203E+05</totfact>
</mgrwt>
</event>
<event>
 8    1  0.4760912E-006  0.5460549E+03  0.7546771E-02  0.1002411E+00
         21   -1    0    0  504  503  0.00000000000E+00  0.00000000000E+00  0.34967305471E+03  0.34967305471E+03  0.00000000000E+00 0.  1.
         21   -1    0    0  503  504 -0.00000000000E+00 -0.00000000000E+00 -0.21318197713E+03  0.21318197713E+03  0.00000000000E+00 0.  1.
         25    2    1    2    0    0 -0.14661425402E+03  0.18156135357E+03  0.13706735336E+03  0.29811277663E+03  0.12499401442E+03 0.  0.
         25    2    1    2    0    0  0.14661425402E+03 -0.18156135357E+03 -0.57627578294E+00  0.26474225521E+03  0.12501145952E+03 0.  0.
          5    1    3    3  501    0  0.17150924179E+02  0.53455832190E+02  0.36267621454E+02  0.67000825079E+02  0.47000000000E+01 0.  1.
         -5    1    3    3    0  501 -0.16376517819E+03  0.12810552138E+03  0.10079973191E+03  0.23111195155E+03  0.47000000000E+01 0.  1.
          5    1    4    4  502    0  0.14046349151E+03 -0.19505552165E+03 -0.18360820163E+02  0.24111378785E+03  0.47000000000E+01 0.  1.
         -5    1    4    4    0  502  0.61507625023E+01  0.13494168073E+02  0.17784544380E+02  0.23628467368E+02  0.47000000000E+01 0.  1.
<mgrwt>
<rscale>  0 0.54605492E+03</rscale>
<asrwt>0</asrwt>
<pdfrwt beam="1">  1       21 0.53795855E-01 0.54605492E+03</pdfrwt>
<pdfrwt beam="2">  1       21 0.32797227E-01 0.54605492E+03</pdfrwt>
<totfact> 0.26044533E+04</totfact>
</mgrwt>
</event>
<event>
 8    1  0.4760912E-006  0.2868688E+03  0.7546771E-02  0.1091995E+00
         21   -1    0    0  504  503  0.00000000000E+00  0.00000000000E+00  0.82961226744E+03  0.82961226744E+03  0.00000000000E+00 0.  1.
         21   -1    0    0  503  504 -0.00000000000E+00 -0.00000000000E+00 -0.24798844710E+02  0.24798844710E+02  0.00000000000E+00 0.  1.
         25    2    1    2    0    0 -0.42169758195E+02 -0.40050856350E+02  0.52029598872E+03  0.53825174142E+03  0.12499864667E+03 0.  0.
         25    2    1    2    0    0  0.42169758195E+02  0.40050856350E+02  0.28451743401E+03  0.31615937073E+03  0.12499687132E+03 0.  0.
          5    1    3    3  501    0 -0.48933960324E+02 -0.71949183699E+02  0.47078564674E+03  0.47878223932E+03  0.47000000000E+01 0.  1.
         -5    1    3    3    0  501  0.67642021295E+01  0.31898327349E+02  0.49510341971E+02  0.59469502102E+02  0.47000000000E+01 0.  1.
          5    1    4    4  502    0 -0.12645209960E+02  0.68254483867E+02  0.10211514016E+03  0.12356442754E+03  0.47000000000E+01 0.  1.
         -5    1    4    4    0  502  0.54814968154E+02 -0.28203627517E+02  0.18240229385E+03  0.19259494319E+03  0.47000000000E+01 0.  1.
<mgrwt>
<rscale>  0 0.28686879E+03</rscale>
<asrwt>0</asrwt>
<pdfrwt beam="1">  1       21 0.12763264E+00 0.28686879E+03</pdfrwt>
<pdfrwt beam="2">  1       21 0.38152075E-02 0.28686879E+03</pdfrwt>
<totfact> 0.18601155E+05</totfact>
</mgrwt>
</event>
<event>
 8    1  0.4760912E-006  0.2743017E+03  0.7546771E-02  0.1098843E+00
         21   -1    0    0  504  503  0.00000000000E+00  0.00000000000E+00  0.24312779166E+03  0.24312779166E+03  0.00000000000E+00 0.  1.
         21   -1    0    0  503  504 -0.00000000000E+00 -0.00000000000E+00 -0.77368192041E+02  0.77368192041E+02  0.00000000000E+00 0.  1.
         25    2    1    2    0    0 -0.21405357124E+02  0.29258912531E+02  0.32282202366E+02  0.13409662121E+03  0.12500195980E+03 0.  0.
         25    2    1    2    0    0  0.21405357124E+02 -0.29258912531E+02  0.13347739725E+03  0.18639936248E+03  0.12495692651E+03 0.  0.
          5    1    3    3  501    0  0.46457694487E+02 -0.12090340934E+02  0.24528397238E+02  0.54113085219E+02  0.47000000000E+01 0. -1.
         -5    1    3    3    0  501 -0.67863051611E+02  0.41349253464E+02  0.77538051278E+01  0.79983535993E+02  0.47000000000E+01 0. -1.
          5    1    4    4  502    0  0.57377748906E+02 -0.54895923203E+02  0.11114632969E+03  0.13667979023E+03  0.47000000000E+01 0. -1.
         -5    1    4    4    0  502 -0.35972391782E+02  0.25637010673E+02  0.22331067556E+02  0.49719572252E+02  0.47000000000E+01 0. -1.
<mgrwt>
<rscale>  0 0.27430171E+03</rscale>
<asrwt>0</asrwt>
<pdfrwt beam="1">  1       21 0.37404275E-01 0.27430171E+03</pdfrwt>
<pdfrwt beam="2">  1       21 0.11902799E-01 0.27430171E+03</pdfrwt>
<totfact> 0.40339406E+05</totfact>
</mgrwt>
</event>
<event>
 8    1  0.4760912E-006  0.2589073E+03  0.7546771E-02  0.1107802E+00
         21   -1    0    0  504  503  0.00000000000E+00  0.00000000000E+00  0.15141088396E+03  0.15141088396E+03  0.00000000000E+00 0.  1.
         21   -1    0    0  503  504 -0.00000000000E+00 -0.00000000000E+00 -0.11068057088E+03  0.11068057088E+03  0.00000000000E+00 0.  1.
         25    2    1    2    0    0 -0.27091233005E+02 -0.16788333442E+02  0.31327581030E+02  0.13274968818E+03  0.12500111732E+03 0.  0.
         25    2    1    2    0    0  0.27091233005E+02  0.16788333442E+02  0.94027320508E+01  0.12934176666E+03  0.12500039274E+03 0.  0.
          5    1    3    3  501    0  0.48366735680E+01 -0.67946194856E+02  0.12621873069E+02  0.69436881312E+02  0.47000000000E+01 0. -1.
         -5    1    3    3    0  501 -0.31927906573E+02  0.51157861414E+02  0.18705707961E+02  0.63312806863E+02  0.47000000000E+01 0. -1.
          5    1    4    4  502    0 -0.35426169618E+02  0.27334368410E+02 -0.30432721708E+02  0.54317784755E+02  0.47000000000E+01 0.  1.
         -5    1    4    4    0  502  0.62517402622E+02 -0.10546034968E+02  0.39835453758E+02  0.75023981901E+02  0.47000000000E+01 0.  1.
<mgrwt>
<rscale>  0 0.25890727E+03</rscale>
<asrwt>0</asrwt>
<pdfrwt beam="1">  1       21 0.23293982E-01 0.25890727E+03</pdfrwt>
<pdfrwt beam="2">  1       21 0.17027780E-01 0.25890727E+03</pdfrwt>
<totfact> 0.53230629E+05</totfact>
</mgrwt>
</event>
<event>
 8    1  0.4760912E-006  0.3763799E+03  0.7546771E-02  0.1052280E+00
         21   -1    0    0  504  503  0.00000000000E+00  0.00000000000E+00  0.68791681211E+02  0.68791681211E+02  0.00000000000E+00 0.  1.
         21   -1    0    0  503  504 -0.00000000000E+00 -0.00000000000E+00 -0.51482178076E+03  0.51482178076E+03  0.00000000000E+00 0.  1.
         25    2    1    2    0    0  0.96852434009E+02  0.69362434856E+02 -0.33906162895E+03  0.38049812034E+03  0.12499796003E+03 0.  0.
         25    2    1    2    0    0 -0.96852434009E+02 -0.69362434856E+02 -0.10696847060E+03  0.20311534164E+03  0.12498818729E+03 0.  0.
          5    1    3    3  501    0  0.79894130835E+02  0.20761874352E+02 -0.75664684335E+02  0.11207748223E+03  0.47000000000E+01 0. -1.
         -5    1    3    3    0  501  0.16958303175E+02  0.48600560504E+02 -0.26339694461E+03  0.26842063810E+03  0.47000000000E+01 0. -1.
          5    1    4    4  502    0 -0.33927031318E+02 -0.12607264237E+02 -0.11229647707E+03  0.11807868279E+03  0.47000000000E+01 0. -1.
         -5    1    4    4    0  502 -0.62925402692E+02 -0.56755170619E+02  0.53280064688E+01  0.85036658852E+02  0.47000000000E+01 0. -1.
<mgrwt>
<rscale>  0 0.37637989E+03</rscale>
<asrwt>0</asrwt>
<pdfrwt beam="1">  1       21 0.10583336E-01 0.37637989E+03</pdfrwt>
<pdfrwt beam="2">  1       21 0.79203351E-01 0.37637989E+03</pdfrwt>
<totfact> 0.97537915E+04</totfact>
</mgrwt>
</event>
<event>
 8    1  0.4760912E-006  0.4850827E+03  0.7546771E-02  0.1017748E+00
         21   -1    0    0  504  503  0.00000000000E+00  0.00000000000E+00  0.72312558504E+02  0.72312558504E+02  0.00000000000E+00 0.  1.
         21   -1    0    0  503  504 -0.00000000000E+00 -0.00000000000E+00 -0.81350071903E+03  0.81350071903E+03  0.00000000000E+00 0.  1.
         25    2    1    2    0    0  0.10743078530E+03 -0.16205709482E+02 -0.69412103052E+03  0.71360523987E+03  0.12499773880E+03 0.  0.
         25    2    1    2    0    0 -0.10743078530E+03  0.16205709482E+02 -0.47067130012E+02  0.17220803767E+03  0.12504517129E+03 0.  0.
          5    1    3    3  501    0 -0.60256115449E+01 -0.32907572328E+01 -0.36701090595E+03  0.36710520585E+03  0.47000000000E+01 0.  1.
         -5    1    3    3    0  501  0.11345639684E+03 -0.12914952249E+02 -0.32711012457E+03  0.34650003402E+03  0.47000000000E+01 0.  1.
          5    1    4    4  502    0 -0.15611690504E+02 -0.40731890141E+02 -0.46684563075E+02  0.64065202602E+02  0.47000000000E+01 0.  1.
         -5    1    4    4    0  502 -0.91819094794E+02  0.56937599623E+02 -0.38256693669E+00  0.10814283507E+03  0.47000000000E+01 0.  1.
<mgrwt>
<rscale>  0 0.48508275E+03</rscale>
<asrwt>0</asrwt>
<pdfrwt beam="1">  1       21 0.11125010E-01 0.48508275E+03</pdfrwt>
<pdfrwt beam="2">  1       21 0.12515395E+00 0.48508275E+03</pdfrwt>
<totfact> 0.28628822E+04</totfact>
</mgrwt>
</event>
<event>
 8    1  0.4760912E-006  0.3860671E+03  0.7546771E-02  0.1048714E+00
         21   -1    0    0  504  503  0.00000000000E+00  0.00000000000E+00  0.15197549811E+03  0.15197549811E+03  0.00000000000E+00 0.  1.
         21   -1    0    0  503  504 -0.00000000000E+00 -0.00000000000E+00 -0.24518388523E+03  0.24518388523E+03  0.00000000000E+00 0.  1.
         25    2    1    2    0    0  0.44352435317E+02  0.35916478396E+02  0.92863160576E+02  0.16584699585E+03  0.12499810999E+03 0.  0.
         25    2    1    2    0    0 -0.44352435317E+02 -0.35916478396E+02 -0.18607154770E+03  0.23131238750E+03  0.12500267120E+03 0.  0.
          5    1    3    3  501    0  0.18133212045E+02  0.77045334832E+02  0.27012032122E+02  0.83764771102E+02  0.47000000000E+01 0. -1.
         -5    1    3    3    0  501  0.26219223272E+02 -0.41128856435E+02  0.65851128454E+02  0.82082224746E+02  0.47000000000E+01 0. -1.
          5    1    4    4  502    0 -0.20569017949E+02  0.46666098350E+02 -0.64542228350E+02  0.82392951610E+02  0.47000000000E+01 0. -1.
         -5    1    4    4    0  502 -0.23783417369E+02 -0.82582576746E+02 -0.12152931935E+03  0.14891943589E+03  0.47000000000E+01 0. -1.
<mgrwt>
<rscale>  0 0.38606706E+03</rscale>
<asrwt>0</asrwt>
<pdfrwt beam="1">  1       21 0.23380846E-01 0.38606706E+03</pdfrwt>
<pdfrwt beam="2">  1       21 0.37720597E-01 0.38606706E+03</pdfrwt>
<totfact> 0.11037818E+05</totfact>
</mgrwt>
</event>
<event>
 8    1  0.4760912E-006  0.3275170E+03  0.7546771E-02  0.1072241E+00
         21   -1    0    0  504  503  0.00000000000E+00  0.00000000000E+00  0.13816688318E+03  0.13816688318E+03  0.00000000000E+00 0. -1.
         21   -1    0    0  503  504 -0.00000000000E+00 -0.00000000000E+00 -0.19409030096E+03  0.19409030096E+03  0.00000000000E+00 0. -1.
         25    2    1    2    0    0  0.17189691445E+02  0.18954034387E+02  0.76178908247E+02  0.14860214924E+03  0.12499852713E+03 0.  0.
         25    2    1    2    0    0 -0.17189691445E+02 -0.18954034387E+02 -0.13210232602E+03  0.18365503490E+03  0.12499362541E+03 0.  0.
          5    1    3    3  501    0  0.64216053102E+02  0.25290111958E+02  0.73365267643E+02  0.10083572648E+03  0.47000000000E+01 0.  1.
         -5    1    3    3    0  501 -0.47026361657E+02 -0.63360775707E+01  0.28136406033E+01  0.47766422758E+02  0.47000000000E+01 0.  1.
          5    1    4    4  502    0  0.37018946667E+02  0.28239540651E+02 -0.86668303597E+02  0.98495476632E+02  0.47000000000E+01 0.  1.
         -5    1    4    4    0  502 -0.54208638113E+02 -0.47193575038E+02 -0.45434022422E+02  0.85159558268E+02  0.47000000000E+01 0.  1.
<mgrwt>
<rscale>  0 0.32751703E+03</rscale>
<asrwt>0</asrwt>
<pdfrwt beam="1">  1       21 0.21256444E-01 0.32751703E+03</pdfrwt>
<pdfrwt beam="2">  1       21 0.29860046E-01 0.32751703E+03</pdfrwt>
<totfact> 0.21410075E+05</totfact>
</mgrwt>
</event>
<event>
 8    1  0.4760912E-006  0.2663510E+03  0.7546771E-02  0.1103386E+00
         21   -1    0    0  504  503  0.00000000000E+00  0.00000000000E+00  0.27634095655E+02  0.27634095655E+02  0.00000000000E+00 0.  1.
         21   -1    0    0  503  504 -0.00000000000E+00 -0.00000000000E+00 -0.64180548847E+03  0.64180548847E+03  0.00000000000E+00 0.  1.
         25    2    1    2    0    0 -0.18586852981E+02 -0.25721213007E+02 -0.39056603606E+03  0.41130670200E+03  0.12499729073E+03 0.  0.
         25    2    1    2    0    0  0.18586852981E+02  0.25721213007E+02 -0.22360535676E+03  0.25813288212E+03  0.12500470935E+03 0.  0.
          5    1    3    3  501    0 -0.46210545216E+02  0.19827481896E+02 -0.70036442309E+02  0.86346608380E+02  0.47000000000E+01 0.  1.
         -5    1    3    3    0  501  0.27623692235E+02 -0.45548694902E+02 -0.32052959375E+03  0.32496009362E+03  0.47000000000E+01 0.  1.
          5    1    4    4  502    0  0.47930921419E+02 -0.36086284379E+02 -0.97209666330E+02  0.11433023387E+03  0.47000000000E+01 0. -1.
         -5    1    4    4    0  502 -0.29344068438E+02  0.61807497386E+02 -0.12639569043E+03  0.14380264825E+03  0.47000000000E+01 0. -1.
<mgrwt>
<rscale>  0 0.26635100E+03</rscale>
<asrwt>0</asrwt>
<pdfrwt beam="1">  1       21 0.42513999E-02 0.26635100E+03</pdfrwt>
<pdfrwt beam="2">  1       21 0.98739292E-01 0.26635100E+03</pdfrwt>
<totfact> 0.29313091E+05</totfact>
</mgrwt>
</event>
<event>
 8    1  0.4760912E-006  0.3471056E+03  0.7546771E-02  0.1063809E+00
         21   -1    0    0  504  503  0.00000000000E+00  0.00000000000E+00  0.29688317515E+02  0.29688317515E+02  0.00000000000E+00 0. -1.
         21   -1    0    0  503  504 -0.00000000000E+00 -0.00000000000E+00 -0.10145597513E+04  0.10145597513E+04  0.00000000000E+00 0. -1.
         25    2    1    2    0    0  0.11970422931E+03  0.72049218389E+01 -0.52509699469E+03  0.55293117290E+03  0.12500005888E+03 0.  0.
         25    2    1    2    0    0 -0.11970422931E+03 -0.72049218389E+01 -0.45977443914E+03  0.49131689596E+03  0.12497497331E+03 0.  0.
          5    1    3    3  501    0  0.96256796490E+02  0.61178689448E+02 -0.34058219771E+03  0.35920262570E+03  0.47000000000E+01 0. -1.
         -5    1    3    3    0  501  0.23447432824E+02 -0.53973767609E+02 -0.18451479698E+03  0.19372854720E+03  0.47000000000E+01 0. -1.
          5    1    4    4  502    0  0.28278954922E+01 -0.44543272821E+02 -0.11064579640E+03  0.11940135011E+03  0.47000000000E+01 0. -1.
         -5    1    4    4    0  502 -0.12253212481E+03  0.37338350982E+02 -0.34912864274E+03  0.37191554585E+03  0.47000000000E+01 0. -1.
<mgrwt>
<rscale>  0 0.34710559E+03</rscale>
<asrwt>0</asrwt>
<pdfrwt beam="1">  1       21 0.45674328E-02 0.34710559E+03</pdfrwt>
<pdfrwt beam="2">  1       21 0.15608614E+00 0.34710559E+03</pdfrwt>
<totfact> 0.79239683E+04</totfact>
</mgrwt>
</event>
<event>
 8    1  0.4760912E-006  0.3022688E+03  0.7546771E-02  0.1084112E+00
         21   -1    0    0  504  503  0.00000000000E+00  0.00000000000E+00  0.13603498150E+03  0.13603498150E+03  0.00000000000E+00 0. -1.
         21   -1    0    0  503  504 -0.00000000000E+00 -0.00000000000E+00 -0.16790979863E+03  0.16790979863E+03  0.00000000000E+00 0. -1.
         25    2    1    2    0    0 -0.84892409650E+02  0.58149619778E+00 -0.12652179317E+02  0.15162460761E+03  0.12499153826E+03 0.  0.
         25    2    1    2    0    0  0.84892409650E+02 -0.58149619778E+00 -0.19222637812E+02  0.15232017252E+03  0.12499946319E+03 0.  0.
          5    1    3    3  501    0 -0.86233344732E+01  0.13209556741E+01  0.51133319655E+02  0.52084673372E+02  0.47000000000E+01 0. -1.
         -5    1    3    3    0  501 -0.76269075177E+02 -0.73945947630E+00 -0.63785498972E+02  0.99539934237E+02  0.47000000000E+01 0. -1.
          5    1    4    4  502    0  0.11764680554E+03 -0.16163184579E+01 -0.18574695714E+02  0.11920777097E+03  0.47000000000E+01 0.  1.
         -5    1    4    4    0  502 -0.32754395889E+02  0.10348222601E+01 -0.64794209840E+00  0.33112401546E+02  0.47000000000E+01 0.  1.
<mgrwt>
<rscale>  0 0.30226880E+03</rscale>
<asrwt>0</asrwt>
<pdfrwt beam="1">  1       21 0.20928459E-01 0.30226880E+03</pdfrwt>
<pdfrwt beam="2">  1       21 0.25832277E-01 0.30226880E+03</pdfrwt>
<totfact> 0.29413980E+05</totfact>
</mgrwt>
</event>
<event>
 8    1  0.4760912E-006  0.4190576E+03  0.7546771E-02  0.1037373E+00
         21   -1    0    0  504  503  0.00000000000E+00  0.00000000000E+00  0.45272031624E+03  0.45272031624E+03  0.00000000000E+00 0.  1.
         21   -1    0    0  503  504 -0.00000000000E+00 -0.00000000000E+00 -0.96974501640E+02  0.96974501640E+02  0.00000000000E+00 0.  1.
         25    2    1    2    0    0 -0.87635496196E+02  0.90330673823E+02  0.31584140245E+02  0.18017479894E+03  0.12500315768E+03 0.  0.
         25    2    1    2    0    0  0.87635496196E+02 -0.90330673823E+02  0.32416167435E+03  0.36952001894E+03  0.12499856980E+03 0.  0.
          5    1    3    3  501    0  0.27994481043E+02  0.40156809923E+02 -0.33551965189E+01  0.49291050869E+02  0.47000000000E+01 0.  1.
         -5    1    3    3    0  501 -0.11562997724E+03  0.50173863899E+02  0.34939336764E+02  0.13088374807E+03  0.47000000000E+01 0.  1.
          5    1    4    4  502    0  0.98574196343E+02 -0.18694836791E+02  0.14684976863E+03  0.17791378152E+03  0.47000000000E+01 0.  1.
         -5    1    4    4    0  502 -0.10938700147E+02 -0.71635837032E+02  0.17731190572E+03  0.19160623742E+03  0.47000000000E+01 0.  1.
<mgrwt>
<rscale>  0 0.41905764E+03</rscale>
<asrwt>0</asrwt>
<pdfrwt beam="1">  1       21 0.69649278E-01 0.41905764E+03</pdfrwt>
<pdfrwt beam="2">  1       21 0.14919154E-01 0.41905764E+03</pdfrwt>
<totfact> 0.69127069E+04</totfact>
</mgrwt>
</event>
<event>
 8    1  0.4760912E-006  0.2518791E+03  0.7546771E-02  0.1112123E+00
         21   -1    0    0  504  503  0.00000000000E+00  0.00000000000E+00  0.81272151508E+02  0.81272151508E+02  0.00000000000E+00 0.  1.
         21   -1    0    0  503  504 -0.00000000000E+00 -0.00000000000E+00 -0.19515630145E+03  0.19515630145E+03  0.00000000000E+00 0.  1.
         25    2    1    2    0    0 -0.82695037028E+00  0.67098219418E+01 -0.72062978880E+02  0.14444492061E+03  0.12500222641E+03 0.  0.
         25    2    1    2    0    0  0.82695037028E+00 -0.67098219418E+01 -0.41821171061E+02  0.13198353234E+03  0.12499974762E+03 0.  0.
          5    1    3    3  501    0 -0.16322925234E+02  0.22930495928E+02  0.29076821170E+02  0.40740607028E+02  0.47000000000E+01 0. -1.
         -5    1    3    3    0  501  0.15495974863E+02 -0.16220673986E+02 -0.10113980005E+03  0.10370431358E+03  0.47000000000E+01 0. -1.
          5    1    4    4  502    0 -0.12545861597E+02 -0.31255937725E+02 -0.78546493677E+02  0.85591903561E+02  0.47000000000E+01 0.  1.
         -5    1    4    4    0  502  0.13372811967E+02  0.24546115783E+02  0.36725322616E+02  0.46391628784E+02  0.47000000000E+01 0.  1.
<mgrwt>
<rscale>  0 0.25187912E+03</rscale>
<asrwt>0</asrwt>
<pdfrwt beam="1">  1       21 0.12503408E-01 0.25187912E+03</pdfrwt>
<pdfrwt beam="2">  1       21 0.30024046E-01 0.25187912E+03</pdfrwt>
<totfact> 0.57381820E+05</totfact>
</mgrwt>
</event>
<event>
 8    1  0.4760912E-006  0.2730569E+03  0.7546771E-02  0.1099543E+00
         21   -1    0    0  504  503  0.00000000000E+00  0.00000000000E+00  0.74434144192E+02  0.74434144192E+02  0.00000000000E+00 0.  1.
         21   -1    0    0  503  504 -0.00000000000E+00 -0.00000000000E+00 -0.25042295583E+03  0.25042295583E+03  0.00000000000E+00 0.  1.
         25    2    1    2    0    0  0.20909112946E+02  0.27112913841E+02 -0.13904981862E+03  0.19008648579E+03  0.12500287566E+03 0.  0.
         25    2    1    2    0    0 -0.20909112946E+02 -0.27112913841E+02 -0.36938993016E+02  0.13477061422E+03  0.12500531250E+03 0.  0.
          5    1    3    3  501    0  0.68076838300E+02  0.21405219990E+02 -0.11783890715E+03  0.13784316230E+03  0.47000000000E+01 0. -1.
         -5    1    3    3    0  501 -0.47167725354E+02  0.57076938507E+01 -0.21210911473E+02  0.52243323494E+02  0.47000000000E+01 0. -1.
          5    1    4    4  502    0 -0.10062496649E+02  0.46902714291E+02  0.57033385493E+01  0.48535930168E+02  0.47000000000E+01 0.  1.
         -5    1    4    4    0  502 -0.10846616297E+02 -0.74015628132E+02 -0.42642331565E+02  0.86234684056E+02  0.47000000000E+01 0.  1.
<mgrwt>
<rscale>  0 0.27305691E+03</rscale>
<asrwt>0</asrwt>
<pdfrwt beam="1">  1       21 0.11451407E-01 0.27305691E+03</pdfrwt>
<pdfrwt beam="2">  1       21 0.38526609E-01 0.27305691E+03</pdfrwt>
<totfact> 0.40745906E+05</totfact>
</mgrwt>
</event>
<event>
 8    1  0.4760912E-006  0.5245438E+03  0.7546771E-02  0.1007564E+00
         21   -1    0    0  504  503  0.00000000000E+00  0.00000000000E+00  0.92520891629E+03  0.92520891629E+03  0.00000000000E+00 0.  1.
         21   -1    0    0  503  504 -0.00000000000E+00 -0.00000000000E+00 -0.74347035187E+02  0.74347035187E+02  0.00000000000E+00 0.  1.
         25    2    1    2    0    0  0.12888238601E+03 -0.16772359070E+03  0.60027100604E+03  0.64860796839E+03  0.12500057463E+03 0.  0.
         25    2    1    2    0    0 -0.12888238601E+03  0.16772359070E+03  0.25059087507E+03  0.35094798310E+03  0.12500731127E+03 0.  0.
          5    1    3    3  501    0  0.17159208269E+02 -0.51873837544E+02  0.32589330888E+03  0.33047522180E+03  0.47000000000E+01 0.  1.
         -5    1    3    3    0  501  0.11172317774E+03 -0.11584975316E+03  0.27437769716E+03  0.31813274659E+03  0.47000000000E+01 0.  1.
          5    1    4    4  502    0 -0.13877342183E+03  0.92379092683E+02  0.19549628341E+03  0.25696857045E+03  0.47000000000E+01 0. -1.
         -5    1    4    4    0  502  0.98910358264E+01  0.75344498020E+02  0.55094591658E+02  0.93979412648E+02  0.47000000000E+01 0. -1.
<mgrwt>
<rscale>  0 0.52454376E+03</rscale>
<asrwt>0</asrwt>
<pdfrwt beam="1">  1       21 0.14233983E+00 0.52454376E+03</pdfrwt>
<pdfrwt beam="2">  1       21 0.11438006E-01 0.52454376E+03</pdfrwt>
<totfact> 0.19227285E+04</totfact>
</mgrwt>
</event>
<event>
 8    1  0.4760912E-006  0.6118458E+03  0.7546771E-02  0.9881130E-01
         21   -1    0    0  504  503  0.00000000000E+00  0.00000000000E+00  0.54061751736E+02  0.54061751736E+02  0.00000000000E+00 0. -1.
         21   -1    0    0  503  504 -0.00000000000E+00 -0.00000000000E+00 -0.17311464261E+04  0.17311464261E+04  0.00000000000E+00 0. -1.
         25    2    1    2    0    0  0.27604670597E+03  0.19142739244E+02 -0.72948374724E+03  0.79015029811E+03  0.12499091076E+03 0.  0.
         25    2    1    2    0    0 -0.27604670597E+03 -0.19142739244E+02 -0.94760092713E+03  0.99505787973E+03  0.12499775430E+03 0.  0.
          5    1    3    3  501    0  0.17310867566E+03 -0.44357906728E+02 -0.37182607967E+03  0.41256631104E+03  0.47000000000E+01 0.  1.
         -5    1    3    3    0  501  0.10293803031E+03  0.63500645972E+02 -0.35765766757E+03  0.37758398707E+03  0.47000000000E+01 0.  1.
          5    1    4    4  502    0 -0.23545580676E+03  0.32158940519E+02 -0.76193122412E+03  0.79814467027E+03  0.47000000000E+01 0.  1.
         -5    1    4    4    0  502 -0.40590899212E+02 -0.51301679763E+02 -0.18566970300E+03  0.19691320946E+03  0.47000000000E+01 0.  1.
<mgrwt>
<rscale>  0 0.61184576E+03</rscale>
<asrwt>0</asrwt>
<pdfrwt beam="1">  1       21 0.83171923E-02 0.61184576E+03</pdfrwt>
<pdfrwt beam="2">  1       21 0.26633023E+00 0.61184576E+03</pdfrwt>
<totfact> 0.47430934E+03</totfact>
</mgrwt>
</event>
<event>
 8    1  0.4760912E-006  0.2633832E+03  0.7546771E-02  0.1105127E+00
         21   -1    0    0  504  503  0.00000000000E+00  0.00000000000E+00  0.52852593487E+02  0.52852593487E+02  0.00000000000E+00 0. -1.
         21   -1    0    0  503  504 -0.00000000000E+00 -0.00000000000E+00 -0.32813298238E+03  0.32813298238E+03  0.00000000000E+00 0. -1.
         25    2    1    2    0    0 -0.18830427973E+02 -0.63808518403E+01 -0.19025061995E+03  0.22850762949E+03  0.12500055222E+03 0.  0.
         25    2    1    2    0    0  0.18830427973E+02  0.63808518403E+01 -0.85029768935E+02  0.15247794637E+03  0.12499664890E+03 0.  0.
          5    1    3    3  501    0 -0.60085822872E+02  0.15120330598E+02 -0.16287304913E+03  0.17432340818E+03  0.47000000000E+01 0. -1.
         -5    1    3    3    0  501  0.41255394899E+02 -0.21501182438E+02 -0.27377570823E+02  0.54184221307E+02  0.47000000000E+01 0. -1.
          5    1    4    4  502    0 -0.33299682375E+02  0.36432679506E+02 -0.17304873897E+01  0.49611425790E+02  0.47000000000E+01 0.  1.
         -5    1    4    4    0  502  0.52130110348E+02 -0.30051827666E+02 -0.83299281545E+02  0.10286652058E+03  0.47000000000E+01 0.  1.
<mgrwt>
<rscale>  0 0.26338321E+03</rscale>
<asrwt>0</asrwt>
<pdfrwt beam="1">  1       21 0.81311683E-02 0.26338321E+03</pdfrwt>
<pdfrwt beam="2">  1       21 0.50481997E-01 0.26338321E+03</pdfrwt>
<totfact> 0.42909932E+05</totfact>
</mgrwt>
</event>
<event>
 8    1  0.4760912E-006  0.3254305E+03  0.7546771E-02  0.1073177E+00
         21   -1    0    0  504  503  0.00000000000E+00  0.00000000000E+00  0.21331925226E+03  0.21331925226E+03  0.00000000000E+00 0. -1.
         21   -1    0    0  503  504 -0.00000000000E+00 -0.00000000000E+00 -0.12411560388E+03  0.12411560388E+03  0.00000000000E+00 0. -1.
         25    2    1    2    0    0  0.38631570495E+02 -0.96329925616E+02  0.35371660375E+02  0.16627651313E+03  0.12499948661E+03 0.  0.
         25    2    1    2    0    0 -0.38631570495E+02  0.96329925616E+02  0.53831988004E+02  0.17115834301E+03  0.12500177055E+03 0.  0.
          5    1    3    3  501    0 -0.40642996976E+02 -0.62940490335E+02  0.62057472642E+01  0.75325691673E+02  0.47000000000E+01 0. -1.
         -5    1    3    3    0  501  0.79274567470E+02 -0.33389435280E+02  0.29165913110E+02  0.90950821456E+02  0.47000000000E+01 0. -1.
          5    1    4    4  502    0 -0.80620808691E+02  0.40105870170E+02  0.43363403197E+02  0.10005333754E+03  0.47000000000E+01 0.  1.
         -5    1    4    4    0  502  0.41989238196E+02  0.56224055445E+02  0.10468584807E+02  0.71105005470E+02  0.47000000000E+01 0.  1.
<mgrwt>
<rscale>  0 0.32543047E+03</rscale>
<asrwt>0</asrwt>
<pdfrwt beam="1">  1       21 0.32818347E-01 0.32543047E+03</pdfrwt>
<pdfrwt beam="2">  1       21 0.19094708E-01 0.32543047E+03</pdfrwt>
<totfact> 0.21755503E+05</totfact>
</mgrwt>
</event>
<event>
 8    1  0.4760912E-006  0.3190820E+03  0.7546771E-02  0.1076073E+00
         21   -1    0    0  504  503  0.00000000000E+00  0.00000000000E+00  0.13577986561E+04  0.13577986561E+04  0.00000000000E+00 0. -1.
         21   -1    0    0  503  504 -0.00000000000E+00 -0.00000000000E+00 -0.18746026230E+02  0.18746026230E+02  0.00000000000E+00 0. -1.
         25    2    1    2    0    0  0.73827527015E+02 -0.61583114518E+02  0.56515985829E+03  0.58674846118E+03  0.12500043014E+03 0.  0.
         25    2    1    2    0    0 -0.73827527015E+02  0.61583114518E+02  0.77389277155E+03  0.78979622112E+03  0.12500026120E+03 0.  0.
          5    1    3    3  501    0  0.76135240750E+02  0.79148966937E+01  0.40321533774E+03  0.41044356380E+03  0.47000000000E+01 0.  1.
         -5    1    3    3    0  501 -0.23077137349E+01 -0.69498011212E+02  0.16194452056E+03  0.17630489739E+03  0.47000000000E+01 0.  1.
          5    1    4    4  502    0  0.31723794065E+02  0.37264093036E+02  0.22777511703E+03  0.23302061213E+03  0.47000000000E+01 0.  1.
         -5    1    4    4    0  502 -0.10555132108E+03  0.24319021482E+02  0.54611765452E+03  0.55677560899E+03  0.47000000000E+01 0.  1.
<mgrwt>
<rscale>  0 0.31908199E+03</rscale>
<asrwt>0</asrwt>
<pdfrwt beam="1">  1       21 0.20889202E+00 0.31908199E+03</pdfrwt>
<pdfrwt beam="2">  1       21 0.28840051E-02 0.31908199E+03</pdfrwt>
<totfact> 0.74740788E+04</totfact>
</mgrwt>
</event>
<event>
 8    1  0.4760912E-006  0.2932883E+03  0.7546771E-02  0.1088645E+00
         21   -1    0    0  504  503  0.00000000000E+00  0.00000000000E+00  0.21027617062E+03  0.21027617062E+03  0.00000000000E+00 0. -1.
         21   -1    0    0  503  504 -0.00000000000E+00 -0.00000000000E+00 -0.10226793654E+03  0.10226793654E+03  0.00000000000E+00 0. -1.
         25    2    1    2    0    0  0.46564134621E+02 -0.60406971373E+02  0.62550418397E+02  0.15922964954E+03  0.12499722248E+03 0.  0.
         25    2    1    2    0    0 -0.46564134621E+02  0.60406971373E+02  0.45457815678E+02  0.15331445762E+03  0.12498675564E+03 0.  0.
          5    1    3    3  501    0 -0.14692055383E+02 -0.37811937634E+02 -0.26519614502E+02  0.48692700401E+02  0.47000000000E+01 0.  1.
         -5    1    3    3    0  501  0.61256190005E+02 -0.22595033739E+02  0.89070032899E+02  0.11053694914E+03  0.47000000000E+01 0.  1.
          5    1    4    4  502    0  0.59374342927E+01  0.81049959190E+02  0.11237094302E+01  0.81410697907E+02  0.47000000000E+01 0.  1.
         -5    1    4    4    0  502 -0.52501568914E+02 -0.20642987818E+02  0.44334106248E+02  0.71903759716E+02  0.47000000000E+01 0.  1.
<mgrwt>
<rscale>  0 0.29328832E+03</rscale>
<asrwt>0</asrwt>
<pdfrwt beam="1">  1       21 0.32350180E-01 0.29328832E+03</pdfrwt>
<pdfrwt beam="2">  1       21 0.15733529E-01 0.29328832E+03</pdfrwt>
<totfact> 0.32313799E+05</totfact>
</mgrwt>
</event>
<event>
 8    1  0.4760912E-006  0.2991275E+03  0.7546771E-02  0.1085678E+00
         21   -1    0    0  504  503  0.00000000000E+00  0.00000000000E+00  0.11748557031E+04  0.11748557031E+04  0.00000000000E+00 0.  1.
         21   -1    0    0  503  504 -0.00000000000E+00 -0.00000000000E+00 -0.19040058288E+02  0.19040058288E+02  0.00000000000E+00 0.  1.
         25    2    1    2    0    0  0.55614466961E+02  0.31380283950E+02  0.37187267287E+03  0.39748319816E+03  0.12500366732E+03 0.  0.
         25    2    1    2    0    0 -0.55614466961E+02 -0.31380283950E+02  0.78394297193E+03  0.79641256321E+03  0.12501478488E+03 0.  0.
          5    1    3    3  501    0  0.30119139917E+02  0.49597626467E+02  0.58565251069E+02  0.82577634825E+02  0.47000000000E+01 0.  1.
         -5    1    3    3    0  501  0.25495327045E+02 -0.18217342517E+02  0.31330742180E+03  0.31490556334E+03  0.47000000000E+01 0.  1.
          5    1    4    4  502    0 -0.28726375958E+02 -0.62366850846E+02  0.21010171576E+03  0.22108742552E+03  0.47000000000E+01 0. -1.
         -5    1    4    4    0  502 -0.26888091004E+02  0.30986566896E+02  0.57384125617E+03  0.57532513769E+03  0.47000000000E+01 0. -1.
<mgrwt>
<rscale>  0 0.29912754E+03</rscale>
<asrwt>0</asrwt>
<pdfrwt beam="1">  1       21 0.18074697E+00 0.29912754E+03</pdfrwt>
<pdfrwt beam="2">  1       21 0.29292407E-02 0.29912754E+03</pdfrwt>
<totfact> 0.11295891E+05</totfact>
</mgrwt>
</event>
<event>
 8    1  0.4760912E-006  0.3598765E+03  0.7546771E-02  0.1058633E+00
         21   -1    0    0  504  503  0.00000000000E+00  0.00000000000E+00  0.22175479195E+02  0.22175479195E+02  0.00000000000E+00 0. -1.
         21   -1    0    0  503  504 -0.00000000000E+00 -0.00000000000E+00 -0.14600707594E+04  0.14600707594E+04  0.00000000000E+00 0. -1.
         25    2    1    2    0    0 -0.88009879521E+02 -0.94745496335E+02 -0.74171234420E+03  0.76320704174E+03  0.12500135618E+03 0.  0.
         25    2    1    2    0    0  0.88009879521E+02  0.94745496335E+02 -0.69618293602E+03  0.71903919687E+03  0.12499695303E+03 0.  0.
          5    1    3    3  501    0  0.16815871533E+02  0.16553369558E+02 -0.15627494752E+03  0.15811621296E+03  0.47000000000E+01 0. -1.
         -5    1    3    3    0  501 -0.10482575105E+03 -0.11129886589E+03 -0.58543739669E+03  0.60509082878E+03  0.47000000000E+01 0. -1.
          5    1    4    4  502    0  0.53629053101E+00  0.90390764564E+02 -0.40175341386E+03  0.41182359510E+03  0.47000000000E+01 0.  1.
         -5    1    4    4    0  502  0.87473588990E+02  0.43547317712E+01 -0.29442952215E+03  0.30721560178E+03  0.47000000000E+01 0.  1.
<mgrwt>
<rscale>  0 0.35987647E+03</rscale>
<asrwt>0</asrwt>
<pdfrwt beam="1">  1       21 0.34116117E-02 0.35987647E+03</pdfrwt>
<pdfrwt beam="2">  1       21 0.22462630E+00 0.35987647E+03</pdfrwt>
<totfact> 0.44071139E+04</totfact>
</mgrwt>
</event>
<event>
 8    1  0.4760912E-006  0.3504977E+03  0.7546771E-02  0.1062411E+00
         21   -1    0    0  504  503  0.00000000000E+00  0.00000000000E+00  0.42209209585E+02  0.42209209585E+02  0.00000000000E+00 0. -1.
         21   -1    0    0  503  504 -0.00000000000E+00 -0.00000000000E+00 -0.72761761034E+03  0.72761761034E+03  0.00000000000E+00 0. -1.
         25    2    1    2    0    0 -0.26669059766E+02  0.11802701906E+03 -0.38909151148E+03  0.42621560879E+03  0.12500369951E+03 0.  0.
         25    2    1    2    0    0  0.26669059766E+02 -0.11802701906E+03 -0.29631688928E+03  0.34361121114E+03  0.12499339811E+03 0.  0.
          5    1    3    3  501    0 -0.12964985950E+01  0.85189070539E+01  0.85173588163E+01  0.12995694949E+02  0.47000000000E+01 0.  1.
         -5    1    3    3    0  501 -0.25372561171E+02  0.10950811201E+03 -0.39760887029E+03  0.41321991384E+03  0.47000000000E+01 0.  1.
          5    1    4    4  502    0  0.73017523547E+02 -0.81878239018E+02 -0.23001540556E+03  0.25488189729E+03  0.47000000000E+01 0.  1.
         -5    1    4    4    0  502 -0.46348463782E+02 -0.36148780044E+02 -0.66301483719E+02  0.88729313854E+02  0.47000000000E+01 0.  1.
<mgrwt>
<rscale>  0 0.35049773E+03</rscale>
<asrwt>0</asrwt>
<pdfrwt beam="1">  1       21 0.64937244E-02 0.35049773E+03</pdfrwt>
<pdfrwt beam="2">  1       21 0.11194117E+00 0.35049773E+03</pdfrwt>
<totfact> 0.10215848E+05</totfact>
</mgrwt>
</event>
<event>
 8    1  0.4760912E-006  0.4447297E+03  0.7546771E-02  0.1029305E+00
         21   -1    0    0  504  503  0.00000000000E+00  0.00000000000E+00  0.16736697764E+03  0.16736697764E+03  0.00000000000E+00 0.  1.
         21   -1    0    0  503  504 -0.00000000000E+00 -0.00000000000E+00 -0.29543533504E+03  0.29543533504E+03  0.00000000000E+00 0.  1.
         25    2    1    2    0    0  0.15022446304E+03  0.79589466666E+02  0.89581672218E+01  0.21120391554E+03  0.12499989072E+03 0.  0.
         25    2    1    2    0    0 -0.15022446304E+03 -0.79589466666E+02 -0.13702652462E+03  0.25159839714E+03  0.12499444986E+03 0.  0.
          5    1    3    3  501    0  0.53594791203E+01  0.22348323383E+02 -0.41273039051E+02  0.47473417056E+02  0.47000000000E+01 0. -1.
         -5    1    3    3    0  501  0.14486498392E+03  0.57241143283E+02  0.50231206273E+02  0.16373049848E+03  0.47000000000E+01 0. -1.
          5    1    4    4  502    0  0.43589029258E+01  0.19763310036E+01 -0.60277266826E+02  0.60649359560E+02  0.47000000000E+01 0. -1.
         -5    1    4    4    0  502 -0.15458336596E+03 -0.81565797669E+02 -0.76749257790E+02  0.19094903758E+03  0.47000000000E+01 0. -1.
<mgrwt>
<rscale>  0 0.44472967E+03</rscale>
<asrwt>0</asrwt>
<pdfrwt beam="1">  1       21 0.25748766E-01 0.44472967E+03</pdfrwt>
<pdfrwt beam="2">  1       21 0.45451590E-01 0.44472967E+03</pdfrwt>
<totfact> 0.61516011E+04</totfact>
</mgrwt>
</event>
<event>
 8    1  0.4760912E-006  0.3117590E+03  0.7546771E-02  0.1079506E+00
         21   -1    0    0  504  503  0.00000000000E+00  0.00000000000E+00  0.23676589922E+02  0.23676589922E+02  0.00000000000E+00 0. -1.
         21   -1    0    0  503  504 -0.00000000000E+00 -0.00000000000E+00 -0.10262633966E+04  0.10262633966E+04  0.00000000000E+00 0. -1.
         25    2    1    2    0    0  0.57804510661E+02 -0.52894280354E+02 -0.33170496328E+03  0.36303147798E+03  0.12499801995E+03 0.  0.
         25    2    1    2    0    0 -0.57804510661E+02  0.52894280354E+02 -0.67088184337E+03  0.68690850851E+03  0.12498673915E+03 0.  0.
          5    1    3    3  501    0 -0.21519968429E+02  0.23899406220E+02 -0.11867190073E+03  0.12304227193E+03  0.47000000000E+01 0. -1.
         -5    1    3    3    0  501  0.79324479089E+02 -0.76793686573E+02 -0.21303306256E+03  0.23998920605E+03  0.47000000000E+01 0. -1.
          5    1    4    4  502    0 -0.64894543791E+02  0.76873110344E+02 -0.32871589048E+03  0.34379791093E+03  0.47000000000E+01 0. -1.
         -5    1    4    4    0  502  0.70900331298E+01 -0.23978829990E+02 -0.34216595289E+03  0.34311059758E+03  0.47000000000E+01 0. -1.
<mgrwt>
<rscale>  0 0.31175899E+03</rscale>
<asrwt>0</asrwt>
<pdfrwt beam="1">  1       21 0.36425521E-02 0.31175899E+03</pdfrwt>
<pdfrwt beam="2">  1       21 0.15788669E+00 0.31175899E+03</pdfrwt>
<totfact> 0.11400457E+05</totfact>
</mgrwt>
</event>
<event>
 8    1  0.4760912E-006  0.3100035E+03  0.7546771E-02  0.1080344E+00
         21   -1    0    0  504  503  0.00000000000E+00  0.00000000000E+00  0.58136454458E+03  0.58136454458E+03  0.00000000000E+00 0.  1.
         21   -1    0    0  503  504 -0.00000000000E+00 -0.00000000000E+00 -0.41326112975E+02  0.41326112975E+02  0.00000000000E+00 0.  1.
         25    2    1    2    0    0  0.66394501419E+02  0.62540492141E+02  0.28809097451E+03  0.32701775542E+03  0.12499863914E+03 0.  0.
         25    2    1    2    0    0 -0.66394501419E+02 -0.62540492141E+02  0.25194745709E+03  0.29567290213E+03  0.12500160378E+03 0.  0.
          5    1    3    3  501    0  0.51931354947E+02 -0.27707898211E+02  0.15149651305E+03  0.16259728386E+03  0.47000000000E+01 0.  1.
         -5    1    3    3    0  501  0.14463146472E+02  0.90248390352E+02  0.13659446146E+03  0.16442047156E+03  0.47000000000E+01 0.  1.
          5    1    4    4  502    0  0.84597456575E+01  0.38922052994E+01 -0.10469725934E+02  0.14779097395E+02  0.47000000000E+01 0.  1.
         -5    1    4    4    0  502 -0.74854247077E+02 -0.66432697441E+02  0.26241718302E+03  0.28089380474E+03  0.47000000000E+01 0.  1.
<mgrwt>
<rscale>  0 0.31000346E+03</rscale>
<asrwt>0</asrwt>
<pdfrwt beam="1">  1       21 0.89440694E-01 0.31000346E+03</pdfrwt>
<pdfrwt beam="2">  1       21 0.63578639E-02 0.31000346E+03</pdfrwt>
<totfact> 0.18382899E+05</totfact>
</mgrwt>
</event>
<event>
 8    1  0.4760912E-006  0.2801919E+03  0.7546771E-02  0.1095584E+00
         21   -1    0    0  504  503  0.00000000000E+00  0.00000000000E+00  0.17411898121E+03  0.17411898121E+03  0.00000000000E+00 0. -1.
         21   -1    0    0  503  504 -0.00000000000E+00 -0.00000000000E+00 -0.11272107293E+03  0.11272107293E+03  0.00000000000E+00 0. -1.
         25    2    1    2    0    0 -0.43170455291E+02 -0.80188441341E+01  0.77328516288E+02  0.15340263685E+03  0.12499871795E+03 0.  0.
         25    2    1    2    0    0  0.43170455291E+02  0.80188441341E+01 -0.15930608005E+02  0.13343741729E+03  0.12499507986E+03 0.  0.
          5    1    3    3  501    0 -0.56076557556E+02  0.47962775684E+02  0.34507863415E+02  0.81595899383E+02  0.47000000000E+01 0.  1.
         -5    1    3    3    0  501  0.12906102265E+02 -0.55981619818E+02  0.42820652873E+02  0.71806737467E+02  0.47000000000E+01 0.  1.
          5    1    4    4  502    0  0.41353436558E+02  0.13118269433E+02  0.50430758721E+02  0.66689932773E+02  0.47000000000E+01 0.  1.
         -5    1    4    4    0  502  0.18170187328E+01 -0.50994252988E+01 -0.66361366725E+02  0.66747484515E+02  0.47000000000E+01 0.  1.
<mgrwt>
<rscale>  0 0.28019192E+03</rscale>
<asrwt>0</asrwt>
<pdfrwt beam="1">  1       21 0.26787536E-01 0.28019192E+03</pdfrwt>
<pdfrwt beam="2">  1       21 0.17341704E-01 0.28019192E+03</pdfrwt>
<totfact> 0.39178782E+05</totfact>
</mgrwt>
</event>
<event>
 8    1  0.4760912E-006  0.3444371E+03  0.7546771E-02  0.1064922E+00
         21   -1    0    0  504  503  0.00000000000E+00  0.00000000000E+00  0.75608998860E+03  0.75608998860E+03  0.00000000000E+00 0.  1.
         21   -1    0    0  503  504 -0.00000000000E+00 -0.00000000000E+00 -0.39227120264E+02  0.39227120264E+02  0.00000000000E+00 0.  1.
         25    2    1    2    0    0  0.56368353564E+02  0.39737428375E+02  0.58084137608E+03  0.59812847686E+03  0.12499806464E+03 0.  0.
         25    2    1    2    0    0 -0.56368353564E+02 -0.39737428375E+02  0.13602149225E+03  0.19718863200E+03  0.12500022296E+03 0.  0.
          5    1    3    3  501    0 -0.20230121304E+02  0.21395704032E+01  0.14605835474E+02  0.25480502338E+02  0.47000000000E+01 0.  1.
         -5    1    3    3    0  501  0.76598474868E+02  0.37597857972E+02  0.56623554061E+03  0.57264797452E+03  0.47000000000E+01 0.  1.
          5    1    4    4  502    0  0.26089771618E+02  0.24087802629E+02  0.19615271018E+02  0.40838061606E+02  0.47000000000E+01 0.  1.
         -5    1    4    4    0  502 -0.82458125182E+02 -0.63825231005E+02  0.11640622123E+03  0.15635057039E+03  0.47000000000E+01 0.  1.
<mgrwt>
<rscale>  0 0.34443712E+03</rscale>
<asrwt>0</asrwt>
<pdfrwt beam="1">  1       21 0.11632153E+00 0.34443712E+03</pdfrwt>
<pdfrwt beam="2">  1       21 0.60349421E-02 0.34443712E+03</pdfrwt>
<totfact> 0.10566542E+05</totfact>
</mgrwt>
</event>
<event>
 8    1  0.4760912E-006  0.3051781E+03  0.7546771E-02  0.1082680E+00
         21   -1    0    0  504  503  0.00000000000E+00  0.00000000000E+00  0.25168657326E+03  0.25168657326E+03  0.00000000000E+00 0.  1.
         21   -1    0    0  503  504 -0.00000000000E+00 -0.00000000000E+00 -0.92509599559E+02  0.92509599559E+02  0.00000000000E+00 0.  1.
         25    2    1    2    0    0  0.37879257389E+02 -0.40162759086E+02  0.30164092808E+01  0.13668979375E+03  0.12500846224E+03 0.  0.
         25    2    1    2    0    0 -0.37879257389E+02  0.40162759086E+02  0.15616056442E+03  0.20750637907E+03  0.12499956047E+03 0.  0.
          5    1    3    3  501    0  0.36228021557E+01 -0.13775793749E+02 -0.59035814488E+02  0.60911530773E+02  0.47000000000E+01 0.  1.
         -5    1    3    3    0  501  0.34256455233E+02 -0.26386965338E+02  0.62052223769E+02  0.75778262975E+02  0.47000000000E+01 0.  1.
          5    1    4    4  502    0 -0.16991460392E+02  0.74059402466E+02  0.14823139915E+03  0.16663775837E+03  0.47000000000E+01 0.  1.
         -5    1    4    4    0  502 -0.20887796997E+02 -0.33896643380E+02  0.79291652630E+01  0.40868620696E+02  0.47000000000E+01 0.  1.
<mgrwt>
<rscale>  0 0.30517814E+03</rscale>
<asrwt>0</asrwt>
<pdfrwt beam="1">  1       21 0.38721011E-01 0.30517814E+03</pdfrwt>
<pdfrwt beam="2">  1       21 0.14232246E-01 0.30517814E+03</pdfrwt>
<totfact> 0.27017931E+05</totfact>
</mgrwt>
</event>
<event>
 8    1  0.4760912E-006  0.3944080E+03  0.7546771E-02  0.1045733E+00
         21   -1    0    0  504  503  0.00000000000E+00  0.00000000000E+00  0.90108463402E+03  0.90108463402E+03  0.00000000000E+00 0.  1.
         21   -1    0    0  503  504 -0.00000000000E+00 -0.00000000000E+00 -0.43158447708E+02  0.43158447708E+02  0.00000000000E+00 0.  1.
         25    2    1    2    0    0 -0.57809613629E-01  0.22208389111E+02  0.79023573896E+03  0.80036789859E+03  0.12499213607E+03 0.  0.
         25    2    1    2    0    0  0.57809613629E-01 -0.22208389111E+02  0.67690447361E+02  0.14387518314E+03  0.12499942309E+03 0.  0.
          5    1    3    3  501    0 -0.41583112268E+01 -0.42559391898E+02  0.12998872655E+03  0.13692243213E+03  0.47000000000E+01 0. -1.
         -5    1    3    3    0  501  0.41005016132E+01  0.64767781009E+02  0.66024701241E+03  0.66344546646E+03  0.47000000000E+01 0. -1.
          5    1    4    4  502    0  0.28305428866E+02  0.35960604640E+02  0.64152731851E+02  0.78943178257E+02  0.47000000000E+01 0.  1.
         -5    1    4    4    0  502 -0.28247619252E+02 -0.58168993751E+02  0.35377155096E+01  0.64932004886E+02  0.47000000000E+01 0.  1.
<mgrwt>
<rscale>  0 0.39440798E+03</rscale>
<asrwt>0</asrwt>
<pdfrwt beam="1">  1       21 0.13862839E+00 0.39440798E+03</pdfrwt>
<pdfrwt beam="2">  1       21 0.66397619E-02 0.39440798E+03</pdfrwt>
<totfact> 0.56293711E+04</totfact>
</mgrwt>
</event>
<event>
 8    1  0.4760912E-006  0.3746742E+03  0.7546771E-02  0.1052920E+00
         21   -1    0    0  504  503  0.00000000000E+00  0.00000000000E+00  0.21956592484E+03  0.21956592484E+03  0.00000000000E+00 0.  1.
         21   -1    0    0  503  504 -0.00000000000E+00 -0.00000000000E+00 -0.15983894922E+03  0.15983894922E+03  0.00000000000E+00 0.  1.
         25    2    1    2    0    0  0.44790084073E+02  0.96034840322E+02 -0.62062015309E+02  0.17523064322E+03  0.12500096956E+03 0.  0.
         25    2    1    2    0    0 -0.44790084073E+02 -0.96034840322E+02  0.12178899093E+03  0.20417423084E+03  0.12500286413E+03 0.  0.
          5    1    3    3  501    0 -0.36034422716E+02 -0.13508308844E+01 -0.65288443627E+01  0.36946179413E+02  0.47000000000E+01 0.  1.
         -5    1    3    3    0  501  0.80824506789E+02  0.97385671206E+02 -0.55533170946E+02  0.13828446380E+03  0.47000000000E+01 0.  1.
          5    1    4    4  502    0 -0.27188859893E+02 -0.42299942306E+02  0.13651317839E+03  0.14555568383E+03  0.47000000000E+01 0.  1.
         -5    1    4    4    0  502 -0.17601224180E+02 -0.53734898016E+02 -0.14724187460E+02  0.58618547012E+02  0.47000000000E+01 0.  1.
<mgrwt>
<rscale>  0 0.37467419E+03</rscale>
<asrwt>0</asrwt>
<pdfrwt beam="1">  1       21 0.33779373E-01 0.37467419E+03</pdfrwt>
<pdfrwt beam="2">  1       21 0.24590608E-01 0.37467419E+03</pdfrwt>
<totfact> 0.12545695E+05</totfact>
</mgrwt>
</event>
<event>
 8    1  0.4760912E-006  0.4721288E+03  0.7546771E-02  0.1021321E+00
         21   -1    0    0  504  503  0.00000000000E+00  0.00000000000E+00  0.63255214155E+02  0.63255214155E+02  0.00000000000E+00 0.  1.
         21   -1    0    0  503  504 -0.00000000000E+00 -0.00000000000E+00 -0.88097716245E+03  0.88097716245E+03  0.00000000000E+00 0.  1.
         25    2    1    2    0    0 -0.10751030807E+03 -0.10808288894E+03 -0.66853456301E+03  0.69699487341E+03  0.12499205736E+03 0.  0.
         25    2    1    2    0    0  0.10751030807E+03  0.10808288894E+03 -0.14918738529E+03  0.24723750320E+03  0.12501651824E+03 0.  0.
          5    1    3    3  501    0 -0.44889077325E+02  0.10740721081E+01 -0.37335480439E+03  0.37607457087E+03  0.47000000000E+01 0. -1.
         -5    1    3    3    0  501 -0.62621230745E+02 -0.10915696105E+03 -0.29517975861E+03  0.32092030254E+03  0.47000000000E+01 0. -1.
          5    1    4    4  502    0  0.26873465762E+01  0.48580243990E+01 -0.87238074273E+02  0.87540812400E+02  0.47000000000E+01 0.  1.
         -5    1    4    4    0  502  0.10482296149E+03  0.10322486454E+03 -0.61949311016E+02  0.15969669080E+03  0.47000000000E+01 0.  1.
<mgrwt>
<rscale>  0 0.47212879E+03</rscale>
<asrwt>0</asrwt>
<pdfrwt beam="1">  1       21 0.97315718E-02 0.47212879E+03</pdfrwt>
<pdfrwt beam="2">  1       21 0.13553494E+00 0.47212879E+03</pdfrwt>
<totfact> 0.29729210E+04</totfact>
</mgrwt>
</event>
<event>
 8    1  0.4760912E-006  0.3201927E+03  0.7546771E-02  0.1075561E+00
         21   -1    0    0  504  503  0.00000000000E+00  0.00000000000E+00  0.15864638303E+03  0.15864638303E+03  0.00000000000E+00 0. -1.
         21   -1    0    0  503  504 -0.00000000000E+00 -0.00000000000E+00 -0.16155960812E+03  0.16155960812E+03  0.00000000000E+00 0. -1.
         25    2    1    2    0    0 -0.22869260069E+02 -0.57899620008E+02  0.76841304054E+02  0.15938866445E+03  0.12499916517E+03 0.  0.
         25    2    1    2    0    0  0.22869260069E+02  0.57899620008E+02 -0.79754529152E+02  0.16081732670E+03  0.12500423431E+03 0.  0.
          5    1    3    3  501    0  0.45947035420E+02 -0.27065313970E+02  0.28047145457E+01  0.53606134983E+02  0.47000000000E+01 0.  1.
         -5    1    3    3    0  501 -0.68816295489E+02 -0.30834306038E+02  0.74036589509E+02  0.10578252946E+03  0.47000000000E+01 0.  1.
          5    1    4    4  502    0 -0.50247343002E+02  0.26604320571E+02 -0.17394173217E+02  0.59642540302E+02  0.47000000000E+01 0.  1.
         -5    1    4    4    0  502  0.73116603070E+02  0.31295299437E+02 -0.62360355935E+02  0.10117478640E+03  0.47000000000E+01 0.  1.
<mgrwt>
<rscale>  0 0.32019274E+03</rscale>
<asrwt>0</asrwt>
<pdfrwt beam="1">  1       21 0.24407136E-01 0.32019274E+03</pdfrwt>
<pdfrwt beam="2">  1       21 0.24855324E-01 0.32019274E+03</pdfrwt>
<totfact> 0.23538921E+05</totfact>
</mgrwt>
</event>
<event>
 8    1  0.4760912E-006  0.4546421E+03  0.7546771E-02  0.1026347E+00
         21   -1    0    0  504  503  0.00000000000E+00  0.00000000000E+00  0.37465971904E+03  0.37465971904E+03  0.00000000000E+00 0.  1.
         21   -1    0    0  503  504 -0.00000000000E+00 -0.00000000000E+00 -0.13792476964E+03  0.13792476964E+03  0.00000000000E+00 0.  1.
         25    2    1    2    0    0 -0.82107646872E+02  0.16338264093E+03  0.17602041149E+03  0.28292112377E+03  0.12500249590E+03 0.  0.
         25    2    1    2    0    0  0.82107646872E+02 -0.16338264093E+03  0.60714537907E+02  0.22966336491E+03  0.12499381199E+03 0.  0.
          5    1    3    3  501    0 -0.10499644782E+03  0.10438336638E+03  0.81484964232E+02  0.16906220934E+03  0.47000000000E+01 0. -1.
         -5    1    3    3    0  501  0.22888800945E+02  0.58999274547E+02  0.94535447262E+02  0.11385891443E+03  0.47000000000E+01 0. -1.
          5    1    4    4  502    0 -0.47508520656E+01 -0.66877364606E+02  0.72919748973E+02  0.99169210355E+02  0.47000000000E+01 0. -1.
         -5    1    4    4    0  502  0.86858498938E+02 -0.96505276320E+02 -0.12205211067E+02  0.13049415455E+03  0.47000000000E+01 0. -1.
<mgrwt>
<rscale>  0 0.45464208E+03</rscale>
<asrwt>0</asrwt>
<pdfrwt beam="1">  1       21 0.57639956E-01 0.45464208E+03</pdfrwt>
<pdfrwt beam="2">  1       21 0.21219195E-01 0.45464208E+03</pdfrwt>
<totfact> 0.53723822E+04</totfact>
</mgrwt>
</event>
<event>
 8    1  0.4760912E-006  0.3314304E+03  0.7546771E-02  0.1070506E+00
         21   -1    0    0  504  503  0.00000000000E+00  0.00000000000E+00  0.31936166956E+03  0.31936166956E+03  0.00000000000E+00 0. -1.
         21   -1    0    0  503  504 -0.00000000000E+00 -0.00000000000E+00 -0.85988779573E+02  0.85988779573E+02  0.00000000000E+00 0. -1.
         25    2    1    2    0    0 -0.28197895359E+02  0.10998141601E+02 -0.11120151424E+02  0.12909357967E+03  0.12500165648E+03 0.  0.
         25    2    1    2    0    0  0.28197895359E+02 -0.10998141601E+02  0.24449304141E+03  0.27625686946E+03  0.12499972083E+03 0.  0.
          5    1    3    3  501    0 -0.37610819155E+02 -0.52200780885E+02 -0.40798421618E+01  0.64639232318E+02  0.47000000000E+01 0. -1.
         -5    1    3    3    0  501  0.94129237967E+01  0.63198922486E+02 -0.70403092620E+01  0.64454347350E+02  0.47000000000E+01 0. -1.
          5    1    4    4  502    0 -0.22404381219E+02  0.31227837222E+02  0.17930782720E+03  0.18344078339E+03  0.47000000000E+01 0. -1.
         -5    1    4    4    0  502  0.50602276577E+02 -0.42225978823E+02  0.65185214204E+02  0.92816086069E+02  0.47000000000E+01 0. -1.
<mgrwt>
<rscale>  0 0.33143036E+03</rscale>
<asrwt>0</asrwt>
<pdfrwt beam="1">  1       21 0.49132564E-01 0.33143036E+03</pdfrwt>
<pdfrwt beam="2">  1       21 0.13229043E-01 0.33143036E+03</pdfrwt>
<totfact> 0.18763785E+05</totfact>
</mgrwt>
</event>
<event>
 8    1  0.4760912E-006  0.2630444E+03  0.7546771E-02  0.1105328E+00
         21   -1    0    0  504  503  0.00000000000E+00  0.00000000000E+00  0.24021912564E+03  0.24021912564E+03  0.00000000000E+00 0.  1.
         21   -1    0    0  503  504 -0.00000000000E+00 -0.00000000000E+00 -0.72009645436E+02  0.72009645436E+02  0.00000000000E+00 0.  1.
         25    2    1    2    0    0  0.23394379402E+02  0.30943897672E+02  0.68707885736E+02  0.14781911982E+03  0.12499958733E+03 0.  0.
         25    2    1    2    0    0 -0.23394379402E+02 -0.30943897672E+02  0.99501594472E+02  0.16440965126E+03  0.12500057733E+03 0.  0.
          5    1    3    3  501    0 -0.35528043980E+02 -0.27994272581E+02  0.12417963414E+02  0.47140396919E+02  0.47000000000E+01 0. -1.
         -5    1    3    3    0  501  0.58922423383E+02  0.58938170253E+02  0.56289922322E+02  0.10067872290E+03  0.47000000000E+01 0. -1.
          5    1    4    4  502    0 -0.31867624632E+02  0.11845128179E+01  0.12055794499E+03  0.12479285504E+03  0.47000000000E+01 0. -1.
         -5    1    4    4    0  502  0.84732452294E+01 -0.32128410490E+02 -0.21056350515E+02  0.39616796215E+02  0.47000000000E+01 0. -1.
<mgrwt>
<rscale>  0 0.26304444E+03</rscale>
<asrwt>0</asrwt>
<pdfrwt beam="1">  1       21 0.36956788E-01 0.26304444E+03</pdfrwt>
<pdfrwt beam="2">  1       21 0.11078407E-01 0.26304444E+03</pdfrwt>
<totfact> 0.47115896E+05</totfact>
</mgrwt>
</event>
<event>
 8    1  0.4760912E-006  0.3266248E+03  0.7546771E-02  0.1072640E+00
         21   -1    0    0  504  503  0.00000000000E+00  0.00000000000E+00  0.45524523553E+03  0.45524523553E+03  0.00000000000E+00 0.  1.
         21   -1    0    0  503  504 -0.00000000000E+00 -0.00000000000E+00 -0.58585863791E+02  0.58585863791E+02  0.00000000000E+00 0.  1.
         25    2    1    2    0    0  0.66805089349E+02 -0.34945269359E+02  0.83124278358E+02  0.16798707643E+03  0.12500368147E+03 0.  0.
         25    2    1    2    0    0 -0.66805089349E+02  0.34945269359E+02  0.31353509338E+03  0.34584402290E+03  0.12497896454E+03 0.  0.
          5    1    3    3  501    0 -0.23316798047E+02 -0.49169753171E+02  0.30967076442E+02  0.62788434615E+02  0.47000000000E+01 0.  1.
         -5    1    3    3    0  501  0.90121887396E+02  0.14224483813E+02  0.52157201916E+02  0.10519864181E+03  0.47000000000E+01 0.  1.
          5    1    4    4  502    0  0.28523256810E+02  0.21070372661E+02  0.16434671986E+03  0.16819474163E+03  0.47000000000E+01 0. -1.
         -5    1    4    4    0  502 -0.95328346159E+02  0.13874896698E+02  0.14918837352E+03  0.17764928126E+03  0.47000000000E+01 0. -1.
<mgrwt>
<rscale>  0 0.32662477E+03</rscale>
<asrwt>0</asrwt>
<pdfrwt beam="1">  1       21 0.70037726E-01 0.32662477E+03</pdfrwt>
<pdfrwt beam="2">  1       21 0.90132101E-02 0.32662477E+03</pdfrwt>
<totfact> 0.17365677E+05</totfact>
</mgrwt>
</event>
<event>
 8    1  0.4760912E-006  0.1542169E+04  0.7546771E-02  0.8856885E-01
         21   -1    0    0  504  503  0.00000000000E+00  0.00000000000E+00  0.32484085559E+04  0.32484085559E+04  0.00000000000E+00 0. -1.
         21   -1    0    0  503  504 -0.00000000000E+00 -0.00000000000E+00 -0.18303473299E+03  0.18303473299E+03  0.00000000000E+00 0. -1.
         25    2    1    2    0    0 -0.15307825908E+03  0.68959151317E+03  0.90342868763E+03  0.11535932857E+04  0.12499866657E+03 0.  0.
         25    2    1    2    0    0  0.15307825908E+03 -0.68959151317E+03  0.21619451353E+04  0.22778500032E+04  0.12499784326E+03 0.  0.
          5    1    3    3  501    0 -0.10452324355E+03  0.30319080355E+03  0.32801706054E+03  0.45876688394E+03  0.47000000000E+01 0.  1.
         -5    1    3    3    0  501 -0.48555015531E+02  0.38640070962E+03  0.57541162709E+03  0.69482640172E+03  0.47000000000E+01 0.  1.
          5    1    4    4  502    0  0.51442556947E+02 -0.92728224653E+02  0.43772802586E+03  0.45041400393E+03  0.47000000000E+01 0. -1.
         -5    1    4    4    0  502  0.10163570213E+03 -0.59686328852E+03  0.17242171094E+04  0.18274359993E+04  0.47000000000E+01 0. -1.
<mgrwt>
<rscale>  0 0.15421694E+04</rscale>
<asrwt>0</asrwt>
<pdfrwt beam="1">  1       21 0.49975512E+00 0.15421694E+04</pdfrwt>
<pdfrwt beam="2">  1       21 0.28159192E-01 0.15421694E+04</pdfrwt>
<totfact> 0.11125187E+01</totfact>
</mgrwt>
</event>
<event>
 8    1  0.4760912E-006  0.2864147E+03  0.7546771E-02  0.1092236E+00
         21   -1    0    0  504  503  0.00000000000E+00  0.00000000000E+00  0.73173275946E+03  0.73173275946E+03  0.00000000000E+00 0. -1.
         21   -1    0    0  503  504 -0.00000000000E+00 -0.00000000000E+00 -0.28027102413E+02  0.28027102413E+02  0.00000000000E+00 0. -1.
         25    2    1    2    0    0 -0.34001484509E+02 -0.37095596719E+02  0.48048104125E+03  0.49901694425E+03  0.12499478151E+03 0.  0.
         25    2    1    2    0    0  0.34001484509E+02  0.37095596719E+02  0.22322461580E+03  0.26074291762E+03  0.12500182297E+03 0.  0.
          5    1    3    3  501    0 -0.74532542720E+02 -0.48888562363E+02  0.27260283930E+03  0.28684419020E+03  0.47000000000E+01 0. -1.
         -5    1    3    3    0  501  0.40531058210E+02  0.11792965643E+02  0.20787820194E+03  0.21217275405E+03  0.47000000000E+01 0. -1.
          5    1    4    4  502    0  0.55525149968E+01 -0.24183280468E+02  0.17689433769E+03  0.17868787923E+03  0.47000000000E+01 0. -1.
         -5    1    4    4    0  502  0.28448969512E+02  0.61278877188E+02  0.46330278106E+02  0.82055038389E+02  0.47000000000E+01 0. -1.
<mgrwt>
<rscale>  0 0.28641473E+03</rscale>
<asrwt>0</asrwt>
<pdfrwt beam="1">  1       21 0.11257426E+00 0.28641473E+03</pdfrwt>
<pdfrwt beam="2">  1       21 0.43118624E-02 0.28641473E+03</pdfrwt>
<totfact> 0.20710927E+05</totfact>
</mgrwt>
</event>
<event>
 8    1  0.4760912E-006  0.5776225E+03  0.7546771E-02  0.9952952E-01
         21   -1    0    0  504  503  0.00000000000E+00  0.00000000000E+00  0.59427417921E+03  0.59427417921E+03  0.00000000000E+00 0. -1.
         21   -1    0    0  503  504 -0.00000000000E+00 -0.00000000000E+00 -0.14035934023E+03  0.14035934023E+03  0.00000000000E+00 0. -1.
         25    2    1    2    0    0  0.11042623385E+03 -0.23491672266E+03  0.25229787083E+03  0.38295983024E+03  0.12499678496E+03 0.  0.
         25    2    1    2    0    0 -0.11042623385E+03  0.23491672266E+03  0.20161696815E+03  0.35167368919E+03  0.12508062247E+03 0.  0.
          5    1    3    3  501    0  0.11233931072E+02  0.14251671716E+02  0.88632435607E+01  0.20735439240E+02  0.47000000000E+01 0.  1.
         -5    1    3    3    0  501  0.99192302776E+02 -0.24916839437E+03  0.24343462727E+03  0.36222439100E+03  0.47000000000E+01 0.  1.
          5    1    4    4  502    0  0.24487511610E+02  0.47810929420E+02  0.18138887712E+02  0.56891409231E+02  0.47000000000E+01 0.  1.
         -5    1    4    4    0  502 -0.13491374546E+03  0.18710579324E+03  0.18347808044E+03  0.29478227996E+03  0.47000000000E+01 0.  1.
<mgrwt>
<rscale>  0 0.57762248E+03</rscale>
<asrwt>0</asrwt>
<pdfrwt beam="1">  1       21 0.91426796E-01 0.57762248E+03</pdfrwt>
<pdfrwt beam="2">  1       21 0.21593745E-01 0.57762248E+03</pdfrwt>
<totfact> 0.17699967E+04</totfact>
</mgrwt>
</event>
<event>
 8    1  0.4760912E-006  0.3713239E+03  0.7546771E-02  0.1054188E+00
         21   -1    0    0  504  503  0.00000000000E+00  0.00000000000E+00  0.11396150107E+04  0.11396150107E+04  0.00000000000E+00 0. -1.
         21   -1    0    0  503  504 -0.00000000000E+00 -0.00000000000E+00 -0.30247374977E+02  0.30247374977E+02  0.00000000000E+00 0. -1.
         25    2    1    2    0    0  0.54178637449E+02  0.96877087206E+02  0.80913898548E+03  0.82622745140E+03  0.12500163536E+03 0.  0.
         25    2    1    2    0    0 -0.54178637449E+02 -0.96877087206E+02  0.30022865029E+03  0.34363493432E+03  0.12500892309E+03 0.  0.
          5    1    3    3  501    0  0.42031249692E+02 -0.29122388949E+01  0.48442349477E+03  0.48627494216E+03  0.47000000000E+01 0. -1.
         -5    1    3    3    0  501  0.12147387758E+02  0.99789326101E+02  0.32471549070E+03  0.33995250924E+03  0.47000000000E+01 0. -1.
          5    1    4    4  502    0 -0.24381537012E+02 -0.43819284677E+02  0.27158250479E+03  0.27621320744E+03  0.47000000000E+01 0.  1.
         -5    1    4    4    0  502 -0.29797100437E+02 -0.53057802529E+02  0.28646145498E+02  0.67421726881E+02  0.47000000000E+01 0.  1.
<mgrwt>
<rscale>  0 0.37132392E+03</rscale>
<asrwt>0</asrwt>
<pdfrwt beam="1">  1       21 0.17532535E+00 0.37132392E+03</pdfrwt>
<pdfrwt beam="2">  1       21 0.46534432E-02 0.37132392E+03</pdfrwt>
<totfact> 0.55028333E+04</totfact>
</mgrwt>
</event>
<event>
 8    1  0.4760912E-006  0.2925934E+03  0.7546771E-02  0.1089003E+00
         21   -1    0    0  504  503  0.00000000000E+00  0.00000000000E+00  0.92975981411E+03  0.92975981411E+03  0.00000000000E+00 0. -1.
         21   -1    0    0  503  504 -0.00000000000E+00 -0.00000000000E+00 -0.23019624581E+02  0.23019624581E+02  0.00000000000E+00 0. -1.
         25    2    1    2    0    0  0.40028467142E+02  0.72781264291E+01  0.24422493909E+03  0.27735103522E+03  0.12499010583E+03 0.  0.
         25    2    1    2    0    0 -0.40028467142E+02 -0.72781264291E+01  0.66251525044E+03  0.67542840347E+03  0.12498728675E+03 0.  0.
          5    1    3    3  501    0  0.75135661163E+02 -0.13906632580E+02  0.21070467741E+03  0.22418142896E+03  0.47000000000E+01 0.  1.
         -5    1    3    3    0  501 -0.35107194021E+02  0.21184759009E+02  0.33520261676E+02  0.53169606253E+02  0.47000000000E+01 0.  1.
          5    1    4    4  502    0 -0.59710931026E+02 -0.45496618803E+02  0.54581593987E+03  0.55097410813E+03  0.47000000000E+01 0.  1.
         -5    1    4    4    0  502  0.19682463884E+02  0.38218492374E+02  0.11669931056E+03  0.12445429535E+03  0.47000000000E+01 0.  1.
<mgrwt>
<rscale>  0 0.29259338E+03</rscale>
<asrwt>0</asrwt>
<pdfrwt beam="1">  1       21 0.14303994E+00 0.29259338E+03</pdfrwt>
<pdfrwt beam="2">  1       21 0.35414814E-02 0.29259338E+03</pdfrwt>
<totfact> 0.15671686E+05</totfact>
</mgrwt>
</event>
<event>
 8    1  0.4760912E-006  0.3704325E+03  0.7546771E-02  0.1054528E+00
         21   -1    0    0  504  503  0.00000000000E+00  0.00000000000E+00  0.84303548862E+03  0.84303548862E+03  0.00000000000E+00 0. -1.
         21   -1    0    0  503  504 -0.00000000000E+00 -0.00000000000E+00 -0.40692304259E+02  0.40692304259E+02  0.00000000000E+00 0. -1.
         25    2    1    2    0    0  0.27921982660E+02  0.90616545416E+02  0.63600477246E+03  0.65507210412E+03  0.12500558219E+03 0.  0.
         25    2    1    2    0    0 -0.27921982660E+02 -0.90616545416E+02  0.16633841190E+03  0.22865568876E+03  0.12499584518E+03 0.  0.
          5    1    3    3  501    0  0.72226340435E+02  0.30493392336E+02  0.39439296699E+03  0.40213728209E+03  0.47000000000E+01 0. -1.
         -5    1    3    3    0  501 -0.44304357775E+02  0.60123153080E+02  0.24161180547E+03  0.25293482203E+03  0.47000000000E+01 0. -1.
          5    1    4    4  502    0  0.13630620286E+01 -0.11704944564E+03  0.12304530004E+03  0.16989604623E+03  0.47000000000E+01 0. -1.
         -5    1    4    4    0  502 -0.29285044688E+02  0.26432900220E+02  0.43293111858E+02  0.58759642534E+02  0.47000000000E+01 0. -1.
<mgrwt>
<rscale>  0 0.37043249E+03</rscale>
<asrwt>0</asrwt>
<pdfrwt beam="1">  1       21 0.12969775E+00 0.37043249E+03</pdfrwt>
<pdfrwt beam="2">  1       21 0.62603551E-02 0.37043249E+03</pdfrwt>
<totfact> 0.74679232E+04</totfact>
</mgrwt>
</event>
<event>
 8    1  0.4760912E-006  0.2734589E+03  0.7546771E-02  0.1099316E+00
         21   -1    0    0  504  503  0.00000000000E+00  0.00000000000E+00  0.34674981377E+02  0.34674981377E+02  0.00000000000E+00 0.  1.
         21   -1    0    0  503  504 -0.00000000000E+00 -0.00000000000E+00 -0.53914775420E+03  0.53914775420E+03  0.00000000000E+00 0.  1.
         25    2    1    2    0    0 -0.22898454778E+02  0.30743851732E+02 -0.16829004995E+03  0.21311135320E+03  0.12500153719E+03 0.  0.
         25    2    1    2    0    0  0.22898454778E+02 -0.30743851732E+02 -0.33618272288E+03  0.36071138238E+03  0.12499741823E+03 0.  0.
          5    1    3    3  501    0  0.41246227680E+02  0.34482750559E+02 -0.32978732177E+02  0.63245538656E+02  0.47000000000E+01 0. -1.
         -5    1    3    3    0  501 -0.64144682458E+02 -0.37388988265E+01 -0.13531131777E+03  0.14986581454E+03  0.47000000000E+01 0. -1.
          5    1    4    4  502    0  0.43192288462E+02 -0.34982695466E+02 -0.53694684681E+02  0.77424620940E+02  0.47000000000E+01 0.  1.
         -5    1    4    4    0  502 -0.20293833684E+02  0.42388437336E+01 -0.28248803820E+03  0.28328676144E+03  0.47000000000E+01 0.  1.
<mgrwt>
<rscale>  0 0.27345887E+03</rscale>
<asrwt>0</asrwt>
<pdfrwt beam="1">  1       21 0.53346123E-02 0.27345887E+03</pdfrwt>
<pdfrwt beam="2">  1       21 0.82945812E-01 0.27345887E+03</pdfrwt>
<totfact> 0.29889353E+05</totfact>
</mgrwt>
</event>
<event>
 8    1  0.4760912E-006  0.2735472E+03  0.7546771E-02  0.1099266E+00
         21   -1    0    0  504  503  0.00000000000E+00  0.00000000000E+00  0.40497683659E+02  0.40497683659E+02  0.00000000000E+00 0.  1.
         21   -1    0    0  503  504 -0.00000000000E+00 -0.00000000000E+00 -0.46192814200E+03  0.46192814200E+03  0.00000000000E+00 0.  1.
         25    2    1    2    0    0  0.32021895595E+02  0.35040186113E+02 -0.15785771379E+03  0.20687545505E+03  0.12500071862E+03 0.  0.
         25    2    1    2    0    0 -0.32021895595E+02 -0.35040186113E+02 -0.26357274455E+03  0.29555037061E+03  0.12500485375E+03 0.  0.
          5    1    3    3  501    0  0.26757419736E+02  0.81422119778E+02 -0.89903421446E+02  0.12429897943E+03  0.47000000000E+01 0. -1.
         -5    1    3    3    0  501  0.52644758582E+01 -0.46381933665E+02 -0.67954292348E+02  0.82576475615E+02  0.47000000000E+01 0. -1.
          5    1    4    4  502    0 -0.65080822616E+02 -0.34320669868E+02 -0.79308389068E+02  0.10828357414E+03  0.47000000000E+01 0. -1.
         -5    1    4    4    0  502  0.33058927021E+02 -0.71951624502E+00 -0.18426435548E+03  0.18726679647E+03  0.47000000000E+01 0. -1.
<mgrwt>
<rscale>  0 0.27354722E+03</rscale>
<asrwt>0</asrwt>
<pdfrwt beam="1">  1       21 0.62304133E-02 0.27354722E+03</pdfrwt>
<pdfrwt beam="2">  1       21 0.71065864E-01 0.27354722E+03</pdfrwt>
<totfact> 0.32468230E+05</totfact>
</mgrwt>
</event>
<event>
 8    1  0.4760912E-006  0.2817155E+03  0.7546771E-02  0.1094756E+00
         21   -1    0    0  504  503  0.00000000000E+00  0.00000000000E+00  0.24594955630E+03  0.24594955630E+03  0.00000000000E+00 0.  1.
         21   -1    0    0  503  504 -0.00000000000E+00 -0.00000000000E+00 -0.80670609625E+02  0.80670609625E+02  0.00000000000E+00 0.  1.
         25    2    1    2    0    0  0.37336136065E+02  0.30922807350E+02  0.32566864661E+02  0.13797168476E+03  0.12500151219E+03 0.  0.
         25    2    1    2    0    0 -0.37336136065E+02 -0.30922807350E+02  0.13271208201E+03  0.18864848117E+03  0.12500218263E+03 0.  0.
          5    1    3    3  501    0 -0.18020087075E+02 -0.35181381349E+02 -0.10938758143E+02  0.41281952007E+02  0.47000000000E+01 0. -1.
         -5    1    3    3    0  501  0.55356223140E+02  0.66104188700E+02  0.43505622803E+02  0.96689732751E+02  0.47000000000E+01 0. -1.
          5    1    4    4  502    0 -0.29160520793E+02  0.72572520896E-01 -0.17935871134E+02  0.34556138572E+02  0.47000000000E+01 0. -1.
         -5    1    4    4    0  502 -0.81756152724E+01 -0.30995379871E+02  0.15064795315E+03  0.15409234259E+03  0.47000000000E+01 0. -1.
<mgrwt>
<rscale>  0 0.28171546E+03</rscale>
<asrwt>0</asrwt>
<pdfrwt beam="1">  1       21 0.37838393E-01 0.28171546E+03</pdfrwt>
<pdfrwt beam="2">  1       21 0.12410863E-01 0.28171546E+03</pdfrwt>
<totfact> 0.36494425E+05</totfact>
</mgrwt>
</event>
<event>
 8    1  0.4760912E-006  0.3496206E+03  0.7546771E-02  0.1062771E+00
         21   -1    0    0  504  503  0.00000000000E+00  0.00000000000E+00  0.42976912468E+02  0.42976912468E+02  0.00000000000E+00 0.  1.
         21   -1    0    0  503  504 -0.00000000000E+00 -0.00000000000E+00 -0.71104796844E+03  0.71104796844E+03  0.00000000000E+00 0.  1.
         25    2    1    2    0    0  0.60716955229E+02 -0.68494803400E+02 -0.15941581095E+03  0.22230386157E+03  0.12501007696E+03 0.  0.
         25    2    1    2    0    0 -0.60716955229E+02  0.68494803400E+02 -0.50865524502E+03  0.53172101934E+03  0.12497598721E+03 0.  0.
          5    1    3    3  501    0 -0.11726421412E+02 -0.44755610936E+02 -0.13394805103E+03  0.14179119875E+03  0.47000000000E+01 0. -1.
         -5    1    3    3    0  501  0.72443376641E+02 -0.23739192463E+02 -0.25467759926E+02  0.80512662815E+02  0.47000000000E+01 0. -1.
          5    1    4    4  502    0  0.38603973639E+02  0.25824714807E+02 -0.14886090456E+03  0.15600910737E+03  0.47000000000E+01 0. -1.
         -5    1    4    4    0  502 -0.99320928869E+02  0.42670088592E+02 -0.35979434046E+03  0.37571191197E+03  0.47000000000E+01 0. -1.
<mgrwt>
<rscale>  0 0.34962063E+03</rscale>
<asrwt>0</asrwt>
<pdfrwt beam="1">  1       21 0.66118328E-02 0.34962063E+03</pdfrwt>
<pdfrwt beam="2">  1       21 0.10939199E+00 0.34962063E+03</pdfrwt>
<totfact> 0.10481028E+05</totfact>
</mgrwt>
</event>
<event>
 8    1  0.4760912E-006  0.2835405E+03  0.7546771E-02  0.1093771E+00
         21   -1    0    0  504  503  0.00000000000E+00  0.00000000000E+00  0.11736499995E+03  0.11736499995E+03  0.00000000000E+00 0. -1.
         21   -1    0    0  503  504 -0.00000000000E+00 -0.00000000000E+00 -0.17125038394E+03  0.17125038394E+03  0.00000000000E+00 0. -1.
         25    2    1    2    0    0 -0.50320138128E+02 -0.52853229911E+01  0.17611859140E+02  0.13600013305E+03  0.12500323063E+03 0.  0.
         25    2    1    2    0    0  0.50320138128E+02  0.52853229911E+01 -0.71497243130E+02  0.15261525083E+03  0.12497803035E+03 0.  0.
          5    1    3    3  501    0  0.43457547377E+01  0.51125785131E+02  0.24407905285E+02  0.57013746851E+02  0.47000000000E+01 0. -1.
         -5    1    3    3    0  501 -0.54665892865E+02 -0.56411108122E+02 -0.67960461456E+01  0.78986386204E+02  0.47000000000E+01 0. -1.
          5    1    4    4  502    0  0.72383662475E+01  0.39307522596E+02  0.20665160045E+02  0.45239519430E+02  0.47000000000E+01 0.  1.
         -5    1    4    4    0  502  0.43081771880E+02 -0.34022199605E+02 -0.92162403175E+02  0.10737573140E+03  0.47000000000E+01 0.  1.
<mgrwt>
<rscale>  0 0.28354048E+03</rscale>
<asrwt>0</asrwt>
<pdfrwt beam="1">  1       21 0.18056154E-01 0.28354048E+03</pdfrwt>
<pdfrwt beam="2">  1       21 0.26346213E-01 0.28354048E+03</pdfrwt>
<totfact> 0.37507199E+05</totfact>
</mgrwt>
</event>
<event>
 8    1  0.4760912E-006  0.3251253E+03  0.7546771E-02  0.1073314E+00
         21   -1    0    0  504  503  0.00000000000E+00  0.00000000000E+00  0.17329268038E+03  0.17329268038E+03  0.00000000000E+00 0.  1.
         21   -1    0    0  503  504 -0.00000000000E+00 -0.00000000000E+00 -0.15249703349E+03  0.15249703349E+03  0.00000000000E+00 0.  1.
         25    2    1    2    0    0 -0.46049917339E+01 -0.64729680467E+02 -0.70935189050E+02  0.15770651452E+03  0.12501362403E+03 0.  0.
         25    2    1    2    0    0  0.46049917339E+01  0.64729680467E+02  0.91730835948E+02  0.16808319936E+03  0.12500511253E+03 0.  0.
          5    1    3    3  501    0 -0.33112012750E+01 -0.97021171777E+02 -0.77607144932E+02  0.12437455838E+03  0.47000000000E+01 0.  1.
         -5    1    3    3    0  501 -0.12937904589E+01  0.32291491310E+02  0.66719558820E+01  0.33331956139E+02  0.47000000000E+01 0.  1.
          5    1    4    4  502    0  0.90757802305E+01 -0.51198896283E+01  0.97060095713E+02  0.97730932854E+02  0.47000000000E+01 0. -1.
         -5    1    4    4    0  502 -0.44707884966E+01  0.69849570096E+02 -0.53292597647E+01  0.70352266502E+02  0.47000000000E+01 0. -1.
<mgrwt>
<rscale>  0 0.32512533E+03</rscale>
<asrwt>0</asrwt>
<pdfrwt beam="1">  1       21 0.26660412E-01 0.32512533E+03</pdfrwt>
<pdfrwt beam="2">  1       21 0.23461082E-01 0.32512533E+03</pdfrwt>
<totfact> 0.22150276E+05</totfact>
</mgrwt>
</event>
<event>
 8    1  0.4760912E-006  0.2742863E+03  0.7546771E-02  0.1098851E+00
         21   -1    0    0  504  503  0.00000000000E+00  0.00000000000E+00  0.54317442972E+02  0.54317442972E+02  0.00000000000E+00 0.  1.
         21   -1    0    0  503  504 -0.00000000000E+00 -0.00000000000E+00 -0.34626515499E+03  0.34626515499E+03  0.00000000000E+00 0.  1.
         25    2    1    2    0    0 -0.48978574591E+02 -0.16270603610E+02 -0.11269582991E+03  0.17603819109E+03  0.12500184531E+03 0.  0.
         25    2    1    2    0    0  0.48978574591E+02  0.16270603610E+02 -0.17925188211E+03  0.22454440687E+03  0.12500128042E+03 0.  0.
          5    1    3    3  501    0 -0.18802319143E+02 -0.65891912417E+02 -0.90671232000E+02  0.11374811488E+03  0.47000000000E+01 0. -1.
         -5    1    3    3    0  501 -0.30176255448E+02  0.49621308806E+02 -0.22024597908E+02  0.62290076204E+02  0.47000000000E+01 0. -1.
          5    1    4    4  502    0  0.74797561238E+02 -0.27098625630E+02 -0.79048204030E+02  0.11224847099E+03  0.47000000000E+01 0.  1.
         -5    1    4    4    0  502 -0.25818986647E+02  0.43369229240E+02 -0.10020367808E+03  0.11229593588E+03  0.47000000000E+01 0.  1.
<mgrwt>
<rscale>  0 0.27428626E+03</rscale>
<asrwt>0</asrwt>
<pdfrwt beam="1">  1       21 0.83565299E-02 0.27428626E+03</pdfrwt>
<pdfrwt beam="2">  1       21 0.53271561E-01 0.27428626E+03</pdfrwt>
<totfact> 0.36424907E+05</totfact>
</mgrwt>
</event>
<event>
 8    1  0.4760912E-006  0.4736748E+03  0.7546771E-02  0.1020888E+00
         21   -1    0    0  504  503  0.00000000000E+00  0.00000000000E+00  0.71379189443E+03  0.71379189443E+03  0.00000000000E+00 0.  1.
         21   -1    0    0  503  504 -0.00000000000E+00 -0.00000000000E+00 -0.78583053430E+02  0.78583053430E+02  0.00000000000E+00 0.  1.
         25    2    1    2    0    0  0.65214160781E+02  0.26555420119E+02  0.23940491395E+01  0.14350074038E+03  0.12501461481E+03 0.  0.
         25    2    1    2    0    0 -0.65214160781E+02 -0.26555420119E+02  0.63281479186E+03  0.64887420747E+03  0.12500039691E+03 0.  0.
          5    1    3    3  501    0  0.58584990273E+02  0.32569659812E+02 -0.54002480192E+02  0.86205230076E+02  0.47000000000E+01 0. -1.
         -5    1    3    3    0  501  0.66291705078E+01 -0.60142396924E+01  0.56396529331E+02  0.57295510307E+02  0.47000000000E+01 0. -1.
          5    1    4    4  502    0 -0.61851616892E+01  0.39385177101E+02  0.85806401267E+02  0.94732660148E+02  0.47000000000E+01 0.  1.
         -5    1    4    4    0  502 -0.59028999092E+02 -0.65940597221E+02  0.54700839059E+03  0.55414154732E+03  0.47000000000E+01 0.  1.
<mgrwt>
<rscale>  0 0.47367477E+03</rscale>
<asrwt>0</asrwt>
<pdfrwt beam="1">  1       21 0.10981413E+00 0.47367477E+03</pdfrwt>
<pdfrwt beam="2">  1       21 0.12089701E-01 0.47367477E+03</pdfrwt>
<totfact> 0.34336938E+04</totfact>
</mgrwt>
</event>
<event>
 8    1  0.4760912E-006  0.3021079E+03  0.7546771E-02  0.1084192E+00
         21   -1    0    0  504  503  0.00000000000E+00  0.00000000000E+00  0.66916976362E+02  0.66916976362E+02  0.00000000000E+00 0.  1.
         21   -1    0    0  503  504 -0.00000000000E+00 -0.00000000000E+00 -0.34097922905E+03  0.34097922905E+03  0.00000000000E+00 0.  1.
         25    2    1    2    0    0  0.69391765583E+02  0.18157242150E+02 -0.19813059132E+03  0.24500195420E+03  0.12500129508E+03 0.  0.
         25    2    1    2    0    0 -0.69391765583E+02 -0.18157242150E+02 -0.75931661365E+02  0.16289425121E+03  0.12499606917E+03 0.  0.
          5    1    3    3  501    0 -0.21354628105E+02  0.42846691006E+02 -0.49259003110E+02  0.68850551625E+02  0.47000000000E+01 0.  1.
         -5    1    3    3    0  501  0.90746393688E+02 -0.24689448856E+02 -0.14887158821E+03  0.17615140258E+03  0.47000000000E+01 0.  1.
          5    1    4    4  502    0 -0.25015776698E+02  0.28604425227E+02 -0.89055642803E+02  0.96938123261E+02  0.47000000000E+01 0. -1.
         -5    1    4    4    0  502 -0.44375988885E+02 -0.46761667377E+02  0.13123981438E+02  0.65956127951E+02  0.47000000000E+01 0. -1.
<mgrwt>
<rscale>  0 0.30210792E+03</rscale>
<asrwt>0</asrwt>
<pdfrwt beam="1">  1       21 0.10294920E-01 0.30210792E+03</pdfrwt>
<pdfrwt beam="2">  1       21 0.52458342E-01 0.30210792E+03</pdfrwt>
<totfact> 0.25849512E+05</totfact>
</mgrwt>
</event>
<event>
 8    1  0.4760912E-006  0.3016462E+03  0.7546771E-02  0.1084421E+00
         21   -1    0    0  504  503  0.00000000000E+00  0.00000000000E+00  0.32264655923E+03  0.32264655923E+03  0.00000000000E+00 0.  1.
         21   -1    0    0  503  504 -0.00000000000E+00 -0.00000000000E+00 -0.70503190154E+02  0.70503190154E+02  0.00000000000E+00 0.  1.
         25    2    1    2    0    0 -0.19826657958E+02 -0.78255444327E+02  0.15814131225E+03  0.21714320820E+03  0.12500194915E+03 0.  0.
         25    2    1    2    0    0  0.19826657958E+02  0.78255444327E+02  0.94002056824E+02  0.17600654119E+03  0.12499961968E+03 0.  0.
          5    1    3    3  501    0  0.23152483334E+02 -0.42511087684E+02 -0.74941872130E+00  0.48640329861E+02  0.47000000000E+01 0. -1.
         -5    1    3    3    0  501 -0.42979141292E+02 -0.35744356644E+02  0.15889073097E+03  0.16850287833E+03  0.47000000000E+01 0. -1.
          5    1    4    4  502    0  0.24878033265E+02  0.10553725777E+03  0.41038821251E+02  0.11603147921E+03  0.47000000000E+01 0.  1.
         -5    1    4    4    0  502 -0.50513753075E+01 -0.27281813444E+02  0.52963235574E+02  0.59975061982E+02  0.47000000000E+01 0.  1.
<mgrwt>
<rscale>  0 0.30164623E+03</rscale>
<asrwt>0</asrwt>
<pdfrwt beam="1">  1       21 0.49637931E-01 0.30164623E+03</pdfrwt>
<pdfrwt beam="2">  1       21 0.10846645E-01 0.30164623E+03</pdfrwt>
<totfact> 0.26462848E+05</totfact>
</mgrwt>
</event>
<event>
 8    1  0.4760912E-006  0.3095938E+03  0.7546771E-02  0.1080541E+00
         21   -1    0    0  504  503  0.00000000000E+00  0.00000000000E+00  0.20821357650E+03  0.20821357650E+03  0.00000000000E+00 0. -1.
         21   -1    0    0  503  504 -0.00000000000E+00 -0.00000000000E+00 -0.11508416460E+03  0.11508416460E+03  0.00000000000E+00 0. -1.
         25    2    1    2    0    0  0.91061842288E+02 -0.65087877141E+01  0.45338361571E+02  0.16129168624E+03  0.12499927032E+03 0.  0.
         25    2    1    2    0    0 -0.91061842288E+02  0.65087877141E+01  0.47791050323E+02  0.16200605487E+03  0.12500941518E+03 0.  0.
          5    1    3    3  501    0  0.96655039421E+02 -0.38109603610E+02  0.65680263097E+02  0.12300620104E+03  0.47000000000E+01 0.  1.
         -5    1    3    3    0  501 -0.55931971325E+01  0.31600815896E+02 -0.20341901526E+02  0.38285485201E+02  0.47000000000E+01 0.  1.
          5    1    4    4  502    0 -0.14817474050E+02  0.59203015387E+02  0.11062698553E+02  0.62201510170E+02  0.47000000000E+01 0. -1.
         -5    1    4    4    0  502 -0.76244368238E+02 -0.52694227673E+02  0.36728351769E+02  0.99804544695E+02  0.47000000000E+01 0. -1.
<mgrwt>
<rscale>  0 0.30959383E+03</rscale>
<asrwt>0</asrwt>
<pdfrwt beam="1">  1       21 0.32032858E-01 0.30959383E+03</pdfrwt>
<pdfrwt beam="2">  1       21 0.17705256E-01 0.30959383E+03</pdfrwt>
<totfact> 0.26384794E+05</totfact>
</mgrwt>
</event>
<event>
 8    1  0.4760912E-006  0.2838262E+03  0.7546771E-02  0.1093617E+00
         21   -1    0    0  504  503  0.00000000000E+00  0.00000000000E+00  0.95804891144E+03  0.95804891144E+03  0.00000000000E+00 0. -1.
         21   -1    0    0  503  504 -0.00000000000E+00 -0.00000000000E+00 -0.21021182882E+02  0.21021182882E+02  0.00000000000E+00 0. -1.
         25    2    1    2    0    0 -0.11810389359E+02  0.36412125791E+02  0.65899566221E+03  0.67183679052E+03  0.12499624831E+03 0.  0.
         25    2    1    2    0    0  0.11810389359E+02 -0.36412125791E+02  0.27803206636E+03  0.30723330380E+03  0.12500057937E+03 0.  0.
          5    1    3    3  501    0  0.36856250198E+02  0.13764276636E+02  0.70435088231E+02  0.80814789142E+02  0.47000000000E+01 0.  1.
         -5    1    3    3    0  501 -0.48666639557E+02  0.22647849155E+02  0.58856057397E+03  0.59102200138E+03  0.47000000000E+01 0.  1.
          5    1    4    4  502    0 -0.84951887201E+01 -0.80323007273E+02  0.15278442745E+03  0.17288471592E+03  0.47000000000E+01 0. -1.
         -5    1    4    4    0  502  0.20305578079E+02  0.43910881482E+02  0.12524763891E+03  0.13434858788E+03  0.47000000000E+01 0. -1.
<mgrwt>
<rscale>  0 0.28382615E+03</rscale>
<asrwt>0</asrwt>
<pdfrwt beam="1">  1       21 0.14739211E+00 0.28382615E+03</pdfrwt>
<pdfrwt beam="2">  1       21 0.32340289E-02 0.28382615E+03</pdfrwt>
<totfact> 0.16903593E+05</totfact>
</mgrwt>
</event>
<event>
 8    1  0.4760912E-006  0.5457842E+03  0.7546771E-02  0.1002474E+00
         21   -1    0    0  504  503  0.00000000000E+00  0.00000000000E+00  0.16245855203E+03  0.16245855203E+03  0.00000000000E+00 0.  1.
         21   -1    0    0  503  504 -0.00000000000E+00 -0.00000000000E+00 -0.45839446043E+03  0.45839446043E+03  0.00000000000E+00 0.  1.
         25    2    1    2    0    0 -0.17899972161E+03  0.63390257340E+02  0.23743828569E+02  0.22857846797E+03  0.12500048626E+03 0.  0.
         25    2    1    2    0    0  0.17899972161E+03 -0.63390257340E+02 -0.31967973697E+03  0.39227454449E+03  0.12499983585E+03 0.  0.
          5    1    3    3  501    0 -0.67924851455E+01 -0.25355751631E+02  0.22337674996E+02  0.34786688825E+02  0.47000000000E+01 0. -1.
         -5    1    3    3    0  501 -0.17220723646E+03  0.88746008970E+02  0.14061535729E+01  0.19379177915E+03  0.47000000000E+01 0. -1.
          5    1    4    4  502    0  0.14558197150E+03  0.58942254929E+01 -0.24420255021E+03  0.28440433866E+03  0.47000000000E+01 0. -1.
         -5    1    4    4    0  502  0.33417750105E+02 -0.69284482833E+02 -0.75477186757E+02  0.10787020582E+03  0.47000000000E+01 0. -1.
<mgrwt>
<rscale>  0 0.54578421E+03</rscale>
<asrwt>0</asrwt>
<pdfrwt beam="1">  1       21 0.24993623E-01 0.54578421E+03</pdfrwt>
<pdfrwt beam="2">  1       21 0.70522225E-01 0.54578421E+03</pdfrwt>
<totfact> 0.24539755E+04</totfact>
</mgrwt>
</event>
<event>
 8    1  0.4760912E-006  0.3039550E+03  0.7546771E-02  0.1083280E+00
         21   -1    0    0  504  503  0.00000000000E+00  0.00000000000E+00  0.93956162936E+03  0.93956162936E+03  0.00000000000E+00 0.  1.
         21   -1    0    0  503  504 -0.00000000000E+00 -0.00000000000E+00 -0.24582910619E+02  0.24582910619E+02  0.00000000000E+00 0.  1.
         25    2    1    2    0    0 -0.68765894316E+02  0.16639664422E+02  0.61499419169E+03  0.63154279805E+03  0.12499129291E+03 0.  0.
         25    2    1    2    0    0  0.68765894316E+02 -0.16639664422E+02  0.29998452705E+03  0.33260174193E+03  0.12501030202E+03 0.  0.
          5    1    3    3  501    0  0.98560722605E+01  0.48539238031E+02  0.34282250782E+03  0.34641385893E+03  0.47000000000E+01 0.  1.
         -5    1    3    3    0  501 -0.78621966577E+02 -0.31899573609E+02  0.27217168387E+03  0.28512893912E+03  0.47000000000E+01 0.  1.
          5    1    4    4  502    0  0.78473359070E+02  0.27754107335E+02  0.11488204546E+03  0.14194482353E+03  0.47000000000E+01 0. -1.
         -5    1    4    4    0  502 -0.97074647538E+01 -0.44393771757E+02  0.18510248159E+03  0.19065691840E+03  0.47000000000E+01 0. -1.
<mgrwt>
<rscale>  0 0.30395499E+03</rscale>
<asrwt>0</asrwt>
<pdfrwt beam="1">  1       21 0.14454792E+00 0.30395499E+03</pdfrwt>
<pdfrwt beam="2">  1       21 0.37819870E-02 0.30395499E+03</pdfrwt>
<totfact> 0.13598617E+05</totfact>
</mgrwt>
</event>
<event>
 8    1  0.4760912E-006  0.5472930E+03  0.7546771E-02  0.1002122E+00
         21   -1    0    0  504  503  0.00000000000E+00  0.00000000000E+00  0.28411290941E+03  0.28411290941E+03  0.00000000000E+00 0. -1.
         21   -1    0    0  503  504 -0.00000000000E+00 -0.00000000000E+00 -0.26356570938E+03  0.26356570938E+03  0.00000000000E+00 0. -1.
         25    2    1    2    0    0  0.16316213376E+02  0.60014647053E+02  0.24578700600E+03  0.28267246420E+03  0.12499797206E+03 0.  0.
         25    2    1    2    0    0 -0.16316213376E+02 -0.60014647053E+02 -0.22523980596E+03  0.26500615460E+03  0.12500926008E+03 0.  0.
          5    1    3    3  501    0 -0.54590152282E+02  0.22246198540E+02  0.10302497193E+03  0.11879062638E+03  0.47000000000E+01 0. -1.
         -5    1    3    3    0  501  0.70906365658E+02  0.37768448513E+02  0.14276203407E+03  0.16388183781E+03  0.47000000000E+01 0. -1.
          5    1    4    4  502    0 -0.65228207371E+02 -0.62167828284E+02 -0.13873392444E+03  0.16549546731E+03  0.47000000000E+01 0. -1.
         -5    1    4    4    0  502  0.48911993995E+02  0.21531812314E+01 -0.86505881528E+02  0.99510687290E+02  0.47000000000E+01 0. -1.
<mgrwt>
<rscale>  0 0.54729305E+03</rscale>
<asrwt>0</asrwt>
<pdfrwt beam="1">  1       21 0.43709678E-01 0.54729305E+03</pdfrwt>
<pdfrwt beam="2">  1       21 0.40548571E-01 0.54729305E+03</pdfrwt>
<totfact> 0.26250808E+04</totfact>
</mgrwt>
</event>
<event>
 8    1  0.4760912E-006  0.5678342E+03  0.7546771E-02  0.9974483E-01
         21   -1    0    0  504  503  0.00000000000E+00  0.00000000000E+00  0.60639363964E+02  0.60639363964E+02  0.00000000000E+00 0. -1.
         21   -1    0    0  503  504 -0.00000000000E+00 -0.00000000000E+00 -0.13293167586E+04  0.13293167586E+04  0.00000000000E+00 0. -1.
         25    2    1    2    0    0  0.54894720362E+01  0.24045547022E+02 -0.13280177965E+02  0.12811093074E+03  0.12501089878E+03 0.  0.
         25    2    1    2    0    0 -0.54894720362E+01 -0.24045547022E+02 -0.12553972167E+04  0.12618451918E+04  0.12499117517E+03 0.  0.
          5    1    3    3  501    0  0.23352320339E+02  0.56511210561E+02  0.32193748918E+02  0.69263087238E+02  0.47000000000E+01 0.  1.
         -5    1    3    3    0  501 -0.17862848302E+02 -0.32465663539E+02 -0.45473926883E+02  0.58847843501E+02  0.47000000000E+01 0.  1.
          5    1    4    4  502    0 -0.62394002406E+02  0.27441574144E+00 -0.76095907495E+03  0.76352726905E+03  0.47000000000E+01 0. -1.
         -5    1    4    4    0  502  0.56904530370E+02 -0.24319962763E+02 -0.49443814170E+03  0.49831792275E+03  0.47000000000E+01 0. -1.
<mgrwt>
<rscale>  0 0.56783421E+03</rscale>
<asrwt>0</asrwt>
<pdfrwt beam="1">  1       21 0.93291333E-02 0.56783421E+03</pdfrwt>
<pdfrwt beam="2">  1       21 0.20451026E+00 0.56783421E+03</pdfrwt>
<totfact> 0.96573745E+03</totfact>
</mgrwt>
</event>
<event>
 8    1  0.4760912E-006  0.3615977E+03  0.7546771E-02  0.1057953E+00
         21   -1    0    0  504  503  0.00000000000E+00  0.00000000000E+00  0.15173242501E+04  0.15173242501E+04  0.00000000000E+00 0.  1.
         21   -1    0    0  503  504 -0.00000000000E+00 -0.00000000000E+00 -0.21543334265E+02  0.21543334265E+02  0.00000000000E+00 0.  1.
         25    2    1    2    0    0 -0.24866097308E+02  0.46879298602E+02  0.12558510718E+04  0.12631716407E+04  0.12499875144E+03 0.  0.
         25    2    1    2    0    0  0.24866097308E+02 -0.46879298602E+02  0.23992984404E+03  0.27569594369E+03  0.12500372742E+03 0.  0.
          5    1    3    3  501    0 -0.58294545247E+01  0.79709169554E+02  0.50134769878E+03  0.50769985161E+03  0.47000000000E+01 0.  1.
         -5    1    3    3    0  501 -0.19036642784E+02 -0.32829870952E+02  0.75450337305E+03  0.75547178911E+03  0.47000000000E+01 0.  1.
          5    1    4    4  502    0 -0.18338435188E+02 -0.29461177499E+02  0.40943374623E+01  0.35257804583E+02  0.47000000000E+01 0. -1.
         -5    1    4    4    0  502  0.43204532497E+02 -0.17418121103E+02  0.23583550658E+03  0.24043813910E+03  0.47000000000E+01 0. -1.
<mgrwt>
<rscale>  0 0.36159770E+03</rscale>
<asrwt>0</asrwt>
<pdfrwt beam="1">  1       21 0.23343442E+00 0.36159770E+03</pdfrwt>
<pdfrwt beam="2">  1       21 0.33143603E-02 0.36159770E+03</pdfrwt>
<totfact> 0.40745527E+04</totfact>
</mgrwt>
</event>
<event>
 8    1  0.4760912E-006  0.3298082E+03  0.7546771E-02  0.1071222E+00
         21   -1    0    0  504  503  0.00000000000E+00  0.00000000000E+00  0.29338956876E+02  0.29338956876E+02  0.00000000000E+00 0.  1.
         21   -1    0    0  503  504 -0.00000000000E+00 -0.00000000000E+00 -0.92686883224E+03  0.92686883224E+03  0.00000000000E+00 0.  1.
         25    2    1    2    0    0 -0.25333623164E+01  0.18580021339E+02 -0.14171242887E+03  0.18989376889E+03  0.12500238337E+03 0.  0.
         25    2    1    2    0    0  0.25333623164E+01 -0.18580021339E+02 -0.75581744650E+03  0.76631402023E+03  0.12500212020E+03 0.  0.
          5    1    3    3  501    0 -0.63100212222E+02  0.10228823011E+02 -0.84223715423E+02  0.10583945315E+03  0.47000000000E+01 0. -1.
         -5    1    3    3    0  501  0.60566849906E+02  0.83511983274E+01 -0.57488713444E+02  0.84054315739E+02  0.47000000000E+01 0. -1.
          5    1    4    4  502    0  0.26823761326E+01  0.22168592034E+02 -0.23174427620E+02  0.32523617726E+02  0.47000000000E+01 0. -1.
         -5    1    4    4    0  502 -0.14901381617E+00 -0.40748613373E+02 -0.73264301888E+03  0.73379040250E+03  0.47000000000E+01 0. -1.
<mgrwt>
<rscale>  0 0.32980822E+03</rscale>
<asrwt>0</asrwt>
<pdfrwt beam="1">  1       21 0.45136854E-02 0.32980822E+03</pdfrwt>
<pdfrwt beam="2">  1       21 0.14259521E+00 0.32980822E+03</pdfrwt>
<totfact> 0.10361485E+05</totfact>
</mgrwt>
</event>
<event>
 8    1  0.4760912E-006  0.2678536E+03  0.7546771E-02  0.1102514E+00
         21   -1    0    0  504  503  0.00000000000E+00  0.00000000000E+00  0.16772969260E+02  0.16772969260E+02  0.00000000000E+00 0. -1.
         21   -1    0    0  503  504 -0.00000000000E+00 -0.00000000000E+00 -0.10693629979E+04  0.10693629979E+04  0.00000000000E+00 0. -1.
         25    2    1    2    0    0  0.33423330350E+02  0.12056243450E+02 -0.65756660561E+03  0.67028474471E+03  0.12500130462E+03 0.  0.
         25    2    1    2    0    0 -0.33423330350E+02 -0.12056243450E+02 -0.39502342304E+03  0.41585122246E+03  0.12500504972E+03 0.  0.
          5    1    3    3  501    0 -0.63977070244E+01 -0.52178652160E+02 -0.22222143200E+03  0.22840314629E+03  0.47000000000E+01 0. -1.
         -5    1    3    3    0  501  0.39821037374E+02  0.64234895610E+02 -0.43534517361E+03  0.44188159841E+03  0.47000000000E+01 0. -1.
          5    1    4    4  502    0  0.96156431613E+01 -0.50863764848E+02 -0.29986316425E+03  0.30433466849E+03  0.47000000000E+01 0.  1.
         -5    1    4    4    0  502 -0.43038973511E+02  0.38807521398E+02 -0.95160258786E+02  0.11151655397E+03  0.47000000000E+01 0.  1.
<mgrwt>
<rscale>  0 0.26785364E+03</rscale>
<asrwt>0</asrwt>
<pdfrwt beam="1">  1       21 0.25804561E-02 0.26785364E+03</pdfrwt>
<pdfrwt beam="2">  1       21 0.16451743E+00 0.26785364E+03</pdfrwt>
<totfact> 0.18376798E+05</totfact>
</mgrwt>
</event>
<event>
 8    1  0.4760912E-006  0.3841244E+03  0.7546771E-02  0.1049420E+00
         21   -1    0    0  504  503  0.00000000000E+00  0.00000000000E+00  0.20367056200E+02  0.20367056200E+02  0.00000000000E+00 0.  1.
         21   -1    0    0  503  504 -0.00000000000E+00 -0.00000000000E+00 -0.18111546730E+04  0.18111546730E+04  0.00000000000E+00 0.  1.
         25    2    1    2    0    0 -0.42680673517E+02 -0.67920591307E+02 -0.31479761086E+03  0.34807767555E+03  0.12500274315E+03 0.  0.
         25    2    1    2    0    0  0.42680673517E+02  0.67920591307E+02 -0.14759900059E+04  0.14834440537E+04  0.12499966428E+03 0.  0.
          5    1    3    3  501    0 -0.20100278463E+02 -0.62156808746E+01  0.45278057032E+01  0.22028320579E+02  0.47000000000E+01 0. -1.
         -5    1    3    3    0  501 -0.22580395054E+02 -0.61704910432E+02 -0.31932541657E+03  0.32604935497E+03  0.47000000000E+01 0. -1.
          5    1    4    4  502    0 -0.26240528831E+02  0.42273108027E+02 -0.23436709003E+03  0.23963639937E+03  0.47000000000E+01 0. -1.
         -5    1    4    4    0  502  0.68921202348E+02  0.25647483280E+02 -0.12416229159E+04  0.12438076543E+04  0.47000000000E+01 0. -1.
<mgrwt>
<rscale>  0 0.38412440E+03</rscale>
<asrwt>0</asrwt>
<pdfrwt beam="1">  1       21 0.31333927E-02 0.38412440E+03</pdfrwt>
<pdfrwt beam="2">  1       21 0.27863923E+00 0.38412440E+03</pdfrwt>
<totfact> 0.23585530E+04</totfact>
</mgrwt>
</event>
<event>
 8    1  0.4760912E-006  0.2985014E+03  0.7546771E-02  0.1085992E+00
         21   -1    0    0  504  503  0.00000000000E+00  0.00000000000E+00  0.11602410964E+04  0.11602410964E+04  0.00000000000E+00 0.  1.
         21   -1    0    0  503  504 -0.00000000000E+00 -0.00000000000E+00 -0.19199265369E+02  0.19199265369E+02  0.00000000000E+00 0.  1.
         25    2    1    2    0    0  0.24272525528E+02 -0.67402312814E+02  0.41662881342E+03  0.44083625573E+03  0.12499923572E+03 0.  0.
         25    2    1    2    0    0 -0.24272525528E+02  0.67402312814E+02  0.72441301757E+03  0.73860410599E+03  0.12501831105E+03 0.  0.
          5    1    3    3  501    0 -0.19700852801E+02  0.81101147245E+01  0.84728574004E+01  0.23404633610E+02  0.47000000000E+01 0. -1.
         -5    1    3    3    0  501  0.43973378329E+02 -0.75512427538E+02  0.40815595602E+03  0.41743162212E+03  0.47000000000E+01 0. -1.
          5    1    4    4  502    0 -0.28673895668E+02  0.42237582049E+01  0.58121152072E+03  0.58195270791E+03  0.47000000000E+01 0. -1.
         -5    1    4    4    0  502  0.44013701400E+01  0.63178554609E+02  0.14320149685E+03  0.15665139809E+03  0.47000000000E+01 0. -1.
<mgrwt>
<rscale>  0 0.29850144E+03</rscale>
<asrwt>0</asrwt>
<pdfrwt beam="1">  1       21 0.17849858E+00 0.29850144E+03</pdfrwt>
<pdfrwt beam="2">  1       21 0.29537340E-02 0.29850144E+03</pdfrwt>
<totfact> 0.11550397E+05</totfact>
</mgrwt>
</event>
<event>
 8    1  0.4760912E-006  0.2538059E+03  0.7546771E-02  0.1110923E+00
         21   -1    0    0  504  503  0.00000000000E+00  0.00000000000E+00  0.60143069495E+01  0.60143069495E+01  0.00000000000E+00 0.  1.
         21   -1    0    0  503  504 -0.00000000000E+00 -0.00000000000E+00 -0.26776738831E+04  0.26776738831E+04  0.00000000000E+00 0.  1.
         25    2    1    2    0    0 -0.16831034685E+02  0.82608609269E+01 -0.14552397783E+04  0.14607192716E+04  0.12500580989E+03 0.  0.
         25    2    1    2    0    0  0.16831034685E+02 -0.82608609269E+01 -0.12164197978E+04  0.12229689184E+04  0.12499730139E+03 0.  0.
          5    1    3    3  501    0  0.44273947027E+02 -0.30363103529E+02 -0.59645962420E+03  0.59888919989E+03  0.47000000000E+01 0. -1.
         -5    1    3    3    0  501 -0.61104981712E+02  0.38623964456E+02 -0.85878015410E+03  0.86183007171E+03  0.47000000000E+01 0. -1.
          5    1    4    4  502    0  0.53771777744E+02 -0.26679477159E+02 -0.10392771242E+04  0.10410198026E+04  0.47000000000E+01 0.  1.
         -5    1    4    4    0  502 -0.36940743059E+02  0.18418616232E+02 -0.17714267365E+03  0.18194911582E+03  0.47000000000E+01 0.  1.
<mgrwt>
<rscale>  0 0.25380585E+03</rscale>
<asrwt>0</asrwt>
<pdfrwt beam="1">  1       21 0.92527727E-03 0.25380585E+03</pdfrwt>
<pdfrwt beam="2">  1       21 0.41195015E+00 0.25380585E+03</pdfrwt>
<totfact> 0.29216337E+04</totfact>
</mgrwt>
</event>
<event>
 8    1  0.4760912E-006  0.2877078E+03  0.7546771E-02  0.1091552E+00
         21   -1    0    0  504  503  0.00000000000E+00  0.00000000000E+00  0.29169762280E+03  0.29169762280E+03  0.00000000000E+00 0.  1.
         21   -1    0    0  503  504 -0.00000000000E+00 -0.00000000000E+00 -0.70943130633E+02  0.70943130633E+02  0.00000000000E+00 0.  1.
         25    2    1    2    0    0 -0.18907829382E+02 -0.66655378431E+02  0.13105696363E+03  0.19391116760E+03  0.12500067087E+03 0.  0.
         25    2    1    2    0    0  0.18907829382E+02  0.66655378431E+02  0.89697528536E+02  0.16872958583E+03  0.12499432396E+03 0.  0.
          5    1    3    3  501    0  0.21062822286E+02 -0.59238000512E+02  0.13862958891E+03  0.15229260030E+03  0.47000000000E+01 0. -1.
         -5    1    3    3    0  501 -0.39970651669E+02 -0.74173779186E+01 -0.75726252786E+01  0.41618567294E+02  0.47000000000E+01 0. -1.
          5    1    4    4  502    0  0.62200629081E+02  0.37174585282E+01  0.21107083135E+02  0.65957082368E+02  0.47000000000E+01 0.  1.
         -5    1    4    4    0  502 -0.43292799699E+02  0.62937919902E+02  0.68590445401E+02  0.10277250346E+03  0.47000000000E+01 0.  1.
<mgrwt>
<rscale>  0 0.28770779E+03</rscale>
<asrwt>0</asrwt>
<pdfrwt beam="1">  1       21 0.44876557E-01 0.28770779E+03</pdfrwt>
<pdfrwt beam="2">  1       21 0.10914328E-01 0.28770779E+03</pdfrwt>
<totfact> 0.32397028E+05</totfact>
</mgrwt>
</event>
<event>
 8    1  0.4760912E-006  0.2856837E+03  0.7546771E-02  0.1092624E+00
         21   -1    0    0  504  503  0.00000000000E+00  0.00000000000E+00  0.40414582366E+02  0.40414582366E+02  0.00000000000E+00 0. -1.
         21   -1    0    0  503  504 -0.00000000000E+00 -0.00000000000E+00 -0.50486221598E+03  0.50486221598E+03  0.00000000000E+00 0. -1.
         25    2    1    2    0    0 -0.61819168018E+02 -0.12789538240E+02 -0.28608915426E+03  0.31851966216E+03  0.12499035631E+03 0.  0.
         25    2    1    2    0    0  0.61819168018E+02  0.12789538240E+02 -0.17835847935E+03  0.22675713619E+03  0.12498747871E+03 0.  0.
          5    1    3    3  501    0  0.17604571770E+01 -0.17985753904E+02  0.59184650773E+01  0.19588383850E+02  0.47000000000E+01 0.  1.
         -5    1    3    3    0  501 -0.63579625195E+02  0.51962156640E+01 -0.29200761934E+03  0.29893127831E+03  0.47000000000E+01 0.  1.
          5    1    4    4  502    0  0.58945292344E+02 -0.28068712670E+02 -0.17326371186E+03  0.18521556081E+03  0.47000000000E+01 0.  1.
         -5    1    4    4    0  502  0.28738756731E+01  0.40858250910E+02 -0.50947674902E+01  0.41541575375E+02  0.47000000000E+01 0.  1.
<mgrwt>
<rscale>  0 0.28568371E+03</rscale>
<asrwt>0</asrwt>
<pdfrwt beam="1">  1       21 0.62176276E-02 0.28568371E+03</pdfrwt>
<pdfrwt beam="2">  1       21 0.77671116E-01 0.28568371E+03</pdfrwt>
<totfact> 0.26604763E+05</totfact>
</mgrwt>
</event>
<event>
 8    1  0.4760912E-006  0.3036740E+03  0.7546771E-02  0.1083418E+00
         21   -1    0    0  504  503  0.00000000000E+00  0.00000000000E+00  0.13123634241E+03  0.13123634241E+03  0.00000000000E+00 0.  1.
         21   -1    0    0  503  504 -0.00000000000E+00 -0.00000000000E+00 -0.17567142180E+03  0.17567142180E+03  0.00000000000E+00 0.  1.
         25    2    1    2    0    0  0.11640194450E+02 -0.13174291880E+02 -0.10749753476E+03  0.16580064738E+03  0.12500031439E+03 0.  0.
         25    2    1    2    0    0 -0.11640194450E+02  0.13174291880E+02  0.63062455371E+02  0.14110711683E+03  0.12500115620E+03 0.  0.
          5    1    3    3  501    0 -0.44819279997E+02  0.22253185492E+02 -0.16487944839E+02  0.52895315946E+02  0.47000000000E+01 0.  1.
         -5    1    3    3    0  501  0.56459474447E+02 -0.35427477372E+02 -0.91009589924E+02  0.11290533143E+03  0.47000000000E+01 0.  1.
          5    1    4    4  502    0  0.41467197882E+02  0.93866405832E+01 -0.16002598507E+02  0.45670676376E+02  0.47000000000E+01 0. -1.
         -5    1    4    4    0  502 -0.53107392332E+02  0.37876512965E+01  0.79065053878E+02  0.95436440459E+02  0.47000000000E+01 0. -1.
<mgrwt>
<rscale>  0 0.30367400E+03</rscale>
<asrwt>0</asrwt>
<pdfrwt beam="1">  1       21 0.20190207E-01 0.30367400E+03</pdfrwt>
<pdfrwt beam="2">  1       21 0.27026372E-01 0.30367400E+03</pdfrwt>
<totfact> 0.28831474E+05</totfact>
</mgrwt>
</event>
<event>
 8    1  0.4760912E-006  0.2712944E+03  0.7546771E-02  0.1100541E+00
         21   -1    0    0  504  503  0.00000000000E+00  0.00000000000E+00  0.38464080951E+03  0.38464080951E+03  0.00000000000E+00 0. -1.
         21   -1    0    0  503  504 -0.00000000000E+00 -0.00000000000E+00 -0.47837275011E+02  0.47837275011E+02  0.00000000000E+00 0. -1.
         25    2    1    2    0    0 -0.42863054578E+02 -0.27441504541E+02  0.14611745324E+03  0.19886286049E+03  0.12492337460E+03 0.  0.
         25    2    1    2    0    0  0.42863054578E+02  0.27441504541E+02  0.19068608125E+03  0.23361522402E+03  0.12499845477E+03 0.  0.
          5    1    3    3  501    0 -0.85901257611E+02 -0.16213241261E+02  0.11430000538E+03  0.14397387430E+03  0.47000000000E+01 0. -1.
         -5    1    3    3    0  501  0.43038203032E+02 -0.11228263280E+02  0.31817447862E+02  0.54888986190E+02  0.47000000000E+01 0. -1.
          5    1    4    4  502    0  0.35852369699E+02 -0.34129342624E+02  0.23001347092E+02  0.54784636615E+02  0.47000000000E+01 0.  1.
         -5    1    4    4    0  502  0.70106848792E+01  0.61570847165E+02  0.16768473416E+03  0.17883058741E+03  0.47000000000E+01 0.  1.
<mgrwt>
<rscale>  0 0.27129444E+03</rscale>
<asrwt>0</asrwt>
<pdfrwt beam="1">  1       21 0.59175507E-01 0.27129444E+03</pdfrwt>
<pdfrwt beam="2">  1       21 0.73595810E-02 0.27129444E+03</pdfrwt>
<totfact> 0.36355641E+05</totfact>
</mgrwt>
</event>
<event>
 8    1  0.4760912E-006  0.2566579E+03  0.7546771E-02  0.1109168E+00
         21   -1    0    0  504  503  0.00000000000E+00  0.00000000000E+00  0.54147770133E+02  0.54147770133E+02  0.00000000000E+00 0.  1.
         21   -1    0    0  503  504 -0.00000000000E+00 -0.00000000000E+00 -0.30413657644E+03  0.30413657644E+03  0.00000000000E+00 0.  1.
         25    2    1    2    0    0  0.12976181693E+02 -0.24268210614E+02 -0.11198121582E+03  0.17005936245E+03  0.12499226666E+03 0.  0.
         25    2    1    2    0    0 -0.12976181693E+02  0.24268210614E+02 -0.13800759049E+03  0.18822498412E+03  0.12500088910E+03 0.  0.
          5    1    3    3  501    0  0.57371835199E+02 -0.46403535418E+02 -0.87450234897E+02  0.11451833546E+03  0.47000000000E+01 0.  1.
         -5    1    3    3    0  501 -0.44395653506E+02  0.22135324804E+02 -0.24530980923E+02  0.55541026993E+02  0.47000000000E+01 0.  1.
          5    1    4    4  502    0  0.17660408403E+02 -0.14569995788E+02  0.14717249151E+02  0.27619960623E+02  0.47000000000E+01 0.  1.
         -5    1    4    4    0  502 -0.30636590096E+02  0.38838206401E+02 -0.15272483964E+03  0.16060502349E+03  0.47000000000E+01 0.  1.
<mgrwt>
<rscale>  0 0.25665788E+03</rscale>
<asrwt>0</asrwt>
<pdfrwt beam="1">  1       21 0.83304263E-02 0.25665788E+03</pdfrwt>
<pdfrwt beam="2">  1       21 0.46790242E-01 0.25665788E+03</pdfrwt>
<totfact> 0.48265953E+05</totfact>
</mgrwt>
</event>
<event>
 8    1  0.4760912E-006  0.2861217E+03  0.7546771E-02  0.1092392E+00
         21   -1    0    0  504  503  0.00000000000E+00  0.00000000000E+00  0.12220280903E+04  0.12220280903E+04  0.00000000000E+00 0. -1.
         21   -1    0    0  503  504 -0.00000000000E+00 -0.00000000000E+00 -0.16747898756E+02  0.16747898756E+02  0.00000000000E+00 0. -1.
         25    2    1    2    0    0  0.43805068114E+02  0.17117027393E+01  0.36844811329E+03  0.39152513969E+03  0.12496443056E+03 0.  0.
         25    2    1    2    0    0 -0.43805068114E+02 -0.17117027393E+01  0.83683207826E+03  0.84725084937E+03  0.12499704251E+03 0.  0.
          5    1    3    3  501    0  0.24285566153E+02 -0.60578505755E+02  0.15433778702E+03  0.16763587499E+03  0.47000000000E+01 0. -1.
         -5    1    3    3    0  501  0.19519501961E+02  0.62290208494E+02  0.21411032628E+03  0.22388926470E+03  0.47000000000E+01 0. -1.
          5    1    4    4  502    0 -0.23406613426E+01 -0.44928176053E+02  0.63649235564E+03  0.63809766375E+03  0.47000000000E+01 0.  1.
         -5    1    4    4    0  502 -0.41464406771E+02  0.43216473313E+02  0.20033972263E+03  0.20915318562E+03  0.47000000000E+01 0.  1.
<mgrwt>
<rscale>  0 0.28612167E+03</rscale>
<asrwt>0</asrwt>
<pdfrwt beam="1">  1       21 0.18800425E+00 0.28612167E+03</pdfrwt>
<pdfrwt beam="2">  1       21 0.25766008E-02 0.28612167E+03</pdfrwt>
<totfact> 0.12532200E+05</totfact>
</mgrwt>
</event>
<event>
 8    1  0.4760912E-006  0.6117816E+03  0.7546771E-02  0.9881260E-01
         21   -1    0    0  504  503  0.00000000000E+00  0.00000000000E+00  0.74132967969E+03  0.74132967969E+03  0.00000000000E+00 0.  1.
         21   -1    0    0  503  504 -0.00000000000E+00 -0.00000000000E+00 -0.12621806065E+03  0.12621806065E+03  0.00000000000E+00 0.  1.
         25    2    1    2    0    0  0.13490648347E+03 -0.21874655204E+03  0.46221699582E+03  0.54343218902E+03  0.12499671804E+03 0.  0.
         25    2    1    2    0    0 -0.13490648347E+03  0.21874655204E+03  0.15289462321E+03  0.32411555132E+03  0.12499724593E+03 0.  0.
          5    1    3    3  501    0  0.15362703553E+03 -0.20648864425E+03  0.38678706673E+03  0.46461290473E+03  0.47000000000E+01 0. -1.
         -5    1    3    3    0  501 -0.18720552064E+02 -0.12257907796E+02  0.75429929091E+02  0.78819284289E+02  0.47000000000E+01 0. -1.
          5    1    4    4  502    0 -0.53120108086E+02  0.12486558977E+02  0.66029543762E+02  0.85788406487E+02  0.47000000000E+01 0. -1.
         -5    1    4    4    0  502 -0.81786375383E+02  0.20625999307E+03  0.86865079452E+02  0.23832714484E+03  0.47000000000E+01 0. -1.
<mgrwt>
<rscale>  0 0.61178164E+03</rscale>
<asrwt>0</asrwt>
<pdfrwt beam="1">  1       21 0.11405072E+00 0.61178164E+03</pdfrwt>
<pdfrwt beam="2">  1       21 0.19418164E-01 0.61178164E+03</pdfrwt>
<totfact> 0.12509001E+04</totfact>
</mgrwt>
</event>
<event>
 8    1  0.4760912E-006  0.2750243E+03  0.7546771E-02  0.1098438E+00
         21   -1    0    0  504  503  0.00000000000E+00  0.00000000000E+00  0.64070383803E+02  0.64070383803E+02  0.00000000000E+00 0.  1.
         21   -1    0    0  503  504 -0.00000000000E+00 -0.00000000000E+00 -0.29513781578E+03  0.29513781578E+03  0.00000000000E+00 0.  1.
         25    2    1    2    0    0 -0.26051497513E+02  0.36413866133E+02 -0.16220216420E+03  0.20963521376E+03  0.12503091861E+03 0.  0.
         25    2    1    2    0    0  0.26051497513E+02 -0.36413866133E+02 -0.68865267773E+02  0.14957298582E+03  0.12500001124E+03 0.  0.
          5    1    3    3  501    0  0.25520776694E+02  0.67446466840E+02 -0.93591771407E+02  0.11824485447E+03  0.47000000000E+01 0.  1.
         -5    1    3    3    0  501 -0.51572274207E+02 -0.31032600708E+02 -0.68610392794E+02  0.91390359300E+02  0.47000000000E+01 0.  1.
          5    1    4    4  502    0 -0.53116264026E+00  0.27148695063E+02 -0.75331173223E+02  0.80213524026E+02  0.47000000000E+01 0. -1.
         -5    1    4    4    0  502  0.26582660154E+02 -0.63562561196E+02  0.64659054501E+01  0.69359461791E+02  0.47000000000E+01 0. -1.
<mgrwt>
<rscale>  0 0.27502431E+03</rscale>
<asrwt>0</asrwt>
<pdfrwt beam="1">  1       21 0.98569822E-02 0.27502431E+03</pdfrwt>
<pdfrwt beam="2">  1       21 0.45405818E-01 0.27502431E+03</pdfrwt>
<totfact> 0.38024251E+05</totfact>
</mgrwt>
</event>
<event>
 8    1  0.4760912E-006  0.2593191E+03  0.7546771E-02  0.1107553E+00
         21   -1    0    0  504  503  0.00000000000E+00  0.00000000000E+00  0.25617615541E+02  0.25617615541E+02  0.00000000000E+00 0. -1.
         21   -1    0    0  503  504 -0.00000000000E+00 -0.00000000000E+00 -0.65625157607E+03  0.65625157607E+03  0.00000000000E+00 0. -1.
         25    2    1    2    0    0 -0.29352403708E+02  0.11562775491E+02 -0.27889575655E+03  0.30724837089E+03  0.12499382790E+03 0.  0.
         25    2    1    2    0    0  0.29352403708E+02 -0.11562775491E+02 -0.35173820398E+03  0.37462082073E+03  0.12500293516E+03 0.  0.
          5    1    3    3  501    0 -0.29664016647E+02  0.62650807889E+02 -0.10470648872E+03  0.12566071938E+03  0.47000000000E+01 0.  1.
         -5    1    3    3    0  501  0.31161293816E+00 -0.51088032398E+02 -0.17418926782E+03  0.18158765151E+03  0.47000000000E+01 0.  1.
          5    1    4    4  502    0  0.70777881655E+02 -0.20733629566E+00 -0.12431265123E+03  0.14312678567E+03  0.47000000000E+01 0. -1.
         -5    1    4    4    0  502 -0.41425477946E+02 -0.11355439195E+02 -0.22742555275E+03  0.23149403505E+03  0.47000000000E+01 0. -1.
<mgrwt>
<rscale>  0 0.25931911E+03</rscale>
<asrwt>0</asrwt>
<pdfrwt beam="1">  1       21 0.39411716E-02 0.25931911E+03</pdfrwt>
<pdfrwt beam="2">  1       21 0.10096178E+00 0.25931911E+03</pdfrwt>
<totfact> 0.31642863E+05</totfact>
</mgrwt>
</event>
<event>
 8    1  0.4760912E-006  0.3037406E+03  0.7546771E-02  0.1083386E+00
         21   -1    0    0  504  503  0.00000000000E+00  0.00000000000E+00  0.59863170673E+02  0.59863170673E+02  0.00000000000E+00 0.  1.
         21   -1    0    0  503  504 -0.00000000000E+00 -0.00000000000E+00 -0.38528844673E+03  0.38528844673E+03  0.00000000000E+00 0.  1.
         25    2    1    2    0    0 -0.42275073613E+02  0.35414488406E+02 -0.65480700748E+02  0.15150910530E+03  0.12500367587E+03 0.  0.
         25    2    1    2    0    0  0.42275073613E+02 -0.35414488406E+02 -0.25994457530E+03  0.29364251210E+03  0.12495349072E+03 0.  0.
          5    1    3    3  501    0 -0.20681840165E+02 -0.46780859143E+02 -0.21224208751E+02  0.55576472827E+02  0.47000000000E+01 0. -1.
         -5    1    3    3    0  501 -0.21593233448E+02  0.82195347549E+02 -0.44256491997E+02  0.95932632474E+02  0.47000000000E+01 0. -1.
          5    1    4    4  502    0  0.42538837800E+02  0.29990598590E+02 -0.45153109534E+02  0.69064332515E+02  0.47000000000E+01 0. -1.
         -5    1    4    4    0  502 -0.26376418696E+00 -0.65405086996E+02 -0.21479146577E+03  0.22457817958E+03  0.47000000000E+01 0. -1.
<mgrwt>
<rscale>  0 0.30374060E+03</rscale>
<asrwt>0</asrwt>
<pdfrwt beam="1">  1       21 0.92097186E-02 0.30374060E+03</pdfrwt>
<pdfrwt beam="2">  1       21 0.59275145E-01 0.30374060E+03</pdfrwt>
<totfact> 0.24248689E+05</totfact>
</mgrwt>
</event>
<event>
 8    1  0.4760912E-006  0.3246823E+03  0.7546771E-02  0.1073514E+00
         21   -1    0    0  504  503  0.00000000000E+00  0.00000000000E+00  0.10196425020E+03  0.10196425020E+03  0.00000000000E+00 0. -1.
         21   -1    0    0  503  504 -0.00000000000E+00 -0.00000000000E+00 -0.25846951021E+03  0.25846951021E+03  0.00000000000E+00 0. -1.
         25    2    1    2    0    0 -0.89729531381E+02  0.35033412005E+02 -0.12053543782E+03  0.19857643737E+03  0.12500032380E+03 0.  0.
         25    2    1    2    0    0  0.89729531381E+02 -0.35033412005E+02 -0.35969822187E+02  0.16185732304E+03  0.12500094462E+03 0.  0.
          5    1    3    3  501    0 -0.11137702578E+03  0.50798110155E+02 -0.69746601268E+02  0.14096796890E+03  0.47000000000E+01 0.  1.
         -5    1    3    3    0  501  0.21647494401E+02 -0.15764698150E+02 -0.50788836553E+02  0.57608468475E+02  0.47000000000E+01 0.  1.
          5    1    4    4  502    0  0.73304689631E+02 -0.68790677138E+02  0.11346497301E+02  0.10127471444E+03  0.47000000000E+01 0. -1.
         -5    1    4    4    0  502  0.16424841749E+02  0.33757265133E+02 -0.47316319488E+02  0.60582608607E+02  0.47000000000E+01 0. -1.
<mgrwt>
<rscale>  0 0.32468231E+03</rscale>
<asrwt>0</asrwt>
<pdfrwt beam="1">  1       21 0.15686808E-01 0.32468231E+03</pdfrwt>
<pdfrwt beam="2">  1       21 0.39764539E-01 0.32468231E+03</pdfrwt>
<totfact> 0.21311899E+05</totfact>
</mgrwt>
</event>
<event>
 8    1  0.4760912E-006  0.3649569E+03  0.7546771E-02  0.1056638E+00
         21   -1    0    0  504  503  0.00000000000E+00  0.00000000000E+00  0.19635727794E+02  0.19635727794E+02  0.00000000000E+00 0. -1.
         21   -1    0    0  503  504 -0.00000000000E+00 -0.00000000000E+00 -0.16958062852E+04  0.16958062852E+04  0.00000000000E+00 0. -1.
         25    2    1    2    0    0 -0.74427649155E+02 -0.45413622959E+02 -0.13098176239E+04  0.13186553222E+04  0.12501111502E+03 0.  0.
         25    2    1    2    0    0  0.74427649155E+02  0.45413622959E+02 -0.36635293347E+03  0.39678669072E+03  0.12499333567E+03 0.  0.
          5    1    3    3  501    0 -0.88900755367E+02 -0.24686996711E+02 -0.12516877728E+04  0.12550924917E+04  0.47000000000E+01 0.  1.
         -5    1    3    3    0  501  0.14473106212E+02 -0.20726626248E+02 -0.58129851120E+02  0.63562830572E+02  0.47000000000E+01 0.  1.
          5    1    4    4  502    0  0.47841471388E+02 -0.20787964809E+02 -0.27915532923E+03  0.28402593843E+03  0.47000000000E+01 0.  1.
         -5    1    4    4    0  502  0.26586177767E+02  0.66201587768E+02 -0.87197604243E+02  0.11276075229E+03  0.47000000000E+01 0.  1.
<mgrwt>
<rscale>  0 0.36495693E+03</rscale>
<asrwt>0</asrwt>
<pdfrwt beam="1">  1       21 0.30208811E-02 0.36495693E+03</pdfrwt>
<pdfrwt beam="2">  1       21 0.26089328E+00 0.36495693E+03</pdfrwt>
<totfact> 0.32329141E+04</totfact>
</mgrwt>
</event>
<event>
 8    1  0.4760912E-006  0.3673323E+03  0.7546771E-02  0.1055718E+00
         21   -1    0    0  504  503  0.00000000000E+00  0.00000000000E+00  0.38903453425E+03  0.38903453425E+03  0.00000000000E+00 0. -1.
         21   -1    0    0  503  504 -0.00000000000E+00 -0.00000000000E+00 -0.86710198906E+02  0.86710198906E+02  0.00000000000E+00 0. -1.
         25    2    1    2    0    0  0.32959583512E+02  0.10700885992E+03  0.54465843313E+02  0.17643221229E+03  0.12499826878E+03 0.  0.
         25    2    1    2    0    0 -0.32959583512E+02 -0.10700885992E+03  0.24785849203E+03  0.29931252087E+03  0.12496768714E+03 0.  0.
          5    1    3    3  501    0  0.63085972463E+01 -0.12315246367E+02 -0.26115674982E+02  0.29926278954E+02  0.47000000000E+01 0.  1.
         -5    1    3    3    0  501  0.26650986266E+02  0.11932410629E+03  0.80581518294E+02  0.14650593333E+03  0.47000000000E+01 0.  1.
          5    1    4    4  502    0 -0.39609531894E+02  0.96289792726E-01  0.14538454574E+02  0.42454457363E+02  0.47000000000E+01 0. -1.
         -5    1    4    4    0  502  0.66499483818E+01 -0.10710514971E+03  0.23332003746E+03  0.25685806350E+03  0.47000000000E+01 0. -1.
<mgrwt>
<rscale>  0 0.36733234E+03</rscale>
<asrwt>0</asrwt>
<pdfrwt beam="1">  1       21 0.59851466E-01 0.36733234E+03</pdfrwt>
<pdfrwt beam="2">  1       21 0.13340031E-01 0.36733234E+03</pdfrwt>
<totfact> 0.12015145E+05</totfact>
</mgrwt>
</event>
<event>
 8    1  0.4760912E-006  0.2824674E+03  0.7546771E-02  0.1094349E+00
         21   -1    0    0  504  503  0.00000000000E+00  0.00000000000E+00  0.17952841549E+02  0.17952841549E+02  0.00000000000E+00 0.  1.
         21   -1    0    0  503  504 -0.00000000000E+00 -0.00000000000E+00 -0.11110756220E+04  0.11110756220E+04  0.00000000000E+00 0.  1.
         25    2    1    2    0    0  0.45517454280E+02  0.21987114194E+02 -0.71459247323E+03  0.72720218212E+03  0.12500135619E+03 0.  0.
         25    2    1    2    0    0 -0.45517454280E+02 -0.21987114194E+02 -0.37853030722E+03  0.40182628143E+03  0.12499558043E+03 0.  0.
          5    1    3    3  501    0  0.21048042127E+02 -0.15192185944E+01 -0.67287895692E+03  0.67322619435E+03  0.47000000000E+01 0.  1.
         -5    1    3    3    0  501  0.24469412153E+02  0.23506332788E+02 -0.41713516318E+02  0.53975987771E+02  0.47000000000E+01 0.  1.
          5    1    4    4  502    0 -0.77517819137E+01 -0.31471753008E+02 -0.35411579124E+03  0.35562711506E+03  0.47000000000E+01 0.  1.
         -5    1    4    4    0  502 -0.37765672366E+02  0.94846388140E+01 -0.24414515983E+02  0.46199166371E+02  0.47000000000E+01 0.  1.
<mgrwt>
<rscale>  0 0.28246745E+03</rscale>
<asrwt>0</asrwt>
<pdfrwt beam="1">  1       21 0.27619759E-02 0.28246745E+03</pdfrwt>
<pdfrwt beam="2">  1       21 0.17093470E+00 0.28246745E+03</pdfrwt>
<totfact> 0.14684915E+05</totfact>
</mgrwt>
</event>
<event>
 8    1  0.4760912E-006  0.2891147E+03  0.7546771E-02  0.1090812E+00
         21   -1    0    0  504  503  0.00000000000E+00  0.00000000000E+00  0.31554297276E+02  0.31554297276E+02  0.00000000000E+00 0.  1.
         21   -1    0    0  503  504 -0.00000000000E+00 -0.00000000000E+00 -0.66224981647E+03  0.66224981647E+03  0.00000000000E+00 0.  1.
         25    2    1    2    0    0 -0.55056375727E+02 -0.30786175269E+02 -0.40159489822E+03  0.42530321687E+03  0.12500148364E+03 0.  0.
         25    2    1    2    0    0  0.55056375727E+02  0.30786175269E+02 -0.22910062098E+03  0.26850089688E+03  0.12500657581E+03 0.  0.
          5    1    3    3  501    0 -0.92208014692E+02 -0.38897246389E+01 -0.29578835619E+03  0.30988754345E+03  0.47000000000E+01 0.  1.
         -5    1    3    3    0  501  0.37151638966E+02 -0.26896450630E+02 -0.10580654203E+03  0.11541567342E+03  0.47000000000E+01 0.  1.
          5    1    4    4  502    0  0.44379862910E+02 -0.44662999895E+02 -0.11547203061E+03  0.13160636628E+03  0.47000000000E+01 0.  1.
         -5    1    4    4    0  502  0.10676512817E+02  0.75449175164E+02 -0.11362859037E+03  0.13689453060E+03  0.47000000000E+01 0.  1.
<mgrwt>
<rscale>  0 0.28911470E+03</rscale>
<asrwt>0</asrwt>
<pdfrwt beam="1">  1       21 0.48545077E-02 0.28911470E+03</pdfrwt>
<pdfrwt beam="2">  1       21 0.10188458E+00 0.28911470E+03</pdfrwt>
<totfact> 0.21573134E+05</totfact>
</mgrwt>
</event>
<event>
 8    1  0.4760912E-006  0.3525222E+03  0.7546771E-02  0.1061585E+00
         21   -1    0    0  504  503  0.00000000000E+00  0.00000000000E+00  0.33108583712E+02  0.33108583712E+02  0.00000000000E+00 0.  1.
         21   -1    0    0  503  504 -0.00000000000E+00 -0.00000000000E+00 -0.93836612114E+03  0.93836612114E+03  0.00000000000E+00 0.  1.
         25    2    1    2    0    0 -0.47235983073E+02 -0.45551370490E+02 -0.16180475393E+03  0.21473619792E+03  0.12499876341E+03 0.  0.
         25    2    1    2    0    0  0.47235983073E+02  0.45551370490E+02 -0.74345278349E+03  0.75673850692E+03  0.12499984452E+03 0.  0.
          5    1    3    3  501    0  0.33357154945E+02 -0.44442359856E+01 -0.59947579930E+01  0.34503306260E+02  0.47000000000E+01 0. -1.
         -5    1    3    3    0  501 -0.80593138017E+02 -0.41107134505E+02 -0.15580999594E+03  0.18023289166E+03  0.47000000000E+01 0. -1.
          5    1    4    4  502    0  0.52121684056E+02 -0.23783506886E+02 -0.17902226197E+03  0.18802495959E+03  0.47000000000E+01 0.  1.
         -5    1    4    4    0  502 -0.48857009829E+01  0.69334877377E+02 -0.56443052152E+03  0.56871354734E+03  0.47000000000E+01 0.  1.
<mgrwt>
<rscale>  0 0.35252219E+03</rscale>
<asrwt>0</asrwt>
<pdfrwt beam="1">  1       21 0.50936286E-02 0.35252219E+03</pdfrwt>
<pdfrwt beam="2">  1       21 0.14436401E+00 0.35252219E+03</pdfrwt>
<totfact> 0.80987131E+04</totfact>
</mgrwt>
</event>
<event>
 8    1  0.4760912E-006  0.3909555E+03  0.7546771E-02  0.1046957E+00
         21   -1    0    0  504  503  0.00000000000E+00  0.00000000000E+00  0.21717281199E+03  0.21717281199E+03  0.00000000000E+00 0. -1.
         21   -1    0    0  503  504 -0.00000000000E+00 -0.00000000000E+00 -0.17594993700E+03  0.17594993700E+03  0.00000000000E+00 0. -1.
         25    2    1    2    0    0  0.41510109869E+02 -0.98394707508E+02 -0.85712723159E+02  0.18541356366E+03  0.12500764373E+03 0.  0.
         25    2    1    2    0    0 -0.41510109869E+02  0.98394707508E+02  0.12693559815E+03  0.20770918533E+03  0.12500340758E+03 0.  0.
          5    1    3    3  501    0 -0.19438527292E+02  0.21385346748E+02 -0.21903759392E+02  0.36565750017E+02  0.47000000000E+01 0. -1.
         -5    1    3    3    0  501  0.60948637161E+02 -0.11978005426E+03 -0.63808963766E+02  0.14884781364E+03  0.47000000000E+01 0. -1.
          5    1    4    4  502    0  0.76571457622E+01 -0.85509944144E+01 -0.17422446831E+02  0.21386515385E+02  0.47000000000E+01 0.  1.
         -5    1    4    4    0  502 -0.49167255631E+02  0.10694570192E+03  0.14435804498E+03  0.18632266995E+03  0.47000000000E+01 0.  1.
<mgrwt>
<rscale>  0 0.39095546E+03</rscale>
<asrwt>0</asrwt>
<pdfrwt beam="1">  1       21 0.33411202E-01 0.39095546E+03</pdfrwt>
<pdfrwt beam="2">  1       21 0.27069221E-01 0.39095546E+03</pdfrwt>
<totfact> 0.10603071E+05</totfact>
</mgrwt>
</event>
<event>
 8    1  0.4760912E-006  0.3180957E+03  0.7546771E-02  0.1076529E+00
         21   -1    0    0  504  503  0.00000000000E+00  0.00000000000E+00  0.81651292134E+02  0.81651292134E+02  0.00000000000E+00 0. -1.
         21   -1    0    0  503  504 -0.00000000000E+00 -0.00000000000E+00 -0.30980799270E+03  0.30980799270E+03  0.00000000000E+00 0. -1.
         25    2    1    2    0    0 -0.60916737927E+02 -0.70477260212E+02 -0.15291994464E+03  0.21836016040E+03  0.12497502556E+03 0.  0.
         25    2    1    2    0    0  0.60916737927E+02  0.70477260212E+02 -0.75236755926E+02  0.17309912443E+03  0.12499937708E+03 0.  0.
          5    1    3    3  501    0  0.17737805824E+02 -0.17077238149E+02  0.12116617648E+02  0.27841771522E+02  0.47000000000E+01 0. -1.
         -5    1    3    3    0  501 -0.78654543750E+02 -0.53400022062E+02 -0.16503656229E+03  0.19051838888E+03  0.47000000000E+01 0. -1.
          5    1    4    4  502    0  0.30662226784E+02 -0.16426093344E+02 -0.72922834812E+02  0.80930949153E+02  0.47000000000E+01 0. -1.
         -5    1    4    4    0  502  0.30254511143E+02  0.86903353555E+02 -0.23139211138E+01  0.92168175281E+02  0.47000000000E+01 0. -1.
<mgrwt>
<rscale>  0 0.31809573E+03</rscale>
<asrwt>0</asrwt>
<pdfrwt beam="1">  1       21 0.12561737E-01 0.31809573E+03</pdfrwt>
<pdfrwt beam="2">  1       21 0.47662767E-01 0.31809573E+03</pdfrwt>
<totfact> 0.22037325E+05</totfact>
</mgrwt>
</event>
<event>
 8    1  0.4760912E-006  0.5010816E+03  0.7546771E-02  0.1013497E+00
         21   -1    0    0  504  503  0.00000000000E+00  0.00000000000E+00  0.63675913017E+03  0.63675913017E+03  0.00000000000E+00 0. -1.
         21   -1    0    0  503  504 -0.00000000000E+00 -0.00000000000E+00 -0.98578411070E+02  0.98578411070E+02  0.00000000000E+00 0. -1.
         25    2    1    2    0    0  0.17111732873E+03  0.11195294097E+03  0.16194090391E+03  0.28924895869E+03  0.12500201022E+03 0.  0.
         25    2    1    2    0    0 -0.17111732873E+03 -0.11195294097E+03  0.37623981519E+03  0.44608858255E+03  0.12499609501E+03 0.  0.
          5    1    3    3  501    0  0.13744278757E+03  0.17307922055E+02  0.10293663355E+03  0.17265029554E+03  0.47000000000E+01 0.  1.
         -5    1    3    3    0  501  0.33674541154E+02  0.94645018918E+02  0.59004270364E+02  0.11659866315E+03  0.47000000000E+01 0.  1.
          5    1    4    4  502    0 -0.96632580438E+02 -0.88939134691E+02  0.33028942716E+03  0.35547323525E+03  0.47000000000E+01 0.  1.
         -5    1    4    4    0  502 -0.74484748291E+02 -0.23013806283E+02  0.45950388024E+02  0.90615347305E+02  0.47000000000E+01 0.  1.
<mgrwt>
<rscale>  0 0.50108164E+03</rscale>
<asrwt>0</asrwt>
<pdfrwt beam="1">  1       21 0.97962941E-01 0.50108164E+03</pdfrwt>
<pdfrwt beam="2">  1       21 0.15165910E-01 0.50108164E+03</pdfrwt>
<totfact> 0.29749164E+04</totfact>
</mgrwt>
</event>
<event>
 8    1  0.4760912E-006  0.4078026E+03  0.7546771E-02  0.1041111E+00
         21   -1    0    0  504  503  0.00000000000E+00  0.00000000000E+00  0.46404665664E+03  0.46404665664E+03  0.00000000000E+00 0. -1.
         21   -1    0    0  503  504 -0.00000000000E+00 -0.00000000000E+00 -0.89593897536E+02  0.89593897536E+02  0.00000000000E+00 0. -1.
         25    2    1    2    0    0  0.89911282744E+01  0.15876626907E+03  0.15231688350E+03  0.25320704222E+03  0.12500321856E+03 0.  0.
         25    2    1    2    0    0 -0.89911282744E+01 -0.15876626907E+03  0.22213587561E+03  0.30043351196E+03  0.12501351644E+03 0.  0.
          5    1    3    3  501    0 -0.51963911680E+02  0.54619851521E+02  0.29872615163E+02  0.81228316700E+02  0.47000000000E+01 0. -1.
         -5    1    3    3    0  501  0.60955039954E+02  0.10414641755E+03  0.12244426833E+03  0.17197872552E+03  0.47000000000E+01 0. -1.
          5    1    4    4  502    0 -0.43858936061E+02 -0.34731795239E+02  0.13106820548E+03  0.14258635405E+03  0.47000000000E+01 0.  1.
         -5    1    4    4    0  502  0.34867807786E+02 -0.12403447383E+03  0.91067670131E+02  0.15784715791E+03  0.47000000000E+01 0.  1.
<mgrwt>
<rscale>  0 0.40780264E+03</rscale>
<asrwt>0</asrwt>
<pdfrwt beam="1">  1       21 0.71391792E-01 0.40780264E+03</pdfrwt>
<pdfrwt beam="2">  1       21 0.13783677E-01 0.40780264E+03</pdfrwt>
<totfact> 0.75860178E+04</totfact>
</mgrwt>
</event>
<event>
 8    1  0.4760912E-006  0.2705033E+03  0.7546771E-02  0.1100992E+00
         21   -1    0    0  504  503  0.00000000000E+00  0.00000000000E+00  0.20969323122E+04  0.20969323122E+04  0.00000000000E+00 0.  1.
         21   -1    0    0  503  504 -0.00000000000E+00 -0.00000000000E+00 -0.87236982169E+01  0.87236982169E+01  0.00000000000E+00 0.  1.
         25    2    1    2    0    0 -0.16989170389E+02  0.46139808794E+02  0.11670889478E+04  0.11747941961E+04  0.12500910844E+03 0.  0.
         25    2    1    2    0    0  0.16989170389E+02 -0.46139808794E+02  0.92111966615E+03  0.93086181430E+03  0.12499905640E+03 0.  0.
          5    1    3    3  501    0  0.17435742957E+02  0.30999437875E+02  0.10695392899E+04  0.10701408099E+04  0.47000000000E+01 0.  1.
         -5    1    3    3    0  501 -0.34424913346E+02  0.15140370919E+02  0.97549657861E+02  0.10465338618E+03  0.47000000000E+01 0.  1.
          5    1    4    4  502    0 -0.32972230318E+02  0.11753742999E+02  0.58738213914E+03  0.58844301834E+03  0.47000000000E+01 0.  1.
         -5    1    4    4    0  502  0.49961400707E+02 -0.57893551792E+02  0.33373752701E+03  0.34241879597E+03  0.47000000000E+01 0.  1.
<mgrwt>
<rscale>  0 0.27050327E+03</rscale>
<asrwt>0</asrwt>
<pdfrwt beam="1">  1       21 0.32260457E+00 0.27050327E+03</pdfrwt>
<pdfrwt beam="2">  1       21 0.13421091E-02 0.27050327E+03</pdfrwt>
<totfact> 0.55700239E+04</totfact>
</mgrwt>
</event>
<event>
 8    1  0.4760912E-006  0.4306109E+03  0.7546771E-02  0.1033667E+00
         21   -1    0    0  504  503  0.00000000000E+00  0.00000000000E+00  0.87064046563E+02  0.87064046563E+02  0.00000000000E+00 0. -1.
         21   -1    0    0  503  504 -0.00000000000E+00 -0.00000000000E+00 -0.53244075496E+03  0.53244075496E+03  0.00000000000E+00 0. -1.
         25    2    1    2    0    0  0.14317190402E+03 -0.81832988286E+02 -0.13712959852E+03  0.24824358942E+03  0.12500208329E+03 0.  0.
         25    2    1    2    0    0 -0.14317190402E+03  0.81832988286E+02 -0.30824710988E+03  0.37126121210E+03  0.12499509908E+03 0.  0.
          5    1    3    3  501    0 -0.10791082969E+02 -0.46101296292E+02 -0.43558117507E+02  0.64507182486E+02  0.47000000000E+01 0. -1.
         -5    1    3    3    0  501  0.15396298699E+03 -0.35731691994E+02 -0.93571481011E+02  0.18373640693E+03  0.47000000000E+01 0. -1.
          5    1    4    4  502    0 -0.12366127983E+02 -0.11586087097E+01  0.10436338281E+02  0.16889957138E+02  0.47000000000E+01 0.  1.
         -5    1    4    4    0  502 -0.13080577603E+03  0.82991596996E+02 -0.31868344816E+03  0.35437125496E+03  0.47000000000E+01 0.  1.
<mgrwt>
<rscale>  0 0.43061095E+03</rscale>
<asrwt>0</asrwt>
<pdfrwt beam="1">  1       21 0.13394468E-01 0.43061095E+03</pdfrwt>
<pdfrwt beam="2">  1       21 0.81913964E-01 0.43061095E+03</pdfrwt>
<totfact> 0.58097807E+04</totfact>
</mgrwt>
</event>
<event>
 8    1  0.4760912E-006  0.6511884E+03  0.7546771E-02  0.9804552E-01
         21   -1    0    0  504  503  0.00000000000E+00  0.00000000000E+00  0.33603150451E+03  0.33603150451E+03  0.00000000000E+00 0.  1.
         21   -1    0    0  503  504 -0.00000000000E+00 -0.00000000000E+00 -0.31548107604E+03  0.31548107604E+03  0.00000000000E+00 0.  1.
         25    2    1    2    0    0  0.20028187798E+03 -0.22363255654E+03 -0.59563918735E+01  0.32524466688E+03  0.12499705492E+03 0.  0.
         25    2    1    2    0    0 -0.20028187798E+03  0.22363255654E+03  0.26506820346E+02  0.32626791367E+03  0.12499515582E+03 0.  0.
          5    1    3    3  501    0  0.15277337604E+03 -0.14182561945E+03  0.51085525405E+02  0.21467657456E+03  0.47000000000E+01 0. -1.
         -5    1    3    3    0  501  0.47508501938E+02 -0.81806937085E+02 -0.57041917278E+02  0.11056809232E+03  0.47000000000E+01 0. -1.
          5    1    4    4  502    0 -0.15126599688E+03  0.81692614686E+02  0.36082663135E+02  0.17572459613E+03  0.47000000000E+01 0. -1.
         -5    1    4    4    0  502 -0.49015881099E+02  0.14193994185E+03 -0.95758427889E+01  0.15054331755E+03  0.47000000000E+01 0. -1.
<mgrwt>
<rscale>  0 0.65118839E+03</rscale>
<asrwt>0</asrwt>
<pdfrwt beam="1">  1       21 0.51697154E-01 0.65118839E+03</pdfrwt>
<pdfrwt beam="2">  1       21 0.48535550E-01 0.65118839E+03</pdfrwt>
<totfact> 0.12336932E+04</totfact>
</mgrwt>
</event>
<event>
 8    1  0.4760912E-006  0.2638398E+03  0.7546771E-02  0.1104858E+00
         21   -1    0    0  504  503  0.00000000000E+00  0.00000000000E+00  0.13226879625E+03  0.13226879625E+03  0.00000000000E+00 0.  1.
         21   -1    0    0  503  504 -0.00000000000E+00 -0.00000000000E+00 -0.13157192260E+03  0.13157192260E+03  0.00000000000E+00 0.  1.
         25    2    1    2    0    0 -0.27866594864E+02 -0.23548462015E+02 -0.20782270824E+02  0.13186556141E+03  0.12500218532E+03 0.  0.
         25    2    1    2    0    0  0.27866594864E+02  0.23548462015E+02  0.21479144475E+02  0.13197515744E+03  0.12500004544E+03 0.  0.
          5    1    3    3  501    0  0.45232801514E+02 -0.39114129361E+01  0.14952837689E+02  0.48031061189E+02  0.47000000000E+01 0. -1.
         -5    1    3    3    0  501 -0.73099396378E+02 -0.19637049079E+02 -0.35735108513E+02  0.83834500224E+02  0.47000000000E+01 0. -1.
          5    1    4    4  502    0  0.11709428821E+02  0.25775364452E+02 -0.50465916741E+02  0.58054964374E+02  0.47000000000E+01 0.  1.
         -5    1    4    4    0  502  0.16157166043E+02 -0.22269024372E+01  0.71945061216E+02  0.73920193062E+02  0.47000000000E+01 0.  1.
<mgrwt>
<rscale>  0 0.26383980E+03</rscale>
<asrwt>0</asrwt>
<pdfrwt beam="1">  1       21 0.20349046E-01 0.26383980E+03</pdfrwt>
<pdfrwt beam="2">  1       21 0.20241834E-01 0.26383980E+03</pdfrwt>
<totfact> 0.49758424E+05</totfact>
</mgrwt>
</event>
<event>
 8    1  0.4760912E-006  0.3963937E+03  0.7546771E-02  0.1045036E+00
         21   -1    0    0  504  503  0.00000000000E+00  0.00000000000E+00  0.13704017037E+03  0.13704017037E+03  0.00000000000E+00 0. -1.
         21   -1    0    0  503  504 -0.00000000000E+00 -0.00000000000E+00 -0.28664576473E+03  0.28664576473E+03  0.00000000000E+00 0. -1.
         25    2    1    2    0    0  0.10579466166E+03  0.11098656392E+03 -0.61898566722E+02  0.20728426966E+03  0.12499923231E+03 0.  0.
         25    2    1    2    0    0 -0.10579466166E+03 -0.11098656392E+03 -0.87707027644E+02  0.21640166544E+03  0.12500652104E+03 0.  0.
          5    1    3    3  501    0  0.12044008458E+03  0.60884689525E+02 -0.13094402329E+02  0.13566986683E+03  0.47000000000E+01 0. -1.
         -5    1    3    3    0  501 -0.14645422918E+02  0.50101874394E+02 -0.48804164393E+02  0.71614402828E+02  0.47000000000E+01 0. -1.
          5    1    4    4  502    0  0.95241293569E+01 -0.46984439111E+02  0.13572686747E+02  0.50045523118E+02  0.47000000000E+01 0. -1.
         -5    1    4    4    0  502 -0.11531879102E+03 -0.64002124809E+02 -0.10127971439E+03  0.16635614233E+03  0.47000000000E+01 0. -1.
<mgrwt>
<rscale>  0 0.39639367E+03</rscale>
<asrwt>0</asrwt>
<pdfrwt beam="1">  1       21 0.21083103E-01 0.39639367E+03</pdfrwt>
<pdfrwt beam="2">  1       21 0.44099349E-01 0.39639367E+03</pdfrwt>
<totfact> 0.97346017E+04</totfact>
</mgrwt>
</event>
<event>
 8    1  0.4760912E-006  0.2544079E+03  0.7546771E-02  0.1110550E+00
         21   -1    0    0  504  503  0.00000000000E+00  0.00000000000E+00  0.86833589893E+02  0.86833589893E+02  0.00000000000E+00 0.  1.
         21   -1    0    0  503  504 -0.00000000000E+00 -0.00000000000E+00 -0.18634315300E+03  0.18634315300E+03  0.00000000000E+00 0.  1.
         25    2    1    2    0    0 -0.91915756709E+01 -0.20859126192E+02 -0.43241489249E+02  0.13421543945E+03  0.12499747832E+03 0.  0.
         25    2    1    2    0    0  0.91915756709E+01  0.20859126192E+02 -0.56268073855E+02  0.13896130343E+03  0.12499823802E+03 0.  0.
          5    1    3    3  501    0 -0.25198826029E+02 -0.28280495889E+02  0.36258601015E+02  0.52645450217E+02  0.47000000000E+01 0.  1.
         -5    1    3    3    0  501  0.16007250358E+02  0.74213696973E+01 -0.79500090264E+02  0.81569989237E+02  0.47000000000E+01 0.  1.
          5    1    4    4  502    0  0.14754520664E+01 -0.52695458566E+02 -0.22032102189E+02  0.57327932451E+02  0.47000000000E+01 0.  1.
         -5    1    4    4    0  502  0.77161236045E+01  0.73554584757E+02 -0.34235971666E+02  0.81633370984E+02  0.47000000000E+01 0.  1.
<mgrwt>
<rscale>  0 0.25440790E+03</rscale>
<asrwt>0</asrwt>
<pdfrwt beam="1">  1       21 0.13359014E-01 0.25440790E+03</pdfrwt>
<pdfrwt beam="2">  1       21 0.28668177E-01 0.25440790E+03</pdfrwt>
<totfact> 0.55694420E+05</totfact>
</mgrwt>
</event>
<event>
 8    1  0.4760912E-006  0.3049082E+03  0.7546771E-02  0.1082812E+00
         21   -1    0    0  504  503  0.00000000000E+00  0.00000000000E+00  0.48674033351E+02  0.48674033351E+02  0.00000000000E+00 0.  1.
         21   -1    0    0  503  504 -0.00000000000E+00 -0.00000000000E+00 -0.47750820710E+03  0.47750820710E+03  0.00000000000E+00 0.  1.
         25    2    1    2    0    0  0.58817435381E+02  0.27316524981E+02 -0.11362785416E+03  0.18094817682E+03  0.12500108084E+03 0.  0.
         25    2    1    2    0    0 -0.58817435381E+02 -0.27316524981E+02 -0.31520631959E+03  0.34523406364E+03  0.12500340612E+03 0.  0.
          5    1    3    3  501    0  0.13011928204E+02 -0.35937527563E+02  0.50116695728E+01  0.38833271751E+02  0.47000000000E+01 0.  1.
         -5    1    3    3    0  501  0.45805507177E+02  0.63254052544E+02 -0.11863952373E+03  0.14211490507E+03  0.47000000000E+01 0.  1.
          5    1    4    4  502    0 -0.89209466770E+02 -0.41494369751E+02 -0.27795030040E+03  0.29488738728E+03  0.47000000000E+01 0. -1.
         -5    1    4    4    0  502  0.30392031390E+02  0.14177844771E+02 -0.37256019194E+02  0.50346676360E+02  0.47000000000E+01 0. -1.
<mgrwt>
<rscale>  0 0.30490819E+03</rscale>
<asrwt>0</asrwt>
<pdfrwt beam="1">  1       21 0.74883132E-02 0.30490819E+03</pdfrwt>
<pdfrwt beam="2">  1       21 0.73462797E-01 0.30490819E+03</pdfrwt>
<totfact> 0.21736348E+05</totfact>
</mgrwt>
</event>
<event>
 8    1  0.4760912E-006  0.2631901E+03  0.7546771E-02  0.1105242E+00
         21   -1    0    0  504  503  0.00000000000E+00  0.00000000000E+00  0.15472519406E+02  0.15472519406E+02  0.00000000000E+00 0.  1.
         21   -1    0    0  503  504 -0.00000000000E+00 -0.00000000000E+00 -0.11192263842E+04  0.11192263842E+04  0.00000000000E+00 0.  1.
         25    2    1    2    0    0 -0.61929162693E+00  0.13827896631E+02 -0.71887618098E+03  0.72979441016E+03  0.12500129305E+03 0.  0.
         25    2    1    2    0    0  0.61929162693E+00 -0.13827896631E+02 -0.38487768381E+03  0.40490449345E+03  0.12500089229E+03 0.  0.
          5    1    3    3  501    0  0.71625638692E+01 -0.51192058701E+02 -0.45160373307E+03  0.45457667221E+03  0.47000000000E+01 0. -1.
         -5    1    3    3    0  501 -0.77818554962E+01  0.65019955333E+02 -0.26727244791E+03  0.27521773794E+03  0.47000000000E+01 0. -1.
          5    1    4    4  502    0 -0.33988412236E+02 -0.56176485627E+02 -0.26505529548E+03  0.27310695591E+03  0.47000000000E+01 0.  1.
         -5    1    4    4    0  502  0.34607703863E+02  0.42348588996E+02 -0.11982238833E+03  0.13179753754E+03  0.47000000000E+01 0.  1.
<mgrwt>
<rscale>  0 0.26319006E+03</rscale>
<asrwt>0</asrwt>
<pdfrwt beam="1">  1       21 0.23803875E-02 0.26319006E+03</pdfrwt>
<pdfrwt beam="2">  1       21 0.17218868E+00 0.26319006E+03</pdfrwt>
<totfact> 0.18531173E+05</totfact>
</mgrwt>
</event>
<event>
 8    1  0.4760912E-006  0.3719286E+03  0.7546771E-02  0.1053958E+00
         21   -1    0    0  504  503  0.00000000000E+00  0.00000000000E+00  0.85907785963E+02  0.85907785963E+02  0.00000000000E+00 0.  1.
         21   -1    0    0  503  504 -0.00000000000E+00 -0.00000000000E+00 -0.40255624781E+03  0.40255624781E+03  0.00000000000E+00 0.  1.
         25    2    1    2    0    0  0.86832042057E+02  0.33221635113E+02 -0.24911415282E+02  0.15773863107E+03  0.12496966253E+03 0.  0.
         25    2    1    2    0    0 -0.86832042057E+02 -0.33221635113E+02 -0.29173704656E+03  0.33072540270E+03  0.12500122835E+03 0.  0.
          5    1    3    3  501    0  0.81221789359E+02 -0.15944339336E+02 -0.55133925434E+02  0.99564254415E+02  0.47000000000E+01 0.  1.
         -5    1    3    3    0  501  0.56102526976E+01  0.49165974449E+02  0.30222510152E+02  0.58174376651E+02  0.47000000000E+01 0.  1.
          5    1    4    4  502    0 -0.48986569726E+02 -0.30519726616E+02 -0.28631368576E+03  0.29211085975E+03  0.47000000000E+01 0. -1.
         -5    1    4    4    0  502 -0.37845472331E+02 -0.27019084974E+01 -0.54233607990E+01  0.38614542957E+02  0.47000000000E+01 0. -1.
<mgrwt>
<rscale>  0 0.37192857E+03</rscale>
<asrwt>0</asrwt>
<pdfrwt beam="1">  1       21 0.13216582E-01 0.37192857E+03</pdfrwt>
<pdfrwt beam="2">  1       21 0.61931731E-01 0.37192857E+03</pdfrwt>
<totfact> 0.11329866E+05</totfact>
</mgrwt>
</event>
<event>
 8    1  0.4760912E-006  0.3668170E+03  0.7546771E-02  0.1055917E+00
         21   -1    0    0  504  503  0.00000000000E+00  0.00000000000E+00  0.44949343964E+03  0.44949343964E+03  0.00000000000E+00 0. -1.
         21   -1    0    0  503  504 -0.00000000000E+00 -0.00000000000E+00 -0.74836847770E+02  0.74836847770E+02  0.00000000000E+00 0. -1.
         25    2    1    2    0    0 -0.51285852268E+02 -0.93210755758E+02  0.70356922258E+02  0.17858303651E+03  0.12499328297E+03 0.  0.
         25    2    1    2    0    0  0.51285852268E+02  0.93210755758E+02  0.30429966961E+03  0.34574725090E+03  0.12499755577E+03 0.  0.
          5    1    3    3  501    0 -0.37851173228E+02 -0.60588499665E+02  0.10619452007E+03  0.12807436784E+03  0.47000000000E+01 0. -1.
         -5    1    3    3    0  501 -0.13434679040E+02 -0.32622256094E+02 -0.35837597809E+02  0.50508668665E+02  0.47000000000E+01 0. -1.
          5    1    4    4  502    0 -0.16879231468E+02  0.91723869123E+02  0.20423152873E+03  0.22456799405E+03  0.47000000000E+01 0.  1.
         -5    1    4    4    0  502  0.68165083736E+02  0.14868866350E+01  0.10006814088E+03  0.12117925685E+03  0.47000000000E+01 0.  1.
<mgrwt>
<rscale>  0 0.36681697E+03</rscale>
<asrwt>0</asrwt>
<pdfrwt beam="1">  1       21 0.69152835E-01 0.36681697E+03</pdfrwt>
<pdfrwt beam="2">  1       21 0.11513361E-01 0.36681697E+03</pdfrwt>
<totfact> 0.11418557E+05</totfact>
</mgrwt>
</event>
<event>
 8    1  0.4760912E-006  0.2678962E+03  0.7546771E-02  0.1102490E+00
         21   -1    0    0  504  503  0.00000000000E+00  0.00000000000E+00  0.37257736743E+02  0.37257736743E+02  0.00000000000E+00 0. -1.
         21   -1    0    0  503  504 -0.00000000000E+00 -0.00000000000E+00 -0.48156674190E+03  0.48156674190E+03  0.00000000000E+00 0. -1.
         25    2    1    2    0    0  0.22293840637E+02  0.35650910339E+02 -0.26757030629E+03  0.29830536122E+03  0.12499686792E+03 0.  0.
         25    2    1    2    0    0 -0.22293840637E+02 -0.35650910339E+02 -0.17673869886E+03  0.22051911742E+03  0.12499644288E+03 0.  0.
          5    1    3    3  501    0 -0.36282867805E+02  0.11041260321E+02 -0.20935078475E+02  0.43574343786E+02  0.47000000000E+01 0. -1.
         -5    1    3    3    0  501  0.58576708442E+02  0.24609650018E+02 -0.24663522781E+03  0.25473101744E+03  0.47000000000E+01 0. -1.
          5    1    4    4  502    0 -0.62470103939E+02 -0.46395546933E+02 -0.15466832261E+03  0.17320346613E+03  0.47000000000E+01 0. -1.
         -5    1    4    4    0  502  0.40176263302E+02  0.10744636594E+02 -0.22070376256E+02  0.47315651285E+02  0.47000000000E+01 0. -1.
<mgrwt>
<rscale>  0 0.26789615E+03</rscale>
<asrwt>0</asrwt>
<pdfrwt beam="1">  1       21 0.57319595E-02 0.26789615E+03</pdfrwt>
<pdfrwt beam="2">  1       21 0.74087190E-01 0.26789615E+03</pdfrwt>
<totfact> 0.34193186E+05</totfact>
</mgrwt>
</event>
<event>
 8    1  0.4760912E-006  0.2725452E+03  0.7546771E-02  0.1099832E+00
         21   -1    0    0  504  503  0.00000000000E+00  0.00000000000E+00  0.23603594851E+03  0.23603594851E+03  0.00000000000E+00 0.  1.
         21   -1    0    0  503  504 -0.00000000000E+00 -0.00000000000E+00 -0.78675411476E+02  0.78675411476E+02  0.00000000000E+00 0.  1.
         25    2    1    2    0    0  0.35866433737E+02  0.35843914197E+02  0.56398218300E+02  0.14621603739E+03  0.12500873293E+03 0.  0.
         25    2    1    2    0    0 -0.35866433737E+02 -0.35843914197E+02  0.10096231874E+03  0.16849532260E+03  0.12500438664E+03 0.  0.
          5    1    3    3  501    0  0.67546730633E+02  0.32707596409E+02 -0.65893365425E+01  0.75484150907E+02  0.47000000000E+01 0.  1.
         -5    1    3    3    0  501 -0.31680296896E+02  0.31363177877E+01  0.62987554843E+02  0.70731886485E+02  0.47000000000E+01 0.  1.
          5    1    4    4  502    0 -0.60138327895E+02 -0.56286201446E+02  0.10774656404E+03  0.13570617899E+03  0.47000000000E+01 0.  1.
         -5    1    4    4    0  502  0.24271894157E+02  0.20442287249E+02 -0.67842453000E+01  0.32789143603E+02  0.47000000000E+01 0.  1.
<mgrwt>
<rscale>  0 0.27254523E+03</rscale>
<asrwt>0</asrwt>
<pdfrwt beam="1">  1       21 0.36313223E-01 0.27254523E+03</pdfrwt>
<pdfrwt beam="2">  1       21 0.12103910E-01 0.27254523E+03</pdfrwt>
<totfact> 0.41557249E+05</totfact>
</mgrwt>
</event>
<event>
 8    1  0.4760912E-006  0.2881857E+03  0.7546771E-02  0.1091300E+00
         21   -1    0    0  504  503  0.00000000000E+00  0.00000000000E+00  0.33925675801E+03  0.33925675801E+03  0.00000000000E+00 0.  1.
         21   -1    0    0  503  504 -0.00000000000E+00 -0.00000000000E+00 -0.61200675146E+02  0.61200675146E+02  0.00000000000E+00 0.  1.
         25    2    1    2    0    0  0.10045983145E+02  0.43658118808E+02  0.21676989401E+03  0.25421044844E+03  0.12500724792E+03 0.  0.
         25    2    1    2    0    0 -0.10045983145E+02 -0.43658118808E+02  0.61286188849E+02  0.14624698471E+03  0.12500092191E+03 0.  0.
          5    1    3    3  501    0 -0.34631982960E+02  0.33128838803E+02  0.20069548210E+02  0.52170594874E+02  0.47000000000E+01 0. -1.
         -5    1    3    3    0  501  0.44677966105E+02  0.10529280005E+02  0.19670034580E+03  0.20203985357E+03  0.47000000000E+01 0. -1.
          5    1    4    4  502    0 -0.66117347941E+02 -0.37171266898E+02  0.38544121091E+02  0.85211185018E+02  0.47000000000E+01 0. -1.
         -5    1    4    4    0  502  0.56071364796E+02 -0.64868519104E+01  0.22742067758E+02  0.61035799689E+02  0.47000000000E+01 0. -1.
<mgrwt>
<rscale>  0 0.28818565E+03</rscale>
<asrwt>0</asrwt>
<pdfrwt beam="1">  1       21 0.52193346E-01 0.28818565E+03</pdfrwt>
<pdfrwt beam="2">  1       21 0.94154887E-02 0.28818565E+03</pdfrwt>
<totfact> 0.30722318E+05</totfact>
</mgrwt>
</event>
<event>
 8    1  0.4760912E-006  0.4301283E+03  0.7546771E-02  0.1033819E+00
         21   -1    0    0  504  503  0.00000000000E+00  0.00000000000E+00  0.24162626393E+02  0.24162626393E+02  0.00000000000E+00 0.  1.
         21   -1    0    0  503  504 -0.00000000000E+00 -0.00000000000E+00 -0.19142200754E+04  0.19142200754E+04  0.00000000000E+00 0.  1.
         25    2    1    2    0    0  0.96739393577E+02  0.83273061118E+02 -0.14845901049E+04  0.14953008510E+04  0.12499577011E+03 0.  0.
         25    2    1    2    0    0 -0.96739393577E+02 -0.83273061118E+02 -0.40546734414E+03  0.44308185080E+03  0.12499938545E+03 0.  0.
          5    1    3    3  501    0 -0.25747567891E+02  0.34534755014E+02 -0.50751951706E+03  0.50936601453E+03  0.47000000000E+01 0.  1.
         -5    1    3    3    0  501  0.12248696147E+03  0.48738306104E+02 -0.97707058785E+03  0.98593483651E+03  0.47000000000E+01 0.  1.
          5    1    4    4  502    0 -0.14828461539E+02  0.20914031446E+02 -0.17705496969E+03  0.17896321487E+03  0.47000000000E+01 0. -1.
         -5    1    4    4    0  502 -0.81910932038E+02 -0.10418709256E+03 -0.22841237445E+03  0.26411863593E+03  0.47000000000E+01 0. -1.
<mgrwt>
<rscale>  0 0.43012828E+03</rscale>
<asrwt>0</asrwt>
<pdfrwt beam="1">  1       21 0.37173259E-02 0.43012828E+03</pdfrwt>
<pdfrwt beam="2">  1       21 0.29449550E+00 0.43012828E+03</pdfrwt>
<totfact> 0.13907269E+04</totfact>
</mgrwt>
</event>
<event>
 8    1  0.4760912E-006  0.2522110E+03  0.7546771E-02  0.1111915E+00
         21   -1    0    0  504  503  0.00000000000E+00  0.00000000000E+00  0.37072134489E+03  0.37072134489E+03  0.00000000000E+00 0.  1.
         21   -1    0    0  503  504 -0.00000000000E+00 -0.00000000000E+00 -0.42896362358E+02  0.42896362358E+02  0.00000000000E+00 0.  1.
         25    2    1    2    0    0 -0.61018998963E+01 -0.15513558322E+02  0.16710964663E+03  0.20933183970E+03  0.12496512090E+03 0.  0.
         25    2    1    2    0    0  0.61018998963E+01  0.15513558322E+02  0.16071533591E+03  0.20428586755E+03  0.12500157124E+03 0.  0.
          5    1    3    3  501    0 -0.47106985791E+02 -0.38683490360E+02  0.38400331008E+02  0.72195262714E+02  0.47000000000E+01 0.  1.
         -5    1    3    3    0  501  0.41005085895E+02  0.23169932038E+02  0.12870931562E+03  0.13713657699E+03  0.47000000000E+01 0.  1.
          5    1    4    4  502    0 -0.45632670335E+02  0.28175633625E+02  0.26897005708E+02  0.60180942566E+02  0.47000000000E+01 0. -1.
         -5    1    4    4    0  502  0.51734570231E+02 -0.12662075303E+02  0.13381833020E+03  0.14410492499E+03  0.47000000000E+01 0. -1.
<mgrwt>
<rscale>  0 0.25221100E+03</rscale>
<asrwt>0</asrwt>
<pdfrwt beam="1">  1       21 0.57034051E-01 0.25221100E+03</pdfrwt>
<pdfrwt beam="2">  1       21 0.65994406E-02 0.25221100E+03</pdfrwt>
<totfact> 0.47750035E+05</totfact>
</mgrwt>
</event>
<event>
 8    1  0.4760912E-006  0.3576391E+03  0.7546771E-02  0.1059523E+00
         21   -1    0    0  504  503  0.00000000000E+00  0.00000000000E+00  0.19858647609E+03  0.19858647609E+03  0.00000000000E+00 0. -1.
         21   -1    0    0  503  504 -0.00000000000E+00 -0.00000000000E+00 -0.16102015989E+03  0.16102015989E+03  0.00000000000E+00 0. -1.
         25    2    1    2    0    0  0.26154175818E+02  0.11306135599E+03 -0.35224170866E+02  0.17415957183E+03  0.12499561238E+03 0.  0.
         25    2    1    2    0    0 -0.26154175818E+02 -0.11306135599E+03  0.72790487070E+02  0.18544706415E+03  0.12500098985E+03 0.  0.
          5    1    3    3  501    0  0.66053877440E+02  0.88805021008E+02  0.70439935744E+01  0.11100069516E+03  0.47000000000E+01 0. -1.
         -5    1    3    3    0  501 -0.39899701622E+02  0.24256334980E+02 -0.42268164440E+02  0.63158876663E+02  0.47000000000E+01 0. -1.
          5    1    4    4  502    0 -0.15574985812E+01 -0.33929438385E+02 -0.35269666204E+02  0.49190161059E+02  0.47000000000E+01 0.  1.
         -5    1    4    4    0  502 -0.24596677237E+02 -0.79131917603E+02  0.10806015327E+03  0.13625690309E+03  0.47000000000E+01 0.  1.
<mgrwt>
<rscale>  0 0.35763907E+03</rscale>
<asrwt>0</asrwt>
<pdfrwt beam="1">  1       21 0.30551765E-01 0.35763907E+03</pdfrwt>
<pdfrwt beam="2">  1       21 0.24772332E-01 0.35763907E+03</pdfrwt>
<totfact> 0.15163732E+05</totfact>
</mgrwt>
</event>
<event>
 8    1  0.4760912E-006  0.4942900E+03  0.7546771E-02  0.1015280E+00
         21   -1    0    0  504  503  0.00000000000E+00  0.00000000000E+00  0.23308589925E+03  0.23308589925E+03  0.00000000000E+00 0. -1.
         21   -1    0    0  503  504 -0.00000000000E+00 -0.00000000000E+00 -0.26205207023E+03  0.26205207023E+03  0.00000000000E+00 0. -1.
         25    2    1    2    0    0 -0.13198130082E+03  0.16620178344E+03 -0.34855662756E+02  0.24876015101E+03  0.12499839566E+03 0.  0.
         25    2    1    2    0    0  0.13198130082E+03 -0.16620178344E+03  0.58894917757E+01  0.24637781847E+03  0.12500098694E+03 0.  0.
          5    1    3    3  501    0 -0.27320514034E+01  0.41492866322E+02 -0.53732202565E+02  0.68105518521E+02  0.47000000000E+01 0.  1.
         -5    1    3    3    0  501 -0.12924924941E+03  0.12470891712E+03  0.18876539809E+02  0.18065463248E+03  0.47000000000E+01 0.  1.
          5    1    4    4  502    0  0.14220952671E+03 -0.97259327361E+02 -0.16205114695E+02  0.17311158825E+03  0.47000000000E+01 0. -1.
         -5    1    4    4    0  502 -0.10228225891E+02 -0.68942456079E+02  0.22094606471E+02  0.73266230217E+02  0.47000000000E+01 0. -1.
<mgrwt>
<rscale>  0 0.49428997E+03</rscale>
<asrwt>0</asrwt>
<pdfrwt beam="1">  1       21 0.35859369E-01 0.49428997E+03</pdfrwt>
<pdfrwt beam="2">  1       21 0.40315703E-01 0.49428997E+03</pdfrwt>
<totfact> 0.40402711E+04</totfact>
</mgrwt>
</event>
<event>
 8    1  0.4760912E-006  0.2905701E+03  0.7546771E-02  0.1090052E+00
         21   -1    0    0  504  503  0.00000000000E+00  0.00000000000E+00  0.57871660936E+02  0.57871660936E+02  0.00000000000E+00 0.  1.
         21   -1    0    0  503  504 -0.00000000000E+00 -0.00000000000E+00 -0.36473375313E+03  0.36473375313E+03  0.00000000000E+00 0.  1.
         25    2    1    2    0    0  0.38823416196E+02  0.62771511022E+02 -0.14481425600E+03  0.20504699634E+03  0.12500232687E+03 0.  0.
         25    2    1    2    0    0 -0.38823416196E+02 -0.62771511022E+02 -0.16204783619E+03  0.21755841773E+03  0.12499857467E+03 0.  0.
          5    1    3    3  501    0  0.19482127774E+02 -0.37295097863E+02 -0.33000880915E+02  0.53680776525E+02  0.47000000000E+01 0. -1.
         -5    1    3    3    0  501  0.19341288422E+02  0.10006660888E+03 -0.11181337509E+03  0.15136621981E+03  0.47000000000E+01 0. -1.
          5    1    4    4  502    0  0.22005977321E+02 -0.78501051150E+02 -0.82507230862E+02  0.11608708461E+03  0.47000000000E+01 0.  1.
         -5    1    4    4    0  502 -0.60829393517E+02  0.15729540127E+02 -0.79540605333E+02  0.10147133312E+03  0.47000000000E+01 0.  1.
<mgrwt>
<rscale>  0 0.29057012E+03</rscale>
<asrwt>0</asrwt>
<pdfrwt beam="1">  1       21 0.89033326E-02 0.29057012E+03</pdfrwt>
<pdfrwt beam="2">  1       21 0.56112884E-01 0.29057012E+03</pdfrwt>
<totfact> 0.29057597E+05</totfact>
</mgrwt>
</event>
<event>
 8    1  0.4760912E-006  0.2604702E+03  0.7546771E-02  0.1106861E+00
         21   -1    0    0  504  503  0.00000000000E+00  0.00000000000E+00  0.13052981834E+03  0.13052981834E+03  0.00000000000E+00 0. -1.
         21   -1    0    0  503  504 -0.00000000000E+00 -0.00000000000E+00 -0.12994107599E+03  0.12994107599E+03  0.00000000000E+00 0. -1.
         25    2    1    2    0    0 -0.23367157768E+02  0.24692046887E+02  0.13670676160E+02  0.13027036897E+03  0.12501104112E+03 0.  0.
         25    2    1    2    0    0  0.23367157768E+02 -0.24692046887E+02 -0.13081933816E+02  0.13020052536E+03  0.12500127427E+03 0.  0.
          5    1    3    3  501    0 -0.17204782097E+02  0.45400025751E+02 -0.45746205019E+02  0.66872805675E+02  0.47000000000E+01 0. -1.
         -5    1    3    3    0  501 -0.61623756707E+01 -0.20707978864E+02  0.59416881179E+02  0.63397563294E+02  0.47000000000E+01 0. -1.
          5    1    4    4  502    0  0.32042081896E+02 -0.71248873569E+02  0.69375883174E+01  0.78570459644E+02  0.47000000000E+01 0.  1.
         -5    1    4    4    0  502 -0.86749241276E+01  0.46556826682E+02 -0.20019522133E+02  0.51630065715E+02  0.47000000000E+01 0.  1.
<mgrwt>
<rscale>  0 0.26047023E+03</rscale>
<asrwt>0</asrwt>
<pdfrwt beam="1">  1       21 0.20081510E-01 0.26047023E+03</pdfrwt>
<pdfrwt beam="2">  1       21 0.19990935E-01 0.26047023E+03</pdfrwt>
<totfact> 0.52255924E+05</totfact>
</mgrwt>
</event>
<event>
 8    1  0.4760912E-006  0.3213682E+03  0.7546771E-02  0.1075021E+00
         21   -1    0    0  504  503  0.00000000000E+00  0.00000000000E+00  0.13066994232E+03  0.13066994232E+03  0.00000000000E+00 0.  1.
         21   -1    0    0  503  504 -0.00000000000E+00 -0.00000000000E+00 -0.19759228676E+03  0.19759228676E+03  0.00000000000E+00 0.  1.
         25    2    1    2    0    0  0.71546958012E+02 -0.71024916661E+02 -0.39064981384E+02  0.16527655754E+03  0.12500704666E+03 0.  0.
         25    2    1    2    0    0 -0.71546958012E+02  0.71024916661E+02 -0.27857363053E+02  0.16298567154E+03  0.12499916185E+03 0.  0.
          5    1    3    3  501    0  0.83656263056E+02 -0.33113306751E+02 -0.70454744776E+02  0.11437142341E+03  0.47000000000E+01 0.  1.
         -5    1    3    3    0  501 -0.12109305044E+02 -0.37911609910E+02  0.31389763391E+02  0.50905134126E+02  0.47000000000E+01 0.  1.
          5    1    4    4  502    0 -0.74221339094E+02  0.34127896558E+02  0.35716284885E+02  0.89281932698E+02  0.47000000000E+01 0. -1.
         -5    1    4    4    0  502  0.26743810820E+01  0.36897020103E+02 -0.63573647938E+02  0.73703738838E+02  0.47000000000E+01 0. -1.
<mgrwt>
<rscale>  0 0.32136815E+03</rscale>
<asrwt>0</asrwt>
<pdfrwt beam="1">  1       21 0.20103068E-01 0.32136815E+03</pdfrwt>
<pdfrwt beam="2">  1       21 0.30398814E-01 0.32136815E+03</pdfrwt>
<totfact> 0.23001922E+05</totfact>
</mgrwt>
</event>
<event>
 8    1  0.4760912E-006  0.2969145E+03  0.7546771E-02  0.1086793E+00
         21   -1    0    0  504  503  0.00000000000E+00  0.00000000000E+00  0.11703421422E+03  0.11703421422E+03  0.00000000000E+00 0.  1.
         21   -1    0    0  503  504 -0.00000000000E+00 -0.00000000000E+00 -0.18831719790E+03  0.18831719790E+03  0.00000000000E+00 0.  1.
         25    2    1    2    0    0 -0.75005001766E+02  0.25818242978E+02 -0.47105358410E+02  0.15534457031E+03  0.12498275390E+03 0.  0.
         25    2    1    2    0    0  0.75005001766E+02 -0.25818242978E+02 -0.24177625270E+02  0.15000684182E+03  0.12500065227E+03 0.  0.
          5    1    3    3  501    0 -0.55466013495E+02 -0.46638513197E+02 -0.27357737068E+02  0.77602611707E+02  0.47000000000E+01 0. -1.
         -5    1    3    3    0  501 -0.19538988272E+02  0.72456756175E+02 -0.19747621342E+02  0.77741958598E+02  0.47000000000E+01 0. -1.
          5    1    4    4  502    0  0.10166028968E+03 -0.16918738863E+02 -0.47128647691E+02  0.11342071088E+03  0.47000000000E+01 0.  1.
         -5    1    4    4    0  502 -0.26655287914E+02 -0.88995041145E+01  0.22951022421E+02  0.36586130944E+02  0.47000000000E+01 0.  1.
<mgrwt>
<rscale>  0 0.29691450E+03</rscale>
<asrwt>0</asrwt>
<pdfrwt beam="1">  1       21 0.18005264E-01 0.29691450E+03</pdfrwt>
<pdfrwt beam="2">  1       21 0.28971877E-01 0.29691450E+03</pdfrwt>
<totfact> 0.31252115E+05</totfact>
</mgrwt>
</event>
<event>
 8    1  0.4760912E-006  0.2678419E+03  0.7546771E-02  0.1102521E+00
         21   -1    0    0  504  503  0.00000000000E+00  0.00000000000E+00  0.51512892183E+02  0.51512892183E+02  0.00000000000E+00 0.  1.
         21   -1    0    0  503  504 -0.00000000000E+00 -0.00000000000E+00 -0.34816173051E+03  0.34816173051E+03  0.00000000000E+00 0.  1.
         25    2    1    2    0    0 -0.13717524665E+02 -0.43946733627E+00 -0.79607165023E+02  0.14883450209E+03  0.12500417863E+03 0.  0.
         25    2    1    2    0    0  0.13717524665E+02  0.43946733627E+00 -0.21704167331E+03  0.25084012061E+03  0.12500125816E+03 0.  0.
          5    1    3    3  501    0 -0.40861035739E+02  0.22318791697E+02  0.13831118553E+02  0.48796952209E+02  0.47000000000E+01 0.  1.
         -5    1    3    3    0  501  0.27143511074E+02 -0.22758259034E+02 -0.93438283576E+02  0.10003754988E+03  0.47000000000E+01 0.  1.
          5    1    4    4  502    0 -0.33455181754E+02 -0.47525322251E+02 -0.10167612731E+03  0.11720934393E+03  0.47000000000E+01 0. -1.
         -5    1    4    4    0  502  0.47172706418E+02  0.47964789587E+02 -0.11536554600E+03  0.13363077667E+03  0.47000000000E+01 0. -1.
<mgrwt>
<rscale>  0 0.26784188E+03</rscale>
<asrwt>0</asrwt>
<pdfrwt beam="1">  1       21 0.79250606E-02 0.26784188E+03</pdfrwt>
<pdfrwt beam="2">  1       21 0.53563342E-01 0.26784188E+03</pdfrwt>
<totfact> 0.39567325E+05</totfact>
</mgrwt>
</event>
<event>
 8    1  0.4760912E-006  0.2693292E+03  0.7546771E-02  0.1101664E+00
         21   -1    0    0  504  503  0.00000000000E+00  0.00000000000E+00  0.75546056770E+03  0.75546056770E+03  0.00000000000E+00 0. -1.
         21   -1    0    0  503  504 -0.00000000000E+00 -0.00000000000E+00 -0.24004642255E+02  0.24004642255E+02  0.00000000000E+00 0. -1.
         25    2    1    2    0    0  0.43006281028E+02  0.25502974382E+02  0.35668999439E+03  0.38125175372E+03  0.12500082282E+03 0.  0.
         25    2    1    2    0    0 -0.43006281028E+02 -0.25502974382E+02  0.37476593105E+03  0.39821345623E+03  0.12499804694E+03 0.  0.
          5    1    3    3  501    0 -0.27655022708E+01 -0.25498566483E+02  0.26704892766E+03  0.26831892341E+03  0.47000000000E+01 0.  1.
         -5    1    3    3    0  501  0.45771783299E+02  0.51001540865E+02  0.89641066733E+02  0.11293283031E+03  0.47000000000E+01 0.  1.
          5    1    4    4  502    0 -0.21487390381E+02 -0.72978881851E+02  0.27729902539E+03  0.28758383930E+03  0.47000000000E+01 0. -1.
         -5    1    4    4    0  502 -0.21518890647E+02  0.47475907469E+02  0.97466905660E+02  0.11062961694E+03  0.47000000000E+01 0. -1.
<mgrwt>
<rscale>  0 0.26932925E+03</rscale>
<asrwt>0</asrwt>
<pdfrwt beam="1">  1       21 0.11622468E+00 0.26932925E+03</pdfrwt>
<pdfrwt beam="2">  1       21 0.36930225E-02 0.26932925E+03</pdfrwt>
<totfact> 0.24986874E+05</totfact>
</mgrwt>
</event>
<event>
 8    1  0.4760912E-006  0.2700802E+03  0.7546771E-02  0.1101234E+00
         21   -1    0    0  504  503  0.00000000000E+00  0.00000000000E+00  0.87003107185E+01  0.87003107185E+01  0.00000000000E+00 0. -1.
         21   -1    0    0  503  504 -0.00000000000E+00 -0.00000000000E+00 -0.20959978694E+04  0.20959978694E+04  0.00000000000E+00 0. -1.
         25    2    1    2    0    0  0.12193574997E+01 -0.49825051963E+02 -0.11309931931E+04  0.11389709849E+04  0.12500111594E+03 0.  0.
         25    2    1    2    0    0 -0.12193574997E+01  0.49825051963E+02 -0.95630436562E+03  0.96572719525E+03  0.12500781297E+03 0.  0.
          5    1    3    3  501    0  0.36274384137E+02 -0.71570292077E+02 -0.94441685652E+03  0.94783090608E+03  0.47000000000E+01 0. -1.
         -5    1    3    3    0  501 -0.35055026638E+02  0.21745240115E+02 -0.18657633656E+03  0.19114007881E+03  0.47000000000E+01 0. -1.
          5    1    4    4  502    0 -0.62589135572E+02  0.26752903285E+02 -0.53313097927E+03  0.53747916125E+03  0.47000000000E+01 0.  1.
         -5    1    4    4    0  502  0.61369778072E+02  0.23072148678E+02 -0.42317338635E+03  0.42824803400E+03  0.47000000000E+01 0.  1.
<mgrwt>
<rscale>  0 0.27008023E+03</rscale>
<asrwt>0</asrwt>
<pdfrwt beam="1">  1       21 0.13385083E-02 0.27008023E+03</pdfrwt>
<pdfrwt beam="2">  1       21 0.32246146E+00 0.27008023E+03</pdfrwt>
<totfact> 0.56067751E+04</totfact>
</mgrwt>
</event>
<event>
 8    1  0.4760912E-006  0.3072581E+03  0.7546771E-02  0.1081668E+00
         21   -1    0    0  504  503  0.00000000000E+00  0.00000000000E+00  0.28696627258E+02  0.28696627258E+02  0.00000000000E+00 0. -1.
         21   -1    0    0  503  504 -0.00000000000E+00 -0.00000000000E+00 -0.82246216578E+03  0.82246216578E+03  0.00000000000E+00 0. -1.
         25    2    1    2    0    0  0.20112644237E+02 -0.28575552140E+02 -0.16919166346E+03  0.21324097109E+03  0.12499924852E+03 0.  0.
         25    2    1    2    0    0 -0.20112644237E+02  0.28575552140E+02 -0.62457387506E+03  0.63791782194E+03  0.12500216601E+03 0.  0.
          5    1    3    3  501    0  0.27523399650E+00  0.21006190926E+02 -0.15673103174E+03  0.15820253513E+03  0.47000000000E+01 0.  1.
         -5    1    3    3    0  501  0.19837410240E+02 -0.49581743066E+02 -0.12460631720E+02  0.55038435964E+02  0.47000000000E+01 0.  1.
          5    1    4    4  502    0  0.39904690914E+02  0.50966237914E+02 -0.34611719599E+03  0.35214932220E+03  0.47000000000E+01 0. -1.
         -5    1    4    4    0  502 -0.60017335151E+02 -0.22390685773E+02 -0.27845667907E+03  0.28576849974E+03  0.47000000000E+01 0. -1.
<mgrwt>
<rscale>  0 0.30725813E+03</rscale>
<asrwt>0</asrwt>
<pdfrwt beam="1">  1       21 0.44148654E-02 0.30725813E+03</pdfrwt>
<pdfrwt beam="2">  1       21 0.12653265E+00 0.30725813E+03</pdfrwt>
<totfact> 0.14764771E+05</totfact>
</mgrwt>
</event>
<event>
 8    1  0.4760912E-006  0.3348769E+03  0.7546771E-02  0.1068999E+00
         21   -1    0    0  504  503  0.00000000000E+00  0.00000000000E+00  0.14084224487E+03  0.14084224487E+03  0.00000000000E+00 0. -1.
         21   -1    0    0  503  504 -0.00000000000E+00 -0.00000000000E+00 -0.19905699225E+03  0.19905699225E+03  0.00000000000E+00 0. -1.
         25    2    1    2    0    0  0.33758044793E+02  0.25543840570E+02 -0.13369925059E+03  0.18786115327E+03  0.12499691965E+03 0.  0.
         25    2    1    2    0    0 -0.33758044793E+02 -0.25543840570E+02  0.75484503211E+02  0.15203808384E+03  0.12500230132E+03 0.  0.
          5    1    3    3  501    0  0.66736363262E+01  0.68188340389E+02 -0.35450528342E+02  0.77285297092E+02  0.47000000000E+01 0.  1.
         -5    1    3    3    0  501  0.27084408467E+02 -0.42644499819E+02 -0.98248722246E+02  0.11057585618E+03  0.47000000000E+01 0.  1.
          5    1    4    4  502    0  0.36786464988E+02 -0.22312831789E+02  0.68355406437E+02  0.80905241227E+02  0.47000000000E+01 0. -1.
         -5    1    4    4    0  502 -0.70544509782E+02 -0.32310087813E+01  0.71290967737E+01  0.71132842618E+02  0.47000000000E+01 0. -1.
<mgrwt>
<rscale>  0 0.33487689E+03</rscale>
<asrwt>0</asrwt>
<pdfrwt beam="1">  1       21 0.21668038E-01 0.33487689E+03</pdfrwt>
<pdfrwt beam="2">  1       21 0.30624152E-01 0.33487689E+03</pdfrwt>
<totfact> 0.19608295E+05</totfact>
</mgrwt>
</event>
<event>
 8    1  0.4760912E-006  0.4896264E+03  0.7546771E-02  0.1016523E+00
         21   -1    0    0  504  503  0.00000000000E+00  0.00000000000E+00  0.36901825034E+03  0.36901825034E+03  0.00000000000E+00 0.  1.
         21   -1    0    0  503  504 -0.00000000000E+00 -0.00000000000E+00 -0.16241340333E+03  0.16241340333E+03  0.00000000000E+00 0.  1.
         25    2    1    2    0    0 -0.87200976438E+01  0.79262735517E+02  0.31474377463E+03  0.34791694284E+03  0.12499573633E+03 0.  0.
         25    2    1    2    0    0  0.87200976438E+01 -0.79262735517E+02 -0.10813892762E+03  0.18351471083E+03  0.12500000032E+03 0.  0.
          5    1    3    3  501    0 -0.37838816740E+02 -0.18586921690E+02  0.60385658338E+02  0.73795443241E+02  0.47000000000E+01 0. -1.
         -5    1    3    3    0  501  0.29118719096E+02  0.97849657207E+02  0.25435811629E+03  0.27412149960E+03  0.47000000000E+01 0. -1.
          5    1    4    4  502    0  0.18859709820E+02 -0.15931619749E+02 -0.11603203148E+03  0.11872248099E+03  0.47000000000E+01 0. -1.
         -5    1    4    4    0  502 -0.10139612176E+02 -0.63331115768E+02  0.78931038645E+01  0.64792229843E+02  0.47000000000E+01 0. -1.
<mgrwt>
<rscale>  0 0.48962643E+03</rscale>
<asrwt>0</asrwt>
<pdfrwt beam="1">  1       21 0.56772038E-01 0.48962643E+03</pdfrwt>
<pdfrwt beam="2">  1       21 0.24986677E-01 0.48962643E+03</pdfrwt>
<totfact> 0.40196522E+04</totfact>
</mgrwt>
</event>
<event>
 8    1  0.4760912E-006  0.6810040E+03  0.7546771E-02  0.9750281E-01
         21   -1    0    0  504  503  0.00000000000E+00  0.00000000000E+00  0.33400207972E+03  0.33400207972E+03  0.00000000000E+00 0. -1.
         21   -1    0    0  503  504 -0.00000000000E+00 -0.00000000000E+00 -0.34712838788E+03  0.34712838788E+03  0.00000000000E+00 0. -1.
         25    2    1    2    0    0 -0.41274280381E+02 -0.30845815352E+03  0.52307829402E+02  0.33943208713E+03  0.12501213566E+03 0.  0.
         25    2    1    2    0    0  0.41274280381E+02  0.30845815352E+03 -0.65434137563E+02  0.34169838046E+03  0.12500463254E+03 0.  0.
          5    1    3    3  501    0 -0.37548779975E+01 -0.29180597863E+03  0.32685935886E+02  0.29369250702E+03  0.47000000000E+01 0. -1.
         -5    1    3    3    0  501 -0.37519402384E+02 -0.16652174890E+02  0.19621893516E+02  0.45739580114E+02  0.47000000000E+01 0. -1.
          5    1    4    4  502    0  0.85508051595E+01  0.58805026262E+02 -0.67241920640E+02  0.89859408377E+02  0.47000000000E+01 0.  1.
         -5    1    4    4    0  502  0.32723475222E+02  0.24965312726E+03  0.18077830767E+01  0.25183897208E+03  0.47000000000E+01 0.  1.
<mgrwt>
<rscale>  0 0.68100397E+03</rscale>
<asrwt>0</asrwt>
<pdfrwt beam="1">  1       21 0.51384935E-01 0.68100397E+03</pdfrwt>
<pdfrwt beam="2">  1       21 0.53404367E-01 0.68100397E+03</pdfrwt>
<totfact> 0.10118485E+04</totfact>
</mgrwt>
</event>
<event>
 8    1  0.4760912E-006  0.2678455E+03  0.7546771E-02  0.1102519E+00
         21   -1    0    0  504  503  0.00000000000E+00  0.00000000000E+00  0.46215128406E+03  0.46215128406E+03  0.00000000000E+00 0.  1.
         21   -1    0    0  503  504 -0.00000000000E+00 -0.00000000000E+00 -0.38808298607E+02  0.38808298607E+02  0.00000000000E+00 0.  1.
         25    2    1    2    0    0 -0.38411293435E+02  0.27499689141E+02  0.22824659781E+03  0.26448734846E+03  0.12500155085E+03 0.  0.
         25    2    1    2    0    0  0.38411293435E+02 -0.27499689141E+02  0.19509638764E+03  0.23647223421E+03  0.12499942686E+03 0.  0.
          5    1    3    3  501    0  0.42710333865E+01  0.70976020392E+02  0.10462030454E+03  0.12658331375E+03  0.47000000000E+01 0.  1.
         -5    1    3    3    0  501 -0.42682326821E+02 -0.43476331250E+02  0.12362629327E+03  0.13790403471E+03  0.47000000000E+01 0.  1.
          5    1    4    4  502    0 -0.14991820718E+01 -0.49430569667E+02  0.18228473392E+03  0.18893237675E+03  0.47000000000E+01 0.  1.
         -5    1    4    4    0  502  0.39910475507E+02  0.21930880525E+02  0.12811653718E+02  0.47539857454E+02  0.47000000000E+01 0.  1.
<mgrwt>
<rscale>  0 0.26784552E+03</rscale>
<asrwt>0</asrwt>
<pdfrwt beam="1">  1       21 0.71100194E-01 0.26784552E+03</pdfrwt>
<pdfrwt beam="2">  1       21 0.59705078E-02 0.26784552E+03</pdfrwt>
<totfact> 0.34951535E+05</totfact>
</mgrwt>
</event>
<event>
 8    1  0.4760912E-006  0.2603973E+03  0.7546771E-02  0.1106905E+00
         21   -1    0    0  504  503  0.00000000000E+00  0.00000000000E+00  0.46515799016E+03  0.46515799016E+03  0.00000000000E+00 0.  1.
         21   -1    0    0  503  504 -0.00000000000E+00 -0.00000000000E+00 -0.36442869793E+02  0.36442869793E+02  0.00000000000E+00 0.  1.
         25    2    1    2    0    0  0.11810943525E+02  0.15941917078E+02  0.27316569348E+03  0.30106538193E+03  0.12500889965E+03 0.  0.
         25    2    1    2    0    0 -0.11810943525E+02 -0.15941917078E+02  0.15554942689E+03  0.20053547803E+03  0.12500084254E+03 0.  0.
          5    1    3    3  501    0  0.62919429119E+02 -0.14661567334E+02  0.16882234886E+03  0.18082281823E+03  0.47000000000E+01 0.  1.
         -5    1    3    3    0  501 -0.51108485594E+02  0.30603484412E+02  0.10434334462E+03  0.12024256370E+03  0.47000000000E+01 0.  1.
          5    1    4    4  502    0 -0.41910384235E+02 -0.54285124612E+02  0.12545982134E+03  0.14305807153E+03  0.47000000000E+01 0. -1.
         -5    1    4    4    0  502  0.30099440710E+02  0.38343207535E+02  0.30089605547E+02  0.57477406492E+02  0.47000000000E+01 0. -1.
<mgrwt>
<rscale>  0 0.26039733E+03</rscale>
<asrwt>0</asrwt>
<pdfrwt beam="1">  1       21 0.71562763E-01 0.26039733E+03</pdfrwt>
<pdfrwt beam="2">  1       21 0.56065957E-02 0.26039733E+03</pdfrwt>
<totfact> 0.38445949E+05</totfact>
</mgrwt>
</event>
<event>
 8    1  0.4760912E-006  0.2831460E+03  0.7546771E-02  0.1093983E+00
         21   -1    0    0  504  503  0.00000000000E+00  0.00000000000E+00  0.51069683955E+03  0.51069683955E+03  0.00000000000E+00 0.  1.
         21   -1    0    0  503  504 -0.00000000000E+00 -0.00000000000E+00 -0.39246203794E+02  0.39246203794E+02  0.00000000000E+00 0.  1.
         25    2    1    2    0    0 -0.62822197963E+01  0.88986244764E+01  0.36307914258E+03  0.38414864618E+03  0.12500026713E+03 0.  0.
         25    2    1    2    0    0  0.62822197963E+01 -0.88986244764E+01  0.10837149318E+03  0.16579439717E+03  0.12499899917E+03 0.  0.
          5    1    3    3  501    0  0.31664359243E+02  0.27124959340E+02  0.32339335030E+03  0.32610388541E+03  0.47000000000E+01 0. -1.
         -5    1    3    3    0  501 -0.37946579040E+02 -0.18226334864E+02  0.39685792281E+02  0.58044760766E+02  0.47000000000E+01 0. -1.
          5    1    4    4  502    0 -0.12823909098E+01 -0.29467261808E+02  0.13075206012E+03  0.13411992869E+03  0.47000000000E+01 0.  1.
         -5    1    4    4    0  502  0.75646107060E+01  0.20568637332E+02 -0.22380566942E+02  0.31674468479E+02  0.47000000000E+01 0.  1.
<mgrwt>
<rscale>  0 0.28314599E+03</rscale>
<asrwt>0</asrwt>
<pdfrwt beam="1">  1       21 0.78568740E-01 0.28314599E+03</pdfrwt>
<pdfrwt beam="2">  1       21 0.60378779E-02 0.28314599E+03</pdfrwt>
<totfact> 0.27282536E+05</totfact>
</mgrwt>
</event>
<event>
 8    1  0.4760912E-006  0.3317977E+03  0.7546771E-02  0.1070344E+00
         21   -1    0    0  504  503  0.00000000000E+00  0.00000000000E+00  0.49449992829E+02  0.49449992829E+02  0.00000000000E+00 0. -1.
         21   -1    0    0  503  504 -0.00000000000E+00 -0.00000000000E+00 -0.55657106786E+03  0.55657106786E+03  0.00000000000E+00 0. -1.
         25    2    1    2    0    0 -0.41777002491E+02 -0.50260150309E+02 -0.41305653553E+03  0.43647789700E+03  0.12500340947E+03 0.  0.
         25    2    1    2    0    0  0.41777002491E+02  0.50260150309E+02 -0.94064539493E+02  0.16954316368E+03  0.12500138445E+03 0.  0.
          5    1    3    3  501    0 -0.20447942039E+02 -0.87597418851E+02 -0.33852212164E+03  0.35030093201E+03  0.47000000000E+01 0. -1.
         -5    1    3    3    0  501 -0.21329060451E+02  0.37337268542E+02 -0.74534413892E+02  0.86176964997E+02  0.47000000000E+01 0. -1.
          5    1    4    4  502    0 -0.37855417903E+01  0.80572003206E+02 -0.78028858715E+02  0.11232439993E+03  0.47000000000E+01 0.  1.
         -5    1    4    4    0  502  0.45562544281E+02 -0.30311852897E+02 -0.16035680778E+02  0.57218763753E+02  0.47000000000E+01 0.  1.
<mgrwt>
<rscale>  0 0.33179774E+03</rscale>
<asrwt>0</asrwt>
<pdfrwt beam="1">  1       21 0.76076920E-02 0.33179774E+03</pdfrwt>
<pdfrwt beam="2">  1       21 0.85626309E-01 0.33179774E+03</pdfrwt>
<totfact> 0.14799974E+05</totfact>
</mgrwt>
</event>
<event>
 8    1  0.4760912E-006  0.2523171E+03  0.7546771E-02  0.1111849E+00
         21   -1    0    0  504  503  0.00000000000E+00  0.00000000000E+00  0.10059156313E+03  0.10059156313E+03  0.00000000000E+00 0.  1.
         21   -1    0    0  503  504 -0.00000000000E+00 -0.00000000000E+00 -0.15822382593E+03  0.15822382593E+03  0.00000000000E+00 0.  1.
         25    2    1    2    0    0 -0.12903063174E+02 -0.84559715461E+01 -0.36270439016E+02  0.13106584400E+03  0.12499887288E+03 0.  0.
         25    2    1    2    0    0  0.12903063174E+02  0.84559715461E+01 -0.21361823782E+02  0.12774954506E+03  0.12500250499E+03 0.  0.
          5    1    3    3  501    0 -0.18045485437E+02 -0.60174561540E+02 -0.45969406934E+02  0.77986497389E+02  0.47000000000E+01 0. -1.
         -5    1    3    3    0  501  0.51424222629E+01  0.51718589994E+02  0.96989679178E+01  0.53079346608E+02  0.47000000000E+01 0. -1.
          5    1    4    4  502    0  0.22968344542E+02 -0.48755332855E+02 -0.39191546335E+02  0.66803402885E+02  0.47000000000E+01 0. -1.
         -5    1    4    4    0  502 -0.10065281368E+02  0.57211304401E+02  0.17829722553E+02  0.60946142180E+02  0.47000000000E+01 0. -1.
<mgrwt>
<rscale>  0 0.25231712E+03</rscale>
<asrwt>0</asrwt>
<pdfrwt beam="1">  1       21 0.15475625E-01 0.25231712E+03</pdfrwt>
<pdfrwt beam="2">  1       21 0.24342127E-01 0.25231712E+03</pdfrwt>
<totfact> 0.58432700E+05</totfact>
</mgrwt>
</event>
<event>
 8    1  0.4760912E-006  0.7984577E+03  0.7546771E-02  0.9562252E-01
         21   -1    0    0  504  503  0.00000000000E+00  0.00000000000E+00  0.76538166618E+03  0.76538166618E+03  0.00000000000E+00 0. -1.
         21   -1    0    0  503  504 -0.00000000000E+00 -0.00000000000E+00 -0.20824079186E+03  0.20824079186E+03  0.00000000000E+00 0. -1.
         25    2    1    2    0    0 -0.22036893620E+03  0.55441549674E+01  0.65473290029E+03  0.70206505639E+03  0.12500786766E+03 0.  0.
         25    2    1    2    0    0  0.22036893620E+03 -0.55441549674E+01 -0.97592025977E+02  0.27155740166E+03  0.12500405259E+03 0.  0.
          5    1    3    3  501    0 -0.19863930293E+03  0.48936575997E+02  0.52457065709E+03  0.56307088845E+03  0.47000000000E+01 0. -1.
         -5    1    3    3    0  501 -0.21729633269E+02 -0.43392421029E+02  0.13016224320E+03  0.13899416794E+03  0.47000000000E+01 0. -1.
          5    1    4    4  502    0 -0.15841456963E+02 -0.42796613397E+01 -0.83729317960E+01  0.19012186796E+02  0.47000000000E+01 0. -1.
         -5    1    4    4    0  502  0.23621039316E+03 -0.12644936277E+01 -0.89219094181E+02  0.25254521486E+03  0.47000000000E+01 0. -1.
<mgrwt>
<rscale>  0 0.79845772E+03</rscale>
<asrwt>0</asrwt>
<pdfrwt beam="1">  1       21 0.11775102E+00 0.79845772E+03</pdfrwt>
<pdfrwt beam="2">  1       21 0.32037045E-01 0.79845772E+03</pdfrwt>
<totfact> 0.41559639E+03</totfact>
</mgrwt>
</event>
<event>
 8    1  0.4760912E-006  0.5327979E+03  0.7546771E-02  0.1005556E+00
         21   -1    0    0  504  503  0.00000000000E+00  0.00000000000E+00  0.95796674489E+02  0.95796674489E+02  0.00000000000E+00 0. -1.
         21   -1    0    0  503  504 -0.00000000000E+00 -0.00000000000E+00 -0.74082319301E+03  0.74082319301E+03  0.00000000000E+00 0. -1.
         25    2    1    2    0    0 -0.13719644197E+03  0.94107255836E+02 -0.58367690180E+03  0.61966117028E+03  0.12498880336E+03 0.  0.
         25    2    1    2    0    0  0.13719644197E+03 -0.94107255836E+02 -0.61349616723E+02  0.21695869722E+03  0.12501304547E+03 0.  0.
          5    1    3    3  501    0 -0.12969086931E+03  0.82562892482E+02 -0.31456778014E+03  0.35015900831E+03  0.47000000000E+01 0.  1.
         -5    1    3    3    0  501 -0.75055726676E+01  0.11544363353E+02 -0.26910912166E+03  0.26950216197E+03  0.47000000000E+01 0.  1.
          5    1    4    4  502    0  0.80221269835E+02 -0.12000136122E+03 -0.33277015020E+02  0.14820670888E+03  0.47000000000E+01 0.  1.
         -5    1    4    4    0  502  0.56975172139E+02  0.25894105389E+02 -0.28072601702E+02  0.68751988339E+02  0.47000000000E+01 0.  1.
<mgrwt>
<rscale>  0 0.53279789E+03</rscale>
<asrwt>0</asrwt>
<pdfrwt beam="1">  1       21 0.14737950E-01 0.53279789E+03</pdfrwt>
<pdfrwt beam="2">  1       21 0.11397279E+00 0.53279789E+03</pdfrwt>
<totfact> 0.21433277E+04</totfact>
</mgrwt>
</event>
<event>
 8    1  0.4760912E-006  0.3091154E+03  0.7546771E-02  0.1080771E+00
         21   -1    0    0  504  503  0.00000000000E+00  0.00000000000E+00  0.65156447726E+02  0.65156447726E+02  0.00000000000E+00 0.  1.
         21   -1    0    0  503  504 -0.00000000000E+00 -0.00000000000E+00 -0.36662645007E+03  0.36662645007E+03  0.00000000000E+00 0.  1.
         25    2    1    2    0    0 -0.71406080979E+02 -0.50692638567E+02 -0.18455378920E+03  0.23948618576E+03  0.12499984024E+03 0.  0.
         25    2    1    2    0    0  0.71406080979E+02  0.50692638567E+02 -0.11691621314E+03  0.19229671203E+03  0.12506019573E+03 0.  0.
          5    1    3    3  501    0 -0.42592049152E+01  0.36774171395E+02 -0.23014936321E+02  0.43843560555E+02  0.47000000000E+01 0. -1.
         -5    1    3    3    0  501 -0.67146876064E+02 -0.87466809962E+02 -0.16153885288E+03  0.19564262521E+03  0.47000000000E+01 0. -1.
          5    1    4    4  502    0  0.52600189158E+02 -0.19379020528E+02 -0.19697747669E+01  0.56287621630E+02  0.47000000000E+01 0. -1.
         -5    1    4    4    0  502  0.18805891821E+02  0.70071659095E+02 -0.11494643838E+03  0.13600909040E+03  0.47000000000E+01 0. -1.
<mgrwt>
<rscale>  0 0.30911536E+03</rscale>
<asrwt>0</asrwt>
<pdfrwt beam="1">  1       21 0.10024069E-01 0.30911536E+03</pdfrwt>
<pdfrwt beam="2">  1       21 0.56404068E-01 0.30911536E+03</pdfrwt>
<totfact> 0.23186120E+05</totfact>
</mgrwt>
</event>
<event>
 8    1  0.4760912E-006  0.4705206E+03  0.7546771E-02  0.1021773E+00
         21   -1    0    0  504  503  0.00000000000E+00  0.00000000000E+00  0.25472689605E+04  0.25472689605E+04  0.00000000000E+00 0. -1.
         21   -1    0    0  503  504 -0.00000000000E+00 -0.00000000000E+00 -0.21728135195E+02  0.21728135195E+02  0.00000000000E+00 0. -1.
         25    2    1    2    0    0 -0.18593037137E+03 -0.59962353946E+02  0.10468572658E+04  0.10722350065E+04  0.12494873883E+03 0.  0.
         25    2    1    2    0    0  0.18593037137E+03  0.59962353946E+02  0.14786835595E+04  0.14967620891E+04  0.12500438225E+03 0.  0.
          5    1    3    3  501    0 -0.36567196516E+02 -0.42702803750E+02  0.55572249415E+03  0.55857879463E+03  0.47000000000E+01 0.  1.
         -5    1    3    3    0  501 -0.14936317486E+03 -0.17259550195E+02  0.49113477168E+03  0.51365621191E+03  0.47000000000E+01 0.  1.
          5    1    4    4  502    0 -0.15132259403E+02  0.20879961543E+02  0.13129661861E+03  0.13388745321E+03  0.47000000000E+01 0. -1.
         -5    1    4    4    0  502  0.20106263078E+03  0.39082392403E+02  0.13473869408E+04  0.13628746359E+04  0.47000000000E+01 0. -1.
<mgrwt>
<rscale>  0 0.47052058E+03</rscale>
<asrwt>0</asrwt>
<pdfrwt beam="1">  1       21 0.39188730E+00 0.47052058E+03</pdfrwt>
<pdfrwt beam="2">  1       21 0.33427920E-02 0.47052058E+03</pdfrwt>
<totfact> 0.41266574E+03</totfact>
</mgrwt>
</event>
<event>
 8    1  0.4760912E-006  0.2644093E+03  0.7546771E-02  0.1104523E+00
         21   -1    0    0  504  503  0.00000000000E+00  0.00000000000E+00  0.34823761004E+02  0.34823761004E+02  0.00000000000E+00 0.  1.
         21   -1    0    0  503  504 -0.00000000000E+00 -0.00000000000E+00 -0.50190070330E+03  0.50190070330E+03  0.00000000000E+00 0.  1.
         25    2    1    2    0    0  0.17253313444E+02  0.33702549222E+02 -0.19194964310E+03  0.23216981073E+03  0.12499846750E+03 0.  0.
         25    2    1    2    0    0 -0.17253313444E+02 -0.33702549222E+02 -0.27512729920E+03  0.30455465358E+03  0.12499987041E+03 0.  0.
          5    1    3    3  501    0  0.21298906368E+02 -0.13272536223E+02  0.79421397578E+01  0.26738945645E+02  0.47000000000E+01 0. -1.
         -5    1    3    3    0  501 -0.40455929240E+01  0.46975085445E+02 -0.19989178286E+03  0.20543086508E+03  0.47000000000E+01 0. -1.
          5    1    4    4  502    0  0.36489059130E+02 -0.93397976821E+01 -0.22134843683E+03  0.22457939297E+03  0.47000000000E+01 0.  1.
         -5    1    4    4    0  502 -0.53742372574E+02 -0.24362751540E+02 -0.53778862364E+02  0.79975260610E+02  0.47000000000E+01 0.  1.
<mgrwt>
<rscale>  0 0.26440930E+03</rscale>
<asrwt>0</asrwt>
<pdfrwt beam="1">  1       21 0.53575017E-02 0.26440930E+03</pdfrwt>
<pdfrwt beam="2">  1       21 0.77215493E-01 0.26440930E+03</pdfrwt>
<totfact> 0.35004193E+05</totfact>
</mgrwt>
</event>
<event>
 8    1  0.4760912E-006  0.4826959E+03  0.7546771E-02  0.1018397E+00
         21   -1    0    0  504  503  0.00000000000E+00  0.00000000000E+00  0.65713169288E+03  0.65713169288E+03  0.00000000000E+00 0. -1.
         21   -1    0    0  503  504 -0.00000000000E+00 -0.00000000000E+00 -0.88641019354E+02  0.88641019354E+02  0.00000000000E+00 0. -1.
         25    2    1    2    0    0  0.20463436932E+03  0.22329717165E+02  0.30871730409E+03  0.39153915377E+03  0.12499077453E+03 0.  0.
         25    2    1    2    0    0 -0.20463436932E+03 -0.22329717165E+02  0.25977336943E+03  0.35423355846E+03  0.12500147638E+03 0.  0.
          5    1    3    3  501    0  0.10005241707E+03  0.73451077131E+02  0.15327510277E+03  0.19728379057E+03  0.47000000000E+01 0.  1.
         -5    1    3    3    0  501  0.10458195225E+03 -0.51121359966E+02  0.15544220132E+03  0.19425536320E+03  0.47000000000E+01 0.  1.
          5    1    4    4  502    0 -0.15644955362E+03 -0.70425998292E+02  0.17121320156E+03  0.24243006095E+03  0.47000000000E+01 0.  1.
         -5    1    4    4    0  502 -0.48184815697E+02  0.48096281126E+02  0.88560167868E+02  0.11180349751E+03  0.47000000000E+01 0.  1.
<mgrwt>
<rscale>  0 0.48269586E+03</rscale>
<asrwt>0</asrwt>
<pdfrwt beam="1">  1       21 0.10109718E+00 0.48269586E+03</pdfrwt>
<pdfrwt beam="2">  1       21 0.13637080E-01 0.48269586E+03</pdfrwt>
<totfact> 0.33689655E+04</totfact>
</mgrwt>
</event>
<event>
 8    1  0.4760912E-006  0.3222870E+03  0.7546771E-02  0.1074602E+00
         21   -1    0    0  504  503  0.00000000000E+00  0.00000000000E+00  0.16383778165E+03  0.16383778165E+03  0.00000000000E+00 0. -1.
         21   -1    0    0  503  504 -0.00000000000E+00 -0.00000000000E+00 -0.15849356706E+03  0.15849356706E+03  0.00000000000E+00 0. -1.
         25    2    1    2    0    0  0.50011876929E+02  0.59796739624E+02  0.67989838897E+02  0.16224870608E+03  0.12500074610E+03 0.  0.
         25    2    1    2    0    0 -0.50011876929E+02 -0.59796739624E+02 -0.62645624305E+02  0.16008264264E+03  0.12500056130E+03 0.  0.
          5    1    3    3  501    0  0.38105484729E+02 -0.30731507903E+02  0.15036272385E+01  0.49201671102E+02  0.47000000000E+01 0.  1.
         -5    1    3    3    0  501  0.11906392200E+02  0.90528247527E+02  0.66486211659E+02  0.11304703497E+03  0.47000000000E+01 0.  1.
          5    1    4    4  502    0 -0.39880741316E+02 -0.54531262808E+01 -0.89647122143E+02  0.98381434340E+02  0.47000000000E+01 0.  1.
         -5    1    4    4    0  502 -0.10131135613E+02 -0.54343613343E+02  0.27001497838E+02  0.61701208299E+02  0.47000000000E+01 0.  1.
<mgrwt>
<rscale>  0 0.32228704E+03</rscale>
<asrwt>0</asrwt>
<pdfrwt beam="1">  1       21 0.25205813E-01 0.32228704E+03</pdfrwt>
<pdfrwt beam="2">  1       21 0.24383626E-01 0.32228704E+03</pdfrwt>
<totfact> 0.22943728E+05</totfact>
</mgrwt>
</event>
<event>
 8    1  0.4760912E-006  0.3548032E+03  0.7546771E-02  0.1060661E+00
         21   -1    0    0  504  503  0.00000000000E+00  0.00000000000E+00  0.38866556746E+03  0.38866556746E+03  0.00000000000E+00 0. -1.
         21   -1    0    0  503  504 -0.00000000000E+00 -0.00000000000E+00 -0.80972777363E+02  0.80972777363E+02  0.00000000000E+00 0. -1.
         25    2    1    2    0    0 -0.10973664648E+03 -0.56246486696E+02  0.12031503515E+03  0.21285300680E+03  0.12499958391E+03 0.  0.
         25    2    1    2    0    0  0.10973664648E+03  0.56246486696E+02  0.18737775495E+03  0.25678533802E+03  0.12498995130E+03 0.  0.
          5    1    3    3  501    0 -0.52875232581E+02 -0.72391939329E+02  0.12441057646E+03  0.15341598560E+03  0.47000000000E+01 0. -1.
         -5    1    3    3    0  501 -0.56861413898E+02  0.16145452633E+02 -0.40955413195E+01  0.59437021207E+02  0.47000000000E+01 0. -1.
          5    1    4    4  502    0  0.10878292296E+03  0.75126830631E+02  0.96244954635E+02  0.16359384555E+03  0.47000000000E+01 0.  1.
         -5    1    4    4    0  502  0.95372351869E+00 -0.18880343935E+02  0.91132800314E+02  0.93191492470E+02  0.47000000000E+01 0.  1.
<mgrwt>
<rscale>  0 0.35480322E+03</rscale>
<asrwt>0</asrwt>
<pdfrwt beam="1">  1       21 0.59794702E-01 0.35480322E+03</pdfrwt>
<pdfrwt beam="2">  1       21 0.12457351E-01 0.35480322E+03</pdfrwt>
<totfact> 0.13678810E+05</totfact>
</mgrwt>
</event>
<event>
 8    1  0.4760912E-006  0.3009191E+03  0.7546771E-02  0.1084782E+00
         21   -1    0    0  504  503  0.00000000000E+00  0.00000000000E+00  0.54476915896E+02  0.54476915896E+02  0.00000000000E+00 0. -1.
         21   -1    0    0  503  504 -0.00000000000E+00 -0.00000000000E+00 -0.41555356371E+03  0.41555356371E+03  0.00000000000E+00 0. -1.
         25    2    1    2    0    0  0.40096756974E+02  0.19240259105E+02 -0.29138062996E+03  0.32016407425E+03  0.12499770172E+03 0.  0.
         25    2    1    2    0    0 -0.40096756974E+02 -0.19240259105E+02 -0.69696017851E+02  0.14986640535E+03  0.12499786822E+03 0.  0.
          5    1    3    3  501    0 -0.43568863587E+02  0.90511029636E+01 -0.68365707458E+02  0.81707577955E+02  0.47000000000E+01 0.  1.
         -5    1    3    3    0  501  0.83665620561E+02  0.10189156142E+02 -0.22301492250E+03  0.23845649629E+03  0.47000000000E+01 0.  1.
          5    1    4    4  502    0 -0.24763016700E+01  0.93303066632E+01  0.34088707641E+02  0.35739567443E+02  0.47000000000E+01 0. -1.
         -5    1    4    4    0  502 -0.37620455304E+02 -0.28570565769E+02 -0.10378472549E+03  0.11412683791E+03  0.47000000000E+01 0. -1.
<mgrwt>
<rscale>  0 0.30091910E+03</rscale>
<asrwt>0</asrwt>
<pdfrwt beam="1">  1       21 0.83810638E-02 0.30091910E+03</pdfrwt>
<pdfrwt beam="2">  1       21 0.63931319E-01 0.30091910E+03</pdfrwt>
<totfact> 0.24307875E+05</totfact>
</mgrwt>
</event>
<event>
 8    1  0.4760912E-006  0.3695881E+03  0.7546771E-02  0.1054851E+00
         21   -1    0    0  504  503  0.00000000000E+00  0.00000000000E+00  0.29985634334E+03  0.29985634334E+03  0.00000000000E+00 0. -1.
         21   -1    0    0  503  504 -0.00000000000E+00 -0.00000000000E+00 -0.11388402546E+03  0.11388402546E+03  0.00000000000E+00 0. -1.
         25    2    1    2    0    0  0.57100898339E+02 -0.12297761769E+03  0.10644081064E+03  0.21290252246E+03  0.12495531543E+03 0.  0.
         25    2    1    2    0    0 -0.57100898339E+02  0.12297761769E+03  0.79531507240E+02  0.20083784635E+03  0.12500629119E+03 0.  0.
          5    1    3    3  501    0  0.25441894712E+02 -0.12206666503E+03  0.12439576134E+03  0.17619295150E+03  0.47000000000E+01 0.  1.
         -5    1    3    3    0  501  0.31659003627E+02 -0.91095265703E+00 -0.17954950697E+02  0.36709570958E+02  0.47000000000E+01 0.  1.
          5    1    4    4  502    0 -0.29269677664E+02  0.13902830657E+03  0.36199666661E+02  0.14669045614E+03  0.47000000000E+01 0.  1.
         -5    1    4    4    0  502 -0.27831220676E+02 -0.16050688876E+02  0.43331840579E+02  0.54147390202E+02  0.47000000000E+01 0.  1.
<mgrwt>
<rscale>  0 0.36958814E+03</rscale>
<asrwt>0</asrwt>
<pdfrwt beam="1">  1       21 0.46131745E-01 0.36958814E+03</pdfrwt>
<pdfrwt beam="2">  1       21 0.17520619E-01 0.36958814E+03</pdfrwt>
<totfact> 0.12642222E+05</totfact>
</mgrwt>
</event>
<event>
 8    1  0.4760912E-006  0.3282448E+03  0.7546771E-02  0.1071916E+00
         21   -1    0    0  504  503  0.00000000000E+00  0.00000000000E+00  0.62157739360E+03  0.62157739360E+03  0.00000000000E+00 0. -1.
         21   -1    0    0  503  504 -0.00000000000E+00 -0.00000000000E+00 -0.43335170630E+02  0.43335170630E+02  0.00000000000E+00 0. -1.
         25    2    1    2    0    0 -0.26783139646E+02  0.47478888538E+02  0.47411644507E+03  0.49333832294E+03  0.12499886387E+03 0.  0.
         25    2    1    2    0    0  0.26783139646E+02 -0.47478888538E+02  0.10412577790E+03  0.17157424129E+03  0.12499584483E+03 0.  0.
          5    1    3    3  501    0 -0.68403340643E+02 -0.46493344323E+01  0.21399121782E+03  0.22475534394E+03  0.47000000000E+01 0. -1.
         -5    1    3    3    0  501  0.41620200997E+02  0.52128222970E+02  0.26012522725E+03  0.26858297901E+03  0.47000000000E+01 0. -1.
          5    1    4    4  502    0  0.39617678786E+02 -0.11160732831E+02  0.12200641863E+03  0.12884788945E+03  0.47000000000E+01 0. -1.
         -5    1    4    4    0  502 -0.12834539140E+02 -0.36318155706E+02 -0.17880640726E+02  0.42726351841E+02  0.47000000000E+01 0. -1.
<mgrwt>
<rscale>  0 0.32824480E+03</rscale>
<asrwt>0</asrwt>
<pdfrwt beam="1">  1       21 0.95627285E-01 0.32824480E+03</pdfrwt>
<pdfrwt beam="2">  1       21 0.66669498E-02 0.32824480E+03</pdfrwt>
<totfact> 0.14389748E+05</totfact>
</mgrwt>
</event>
<event>
 8    1  0.4760912E-006  0.3472142E+03  0.7546771E-02  0.1063764E+00
         21   -1    0    0  504  503  0.00000000000E+00  0.00000000000E+00  0.55263470103E+02  0.55263470103E+02  0.00000000000E+00 0. -1.
         21   -1    0    0  503  504 -0.00000000000E+00 -0.00000000000E+00 -0.54537708519E+03  0.54537708519E+03  0.00000000000E+00 0. -1.
         25    2    1    2    0    0 -0.68318160470E+02 -0.54300873908E+02 -0.10135459718E+03  0.18305859183E+03  0.12498695018E+03 0.  0.
         25    2    1    2    0    0  0.68318160470E+02  0.54300873908E+02 -0.38875901791E+03  0.41758196347E+03  0.12500066500E+03 0.  0.
          5    1    3    3  501    0  0.24801064145E+02 -0.52547801627E+02 -0.29517880034E+02  0.65343396608E+02  0.47000000000E+01 0.  1.
         -5    1    3    3    0  501 -0.93119224615E+02 -0.17530722808E+01 -0.71836717144E+02  0.11771519522E+03  0.47000000000E+01 0.  1.
          5    1    4    4  502    0  0.33594816805E+01  0.57801503842E+02 -0.64389941392E+02  0.86720554173E+02  0.47000000000E+01 0. -1.
         -5    1    4    4    0  502  0.64958678789E+02 -0.35006299341E+01 -0.32436907652E+03  0.33086140929E+03  0.47000000000E+01 0. -1.
<mgrwt>
<rscale>  0 0.34721423E+03</rscale>
<asrwt>0</asrwt>
<pdfrwt beam="1">  1       21 0.85020724E-02 0.34721423E+03</pdfrwt>
<pdfrwt beam="2">  1       21 0.83904166E-01 0.34721423E+03</pdfrwt>
<totfact> 0.12707875E+05</totfact>
</mgrwt>
</event>
<event>
 8    1  0.4760912E-006  0.2795398E+03  0.7546771E-02  0.1095941E+00
         21   -1    0    0  504  503  0.00000000000E+00  0.00000000000E+00  0.11416391471E+03  0.11416391471E+03  0.00000000000E+00 0. -1.
         21   -1    0    0  503  504 -0.00000000000E+00 -0.00000000000E+00 -0.17111906969E+03  0.17111906969E+03  0.00000000000E+00 0. -1.
         25    2    1    2    0    0  0.24150217596E+02 -0.11744637676E+02  0.29158593968E+02  0.13113618703E+03  0.12500122568E+03 0.  0.
         25    2    1    2    0    0 -0.24150217596E+02  0.11744637676E+02 -0.86113748942E+02  0.15414679737E+03  0.12499795142E+03 0.  0.
          5    1    3    3  501    0  0.38932714429E+02 -0.60410304115E+02 -0.59323225350E+00  0.72025016630E+02  0.47000000000E+01 0.  1.
         -5    1    3    3    0  501 -0.14782496833E+02  0.48665666439E+02  0.29751826222E+02  0.59111170400E+02  0.47000000000E+01 0.  1.
          5    1    4    4  502    0 -0.34083815692E+02 -0.39022906135E+02  0.17759350390E+01  0.52055140386E+02  0.47000000000E+01 0. -1.
         -5    1    4    4    0  502  0.99335980958E+01  0.50767543812E+02 -0.87889683981E+02  0.10209165699E+03  0.47000000000E+01 0. -1.
<mgrwt>
<rscale>  0 0.27953979E+03</rscale>
<asrwt>0</asrwt>
<pdfrwt beam="1">  1       21 0.17563679E-01 0.27953979E+03</pdfrwt>
<pdfrwt beam="2">  1       21 0.26326011E-01 0.27953979E+03</pdfrwt>
<totfact> 0.39578338E+05</totfact>
</mgrwt>
</event>
<event>
 8    1  0.4760912E-006  0.3792786E+03  0.7546771E-02  0.1051201E+00
         21   -1    0    0  504  503  0.00000000000E+00  0.00000000000E+00  0.18603284010E+03  0.18603284010E+03  0.00000000000E+00 0. -1.
         21   -1    0    0  503  504 -0.00000000000E+00 -0.00000000000E+00 -0.19331570034E+03  0.19331570034E+03  0.00000000000E+00 0. -1.
         25    2    1    2    0    0  0.73997155296E+02 -0.63637664683E+02  0.10034371276E+03  0.18766858993E+03  0.12500123038E+03 0.  0.
         25    2    1    2    0    0 -0.73997155296E+02  0.63637664683E+02 -0.10762657300E+03  0.19167995051E+03  0.12502956791E+03 0.  0.
          5    1    3    3  501    0  0.79115416909E+02  0.93674237582E+01  0.27785891036E+02  0.84505287179E+02  0.47000000000E+01 0. -1.
         -5    1    3    3    0  501 -0.51182616133E+01 -0.73005088441E+02  0.72557821727E+02  0.10316330275E+03  0.47000000000E+01 0. -1.
          5    1    4    4  502    0 -0.68288515059E+02  0.93849213342E+02 -0.50557200597E+02  0.12668510830E+03  0.47000000000E+01 0.  1.
         -5    1    4    4    0  502 -0.57086402365E+01 -0.30211548659E+02 -0.57069372408E+02  0.64994842201E+02  0.47000000000E+01 0.  1.
<mgrwt>
<rscale>  0 0.37927862E+03</rscale>
<asrwt>0</asrwt>
<pdfrwt beam="1">  1       21 0.28620437E-01 0.37927862E+03</pdfrwt>
<pdfrwt beam="2">  1       21 0.29740877E-01 0.37927862E+03</pdfrwt>
<totfact> 0.12012414E+05</totfact>
</mgrwt>
</event>
<event>
 8    1  0.4760912E-006  0.4675009E+03  0.7546771E-02  0.1022628E+00
         21   -1    0    0  504  503  0.00000000000E+00  0.00000000000E+00  0.16797156144E+03  0.16797156144E+03  0.00000000000E+00 0.  1.
         21   -1    0    0  503  504 -0.00000000000E+00 -0.00000000000E+00 -0.32528886656E+03  0.32528886656E+03  0.00000000000E+00 0.  1.
         25    2    1    2    0    0  0.16667250156E+03 -0.83619976033E+02 -0.14737025453E+03  0.26854267838E+03  0.12500062009E+03 0.  0.
         25    2    1    2    0    0 -0.16667250156E+03  0.83619976033E+02 -0.99470505924E+01  0.22471774961E+03  0.12500839974E+03 0.  0.
          5    1    3    3  501    0  0.33987073279E+01 -0.43667193578E+02 -0.71686095117E+02  0.84138940091E+02  0.47000000000E+01 0.  1.
         -5    1    3    3    0  501  0.16327379424E+03 -0.39952782456E+02 -0.75684159416E+02  0.18440373829E+03  0.47000000000E+01 0.  1.
          5    1    4    4  502    0 -0.14332797582E+02  0.55378996037E+02 -0.35690239880E+02  0.67588057461E+02  0.47000000000E+01 0.  1.
         -5    1    4    4    0  502 -0.15233970398E+03  0.28240979996E+02  0.25743189288E+02  0.15712969215E+03  0.47000000000E+01 0.  1.
<mgrwt>
<rscale>  0 0.46750093E+03</rscale>
<asrwt>0</asrwt>
<pdfrwt beam="1">  1       21 0.25841779E-01 0.46750093E+03</pdfrwt>
<pdfrwt beam="2">  1       21 0.50044440E-01 0.46750093E+03</pdfrwt>
<totfact> 0.49604313E+04</totfact>
</mgrwt>
</event>
<event>
 8    1  0.4760912E-006  0.3364753E+03  0.7546771E-02  0.1068307E+00
         21   -1    0    0  504  503  0.00000000000E+00  0.00000000000E+00  0.29310042131E+03  0.29310042131E+03  0.00000000000E+00 0.  1.
         21   -1    0    0  503  504 -0.00000000000E+00 -0.00000000000E+00 -0.96567243711E+02  0.96567243711E+02  0.00000000000E+00 0.  1.
         25    2    1    2    0    0  0.10363503684E+03 -0.36186209040E+02  0.12724331566E+03  0.20943957002E+03  0.12499763807E+03 0.  0.
         25    2    1    2    0    0 -0.10363503684E+03  0.36186209040E+02  0.69289861943E+02  0.18022809500E+03  0.12502567206E+03 0.  0.
          5    1    3    3  501    0 -0.16575727905E+01  0.30653947755E+02 -0.20888161157E+00  0.31057135928E+02  0.47000000000E+01 0. -1.
         -5    1    3    3    0  501  0.10529260963E+03 -0.66840156795E+02  0.12745219727E+03  0.17838243409E+03  0.47000000000E+01 0. -1.
          5    1    4    4  502    0 -0.11622882393E+03  0.65359865904E+02  0.62751044782E+02  0.14744773720E+03  0.47000000000E+01 0. -1.
         -5    1    4    4    0  502  0.12593787089E+02 -0.29173656864E+02  0.65388171610E+01  0.32780357807E+02  0.47000000000E+01 0. -1.
<mgrwt>
<rscale>  0 0.33647526E+03</rscale>
<asrwt>0</asrwt>
<pdfrwt beam="1">  1       21 0.45092372E-01 0.33647526E+03</pdfrwt>
<pdfrwt beam="2">  1       21 0.14856499E-01 0.33647526E+03</pdfrwt>
<totfact> 0.18134916E+05</totfact>
</mgrwt>
</event>
<event>
 8    1  0.4760912E-006  0.4067098E+03  0.7546771E-02  0.1041481E+00
         21   -1    0    0  504  503  0.00000000000E+00  0.00000000000E+00  0.31888345316E+03  0.31888345316E+03  0.00000000000E+00 0. -1.
         21   -1    0    0  503  504 -0.00000000000E+00 -0.00000000000E+00 -0.12968130069E+03  0.12968130069E+03  0.00000000000E+00 0. -1.
         25    2    1    2    0    0  0.13958734765E+03  0.73738039960E+02  0.63292621655E+02  0.21107404333E+03  0.12499747858E+03 0.  0.
         25    2    1    2    0    0 -0.13958734765E+03 -0.73738039960E+02  0.12590953081E+03  0.23749071051E+03  0.12500680569E+03 0.  0.
          5    1    3    3  501    0 -0.20786949985E+02  0.14871268710E+02  0.24734981539E+02  0.35877029343E+02  0.47000000000E+01 0.  1.
         -5    1    3    3    0  501  0.16037429764E+03  0.58866771250E+02  0.38557640116E+02  0.17519701399E+03  0.47000000000E+01 0.  1.
          5    1    4    4  502    0 -0.34806785943E+02 -0.86353440965E+02  0.77745854250E+02  0.12138754865E+03  0.47000000000E+01 0. -1.
         -5    1    4    4    0  502 -0.10478056171E+03  0.12615401006E+02  0.48163676564E+02  0.11610316186E+03  0.47000000000E+01 0. -1.
<mgrwt>
<rscale>  0 0.40670983E+03</rscale>
<asrwt>0</asrwt>
<pdfrwt beam="1">  1       21 0.49058992E-01 0.40670983E+03</pdfrwt>
<pdfrwt beam="2">  1       21 0.19950969E-01 0.40670983E+03</pdfrwt>
<totfact> 0.86261547E+04</totfact>
</mgrwt>
</event>
<event>
 8    1  0.4760912E-006  0.2644898E+03  0.7546771E-02  0.1104475E+00
         21   -1    0    0  504  503  0.00000000000E+00  0.00000000000E+00  0.50801343719E+03  0.50801343719E+03  0.00000000000E+00 0.  1.
         21   -1    0    0  503  504 -0.00000000000E+00 -0.00000000000E+00 -0.34425683871E+02  0.34425683871E+02  0.00000000000E+00 0.  1.
         25    2    1    2    0    0  0.19192496515E+02 -0.38616838594E+02  0.23230560283E+03  0.26730027316E+03  0.12499572305E+03 0.  0.
         25    2    1    2    0    0 -0.19192496515E+02  0.38616838594E+02  0.24128215049E+03  0.27513884790E+03  0.12499878932E+03 0.  0.
          5    1    3    3  501    0 -0.51458234306E+02 -0.63347727413E+00  0.98131273770E+02  0.11090621291E+03  0.47000000000E+01 0. -1.
         -5    1    3    3    0  501  0.70650730821E+02 -0.37983361319E+02  0.13417432906E+03  0.15639406025E+03  0.47000000000E+01 0. -1.
          5    1    4    4  502    0  0.12556990234E+02  0.35791579662E+01  0.22422518639E+03  0.22465420670E+03  0.47000000000E+01 0.  1.
         -5    1    4    4    0  502 -0.31749486749E+02  0.35037680627E+02  0.17056964096E+02  0.50484641197E+02  0.47000000000E+01 0.  1.
<mgrwt>
<rscale>  0 0.26448977E+03</rscale>
<asrwt>0</asrwt>
<pdfrwt beam="1">  1       21 0.78155908E-01 0.26448977E+03</pdfrwt>
<pdfrwt beam="2">  1       21 0.52962594E-02 0.26448977E+03</pdfrwt>
<totfact> 0.34733424E+05</totfact>
</mgrwt>
</event>
<event>
 8    1  0.4760912E-006  0.4955456E+03  0.7546771E-02  0.1014948E+00
         21   -1    0    0  504  503  0.00000000000E+00  0.00000000000E+00  0.48140629090E+03  0.48140629090E+03  0.00000000000E+00 0.  1.
         21   -1    0    0  503  504 -0.00000000000E+00 -0.00000000000E+00 -0.12752504595E+03  0.12752504595E+03  0.00000000000E+00 0.  1.
         25    2    1    2    0    0  0.17451512503E+03  0.80952554555E+02  0.29199746252E+03  0.37134480793E+03  0.12500241319E+03 0.  0.
         25    2    1    2    0    0 -0.17451512503E+03 -0.80952554555E+02  0.61883782437E+02  0.23758652892E+03  0.12493562840E+03 0.  0.
          5    1    3    3  501    0  0.57533971315E+02 -0.26625483048E+02  0.46117420916E+02  0.78536492885E+02  0.47000000000E+01 0. -1.
         -5    1    3    3    0  501  0.11698115371E+03  0.10757803760E+03  0.24588004160E+03  0.29280831504E+03  0.47000000000E+01 0. -1.
          5    1    4    4  502    0 -0.85392725034E+02  0.26654638778E+02  0.24976646758E+02  0.92996291004E+02  0.47000000000E+01 0. -1.
         -5    1    4    4    0  502 -0.89122399991E+02 -0.10760719333E+03  0.36907135678E+02  0.14459023792E+03  0.47000000000E+01 0. -1.
<mgrwt>
<rscale>  0 0.49554560E+03</rscale>
<asrwt>0</asrwt>
<pdfrwt beam="1">  1       21 0.74062505E-01 0.49554560E+03</pdfrwt>
<pdfrwt beam="2">  1       21 0.19619238E-01 0.49554560E+03</pdfrwt>
<totfact> 0.35385767E+04</totfact>
</mgrwt>
</event>
<event>
 8    1  0.4760912E-006  0.3176926E+03  0.7546771E-02  0.1076716E+00
         21   -1    0    0  504  503  0.00000000000E+00  0.00000000000E+00  0.63585537338E+02  0.63585537338E+02  0.00000000000E+00 0. -1.
         21   -1    0    0  503  504 -0.00000000000E+00 -0.00000000000E+00 -0.39682202434E+03  0.39682202434E+03  0.00000000000E+00 0. -1.
         25    2    1    2    0    0 -0.61841353812E+02 -0.34073052097E+02 -0.26513946228E+03  0.30151083505E+03  0.12499809310E+03 0.  0.
         25    2    1    2    0    0  0.61841353812E+02  0.34073052097E+02 -0.68097024729E+02  0.15889672663E+03  0.12500255612E+03 0.  0.
          5    1    3    3  501    0 -0.66925372295E+02  0.27654556467E+02 -0.89563789935E+02  0.11527160282E+03  0.47000000000E+01 0. -1.
         -5    1    3    3    0  501  0.50840184833E+01 -0.61727608564E+02 -0.17557567234E+03  0.18623923223E+03  0.47000000000E+01 0. -1.
          5    1    4    4  502    0 -0.24363304602E+02 -0.24173462516E+02 -0.32496117206E+00  0.34642784255E+02  0.47000000000E+01 0. -1.
         -5    1    4    4    0  502  0.86204658414E+02  0.58246514613E+02 -0.67772063557E+02  0.12425394237E+03  0.47000000000E+01 0. -1.
<mgrwt>
<rscale>  0 0.31769257E+03</rscale>
<asrwt>0</asrwt>
<pdfrwt beam="1">  1       21 0.97823905E-02 0.31769257E+03</pdfrwt>
<pdfrwt beam="2">  1       21 0.61049542E-01 0.31769257E+03</pdfrwt>
<totfact> 0.20366995E+05</totfact>
</mgrwt>
</event>
<event>
 8    1  0.4760912E-006  0.3913590E+03  0.7546771E-02  0.1046814E+00
         21   -1    0    0  504  503  0.00000000000E+00  0.00000000000E+00  0.76931875706E+02  0.76931875706E+02  0.00000000000E+00 0.  1.
         21   -1    0    0  503  504 -0.00000000000E+00 -0.00000000000E+00 -0.49771912590E+03  0.49771912590E+03  0.00000000000E+00 0.  1.
         25    2    1    2    0    0  0.47146187645E+02  0.54088559794E+02 -0.40472413321E+03  0.42961595144E+03  0.12497962400E+03 0.  0.
         25    2    1    2    0    0 -0.47146187645E+02 -0.54088559794E+02 -0.16063116985E+02  0.14503505017E+03  0.12501522604E+03 0.  0.
          5    1    3    3  501    0  0.81620393733E+02  0.41817630463E+01 -0.26126603104E+03  0.27379080480E+03  0.47000000000E+01 0.  1.
         -5    1    3    3    0  501 -0.34474206088E+02  0.49906796748E+02 -0.14345810217E+03  0.15582514664E+03  0.47000000000E+01 0.  1.
          5    1    4    4  502    0 -0.72847809267E+02 -0.21390747990E+02 -0.50102307770E+02  0.91086215524E+02  0.47000000000E+01 0.  1.
         -5    1    4    4    0  502  0.25701621622E+02 -0.32697811804E+02  0.34039190784E+02  0.53948834649E+02  0.47000000000E+01 0.  1.
<mgrwt>
<rscale>  0 0.39135900E+03</rscale>
<asrwt>0</asrwt>
<pdfrwt beam="1">  1       21 0.11835674E-01 0.39135900E+03</pdfrwt>
<pdfrwt beam="2">  1       21 0.76572168E-01 0.39135900E+03</pdfrwt>
<totfact> 0.85800717E+04</totfact>
</mgrwt>
</event>
<event>
 8    1  0.4760912E-006  0.3388833E+03  0.7546771E-02  0.1067273E+00
         21   -1    0    0  504  503  0.00000000000E+00  0.00000000000E+00  0.17506448024E+04  0.17506448024E+04  0.00000000000E+00 0. -1.
         21   -1    0    0  503  504 -0.00000000000E+00 -0.00000000000E+00 -0.16399937242E+02  0.16399937242E+02  0.00000000000E+00 0. -1.
         25    2    1    2    0    0  0.55836132285E+02 -0.12902239649E+02  0.35090884127E+03  0.37689085867E+03  0.12500225204E+03 0.  0.
         25    2    1    2    0    0 -0.55836132285E+02  0.12902239649E+02  0.13833360239E+04  0.13901538810E+04  0.12500046530E+03 0.  0.
          5    1    3    3  501    0  0.44918969624E+02  0.52513888664E+02  0.20901038326E+03  0.22018822095E+03  0.47000000000E+01 0.  1.
         -5    1    3    3    0  501  0.10917162661E+02 -0.65416128313E+02  0.14189845800E+03  0.15670263772E+03  0.47000000000E+01 0.  1.
          5    1    4    4  502    0  0.57338670323E+01 -0.19317290477E+02  0.10195768093E+04  0.10197867400E+04  0.47000000000E+01 0.  1.
         -5    1    4    4    0  502 -0.61569999317E+02  0.32219530126E+02  0.36375921458E+03  0.37036714099E+03  0.47000000000E+01 0.  1.
<mgrwt>
<rscale>  0 0.33888325E+03</rscale>
<asrwt>0</asrwt>
<pdfrwt beam="1">  1       21 0.26932982E+00 0.33888325E+03</pdfrwt>
<pdfrwt beam="2">  1       21 0.25230687E-02 0.33888325E+03</pdfrwt>
<totfact> 0.39326681E+04</totfact>
</mgrwt>
</event>
<event>
 8    1  0.4760912E-006  0.5964987E+03  0.7546771E-02  0.9912697E-01
         21   -1    0    0  504  503  0.00000000000E+00  0.00000000000E+00  0.84175586286E+02  0.84175586286E+02  0.00000000000E+00 0.  1.
         21   -1    0    0  503  504 -0.00000000000E+00 -0.00000000000E+00 -0.10567513527E+04  0.10567513527E+04  0.00000000000E+00 0.  1.
         25    2    1    2    0    0 -0.11042813920E+03  0.21287685653E+03 -0.24572040506E+03  0.36539171947E+03  0.12498664417E+03 0.  0.
         25    2    1    2    0    0  0.11042813920E+03 -0.21287685653E+03 -0.72685536133E+03  0.77553521949E+03  0.12500092160E+03 0.  0.
          5    1    3    3  501    0 -0.71426678751E+01  0.13426167334E+03 -0.16322451540E+03  0.21152197772E+03  0.47000000000E+01 0.  1.
         -5    1    3    3    0  501 -0.10328547132E+03  0.78615183191E+02 -0.82495889663E+02  0.15386974175E+03  0.47000000000E+01 0.  1.
          5    1    4    4  502    0  0.76714561714E+02 -0.43985434720E+02 -0.35223704283E+03  0.36319810956E+03  0.47000000000E+01 0.  1.
         -5    1    4    4    0  502  0.33713577484E+02 -0.16889142181E+03 -0.37461831850E+03  0.41233710993E+03  0.47000000000E+01 0.  1.
<mgrwt>
<rscale>  0 0.59649867E+03</rscale>
<asrwt>0</asrwt>
<pdfrwt beam="1">  1       21 0.12950090E-01 0.59649867E+03</pdfrwt>
<pdfrwt beam="2">  1       21 0.16257713E+00 0.59649867E+03</pdfrwt>
<totfact> 0.10434652E+04</totfact>
</mgrwt>
</event>
<event>
 8    1  0.4760912E-006  0.2681063E+03  0.7546771E-02  0.1102368E+00
         21   -1    0    0  504  503  0.00000000000E+00  0.00000000000E+00  0.10841511102E+03  0.10841511102E+03  0.00000000000E+00 0.  1.
         21   -1    0    0  503  504 -0.00000000000E+00 -0.00000000000E+00 -0.16575402974E+03  0.16575402974E+03  0.00000000000E+00 0.  1.
         25    2    1    2    0    0  0.24274141224E+02  0.36491680423E+02 -0.49725196660E+02  0.14148537714E+03  0.12499856035E+03 0.  0.
         25    2    1    2    0    0 -0.24274141224E+02 -0.36491680423E+02 -0.76137220524E+01  0.13268376362E+03  0.12500454269E+03 0.  0.
          5    1    3    3  501    0 -0.10875627768E+02  0.73326866733E+02 -0.65544683763E+01  0.74566478527E+02  0.47000000000E+01 0.  1.
         -5    1    3    3    0  501  0.35149768992E+02 -0.36835186310E+02 -0.43170728284E+02  0.66918898611E+02  0.47000000000E+01 0.  1.
          5    1    4    4  502    0  0.47701575506E+02 -0.32118023461E+00  0.12475349198E+02  0.49530473450E+02  0.47000000000E+01 0. -1.
         -5    1    4    4    0  502 -0.71975716731E+02 -0.36170500188E+02 -0.20089071250E+02  0.83153290172E+02  0.47000000000E+01 0. -1.
<mgrwt>
<rscale>  0 0.26810626E+03</rscale>
<asrwt>0</asrwt>
<pdfrwt beam="1">  1       21 0.16679248E-01 0.26810626E+03</pdfrwt>
<pdfrwt beam="2">  1       21 0.25500620E-01 0.26810626E+03</pdfrwt>
<totfact> 0.46420463E+05</totfact>
</mgrwt>
</event>
<event>
 8    1  0.4760912E-006  0.4540222E+03  0.7546771E-02  0.1026529E+00
         21   -1    0    0  504  503  0.00000000000E+00  0.00000000000E+00  0.85683545054E+03  0.85683545054E+03  0.00000000000E+00 0.  1.
         21   -1    0    0  503  504 -0.00000000000E+00 -0.00000000000E+00 -0.60144619319E+02  0.60144619319E+02  0.00000000000E+00 0.  1.
         25    2    1    2    0    0  0.10079155324E+03  0.78144731643E+02  0.68139560152E+03  0.70440980927E+03  0.12501070887E+03 0.  0.
         25    2    1    2    0    0 -0.10079155324E+03 -0.78144731643E+02  0.11529522969E+03  0.21257026058E+03  0.12501035720E+03 0.  0.
          5    1    3    3  501    0  0.45414069345E+02 -0.27936203789E+02  0.29721683979E+03  0.30199802819E+03  0.47000000000E+01 0. -1.
         -5    1    3    3    0  501  0.55377483890E+02  0.10608093543E+03  0.38417876174E+03  0.40241178108E+03  0.47000000000E+01 0. -1.
          5    1    4    4  502    0 -0.86304210922E+02 -0.85707966760E+02  0.13812343770E+03  0.18410444436E+03  0.47000000000E+01 0. -1.
         -5    1    4    4    0  502 -0.14487342313E+02  0.75632351170E+01 -0.22828208008E+02  0.28465816229E+02  0.47000000000E+01 0. -1.
<mgrwt>
<rscale>  0 0.45402221E+03</rscale>
<asrwt>0</asrwt>
<pdfrwt beam="1">  1       21 0.13182083E+00 0.45402221E+03</pdfrwt>
<pdfrwt beam="2">  1       21 0.92530190E-02 0.45402221E+03</pdfrwt>
<totfact> 0.35157092E+04</totfact>
</mgrwt>
</event>
<event>
 8    1  0.4760912E-006  0.4604067E+03  0.7546771E-02  0.1024663E+00
         21   -1    0    0  504  503  0.00000000000E+00  0.00000000000E+00  0.99247880153E+02  0.99247880153E+02  0.00000000000E+00 0. -1.
         21   -1    0    0  503  504 -0.00000000000E+00 -0.00000000000E+00 -0.53395187751E+03  0.53395187751E+03  0.00000000000E+00 0. -1.
         25    2    1    2    0    0  0.54693317291E+02  0.10237494143E+03 -0.47519871655E+01  0.17064620042E+03  0.12500222696E+03 0.  0.
         25    2    1    2    0    0 -0.54693317291E+02 -0.10237494143E+03 -0.42995201019E+03  0.46255355725E+03  0.12500029866E+03 0.  0.
          5    1    3    3  501    0  0.38695953726E+02  0.12341124512E+02 -0.53166019786E+02  0.67070081623E+02  0.47000000000E+01 0. -1.
         -5    1    3    3    0  501  0.15997363565E+02  0.90033816918E+02  0.48414032621E+02  0.10357611879E+03  0.47000000000E+01 0. -1.
          5    1    4    4  502    0 -0.35227220021E+02 -0.13053832038E+03 -0.35865218972E+03  0.38332061425E+03  0.47000000000E+01 0. -1.
         -5    1    4    4    0  502 -0.19466097271E+02  0.28163378948E+02 -0.71299820467E+02  0.79232942993E+02  0.47000000000E+01 0. -1.
<mgrwt>
<rscale>  0 0.46040674E+03</rscale>
<asrwt>0</asrwt>
<pdfrwt beam="1">  1       21 0.15268905E-01 0.46040674E+03</pdfrwt>
<pdfrwt beam="2">  1       21 0.82146443E-01 0.46040674E+03</pdfrwt>
<totfact> 0.45009746E+04</totfact>
</mgrwt>
</event>
<event>
 8    1  0.4760912E-006  0.2834745E+03  0.7546771E-02  0.1093806E+00
         21   -1    0    0  504  503  0.00000000000E+00  0.00000000000E+00  0.82231965668E+03  0.82231965668E+03  0.00000000000E+00 0.  1.
         21   -1    0    0  503  504 -0.00000000000E+00 -0.00000000000E+00 -0.24430223948E+02  0.24430223948E+02  0.00000000000E+00 0.  1.
         25    2    1    2    0    0  0.35681002515E+02 -0.49909283973E+02  0.47796260410E+03  0.49783290932E+03  0.12500113645E+03 0.  0.
         25    2    1    2    0    0 -0.35681002515E+02  0.49909283973E+02  0.31992682863E+03  0.34891697131E+03  0.12500322645E+03 0.  0.
          5    1    3    3  501    0  0.32112368536E+02  0.12452813530E+02  0.31229702207E+02  0.46729659508E+02  0.47000000000E+01 0.  1.
         -5    1    3    3    0  501  0.35686339787E+01 -0.62362097503E+02  0.44673290190E+03  0.45110324981E+03  0.47000000000E+01 0.  1.
          5    1    4    4  502    0 -0.39256435937E+02 -0.20720041261E+02  0.39281204500E+02  0.59459994108E+02  0.47000000000E+01 0.  1.
         -5    1    4    4    0  502  0.35754334226E+01  0.70629325234E+02  0.28064562413E+03  0.28945697720E+03  0.47000000000E+01 0.  1.
<mgrwt>
<rscale>  0 0.28347454E+03</rscale>
<asrwt>0</asrwt>
<pdfrwt beam="1">  1       21 0.12651069E+00 0.28347454E+03</pdfrwt>
<pdfrwt beam="2">  1       21 0.37584966E-02 0.28347454E+03</pdfrwt>
<totfact> 0.19528863E+05</totfact>
</mgrwt>
</event>
<event>
 8    1  0.4760912E-006  0.2649412E+03  0.7546771E-02  0.1104210E+00
         21   -1    0    0  504  503  0.00000000000E+00  0.00000000000E+00  0.50043268041E+02  0.50043268041E+02  0.00000000000E+00 0.  1.
         21   -1    0    0  503  504 -0.00000000000E+00 -0.00000000000E+00 -0.35066581837E+03  0.35066581837E+03  0.00000000000E+00 0.  1.
         25    2    1    2    0    0 -0.96331794318E+00 -0.30195882163E+01 -0.21647113478E+03  0.24999007519E+03  0.12500095842E+03 0.  0.
         25    2    1    2    0    0  0.96331794318E+00  0.30195882163E+01 -0.84151415550E+02  0.15071901122E+03  0.12499885484E+03 0.  0.
          5    1    3    3  501    0 -0.30317290225E+02 -0.52812378856E+02 -0.14893522792E+03  0.16097228818E+03  0.47000000000E+01 0. -1.
         -5    1    3    3    0  501  0.29353972282E+02  0.49792790639E+02 -0.67535906862E+02  0.89017787009E+02  0.47000000000E+01 0. -1.
          5    1    4    4  502    0 -0.36537763273E+02  0.16296676371E+02 -0.99869059059E+02  0.10768708726E+03  0.47000000000E+01 0. -1.
         -5    1    4    4    0  502  0.37501081217E+02 -0.13277088154E+02  0.15717643509E+02  0.43031923961E+02  0.47000000000E+01 0. -1.
<mgrwt>
<rscale>  0 0.26494123E+03</rscale>
<asrwt>0</asrwt>
<pdfrwt beam="1">  1       21 0.76989642E-02 0.26494123E+03</pdfrwt>
<pdfrwt beam="2">  1       21 0.53948588E-01 0.26494123E+03</pdfrwt>
<totfact> 0.41018252E+05</totfact>
</mgrwt>
</event>
<event>
 8    1  0.4760912E-006  0.3132105E+03  0.7546771E-02  0.1078817E+00
         21   -1    0    0  504  503  0.00000000000E+00  0.00000000000E+00  0.15315927351E+04  0.15315927351E+04  0.00000000000E+00 0. -1.
         21   -1    0    0  503  504 -0.00000000000E+00 -0.00000000000E+00 -0.16012873512E+02  0.16012873512E+02  0.00000000000E+00 0. -1.
         25    2    1    2    0    0  0.57500819272E+02 -0.35019184003E+02  0.43125320928E+03  0.45402371233E+03  0.12500205349E+03 0.  0.
         25    2    1    2    0    0 -0.57500819272E+02  0.35019184003E+02  0.10843266523E+04  0.10935818963E+04  0.12499755002E+03 0.  0.
          5    1    3    3  501    0  0.48566279776E+01  0.30732199731E+02  0.28255385619E+02  0.42290799852E+02  0.47000000000E+01 0. -1.
         -5    1    3    3    0  501  0.52644191295E+02 -0.65751383733E+02  0.40299782366E+03  0.41173291248E+03  0.47000000000E+01 0. -1.
          5    1    4    4  502    0  0.29610919415E+02 -0.19213912449E+02  0.18399558481E+03  0.18740983488E+03  0.47000000000E+01 0.  1.
         -5    1    4    4    0  502 -0.87111738688E+02  0.54233096452E+02  0.90033106750E+03  0.90617206141E+03  0.47000000000E+01 0.  1.
<mgrwt>
<rscale>  0 0.31321048E+03</rscale>
<asrwt>0</asrwt>
<pdfrwt beam="1">  1       21 0.23562954E+00 0.31321048E+03</pdfrwt>
<pdfrwt beam="2">  1       21 0.24635202E-02 0.31321048E+03</pdfrwt>
<totfact> 0.66179045E+04</totfact>
</mgrwt>
</event>
<event>
 8    1  0.4760912E-006  0.4461772E+03  0.7546771E-02  0.1028868E+00
         21   -1    0    0  504  503  0.00000000000E+00  0.00000000000E+00  0.14658321023E+03  0.14658321023E+03  0.00000000000E+00 0.  1.
         21   -1    0    0  503  504 -0.00000000000E+00 -0.00000000000E+00 -0.33952402700E+03  0.33952402700E+03  0.00000000000E+00 0.  1.
         25    2    1    2    0    0  0.18166862751E+03 -0.27342144861E+02 -0.74874870379E+02  0.23448035962E+03  0.12499483880E+03 0.  0.
         25    2    1    2    0    0 -0.18166862751E+03  0.27342144861E+02 -0.11806594640E+03  0.25162687762E+03  0.12500173893E+03 0.  0.
          5    1    3    3  501    0  0.16193176919E+02  0.29028338381E+02  0.16238574344E+02  0.37291348925E+02  0.47000000000E+01 0. -1.
         -5    1    3    3    0  501  0.16547545059E+03 -0.56370483242E+02 -0.91113444723E+02  0.19718901069E+03  0.47000000000E+01 0. -1.
          5    1    4    4  502    0 -0.13038816157E+03  0.18377330514E+01 -0.13882901446E+03  0.19052568120E+03  0.47000000000E+01 0.  1.
         -5    1    4    4    0  502 -0.51280465938E+02  0.25504411810E+02  0.20763068062E+02  0.61101196420E+02  0.47000000000E+01 0.  1.
<mgrwt>
<rscale>  0 0.44617719E+03</rscale>
<asrwt>0</asrwt>
<pdfrwt beam="1">  1       21 0.22551263E-01 0.44617719E+03</pdfrwt>
<pdfrwt beam="2">  1       21 0.52234466E-01 0.44617719E+03</pdfrwt>
<totfact> 0.59220866E+04</totfact>
</mgrwt>
</event>
<event>
 8    1  0.4760912E-006  0.3146934E+03  0.7546771E-02  0.1078118E+00
         21   -1    0    0  504  503  0.00000000000E+00  0.00000000000E+00  0.23284557754E+03  0.23284557754E+03  0.00000000000E+00 0. -1.
         21   -1    0    0  503  504 -0.00000000000E+00 -0.00000000000E+00 -0.10632791273E+03  0.10632791273E+03  0.00000000000E+00 0. -1.
         25    2    1    2    0    0  0.16358212421E+01  0.52092688143E+02 -0.23076476532E+02  0.13738281922E+03  0.12500076471E+03 0.  0.
         25    2    1    2    0    0 -0.16358212421E+01 -0.52092688143E+02  0.14959414134E+03  0.20179067106E+03  0.12499897493E+03 0.  0.
          5    1    3    3  501    0  0.72833751135E+01  0.92716644451E+02 -0.23720961737E+02  0.96094733139E+02  0.47000000000E+01 0.  1.
         -5    1    3    3    0  501 -0.56475538713E+01 -0.40623956307E+02  0.64448520538E+00  0.41288086078E+02  0.47000000000E+01 0.  1.
          5    1    4    4  502    0 -0.34134700556E+02 -0.49408983545E+02  0.13454918314E+02  0.61721554289E+02  0.47000000000E+01 0.  1.
         -5    1    4    4    0  502  0.32498879314E+02 -0.26837045983E+01  0.13613922303E+03  0.14006911677E+03  0.47000000000E+01 0.  1.
<mgrwt>
<rscale>  0 0.31469340E+03</rscale>
<asrwt>0</asrwt>
<pdfrwt beam="1">  1       21 0.35822397E-01 0.31469340E+03</pdfrwt>
<pdfrwt beam="2">  1       21 0.16358140E-01 0.31469340E+03</pdfrwt>
<totfact> 0.24420173E+05</totfact>
</mgrwt>
</event>
<event>
 8    1  0.4760912E-006  0.3172189E+03  0.7546771E-02  0.1076936E+00
         21   -1    0    0  504  503  0.00000000000E+00  0.00000000000E+00  0.47851859072E+03  0.47851859072E+03  0.00000000000E+00 0. -1.
         21   -1    0    0  503  504 -0.00000000000E+00 -0.00000000000E+00 -0.52572569103E+02  0.52572569103E+02  0.00000000000E+00 0. -1.
         25    2    1    2    0    0 -0.36507581477E+01 -0.33731980767E+02  0.36624538720E+03  0.38847300204E+03  0.12499766040E+03 0.  0.
         25    2    1    2    0    0  0.36507581477E+01  0.33731980767E+02  0.59700634420E+02  0.14261815779E+03  0.12499839447E+03 0.  0.
          5    1    3    3  501    0 -0.45591538714E+02  0.24392589550E+02  0.99577050785E+02  0.11229989257E+03  0.47000000000E+01 0. -1.
         -5    1    3    3    0  501  0.41940780566E+02 -0.58124570317E+02  0.26666833641E+03  0.27617310947E+03  0.47000000000E+01 0. -1.
          5    1    4    4  502    0  0.41044428292E+02 -0.32127411076E+02  0.14544489207E+02  0.54318024656E+02  0.47000000000E+01 0.  1.
         -5    1    4    4    0  502 -0.37393670144E+02  0.65859391843E+02  0.45156145213E+02  0.88300133133E+02  0.47000000000E+01 0.  1.
<mgrwt>
<rscale>  0 0.31721886E+03</rscale>
<asrwt>0</asrwt>
<pdfrwt beam="1">  1       21 0.73618242E-01 0.31721886E+03</pdfrwt>
<pdfrwt beam="2">  1       21 0.80880879E-02 0.31721886E+03</pdfrwt>
<totfact> 0.18842933E+05</totfact>
</mgrwt>
</event>
<event>
 8    1  0.4760912E-006  0.2775282E+03  0.7546771E-02  0.1097047E+00
         21   -1    0    0  504  503  0.00000000000E+00  0.00000000000E+00  0.42277939122E+02  0.42277939122E+02  0.00000000000E+00 0. -1.
         21   -1    0    0  503  504 -0.00000000000E+00 -0.00000000000E+00 -0.45544981664E+03  0.45544981664E+03  0.00000000000E+00 0. -1.
         25    2    1    2    0    0  0.50719383875E+02 -0.27243708071E+02 -0.17473227778E+03  0.22242061898E+03  0.12499954927E+03 0.  0.
         25    2    1    2    0    0 -0.50719383875E+02  0.27243708071E+02 -0.23843959974E+03  0.27530713678E+03  0.12500360519E+03 0.  0.
          5    1    3    3  501    0  0.32652586863E+02 -0.71501259684E+02 -0.14750277899E+03  0.16720580545E+03  0.47000000000E+01 0. -1.
         -5    1    3    3    0  501  0.18066797012E+02  0.44257551613E+02 -0.27229498793E+02  0.55214813534E+02  0.47000000000E+01 0. -1.
          5    1    4    4  502    0 -0.22049354149E+02 -0.62323546786E+01 -0.22874057219E+03  0.22993337215E+03  0.47000000000E+01 0.  1.
         -5    1    4    4    0  502 -0.28670029726E+02  0.33476062750E+02 -0.96990275508E+01  0.45373764635E+02  0.47000000000E+01 0.  1.
<mgrwt>
<rscale>  0 0.27752823E+03</rscale>
<asrwt>0</asrwt>
<pdfrwt beam="1">  1       21 0.65042987E-02 0.27752823E+03</pdfrwt>
<pdfrwt beam="2">  1       21 0.70069199E-01 0.27752823E+03</pdfrwt>
<totfact> 0.31074631E+05</totfact>
</mgrwt>
</event>
<event>
 8    1  0.4760912E-006  0.5497296E+03  0.7546771E-02  0.1001557E+00
         21   -1    0    0  504  503  0.00000000000E+00  0.00000000000E+00  0.16611612580E+03  0.16611612580E+03  0.00000000000E+00 0.  1.
         21   -1    0    0  503  504 -0.00000000000E+00 -0.00000000000E+00 -0.45480621423E+03  0.45480621423E+03  0.00000000000E+00 0.  1.
         25    2    1    2    0    0  0.13328224010E+03  0.17633567250E+03 -0.26316996759E+03  0.36570721637E+03  0.12499964538E+03 0.  0.
         25    2    1    2    0    0 -0.13328224010E+03 -0.17633567250E+03 -0.25520120839E+02  0.25521512365E+03  0.12500023141E+03 0.  0.
          5    1    3    3  501    0  0.14354325295E+03  0.11339543752E+03 -0.22923789520E+03  0.29331773440E+03  0.47000000000E+01 0.  1.
         -5    1    3    3    0  501 -0.10261012847E+02  0.62940234980E+02 -0.33932072393E+02  0.72389481977E+02  0.47000000000E+01 0.  1.
          5    1    4    4  502    0 -0.15279207859E+03 -0.17141993407E+03 -0.10962090810E+02  0.22994014550E+03  0.47000000000E+01 0. -1.
         -5    1    4    4    0  502  0.19509838493E+02 -0.49157384248E+01 -0.14558030029E+02  0.25274978152E+02  0.47000000000E+01 0. -1.
<mgrwt>
<rscale>  0 0.54972956E+03</rscale>
<asrwt>0</asrwt>
<pdfrwt beam="1">  1       21 0.25556327E-01 0.54972956E+03</pdfrwt>
<pdfrwt beam="2">  1       21 0.69970186E-01 0.54972956E+03</pdfrwt>
<totfact> 0.23896314E+04</totfact>
</mgrwt>
</event>
<event>
 8    1  0.4760912E-006  0.4303705E+03  0.7546771E-02  0.1033743E+00
         21   -1    0    0  504  503  0.00000000000E+00  0.00000000000E+00  0.93415231049E+03  0.93415231049E+03  0.00000000000E+00 0.  1.
         21   -1    0    0  503  504 -0.00000000000E+00 -0.00000000000E+00 -0.49568684565E+02  0.49568684565E+02  0.00000000000E+00 0.  1.
         25    2    1    2    0    0  0.11340349586E+03  0.13216364781E+03  0.48517172502E+03  0.53041951990E+03  0.12500272661E+03 0.  0.
         25    2    1    2    0    0 -0.11340349586E+03 -0.13216364781E+03  0.39941190090E+03  0.45330147515E+03  0.12499911244E+03 0.  0.
          5    1    3    3  501    0  0.47510336511E+02  0.43009504873E+01  0.25116043032E+03  0.25569392251E+03  0.47000000000E+01 0. -1.
         -5    1    3    3    0  501  0.65893159350E+02  0.12786269733E+03  0.23401129470E+03  0.27472559740E+03  0.47000000000E+01 0. -1.
          5    1    4    4  502    0  0.92721062203E+01 -0.73486823263E+02  0.18531630194E+03  0.19962591744E+03  0.47000000000E+01 0. -1.
         -5    1    4    4    0  502 -0.12267560208E+03 -0.58676824550E+02  0.21409559896E+03  0.25367555771E+03  0.47000000000E+01 0. -1.
<mgrwt>
<rscale>  0 0.43037054E+03</rscale>
<asrwt>0</asrwt>
<pdfrwt beam="1">  1       21 0.14371573E+00 0.43037054E+03</pdfrwt>
<pdfrwt beam="2">  1       21 0.76259522E-02 0.43037054E+03</pdfrwt>
<totfact> 0.39709370E+04</totfact>
</mgrwt>
</event>
<event>
 8    1  0.4760912E-006  0.3476844E+03  0.7546771E-02  0.1063569E+00
         21   -1    0    0  504  503  0.00000000000E+00  0.00000000000E+00  0.42170350566E+03  0.42170350566E+03  0.00000000000E+00 0.  1.
         21   -1    0    0  503  504 -0.00000000000E+00 -0.00000000000E+00 -0.71664353044E+02  0.71664353044E+02  0.00000000000E+00 0.  1.
         25    2    1    2    0    0 -0.87813098920E+02 -0.40671508289E+02  0.72379209300E+02  0.17386210046E+03  0.12499587236E+03 0.  0.
         25    2    1    2    0    0  0.87813098920E+02  0.40671508289E+02  0.27765994332E+03  0.31950575825E+03  0.12499429387E+03 0.  0.
          5    1    3    3  501    0 -0.83693615153E+02  0.88387997308E+01  0.87720392873E+02  0.12165402962E+03  0.47000000000E+01 0. -1.
         -5    1    3    3    0  501 -0.41194837671E+01 -0.49510308020E+02 -0.15341183573E+02  0.52208070833E+02  0.47000000000E+01 0. -1.
          5    1    4    4  502    0  0.44465581114E+02  0.18138516047E+02  0.26426048645E+03  0.26862964908E+03  0.47000000000E+01 0. -1.
         -5    1    4    4    0  502  0.43347517806E+02  0.22532992242E+02  0.13399456869E+02  0.50876109164E+02  0.47000000000E+01 0. -1.
<mgrwt>
<rscale>  0 0.34768439E+03</rscale>
<asrwt>0</asrwt>
<pdfrwt beam="1">  1       21 0.64877461E-01 0.34768439E+03</pdfrwt>
<pdfrwt beam="2">  1       21 0.11025285E-01 0.34768439E+03</pdfrwt>
<totfact> 0.14289147E+05</totfact>
</mgrwt>
</event>
<event>
 8    1  0.4760912E-006  0.2828714E+03  0.7546771E-02  0.1094131E+00
         21   -1    0    0  504  503  0.00000000000E+00  0.00000000000E+00  0.59647784251E+02  0.59647784251E+02  0.00000000000E+00 0.  1.
         21   -1    0    0  503  504 -0.00000000000E+00 -0.00000000000E+00 -0.33536958841E+03  0.33536958841E+03  0.00000000000E+00 0.  1.
         25    2    1    2    0    0 -0.29566821899E+02  0.31929978302E+02 -0.68247915009E+02  0.14891969259E+03  0.12500230585E+03 0.  0.
         25    2    1    2    0    0  0.29566821899E+02 -0.31929978302E+02 -0.20747388915E+03  0.24609768007E+03  0.12499973194E+03 0.  0.
          5    1    3    3  501    0 -0.34440360623E+02  0.61512956994E+02 -0.87891113351E+02  0.11276932262E+03  0.47000000000E+01 0.  1.
         -5    1    3    3    0  501  0.48735387243E+01 -0.29582978692E+02  0.19643198342E+02  0.36150369972E+02  0.47000000000E+01 0.  1.
          5    1    4    4  502    0  0.59429514148E+02 -0.59872565760E+02 -0.17250076228E+03  0.19208121790E+03  0.47000000000E+01 0.  1.
         -5    1    4    4    0  502 -0.29862692249E+02  0.27942587458E+02 -0.34973126872E+02  0.54016462171E+02  0.47000000000E+01 0.  1.
<mgrwt>
<rscale>  0 0.28287137E+03</rscale>
<asrwt>0</asrwt>
<pdfrwt beam="1">  1       21 0.91765822E-02 0.28287137E+03</pdfrwt>
<pdfrwt beam="2">  1       21 0.51595321E-01 0.28287137E+03</pdfrwt>
<totfact> 0.32984904E+05</totfact>
</mgrwt>
</event>
<event>
 8    1  0.4760912E-006  0.2937107E+03  0.7546771E-02  0.1088428E+00
         21   -1    0    0  504  503  0.00000000000E+00  0.00000000000E+00  0.17268351920E+03  0.17268351920E+03  0.00000000000E+00 0. -1.
         21   -1    0    0  503  504 -0.00000000000E+00 -0.00000000000E+00 -0.12489025906E+03  0.12489025906E+03  0.00000000000E+00 0. -1.
         25    2    1    2    0    0  0.43836396506E+02 -0.61874277964E+02  0.99179563695E+01  0.14654589515E+03  0.12500911004E+03 0.  0.
         25    2    1    2    0    0 -0.43836396506E+02  0.61874277964E+02  0.37875303769E+02  0.15102788311E+03  0.12499930764E+03 0.  0.
          5    1    3    3  501    0  0.70362757385E+02 -0.84174825687E+02 -0.13003479257E+01  0.10981848574E+03  0.47000000000E+01 0. -1.
         -5    1    3    3    0  501 -0.26526360879E+02  0.22300547722E+02  0.11218304295E+02  0.36727409403E+02  0.47000000000E+01 0. -1.
          5    1    4    4  502    0 -0.75782754503E+02  0.46051986707E+02 -0.11927985810E+02  0.89600101591E+02  0.47000000000E+01 0.  1.
         -5    1    4    4    0  502  0.31946357997E+02  0.15822291257E+02  0.49803289579E+02  0.61427781523E+02  0.47000000000E+01 0.  1.
<mgrwt>
<rscale>  0 0.29371067E+03</rscale>
<asrwt>0</asrwt>
<pdfrwt beam="1">  1       21 0.26566695E-01 0.29371067E+03</pdfrwt>
<pdfrwt beam="2">  1       21 0.19213886E-01 0.29371067E+03</pdfrwt>
<totfact> 0.32789172E+05</totfact>
</mgrwt>
</event>
<event>
 8    1  0.4760912E-006  0.3006743E+03  0.7546771E-02  0.1084904E+00
         21   -1    0    0  504  503  0.00000000000E+00  0.00000000000E+00  0.20124328519E+03  0.20124328519E+03  0.00000000000E+00 0. -1.
         21   -1    0    0  503  504 -0.00000000000E+00 -0.00000000000E+00 -0.11230811543E+03  0.11230811543E+03  0.00000000000E+00 0. -1.
         25    2    1    2    0    0  0.68503812046E+02 -0.24544472721E+02  0.87227877704E+02  0.16890649459E+03  0.12500199142E+03 0.  0.
         25    2    1    2    0    0 -0.68503812046E+02  0.24544472721E+02  0.17072920592E+01  0.14464490603E+03  0.12499612229E+03 0.  0.
          5    1    3    3  501    0  0.24208835589E+02  0.49317760614E+02  0.17067498001E+02  0.57720869021E+02  0.47000000000E+01 0. -1.
         -5    1    3    3    0  501  0.44294976457E+02 -0.73862233335E+02  0.70160379703E+02  0.11118562557E+03  0.47000000000E+01 0. -1.
          5    1    4    4  502    0  0.11534791163E+02 -0.28639668155E+02  0.31068144282E+02  0.44052259741E+02  0.47000000000E+01 0.  1.
         -5    1    4    4    0  502 -0.80038603208E+02  0.53184140875E+02 -0.29360852223E+02  0.10059264629E+03  0.47000000000E+01 0.  1.
<mgrwt>
<rscale>  0 0.30067427E+03</rscale>
<asrwt>0</asrwt>
<pdfrwt beam="1">  1       21 0.30960505E-01 0.30067427E+03</pdfrwt>
<pdfrwt beam="2">  1       21 0.17278172E-01 0.30067427E+03</pdfrwt>
<totfact> 0.29591823E+05</totfact>
</mgrwt>
</event>
<event>
 8    1  0.4760912E-006  0.3197201E+03  0.7546771E-02  0.1075778E+00
         21   -1    0    0  504  503  0.00000000000E+00  0.00000000000E+00  0.75961341405E+03  0.75961341405E+03  0.00000000000E+00 0. -1.
         21   -1    0    0  503  504 -0.00000000000E+00 -0.00000000000E+00 -0.33642419044E+02  0.33642419044E+02  0.00000000000E+00 0. -1.
         25    2    1    2    0    0  0.30521517857E+01  0.97852634565E+02  0.31686345988E+03  0.35441817654E+03  0.12500135175E+03 0.  0.
         25    2    1    2    0    0 -0.30521517857E+01 -0.97852634565E+02  0.40910753513E+03  0.43883765655E+03  0.12500023913E+03 0.  0.
          5    1    3    3  501    0 -0.30262927149E+02  0.10197821629E+03  0.14881235142E+03  0.18298253276E+03  0.47000000000E+01 0. -1.
         -5    1    3    3    0  501  0.33315078935E+02 -0.41255817259E+01  0.16805110845E+03  0.17143564379E+03  0.47000000000E+01 0. -1.
          5    1    4    4  502    0  0.41834289176E+02 -0.43167567355E+02  0.69962478194E+02  0.92360083246E+02  0.47000000000E+01 0.  1.
         -5    1    4    4    0  502 -0.44886440961E+02 -0.54685067210E+02  0.33914505694E+03  0.34647757331E+03  0.47000000000E+01 0.  1.
<mgrwt>
<rscale>  0 0.31972008E+03</rscale>
<asrwt>0</asrwt>
<pdfrwt beam="1">  1       21 0.11686359E+00 0.31972008E+03</pdfrwt>
<pdfrwt beam="2">  1       21 0.51757573E-02 0.31972008E+03</pdfrwt>
<totfact> 0.13703643E+05</totfact>
</mgrwt>
</event>
<event>
 8    1  0.4760912E-006  0.3356304E+03  0.7546771E-02  0.1068672E+00
         21   -1    0    0  504  503  0.00000000000E+00  0.00000000000E+00  0.12627149684E+03  0.12627149684E+03  0.00000000000E+00 0. -1.
         21   -1    0    0  503  504 -0.00000000000E+00 -0.00000000000E+00 -0.22302686959E+03  0.22302686959E+03  0.00000000000E+00 0. -1.
         25    2    1    2    0    0 -0.41158701959E+01  0.51663406333E+01  0.67947477315E+02  0.14242676774E+03  0.12499957213E+03 0.  0.
         25    2    1    2    0    0  0.41158701959E+01 -0.51663406333E+01 -0.16470285007E+03  0.20687159870E+03  0.12500079225E+03 0.  0.
          5    1    3    3  501    0 -0.45091394885E+02  0.41760300615E+02  0.61229590778E+02  0.86881007055E+02  0.47000000000E+01 0.  1.
         -5    1    3    3    0  501  0.40975524689E+02 -0.36593959982E+02  0.67178865370E+01  0.55545760686E+02  0.47000000000E+01 0.  1.
          5    1    4    4  502    0  0.43878149045E+01 -0.61562499238E+02 -0.11897675600E+03  0.13411469979E+03  0.47000000000E+01 0.  1.
         -5    1    4    4    0  502 -0.27194470864E+00  0.56396158604E+02 -0.45726094066E+02  0.72756898902E+02  0.47000000000E+01 0.  1.
<mgrwt>
<rscale>  0 0.33563037E+03</rscale>
<asrwt>0</asrwt>
<pdfrwt beam="1">  1       21 0.19426384E-01 0.33563037E+03</pdfrwt>
<pdfrwt beam="2">  1       21 0.34311826E-01 0.33563037E+03</pdfrwt>
<totfact> 0.19227843E+05</totfact>
</mgrwt>
</event>
<event>
 8    1  0.4760912E-006  0.2651350E+03  0.7546771E-02  0.1104097E+00
         21   -1    0    0  504  503  0.00000000000E+00  0.00000000000E+00  0.42463905535E+03  0.42463905535E+03  0.00000000000E+00 0. -1.
         21   -1    0    0  503  504 -0.00000000000E+00 -0.00000000000E+00 -0.41386064255E+02  0.41386064255E+02  0.00000000000E+00 0. -1.
         25    2    1    2    0    0  0.38494536729E+02 -0.23707201223E+01  0.15392935276E+03  0.20201294828E+03  0.12501014344E+03 0.  0.
         25    2    1    2    0    0 -0.38494536729E+02  0.23707201223E+01  0.22932363834E+03  0.26401217132E+03  0.12500258330E+03 0.  0.
          5    1    3    3  501    0 -0.22091652467E+02 -0.29602973539E+02  0.12314350955E+03  0.12864987795E+03  0.47000000000E+01 0. -1.
         -5    1    3    3    0  501  0.60586189195E+02  0.27232253417E+02  0.30785843203E+02  0.73363070336E+02  0.47000000000E+01 0. -1.
          5    1    4    4  502    0  0.95351098689E+01  0.10834946807E+02  0.21124168969E+03  0.21178634483E+03  0.47000000000E+01 0. -1.
         -5    1    4    4    0  502 -0.48029646598E+02 -0.84642266851E+01  0.18081948647E+02  0.52225826490E+02  0.47000000000E+01 0. -1.
<mgrwt>
<rscale>  0 0.26513498E+03</rscale>
<asrwt>0</asrwt>
<pdfrwt beam="1">  1       21 0.65329082E-01 0.26513498E+03</pdfrwt>
<pdfrwt beam="2">  1       21 0.63670871E-02 0.26513498E+03</pdfrwt>
<totfact> 0.37743663E+05</totfact>
</mgrwt>
</event>
<event>
 8    1  0.4760912E-006  0.2993685E+03  0.7546771E-02  0.1085557E+00
         21   -1    0    0  504  503  0.00000000000E+00  0.00000000000E+00  0.43128240870E+02  0.43128240870E+02  0.00000000000E+00 0. -1.
         21   -1    0    0  503  504 -0.00000000000E+00 -0.00000000000E+00 -0.51950587419E+03  0.51950587419E+03  0.00000000000E+00 0. -1.
         25    2    1    2    0    0 -0.75387869197E+01  0.34543165156E+02 -0.98412886324E+02  0.16297190555E+03  0.12499872895E+03 0.  0.
         25    2    1    2    0    0  0.75387869197E+01 -0.34543165156E+02 -0.37796474699E+03  0.39966220950E+03  0.12498987226E+03 0.  0.
          5    1    3    3  501    0 -0.11633707380E+02  0.61648043936E+02 -0.11464276464E+03  0.13077032520E+03  0.47000000000E+01 0. -1.
         -5    1    3    3    0  501  0.40949204607E+01 -0.27104878780E+02  0.16229878315E+02  0.32201580355E+02  0.47000000000E+01 0. -1.
          5    1    4    4  502    0 -0.18524098659E+02 -0.63612606180E+02 -0.10757995061E+03  0.12643275552E+03  0.47000000000E+01 0.  1.
         -5    1    4    4    0  502  0.26062885579E+02  0.29069441023E+02 -0.27038479639E+03  0.27322945398E+03  0.47000000000E+01 0.  1.
<mgrwt>
<rscale>  0 0.29936850E+03</rscale>
<asrwt>0</asrwt>
<pdfrwt beam="1">  1       21 0.66351141E-02 0.29936850E+03</pdfrwt>
<pdfrwt beam="2">  1       21 0.79923979E-01 0.29936850E+03</pdfrwt>
<totfact> 0.22200258E+05</totfact>
</mgrwt>
</event>
<event>
 8    1  0.4760912E-006  0.4215222E+03  0.7546771E-02  0.1036572E+00
         21   -1    0    0  504  503  0.00000000000E+00  0.00000000000E+00  0.21455940837E+03  0.21455940837E+03  0.00000000000E+00 0.  1.
         21   -1    0    0  503  504 -0.00000000000E+00 -0.00000000000E+00 -0.20702998495E+03  0.20702998495E+03  0.00000000000E+00 0.  1.
         25    2    1    2    0    0 -0.29064792810E+02  0.16211881896E+03  0.44604771565E+02  0.21152455165E+03  0.12500310662E+03 0.  0.
         25    2    1    2    0    0  0.29064792810E+02 -0.16211881896E+03 -0.37075348146E+02  0.21006484167E+03  0.12500153048E+03 0.  0.
          5    1    3    3  501    0 -0.39806476514E+02  0.17562450842E+03  0.20202515155E+02  0.18126984070E+03  0.47000000000E+01 0. -1.
         -5    1    3    3    0  501  0.10741683705E+02 -0.13505689462E+02  0.24402256410E+02  0.30254710948E+02  0.47000000000E+01 0. -1.
          5    1    4    4  502    0 -0.33081444332E+01 -0.54579843267E+02 -0.73659335622E+02  0.91856904122E+02  0.47000000000E+01 0. -1.
         -5    1    4    4    0  502  0.32372937243E+02 -0.10753897569E+03  0.36583987476E+02  0.11820793754E+03  0.47000000000E+01 0. -1.
<mgrwt>
<rscale>  0 0.42152215E+03</rscale>
<asrwt>0</asrwt>
<pdfrwt beam="1">  1       21 0.33009140E-01 0.42152215E+03</pdfrwt>
<pdfrwt beam="2">  1       21 0.31850767E-01 0.42152215E+03</pdfrwt>
<totfact> 0.78251837E+04</totfact>
</mgrwt>
</event>
<event>
 8    1  0.4760912E-006  0.2564998E+03  0.7546771E-02  0.1109265E+00
         21   -1    0    0  504  503  0.00000000000E+00  0.00000000000E+00  0.10874209330E+04  0.10874209330E+04  0.00000000000E+00 0.  1.
         21   -1    0    0  503  504 -0.00000000000E+00 -0.00000000000E+00 -0.15125733407E+02  0.15125733407E+02  0.00000000000E+00 0.  1.
         25    2    1    2    0    0 -0.23695778006E+02 -0.22030431416E+01  0.60496393496E+03  0.61820198854E+03  0.12500397089E+03 0.  0.
         25    2    1    2    0    0  0.23695778006E+02  0.22030431416E+01  0.46733126459E+03  0.48434467782E+03  0.12499965112E+03 0.  0.
          5    1    3    3  501    0  0.12866050677E+02 -0.45199290610E+02  0.10614410810E+03  0.11617733349E+03  0.47000000000E+01 0. -1.
         -5    1    3    3    0  501 -0.36561828683E+02  0.42996247468E+02  0.49881982686E+03  0.50202465505E+03  0.47000000000E+01 0. -1.
          5    1    4    4  502    0  0.19826302079E+02 -0.32521363980E+02  0.39535320683E+02  0.55098574852E+02  0.47000000000E+01 0.  1.
         -5    1    4    4    0  502  0.38694759268E+01  0.34724407121E+02  0.42779594390E+03  0.42924610297E+03  0.47000000000E+01 0.  1.
<mgrwt>
<rscale>  0 0.25649982E+03</rscale>
<asrwt>0</asrwt>
<pdfrwt beam="1">  1       21 0.16729547E+00 0.25649982E+03</pdfrwt>
<pdfrwt beam="2">  1       21 0.23270368E-02 0.25649982E+03</pdfrwt>
<totfact> 0.20894652E+05</totfact>
</mgrwt>
</event>
<event>
 8    1  0.4760912E-006  0.3286616E+03  0.7546771E-02  0.1071731E+00
         21   -1    0    0  504  503  0.00000000000E+00  0.00000000000E+00  0.56108821082E+03  0.56108821082E+03  0.00000000000E+00 0. -1.
         21   -1    0    0  503  504 -0.00000000000E+00 -0.00000000000E+00 -0.48128993935E+02  0.48128993935E+02  0.00000000000E+00 0. -1.
         25    2    1    2    0    0 -0.35079097057E+02  0.47486383697E+02  0.42111740200E+03  0.44322445463E+03  0.12499020452E+03 0.  0.
         25    2    1    2    0    0  0.35079097057E+02 -0.47486383697E+02  0.91841814877E+02  0.16599275012E+03  0.12503269351E+03 0.  0.
          5    1    3    3  501    0 -0.13849829893E+02  0.85184155797E+02  0.34383122045E+03  0.35452807553E+03  0.47000000000E+01 0. -1.
         -5    1    3    3    0  501 -0.21229267164E+02 -0.37697772099E+02  0.77286181557E+02  0.88696379099E+02  0.47000000000E+01 0. -1.
          5    1    4    4  502    0 -0.46204332468E+02 -0.27062238013E+02  0.43323490884E+02  0.69037815199E+02  0.47000000000E+01 0.  1.
         -5    1    4    4    0  502  0.81283429526E+02 -0.20424145684E+02  0.48518323993E+02  0.96954934921E+02  0.47000000000E+01 0.  1.
<mgrwt>
<rscale>  0 0.32866160E+03</rscale>
<asrwt>0</asrwt>
<pdfrwt beam="1">  1       21 0.86321258E-01 0.32866160E+03</pdfrwt>
<pdfrwt beam="2">  1       21 0.74044610E-02 0.32866160E+03</pdfrwt>
<totfact> 0.15242231E+05</totfact>
</mgrwt>
</event>
<event>
 8    1  0.4760912E-006  0.3406590E+03  0.7546771E-02  0.1066516E+00
         21   -1    0    0  504  503  0.00000000000E+00  0.00000000000E+00  0.47993409884E+03  0.47993409884E+03  0.00000000000E+00 0.  1.
         21   -1    0    0  503  504 -0.00000000000E+00 -0.00000000000E+00 -0.60450243212E+02  0.60450243212E+02  0.00000000000E+00 0.  1.
         25    2    1    2    0    0 -0.33107399218E+02 -0.10375742112E+03  0.27170239673E+03  0.31829029319E+03  0.12499926412E+03 0.  0.
         25    2    1    2    0    0  0.33107399218E+02  0.10375742112E+03  0.14778145889E+03  0.22209404885E+03  0.12499881849E+03 0.  0.
          5    1    3    3  501    0 -0.19002050847E+02 -0.13140585519E+03  0.23534609564E+03  0.27025626996E+03  0.47000000000E+01 0. -1.
         -5    1    3    3    0  501 -0.14105348371E+02  0.27648434074E+02  0.36356301088E+02  0.48034023236E+02  0.47000000000E+01 0. -1.
          5    1    4    4  502    0 -0.42541316512E+02  0.14726130185E+02  0.21883334496E+02  0.50275171302E+02  0.47000000000E+01 0.  1.
         -5    1    4    4    0  502  0.75648715729E+02  0.89031290935E+02  0.12589812440E+03  0.17181887755E+03  0.47000000000E+01 0.  1.
<mgrwt>
<rscale>  0 0.34065897E+03</rscale>
<asrwt>0</asrwt>
<pdfrwt beam="1">  1       21 0.73836013E-01 0.34065897E+03</pdfrwt>
<pdfrwt beam="2">  1       21 0.93000377E-02 0.34065897E+03</pdfrwt>
<totfact> 0.14540869E+05</totfact>
</mgrwt>
</event>
<event>
 8    1  0.4760912E-006  0.3167801E+03  0.7546771E-02  0.1077141E+00
         21   -1    0    0  504  503  0.00000000000E+00  0.00000000000E+00  0.64850720383E+03  0.64850720383E+03  0.00000000000E+00 0.  1.
         21   -1    0    0  503  504 -0.00000000000E+00 -0.00000000000E+00 -0.38684858054E+02  0.38684858054E+02  0.00000000000E+00 0.  1.
         25    2    1    2    0    0 -0.69460000177E+02 -0.61841655891E+02  0.24304168825E+03  0.28869221431E+03  0.12499940139E+03 0.  0.
         25    2    1    2    0    0  0.69460000177E+02  0.61841655891E+02  0.36678065753E+03  0.39849984757E+03  0.12499998301E+03 0.  0.
          5    1    3    3  501    0  0.23273461329E+01  0.29691367959E+02  0.98973083930E+02  0.10346378697E+03  0.47000000000E+01 0. -1.
         -5    1    3    3    0  501 -0.71787346310E+02 -0.91533023850E+02  0.14406860432E+03  0.18522842734E+03  0.47000000000E+01 0. -1.
          5    1    4    4  502    0  0.34237824956E+00 -0.33253634174E+02  0.47037137815E+02  0.57797091125E+02  0.47000000000E+01 0. -1.
         -5    1    4    4    0  502  0.69117621928E+02  0.95095290065E+02  0.31974351971E+03  0.34070275645E+03  0.47000000000E+01 0. -1.
<mgrwt>
<rscale>  0 0.31678011E+03</rscale>
<asrwt>0</asrwt>
<pdfrwt beam="1">  1       21 0.99770331E-01 0.31678011E+03</pdfrwt>
<pdfrwt beam="2">  1       21 0.59515171E-02 0.31678011E+03</pdfrwt>
<totfact> 0.15879500E+05</totfact>
</mgrwt>
</event>
<event>
 8    1  0.4760912E-006  0.6236627E+03  0.7546771E-02  0.9857494E-01
         21   -1    0    0  504  503  0.00000000000E+00  0.00000000000E+00  0.33443535342E+02  0.33443535342E+02  0.00000000000E+00 0.  1.
         21   -1    0    0  503  504 -0.00000000000E+00 -0.00000000000E+00 -0.29075508420E+04  0.29075508420E+04  0.00000000000E+00 0.  1.
         25    2    1    2    0    0  0.26977258561E+03 -0.80407511712E+01 -0.99518923481E+03  0.10386803057E+04  0.12495304222E+03 0.  0.
         25    2    1    2    0    0 -0.26977258561E+03  0.80407511712E+01 -0.18789180718E+04  0.19023140716E+04  0.12499521910E+03 0.  0.
          5    1    3    3  501    0  0.14640723542E+03 -0.66333522889E+02 -0.52569507309E+03  0.54973867856E+03  0.47000000000E+01 0.  1.
         -5    1    3    3    0  501  0.12336535019E+03  0.58292771717E+02 -0.46949416173E+03  0.48894162715E+03  0.47000000000E+01 0.  1.
          5    1    4    4  502    0 -0.10800731001E+03 -0.52884973883E+02 -0.93172923091E+03  0.93946998314E+03  0.47000000000E+01 0. -1.
         -5    1    4    4    0  502 -0.16176527560E+03  0.60925725054E+02 -0.94718884092E+03  0.96284408848E+03  0.47000000000E+01 0. -1.
<mgrwt>
<rscale>  0 0.62366266E+03</rscale>
<asrwt>0</asrwt>
<pdfrwt beam="1">  1       21 0.51451567E-02 0.62366266E+03</pdfrwt>
<pdfrwt beam="2">  1       21 0.44731574E+00 0.62366266E+03</pdfrwt>
<totfact> 0.79129011E+02</totfact>
</mgrwt>
</event>
<event>
 8    1  0.4760912E-006  0.3017466E+03  0.7546771E-02  0.1084371E+00
         21   -1    0    0  504  503  0.00000000000E+00  0.00000000000E+00  0.12048679349E+02  0.12048679349E+02  0.00000000000E+00 0. -1.
         21   -1    0    0  503  504 -0.00000000000E+00 -0.00000000000E+00 -0.18892324170E+04  0.18892324170E+04  0.00000000000E+00 0. -1.
         25    2    1    2    0    0  0.19550375226E+02  0.78431094877E+02 -0.10935479254E+04  0.11036319043E+04  0.12499064461E+03 0.  0.
         25    2    1    2    0    0 -0.19550375226E+02 -0.78431094877E+02 -0.78363581227E+03  0.79764919207E+03  0.12500197402E+03 0.  0.
          5    1    3    3  501    0  0.13619495866E+02 -0.24623650846E+02 -0.82024974048E+02  0.86844695959E+02  0.47000000000E+01 0. -1.
         -5    1    3    3    0  501  0.59308793601E+01  0.10305474572E+03 -0.10115229513E+04  0.10167872083E+04  0.47000000000E+01 0. -1.
          5    1    4    4  502    0  0.48367375377E+01 -0.64256249459E+02 -0.14943600013E+03  0.16280499918E+03  0.47000000000E+01 0.  1.
         -5    1    4    4    0  502 -0.24387112764E+02 -0.14174845418E+02 -0.63419981215E+03  0.63484419288E+03  0.47000000000E+01 0.  1.
<mgrwt>
<rscale>  0 0.30174662E+03</rscale>
<asrwt>0</asrwt>
<pdfrwt beam="1">  1       21 0.18536443E-02 0.30174662E+03</pdfrwt>
<pdfrwt beam="2">  1       21 0.29065093E+00 0.30174662E+03</pdfrwt>
<totfact> 0.49845568E+04</totfact>
</mgrwt>
</event>
<event>
 8    1  0.4760912E-006  0.3473521E+03  0.7546771E-02  0.1063707E+00
         21   -1    0    0  504  503  0.00000000000E+00  0.00000000000E+00  0.34110383235E+02  0.34110383235E+02  0.00000000000E+00 0. -1.
         21   -1    0    0  503  504 -0.00000000000E+00 -0.00000000000E+00 -0.88428701289E+03  0.88428701289E+03  0.00000000000E+00 0. -1.
         25    2    1    2    0    0  0.11817940826E+03  0.62891128578E+01 -0.36414025715E+03  0.40277776568E+03  0.12500350463E+03 0.  0.
         25    2    1    2    0    0 -0.11817940826E+03 -0.62891128578E+01 -0.48603637251E+03  0.51561963045E+03  0.12500528960E+03 0.  0.
          5    1    3    3  501    0  0.13619828927E+03 -0.22168939441E+02 -0.28790128831E+03  0.31929716205E+03  0.47000000000E+01 0.  1.
         -5    1    3    3    0  501 -0.18018881013E+02  0.28458052299E+02 -0.76238968834E+02  0.83480603631E+02  0.47000000000E+01 0.  1.
          5    1    4    4  502    0  0.77360671517E+00  0.28788586155E+01  0.66502024478E+01  0.86718790855E+01  0.47000000000E+01 0.  1.
         -5    1    4    4    0  502 -0.11895301498E+03 -0.91679714732E+01 -0.49268657495E+03  0.50694775136E+03  0.47000000000E+01 0.  1.
<mgrwt>
<rscale>  0 0.34735209E+03</rscale>
<asrwt>0</asrwt>
<pdfrwt beam="1">  1       21 0.52477521E-02 0.34735209E+03</pdfrwt>
<pdfrwt beam="2">  1       21 0.13604413E+00 0.34735209E+03</pdfrwt>
<totfact> 0.90121911E+04</totfact>
</mgrwt>
</event>
<event>
 8    1  0.4760912E-006  0.2687748E+03  0.7546771E-02  0.1101983E+00
         21   -1    0    0  504  503  0.00000000000E+00  0.00000000000E+00  0.47571081817E+03  0.47571081817E+03  0.00000000000E+00 0. -1.
         21   -1    0    0  503  504 -0.00000000000E+00 -0.00000000000E+00 -0.37964187814E+02  0.37964187814E+02  0.00000000000E+00 0. -1.
         25    2    1    2    0    0  0.36049045655E+02  0.75970713038E+01  0.28166214174E+03  0.31034179642E+03  0.12498487642E+03 0.  0.
         25    2    1    2    0    0 -0.36049045655E+02 -0.75970713038E+01  0.15608448861E+03  0.20333320955E+03  0.12499910935E+03 0.  0.
          5    1    3    3  501    0  0.82659527697E+02  0.87136225465E+01  0.18816845837E+03  0.20576195825E+03  0.47000000000E+01 0.  1.
         -5    1    3    3    0  501 -0.46610482042E+02 -0.11165512427E+01  0.93493683373E+02  0.10457983818E+03  0.47000000000E+01 0.  1.
          5    1    4    4  502    0 -0.29880958615E+02 -0.58046176422E+02  0.40476299444E+02  0.76958762345E+02  0.47000000000E+01 0.  1.
         -5    1    4    4    0  502 -0.61680870397E+01  0.50449105118E+02  0.11560818917E+03  0.12637444721E+03  0.47000000000E+01 0.  1.
<mgrwt>
<rscale>  0 0.26877481E+03</rscale>
<asrwt>0</asrwt>
<pdfrwt beam="1">  1       21 0.73186275E-01 0.26877481E+03</pdfrwt>
<pdfrwt beam="2">  1       21 0.58406446E-02 0.26877481E+03</pdfrwt>
<totfact> 0.34021014E+05</totfact>
</mgrwt>
</event>
<event>
 8    1  0.4760912E-006  0.3347274E+03  0.7546771E-02  0.1069064E+00
         21   -1    0    0  504  503  0.00000000000E+00  0.00000000000E+00  0.19589551061E+03  0.19589551061E+03  0.00000000000E+00 0.  1.
         21   -1    0    0  503  504 -0.00000000000E+00 -0.00000000000E+00 -0.14298747070E+03  0.14298747070E+03  0.00000000000E+00 0.  1.
         25    2    1    2    0    0 -0.10959000331E+01  0.10685311602E+03  0.57931031115E+02  0.17435595904E+03  0.12500082675E+03 0.  0.
         25    2    1    2    0    0  0.10959000331E+01 -0.10685311602E+03 -0.50229912058E+01  0.16452702228E+03  0.12500048487E+03 0.  0.
          5    1    3    3  501    0  0.44220303004E+01 -0.26229962813E+02  0.25587787910E+02  0.37207394309E+02  0.47000000000E+01 0.  1.
         -5    1    3    3    0  501 -0.55179303335E+01  0.13308307884E+03  0.32343243206E+02  0.13714856473E+03  0.47000000000E+01 0.  1.
          5    1    4    4  502    0 -0.31699638937E+02 -0.12213881192E+03  0.59883663811E+01  0.12641482119E+03  0.47000000000E+01 0.  1.
         -5    1    4    4    0  502  0.32795538970E+02  0.15285695897E+02 -0.11011357587E+02  0.38112201081E+02  0.47000000000E+01 0.  1.
<mgrwt>
<rscale>  0 0.33472737E+03</rscale>
<asrwt>0</asrwt>
<pdfrwt beam="1">  1       21 0.30137771E-01 0.33472737E+03</pdfrwt>
<pdfrwt beam="2">  1       21 0.21998072E-01 0.33472737E+03</pdfrwt>
<totfact> 0.19664226E+05</totfact>
</mgrwt>
</event>
<event>
 8    1  0.4760912E-006  0.2742918E+03  0.7546771E-02  0.1098848E+00
         21   -1    0    0  504  503  0.00000000000E+00  0.00000000000E+00  0.43524933200E+03  0.43524933200E+03  0.00000000000E+00 0.  1.
         21   -1    0    0  503  504 -0.00000000000E+00 -0.00000000000E+00 -0.43214294529E+02  0.43214294529E+02  0.00000000000E+00 0.  1.
         25    2    1    2    0    0  0.18682266607E+02 -0.60829079921E+01  0.28826221304E+03  0.31481360641E+03  0.12500589769E+03 0.  0.
         25    2    1    2    0    0 -0.18682266607E+02  0.60829079921E+01  0.10377282443E+03  0.16365002012E+03  0.12500600442E+03 0.  0.
          5    1    3    3  501    0 -0.37317240498E+02 -0.75793754024E+01  0.23245610009E+03  0.23560125603E+03  0.47000000000E+01 0. -1.
         -5    1    3    3    0  501  0.55999507105E+02  0.14964674102E+01  0.55806112950E+02  0.79212350384E+02  0.47000000000E+01 0. -1.
          5    1    4    4  502    0 -0.92604629664E+01 -0.25630820627E+02 -0.20844284352E+02  0.34630468240E+02  0.47000000000E+01 0.  1.
         -5    1    4    4    0  502 -0.94218036410E+01  0.31713728619E+02  0.12461710878E+03  0.12901955188E+03  0.47000000000E+01 0.  1.
<mgrwt>
<rscale>  0 0.27429176E+03</rscale>
<asrwt>0</asrwt>
<pdfrwt beam="1">  1       21 0.66961433E-01 0.27429176E+03</pdfrwt>
<pdfrwt beam="2">  1       21 0.66483533E-02 0.27429176E+03</pdfrwt>
<totfact> 0.33104049E+05</totfact>
</mgrwt>
</event>
<event>
 8    1  0.4760912E-006  0.5717282E+03  0.7546771E-02  0.9965862E-01
         21   -1    0    0  504  503  0.00000000000E+00  0.00000000000E+00  0.11904920013E+03  0.11904920013E+03  0.00000000000E+00 0.  1.
         21   -1    0    0  503  504 -0.00000000000E+00 -0.00000000000E+00 -0.68642440063E+03  0.68642440063E+03  0.00000000000E+00 0.  1.
         25    2    1    2    0    0  0.15797969278E+03 -0.80790819266E+02 -0.54579297409E+03  0.58736605723E+03  0.12499669921E+03 0.  0.
         25    2    1    2    0    0 -0.15797969278E+03  0.80790819266E+02 -0.21582226408E+02  0.21810754352E+03  0.12498147157E+03 0.  0.
          5    1    3    3  501    0  0.13528733383E+03 -0.12680918361E+02 -0.43057310754E+03  0.45152935599E+03  0.47000000000E+01 0.  1.
         -5    1    3    3    0  501  0.22692358942E+02 -0.68109900905E+02 -0.11521986655E+03  0.13583670124E+03  0.47000000000E+01 0.  1.
          5    1    4    4  502    0 -0.10917753004E+03 -0.76380263712E+01 -0.37427625803E+02  0.11576264374E+03  0.47000000000E+01 0.  1.
         -5    1    4    4    0  502 -0.48802162736E+02  0.88428845637E+02  0.15845399395E+02  0.10234489978E+03  0.47000000000E+01 0.  1.
<mgrwt>
<rscale>  0 0.57172817E+03</rscale>
<asrwt>0</asrwt>
<pdfrwt beam="1">  1       21 0.18315261E-01 0.57172817E+03</pdfrwt>
<pdfrwt beam="2">  1       21 0.10560375E+00 0.57172817E+03</pdfrwt>
<totfact> 0.17092579E+04</totfact>
</mgrwt>
</event>
<event>
 8    1  0.4760912E-006  0.2998378E+03  0.7546771E-02  0.1085322E+00
         21   -1    0    0  504  503  0.00000000000E+00  0.00000000000E+00  0.72027442322E+02  0.72027442322E+02  0.00000000000E+00 0.  1.
         21   -1    0    0  503  504 -0.00000000000E+00 -0.00000000000E+00 -0.31204321080E+03  0.31204321080E+03  0.00000000000E+00 0.  1.
         25    2    1    2    0    0  0.46430902463E+02  0.68554421816E+02 -0.11898369973E+03  0.19137611124E+03  0.12494862023E+03 0.  0.
         25    2    1    2    0    0 -0.46430902463E+02 -0.68554421816E+02 -0.12103206874E+03  0.19269454188E+03  0.12500754918E+03 0.  0.
          5    1    3    3  501    0 -0.22893466496E+01 -0.18231523285E+02  0.15157570281E+02  0.24279033881E+02  0.47000000000E+01 0. -1.
         -5    1    3    3    0  501  0.48720249113E+02  0.86785945101E+02 -0.13414127001E+03  0.16709707736E+03  0.47000000000E+01 0. -1.
          5    1    4    4  502    0 -0.41413285480E-01  0.31489899074E+02 -0.56457766868E+02  0.64816548030E+02  0.47000000000E+01 0. -1.
         -5    1    4    4    0  502 -0.46389489178E+02 -0.10004432089E+03 -0.64574301874E+02  0.12787799385E+03  0.47000000000E+01 0. -1.
<mgrwt>
<rscale>  0 0.29983779E+03</rscale>
<asrwt>0</asrwt>
<pdfrwt beam="1">  1       21 0.11081145E-01 0.29983779E+03</pdfrwt>
<pdfrwt beam="2">  1       21 0.48006647E-01 0.29983779E+03</pdfrwt>
<totfact> 0.27327526E+05</totfact>
</mgrwt>
</event>
<event>
 8    1  0.4760912E-006  0.3831050E+03  0.7546771E-02  0.1049792E+00
         21   -1    0    0  504  503  0.00000000000E+00  0.00000000000E+00  0.13324271707E+04  0.13324271707E+04  0.00000000000E+00 0. -1.
         21   -1    0    0  503  504 -0.00000000000E+00 -0.00000000000E+00 -0.27537989614E+02  0.27537989614E+02  0.00000000000E+00 0. -1.
         25    2    1    2    0    0 -0.13053631062E+03 -0.63434708686E+02  0.66135549637E+03  0.68853121613E+03  0.12498180808E+03 0.  0.
         25    2    1    2    0    0  0.13053631062E+03  0.63434708686E+02  0.64353368469E+03  0.67143394416E+03  0.12499698949E+03 0.  0.
          5    1    3    3  501    0 -0.68794761580E+02  0.33367910072E+02  0.26866791318E+03  0.27937550755E+03  0.47000000000E+01 0. -1.
         -5    1    3    3    0  501 -0.61741549037E+02 -0.96802618758E+02  0.39268758319E+03  0.40915570858E+03  0.47000000000E+01 0. -1.
          5    1    4    4  502    0 -0.71307268217E+01  0.46003158999E+02  0.24443353187E+03  0.24887141138E+03  0.47000000000E+01 0.  1.
         -5    1    4    4    0  502  0.13766703744E+03  0.17431549688E+02  0.39910015283E+03  0.42256253278E+03  0.47000000000E+01 0.  1.
<mgrwt>
<rscale>  0 0.38310503E+03</rscale>
<asrwt>0</asrwt>
<pdfrwt beam="1">  1       21 0.20498874E+00 0.38310503E+03</pdfrwt>
<pdfrwt beam="2">  1       21 0.42366148E-02 0.38310503E+03</pdfrwt>
<totfact> 0.40430948E+04</totfact>
</mgrwt>
</event>
<event>
 8    1  0.4760912E-006  0.2678849E+03  0.7546771E-02  0.1102496E+00
         21   -1    0    0  504  503  0.00000000000E+00  0.00000000000E+00  0.20981333770E+03  0.20981333770E+03  0.00000000000E+00 0. -1.
         21   -1    0    0  503  504 -0.00000000000E+00 -0.00000000000E+00 -0.85507309115E+02  0.85507309115E+02  0.00000000000E+00 0. -1.
         25    2    1    2    0    0  0.41704252126E+02 -0.83213886982E+01  0.37360873483E+02  0.13722645374E+03  0.12500709813E+03 0.  0.
         25    2    1    2    0    0 -0.41704252126E+02  0.83213886982E+01  0.86945155100E+02  0.15809419308E+03  0.12500329489E+03 0.  0.
          5    1    3    3  501    0  0.77850979984E+02  0.24563738611E+02  0.14392869924E+02  0.83026483989E+02  0.47000000000E+01 0. -1.
         -5    1    3    3    0  501 -0.36146727858E+02 -0.32885127309E+02  0.22968003559E+02  0.54199969746E+02  0.47000000000E+01 0. -1.
          5    1    4    4  502    0 -0.67911819124E+02  0.43127100055E+02  0.80313894909E+02  0.11377334333E+03  0.47000000000E+01 0. -1.
         -5    1    4    4    0  502  0.26207566998E+02 -0.34805711357E+02  0.66312601901E+01  0.44320849752E+02  0.47000000000E+01 0. -1.
<mgrwt>
<rscale>  0 0.26788486E+03</rscale>
<asrwt>0</asrwt>
<pdfrwt beam="1">  1       21 0.32278975E-01 0.26788486E+03</pdfrwt>
<pdfrwt beam="2">  1       21 0.13154971E-01 0.26788486E+03</pdfrwt>
<totfact> 0.45251468E+05</totfact>
</mgrwt>
</event>
<event>
 8    1  0.4760912E-006  0.3113008E+03  0.7546771E-02  0.1079724E+00
         21   -1    0    0  504  503  0.00000000000E+00  0.00000000000E+00  0.22840073339E+03  0.22840073339E+03  0.00000000000E+00 0. -1.
         21   -1    0    0  503  504 -0.00000000000E+00 -0.00000000000E+00 -0.10607253636E+03  0.10607253636E+03  0.00000000000E+00 0. -1.
         25    2    1    2    0    0 -0.15984230477E+02  0.90095415230E+02  0.77604917825E+02  0.17323048038E+03  0.12495437804E+03 0.  0.
         25    2    1    2    0    0  0.15984230477E+02 -0.90095415230E+02  0.44723279212E+02  0.16124278938E+03  0.12500554369E+03 0.  0.
          5    1    3    3  501    0 -0.13287682267E+02  0.32458416428E+02 -0.33003374064E+02  0.48388263005E+02  0.47000000000E+01 0.  1.
         -5    1    3    3    0  501 -0.26965482097E+01  0.57636998802E+02  0.11060829189E+03  0.12484221737E+03  0.47000000000E+01 0.  1.
          5    1    4    4  502    0 -0.11100567301E+02 -0.11440937112E+03  0.19430954758E+02  0.11667209948E+03  0.47000000000E+01 0.  1.
         -5    1    4    4    0  502  0.27084797778E+02  0.24313955888E+02  0.25292324454E+02  0.44570689897E+02  0.47000000000E+01 0.  1.
<mgrwt>
<rscale>  0 0.31130079E+03</rscale>
<asrwt>0</asrwt>
<pdfrwt beam="1">  1       21 0.35138574E-01 0.31130079E+03</pdfrwt>
<pdfrwt beam="2">  1       21 0.16318852E-01 0.31130079E+03</pdfrwt>
<totfact> 0.25515939E+05</totfact>
</mgrwt>
</event>
<event>
 8    1  0.4760912E-006  0.2666472E+03  0.7546771E-02  0.1103214E+00
         21   -1    0    0  504  503  0.00000000000E+00  0.00000000000E+00  0.18841206303E+03  0.18841206303E+03  0.00000000000E+00 0.  1.
         21   -1    0    0  503  504 -0.00000000000E+00 -0.00000000000E+00 -0.94342066215E+02  0.94342066215E+02  0.00000000000E+00 0.  1.
         25    2    1    2    0    0 -0.44424240974E+02  0.37730337937E+01  0.33530924388E+02  0.13688690509E+03  0.12500381164E+03 0.  0.
         25    2    1    2    0    0  0.44424240974E+02 -0.37730337937E+01  0.60539072430E+02  0.14586722416E+03  0.12499807528E+03 0.  0.
          5    1    3    3  501    0 -0.86038601871E+02 -0.13502601056E+02  0.18524897680E+02  0.89164023469E+02  0.47000000000E+01 0. -1.
         -5    1    3    3    0  501  0.41614360897E+02  0.17275634849E+02  0.15006026708E+02  0.47722881617E+02  0.47000000000E+01 0. -1.
          5    1    4    4  502    0  0.69076323406E+02  0.40532352768E+02  0.25986971730E+02  0.84331623819E+02  0.47000000000E+01 0.  1.
         -5    1    4    4    0  502 -0.24652082432E+02 -0.44305386562E+02  0.34552100699E+02  0.61535600341E+02  0.47000000000E+01 0.  1.
<mgrwt>
<rscale>  0 0.26664721E+03</rscale>
<asrwt>0</asrwt>
<pdfrwt beam="1">  1       21 0.28986471E-01 0.26664721E+03</pdfrwt>
<pdfrwt beam="2">  1       21 0.14514164E-01 0.26664721E+03</pdfrwt>
<totfact> 0.46760189E+05</totfact>
</mgrwt>
</event>
<event>
 8    1  0.4760912E-006  0.2832104E+03  0.7546771E-02  0.1093948E+00
         21   -1    0    0  504  503  0.00000000000E+00  0.00000000000E+00  0.10023514463E+03  0.10023514463E+03  0.00000000000E+00 0. -1.
         21   -1    0    0  503  504 -0.00000000000E+00 -0.00000000000E+00 -0.20004996071E+03  0.20004996071E+03  0.00000000000E+00 0. -1.
         25    2    1    2    0    0 -0.16337979046E+02 -0.17681289395E+02 -0.11562243073E+03  0.17196863552E+03  0.12500043025E+03 0.  0.
         25    2    1    2    0    0  0.16337979046E+02  0.17681289395E+02  0.15807614648E+02  0.12831646982E+03  0.12504270547E+03 0.  0.
          5    1    3    3  501    0 -0.70589538828E+02 -0.13173319050E+02 -0.56747437337E+02  0.91644863310E+02  0.47000000000E+01 0. -1.
         -5    1    3    3    0  501  0.54251559782E+02 -0.45079703454E+01 -0.58874993396E+02  0.80323772214E+02  0.47000000000E+01 0. -1.
          5    1    4    4  502    0  0.75701378192E+01 -0.30427983938E+02  0.56325643020E+02  0.64636191524E+02  0.47000000000E+01 0.  1.
         -5    1    4    4    0  502  0.87678412272E+01  0.48109273333E+02 -0.40518028372E+02  0.63680278294E+02  0.47000000000E+01 0.  1.
<mgrwt>
<rscale>  0 0.28321043E+03</rscale>
<asrwt>0</asrwt>
<pdfrwt beam="1">  1       21 0.15420792E-01 0.28321043E+03</pdfrwt>
<pdfrwt beam="2">  1       21 0.30776916E-01 0.28321043E+03</pdfrwt>
<totfact> 0.37080586E+05</totfact>
</mgrwt>
</event>
<event>
 8    1  0.4760912E-006  0.2972214E+03  0.7546771E-02  0.1086638E+00
         21   -1    0    0  504  503  0.00000000000E+00  0.00000000000E+00  0.33537259287E+03  0.33537259287E+03  0.00000000000E+00 0.  1.
         21   -1    0    0  503  504 -0.00000000000E+00 -0.00000000000E+00 -0.65852567521E+02  0.65852567521E+02  0.00000000000E+00 0.  1.
         25    2    1    2    0    0  0.35366146311E+02 -0.24341153807E+02  0.22648664380E+03  0.26222743659E+03  0.12499509033E+03 0.  0.
         25    2    1    2    0    0 -0.35366146311E+02  0.24341153807E+02  0.43033381546E+02  0.13899772380E+03  0.12500095688E+03 0.  0.
          5    1    3    3  501    0 -0.70354754611E+01  0.46929742000E+02  0.64830423986E+02  0.80479640117E+02  0.47000000000E+01 0.  1.
         -5    1    3    3    0  501  0.42401621772E+02 -0.71270895807E+02  0.16165621982E+03  0.18174779647E+03  0.47000000000E+01 0.  1.
          5    1    4    4  502    0  0.44166588935E+02 -0.96125725962E+01  0.12016063390E+02  0.47006009291E+02  0.47000000000E+01 0. -1.
         -5    1    4    4    0  502 -0.79532735246E+02  0.33953726403E+02  0.31017318156E+02  0.91991714508E+02  0.47000000000E+01 0. -1.
<mgrwt>
<rscale>  0 0.29722144E+03</rscale>
<asrwt>0</asrwt>
<pdfrwt beam="1">  1       21 0.51595782E-01 0.29722144E+03</pdfrwt>
<pdfrwt beam="2">  1       21 0.10131164E-01 0.29722144E+03</pdfrwt>
<totfact> 0.27580289E+05</totfact>
</mgrwt>
</event>
<event>
 8    1  0.4760912E-006  0.2606346E+03  0.7546771E-02  0.1106763E+00
         21   -1    0    0  504  503  0.00000000000E+00  0.00000000000E+00  0.29526490160E+02  0.29526490160E+02  0.00000000000E+00 0.  1.
         21   -1    0    0  503  504 -0.00000000000E+00 -0.00000000000E+00 -0.57516480438E+03  0.57516480438E+03  0.00000000000E+00 0.  1.
         25    2    1    2    0    0  0.48219374453E+00 -0.19557712183E+02 -0.34528062157E+03  0.36773072702E+03  0.12499777337E+03 0.  0.
         25    2    1    2    0    0 -0.48219374453E+00  0.19557712183E+02 -0.20035769265E+03  0.23696056751E+03  0.12499747572E+03 0.  0.
          5    1    3    3  501    0 -0.56201910152E+02  0.14423131008E+02 -0.19474262186E+03  0.20325712824E+03  0.47000000000E+01 0. -1.
         -5    1    3    3    0  501  0.56684103896E+02 -0.33980843190E+02 -0.15053799971E+03  0.16447359878E+03  0.47000000000E+01 0. -1.
          5    1    4    4  502    0 -0.54659306874E+01 -0.68972500270E+01  0.16015291110E+02  0.18868704395E+02  0.47000000000E+01 0. -1.
         -5    1    4    4    0  502  0.49837369429E+01  0.26454962210E+02 -0.21637298376E+03  0.21809186312E+03  0.47000000000E+01 0. -1.
<mgrwt>
<rscale>  0 0.26063459E+03</rscale>
<asrwt>0</asrwt>
<pdfrwt beam="1">  1       21 0.45425368E-02 0.26063459E+03</pdfrwt>
<pdfrwt beam="2">  1       21 0.88486896E-01 0.26063459E+03</pdfrwt>
<totfact> 0.33959129E+05</totfact>
</mgrwt>
</event>
<event>
 8    1  0.4760912E-006  0.2673476E+03  0.7546771E-02  0.1102807E+00
         21   -1    0    0  504  503  0.00000000000E+00  0.00000000000E+00  0.49385725275E+02  0.49385725275E+02  0.00000000000E+00 0.  1.
         21   -1    0    0  503  504 -0.00000000000E+00 -0.00000000000E+00 -0.36181888172E+03  0.36181888172E+03  0.00000000000E+00 0.  1.
         25    2    1    2    0    0  0.21357700066E+02  0.35613600908E+02 -0.19124117880E+03  0.23221267004E+03  0.12500022293E+03 0.  0.
         25    2    1    2    0    0 -0.21357700066E+02 -0.35613600908E+02 -0.12119197764E+03  0.17899193696E+03  0.12500455244E+03 0.  0.
          5    1    3    3  501    0  0.64672870943E+02  0.41934725806E+02 -0.73902866727E+02  0.10688697383E+03  0.47000000000E+01 0.  1.
         -5    1    3    3    0  501 -0.43315170877E+02 -0.63211248978E+01 -0.11733831208E+03  0.12532569620E+03  0.47000000000E+01 0.  1.
          5    1    4    4  502    0 -0.72739694814E+02 -0.23370843954E+02 -0.55406928590E+02  0.94494853217E+02  0.47000000000E+01 0. -1.
         -5    1    4    4    0  502  0.51381994748E+02 -0.12242756954E+02 -0.65785049052E+02  0.84497083742E+02  0.47000000000E+01 0. -1.
<mgrwt>
<rscale>  0 0.26734762E+03</rscale>
<asrwt>0</asrwt>
<pdfrwt beam="1">  1       21 0.75978040E-02 0.26734762E+03</pdfrwt>
<pdfrwt beam="2">  1       21 0.55664442E-01 0.26734762E+03</pdfrwt>
<totfact> 0.39249427E+05</totfact>
</mgrwt>
</event>
<event>
 8    1  0.4760912E-006  0.3270375E+03  0.7546771E-02  0.1072455E+00
         21   -1    0    0  504  503  0.00000000000E+00  0.00000000000E+00  0.18413503374E+02  0.18413503374E+02  0.00000000000E+00 0. -1.
         21   -1    0    0  503  504 -0.00000000000E+00 -0.00000000000E+00 -0.14521070877E+04  0.14521070877E+04  0.00000000000E+00 0. -1.
         25    2    1    2    0    0 -0.12910381342E+01 -0.88187809663E+02 -0.97650398693E+03  0.98841650360E+03  0.12501356544E+03 0.  0.
         25    2    1    2    0    0  0.12910381342E+01  0.88187809663E+02 -0.45718959741E+03  0.48210408749E+03  0.12499306638E+03 0.  0.
          5    1    3    3  501    0 -0.62806340778E+02 -0.49672583709E+02 -0.52489459088E+03  0.53098815764E+03  0.47000000000E+01 0.  1.
         -5    1    3    3    0  501  0.61515302644E+02 -0.38515225954E+02 -0.45160939605E+03  0.45742834597E+03  0.47000000000E+01 0.  1.
          5    1    4    4  502    0  0.33231135646E+01 -0.34213079205E+01  0.65547066815E+01  0.93703047618E+01  0.47000000000E+01 0.  1.
         -5    1    4    4    0  502 -0.20320754304E+01  0.91609117584E+02 -0.46374430409E+03  0.47273378273E+03  0.47000000000E+01 0.  1.
<mgrwt>
<rscale>  0 0.32703748E+03</rscale>
<asrwt>0</asrwt>
<pdfrwt beam="1">  1       21 0.28328464E-02 0.32703748E+03</pdfrwt>
<pdfrwt beam="2">  1       21 0.22340111E+00 0.32703748E+03</pdfrwt>
<totfact> 0.62088579E+04</totfact>
</mgrwt>
</event>
<event>
 8    1  0.4760912E-006  0.3387368E+03  0.7546771E-02  0.1067335E+00
         21   -1    0    0  504  503  0.00000000000E+00  0.00000000000E+00  0.45524054592E+02  0.45524054592E+02  0.00000000000E+00 0.  1.
         21   -1    0    0  503  504 -0.00000000000E+00 -0.00000000000E+00 -0.63012076144E+03  0.63012076144E+03  0.00000000000E+00 0.  1.
         25    2    1    2    0    0  0.10773109198E+03  0.37430958026E+02 -0.30681742921E+03  0.35038463001E+03  0.12500155712E+03 0.  0.
         25    2    1    2    0    0 -0.10773109198E+03 -0.37430958026E+02 -0.27777927764E+03  0.32526018602E+03  0.12500318686E+03 0.  0.
          5    1    3    3  501    0 -0.21146124346E+02  0.41525699063E+01 -0.11353212590E+03  0.11565481410E+03  0.47000000000E+01 0.  1.
         -5    1    3    3    0  501  0.12887721633E+03  0.33278388120E+02 -0.19328530331E+03  0.23472981592E+03  0.47000000000E+01 0.  1.
          5    1    4    4  502    0 -0.18897380297E+02 -0.39561924579E+01 -0.20392767528E+03  0.20489350694E+03  0.47000000000E+01 0. -1.
         -5    1    4    4    0  502 -0.88833711686E+02 -0.33474765568E+02 -0.73851602354E+02  0.12036667908E+03  0.47000000000E+01 0. -1.
<mgrwt>
<rscale>  0 0.33873678E+03</rscale>
<asrwt>0</asrwt>
<pdfrwt beam="1">  1       21 0.70037011E-02 0.33873678E+03</pdfrwt>
<pdfrwt beam="2">  1       21 0.96941649E-01 0.33873678E+03</pdfrwt>
<totfact> 0.12747790E+05</totfact>
</mgrwt>
</event>
<event>
 8    1  0.4760912E-006  0.3121531E+03  0.7546771E-02  0.1079318E+00
         21   -1    0    0  504  503  0.00000000000E+00  0.00000000000E+00  0.50075506195E+03  0.50075506195E+03  0.00000000000E+00 0.  1.
         21   -1    0    0  503  504 -0.00000000000E+00 -0.00000000000E+00 -0.48646314847E+02  0.48646314847E+02  0.00000000000E+00 0.  1.
         25    2    1    2    0    0 -0.90592850729E+02 -0.11194402166E+02  0.19068294203E+03  0.24559129102E+03  0.12499087408E+03 0.  0.
         25    2    1    2    0    0  0.90592850729E+02  0.11194402166E+02  0.26142580507E+03  0.30381008577E+03  0.12499894966E+03 0.  0.
          5    1    3    3  501    0 -0.79540677053E+02 -0.31515303182E+02  0.42696401133E+02  0.95734039455E+02  0.47000000000E+01 0.  1.
         -5    1    3    3    0  501 -0.11052173676E+02  0.20320901016E+02  0.14798654090E+03  0.14985725157E+03  0.47000000000E+01 0.  1.
          5    1    4    4  502    0  0.16772175130E+02 -0.49941034706E+02  0.13571400850E+03  0.14565642762E+03  0.47000000000E+01 0. -1.
         -5    1    4    4    0  502  0.73820675599E+02  0.61135436872E+02  0.12571179657E+03  0.15815365814E+03  0.47000000000E+01 0. -1.
<mgrwt>
<rscale>  0 0.31215309E+03</rscale>
<asrwt>0</asrwt>
<pdfrwt beam="1">  1       21 0.77039237E-01 0.31215309E+03</pdfrwt>
<pdfrwt beam="2">  1       21 0.74840488E-02 0.31215309E+03</pdfrwt>
<totfact> 0.19508199E+05</totfact>
</mgrwt>
</event>
<event>
 8    1  0.4760912E-006  0.3573130E+03  0.7546771E-02  0.1059653E+00
         21   -1    0    0  504  503  0.00000000000E+00  0.00000000000E+00  0.25450918600E+03  0.25450918600E+03  0.00000000000E+00 0. -1.
         21   -1    0    0  503  504 -0.00000000000E+00 -0.00000000000E+00 -0.12541058654E+03  0.12541058654E+03  0.00000000000E+00 0. -1.
         25    2    1    2    0    0  0.79715835438E+01 -0.82651732226E+02 -0.38530830167E+02  0.15493292375E+03  0.12499892401E+03 0.  0.
         25    2    1    2    0    0 -0.79715835438E+01  0.82651732226E+02  0.16762942963E+03  0.22498684879E+03  0.12499840585E+03 0.  0.
          5    1    3    3  501    0 -0.29067299653E+02  0.22979721905E+02 -0.33356650351E+01  0.37499229181E+02  0.47000000000E+01 0. -1.
         -5    1    3    3    0  501  0.37038883197E+02 -0.10563145413E+03 -0.35195165132E+02  0.11743369456E+03  0.47000000000E+01 0. -1.
          5    1    4    4  502    0  0.53302988234E+02  0.10702513362E+02  0.49897151022E+02  0.73943005261E+02  0.47000000000E+01 0.  1.
         -5    1    4    4    0  502 -0.61274571778E+02  0.71949218863E+02  0.11773227861E+03  0.15104384353E+03  0.47000000000E+01 0.  1.
<mgrwt>
<rscale>  0 0.35731301E+03</rscale>
<asrwt>0</asrwt>
<pdfrwt beam="1">  1       21 0.39155259E-01 0.35731301E+03</pdfrwt>
<pdfrwt beam="2">  1       21 0.19293937E-01 0.35731301E+03</pdfrwt>
<totfact> 0.14843300E+05</totfact>
</mgrwt>
</event>
<event>
 8    1  0.4760912E-006  0.3486330E+03  0.7546771E-02  0.1063178E+00
         21   -1    0    0  504  503  0.00000000000E+00  0.00000000000E+00  0.82403401652E+02  0.82403401652E+02  0.00000000000E+00 0.  1.
         21   -1    0    0  503  504 -0.00000000000E+00 -0.00000000000E+00 -0.36874977284E+03  0.36874977284E+03  0.00000000000E+00 0.  1.
         25    2    1    2    0    0  0.12401453368E+02  0.10562551343E+03 -0.67169127250E+02  0.17733978873E+03  0.12500865521E+03 0.  0.
         25    2    1    2    0    0 -0.12401453368E+02 -0.10562551343E+03 -0.21917724394E+03  0.27381338576E+03  0.12499824331E+03 0.  0.
          5    1    3    3  501    0 -0.47527125412E+02  0.82047026141E+02 -0.19091348361E+02  0.96835487972E+02  0.47000000000E+01 0.  1.
         -5    1    3    3    0  501  0.59928578780E+02  0.23578487292E+02 -0.48077778890E+02  0.80504300758E+02  0.47000000000E+01 0.  1.
          5    1    4    4  502    0  0.56373101798E+02 -0.45271693083E+02 -0.93668217777E+02  0.11841992156E+03  0.47000000000E+01 0.  1.
         -5    1    4    4    0  502 -0.68774555166E+02 -0.60353820350E+02 -0.12550902616E+03  0.15539346420E+03  0.47000000000E+01 0.  1.
<mgrwt>
<rscale>  0 0.34863296E+03</rscale>
<asrwt>0</asrwt>
<pdfrwt beam="1">  1       21 0.12677446E-01 0.34863296E+03</pdfrwt>
<pdfrwt beam="2">  1       21 0.56730735E-01 0.34863296E+03</pdfrwt>
<totfact> 0.14870540E+05</totfact>
</mgrwt>
</event>
<event>
 8    1  0.4760912E-006  0.2929188E+03  0.7546771E-02  0.1088835E+00
         21   -1    0    0  504  503  0.00000000000E+00  0.00000000000E+00  0.10596067592E+02  0.10596067592E+02  0.00000000000E+00 0.  1.
         21   -1    0    0  503  504 -0.00000000000E+00 -0.00000000000E+00 -0.20243696469E+04  0.20243696469E+04  0.00000000000E+00 0.  1.
         25    2    1    2    0    0 -0.29427314118E+01 -0.17344476479E+02 -0.49088872465E+03  0.50685802082E+03  0.12499529090E+03 0.  0.
         25    2    1    2    0    0  0.29427314118E+01  0.17344476479E+02 -0.15228848547E+04  0.15281076937E+04  0.12500140954E+03 0.  0.
          5    1    3    3  501    0 -0.63084079963E+02 -0.16308431517E+02 -0.27907131328E+03  0.28661551594E+03  0.47000000000E+01 0.  1.
         -5    1    3    3    0  501  0.60141348551E+02 -0.10360449622E+01 -0.21181741137E+03  0.22024250488E+03  0.47000000000E+01 0.  1.
          5    1    4    4  502    0  0.47840065657E+02  0.50087085541E+02 -0.74564542153E+03  0.74887019747E+03  0.47000000000E+01 0. -1.
         -5    1    4    4    0  502 -0.44897334245E+02 -0.32742609062E+02 -0.77723943317E+03  0.77923749624E+03  0.47000000000E+01 0. -1.
<mgrwt>
<rscale>  0 0.29291881E+03</rscale>
<asrwt>0</asrwt>
<pdfrwt beam="1">  1       21 0.16301630E-02 0.29291881E+03</pdfrwt>
<pdfrwt beam="2">  1       21 0.31144172E+00 0.29291881E+03</pdfrwt>
<totfact> 0.46603538E+04</totfact>
</mgrwt>
</event>
<event>
 8    1  0.4760912E-006  0.2777235E+03  0.7546771E-02  0.1096939E+00
         21   -1    0    0  504  503  0.00000000000E+00  0.00000000000E+00  0.30452031699E+02  0.30452031699E+02  0.00000000000E+00 0. -1.
         21   -1    0    0  503  504 -0.00000000000E+00 -0.00000000000E+00 -0.63321173300E+03  0.63321173300E+03  0.00000000000E+00 0. -1.
         25    2    1    2    0    0  0.45661428206E+02 -0.33024438765E+02 -0.24843254430E+03  0.28373327225E+03  0.12494103062E+03 0.  0.
         25    2    1    2    0    0 -0.45661428206E+02  0.33024438765E+02 -0.35432715700E+03  0.37993049245E+03  0.12499546121E+03 0.  0.
          5    1    3    3  501    0  0.62309666013E+02 -0.12800784974E+02 -0.24907512579E+03  0.25711254901E+03  0.47000000000E+01 0. -1.
         -5    1    3    3    0  501 -0.16648237807E+02 -0.20223653791E+02  0.64258148299E+00  0.26620723238E+02  0.47000000000E+01 0. -1.
          5    1    4    4  502    0  0.97432168267E+01  0.69612250461E+02 -0.17486462873E+03  0.18852194585E+03  0.47000000000E+01 0. -1.
         -5    1    4    4    0  502 -0.55404645032E+02 -0.36587811696E+02 -0.17946252827E+03  0.19140854659E+03  0.47000000000E+01 0. -1.
<mgrwt>
<rscale>  0 0.27772349E+03</rscale>
<asrwt>0</asrwt>
<pdfrwt beam="1">  1       21 0.46849283E-02 0.27772349E+03</pdfrwt>
<pdfrwt beam="2">  1       21 0.97417181E-01 0.27772349E+03</pdfrwt>
<totfact> 0.25595170E+05</totfact>
</mgrwt>
</event>
<event>
 8    1  0.4760912E-006  0.2670029E+03  0.7546771E-02  0.1103007E+00
         21   -1    0    0  504  503  0.00000000000E+00  0.00000000000E+00  0.18690383668E+04  0.18690383668E+04  0.00000000000E+00 0.  1.
         21   -1    0    0  503  504 -0.00000000000E+00 -0.00000000000E+00 -0.95357222283E+01  0.95357222283E+01  0.00000000000E+00 0.  1.
         25    2    1    2    0    0  0.24894130900E+01  0.26269912601E+02  0.12023788215E+04  0.12091468297E+04  0.12499967957E+03 0.  0.
         25    2    1    2    0    0 -0.24894130900E+01 -0.26269912601E+02  0.65712382309E+03  0.66942725935E+03  0.12499932480E+03 0.  0.
          5    1    3    3  501    0 -0.44845022149E+02 -0.27815808394E+02  0.39017225040E+03  0.39375280341E+03  0.47000000000E+01 0. -1.
         -5    1    3    3    0  501  0.47334435239E+02  0.54085720995E+02  0.81220657107E+03  0.81539402626E+03  0.47000000000E+01 0. -1.
          5    1    4    4  502    0  0.50858405978E+02  0.21778632329E+02  0.30837928760E+03  0.31333809425E+03  0.47000000000E+01 0. -1.
         -5    1    4    4    0  502 -0.53347819068E+02 -0.48048544930E+02  0.34874453549E+03  0.35608916510E+03  0.47000000000E+01 0. -1.
<mgrwt>
<rscale>  0 0.26700285E+03</rscale>
<asrwt>0</asrwt>
<pdfrwt beam="1">  1       21 0.28754407E+00 0.26700285E+03</pdfrwt>
<pdfrwt beam="2">  1       21 0.14670357E-02 0.26700285E+03</pdfrwt>
<totfact> 0.77649517E+04</totfact>
</mgrwt>
</event>
<event>
 8    1  0.4760912E-006  0.2635553E+03  0.7546771E-02  0.1105026E+00
         21   -1    0    0  504  503  0.00000000000E+00  0.00000000000E+00  0.50194475510E+02  0.50194475510E+02  0.00000000000E+00 0. -1.
         21   -1    0    0  503  504 -0.00000000000E+00 -0.00000000000E+00 -0.34596141854E+03  0.34596141854E+03  0.00000000000E+00 0. -1.
         25    2    1    2    0    0  0.11474461937E+02  0.12695660902E+01 -0.20813650765E+03  0.24306173410E+03  0.12499970278E+03 0.  0.
         25    2    1    2    0    0 -0.11474461937E+02 -0.12695660902E+01 -0.87630435383E+02  0.15309415995E+03  0.12500181411E+03 0.  0.
          5    1    3    3  501    0  0.65136949491E+02 -0.22234707460E+01 -0.75436759746E+02  0.99802608845E+02  0.47000000000E+01 0. -1.
         -5    1    3    3    0  501 -0.53662487554E+02  0.34930368361E+01 -0.13269974790E+03  0.14325912526E+03  0.47000000000E+01 0. -1.
          5    1    4    4  502    0 -0.38664246101E+02 -0.35162335594E+02 -0.95233810679E+02  0.10873307899E+03  0.47000000000E+01 0.  1.
         -5    1    4    4    0  502  0.27189784164E+02  0.33892769504E+02  0.76033752958E+01  0.44361080955E+02  0.47000000000E+01 0.  1.
<mgrwt>
<rscale>  0 0.26355532E+03</rscale>
<asrwt>0</asrwt>
<pdfrwt beam="1">  1       21 0.77222270E-02 0.26355532E+03</pdfrwt>
<pdfrwt beam="2">  1       21 0.53224833E-01 0.26355532E+03</pdfrwt>
<totfact> 0.42000943E+05</totfact>
</mgrwt>
</event>
<event>
 8    1  0.4760912E-006  0.2849138E+03  0.7546771E-02  0.1093035E+00
         21   -1    0    0  504  503  0.00000000000E+00  0.00000000000E+00  0.31173789115E+03  0.31173789115E+03  0.00000000000E+00 0. -1.
         21   -1    0    0  503  504 -0.00000000000E+00 -0.00000000000E+00 -0.65099437791E+02  0.65099437791E+02  0.00000000000E+00 0. -1.
         25    2    1    2    0    0  0.59553274525E+02 -0.16055062060E+02  0.84434669510E+02  0.16297099408E+03  0.12500389583E+03 0.  0.
         25    2    1    2    0    0 -0.59553274525E+02  0.16055062060E+02  0.16220378385E+03  0.21386633486E+03  0.12499753664E+03 0.  0.
          5    1    3    3  501    0  0.56548435223E+02  0.11562479304E+02 -0.14835712874E+02  0.59779635582E+02  0.47000000000E+01 0. -1.
         -5    1    3    3    0  501  0.30048393026E+01 -0.27617541364E+02  0.99270382384E+02  0.10319135850E+03  0.47000000000E+01 0. -1.
          5    1    4    4  502    0 -0.28308491253E+00 -0.29381963589E+02  0.12831467850E+03  0.13171987944E+03  0.47000000000E+01 0. -1.
         -5    1    4    4    0  502 -0.59270189613E+02  0.45437025649E+02  0.33889105350E+02  0.82146455419E+02  0.47000000000E+01 0. -1.
<mgrwt>
<rscale>  0 0.28491375E+03</rscale>
<asrwt>0</asrwt>
<pdfrwt beam="1">  1       21 0.47959675E-01 0.28491375E+03</pdfrwt>
<pdfrwt beam="2">  1       21 0.10015298E-01 0.28491375E+03</pdfrwt>
<totfact> 0.32914891E+05</totfact>
</mgrwt>
</event>
<event>
 8    1  0.4760912E-006  0.4730948E+03  0.7546771E-02  0.1021050E+00
         21   -1    0    0  504  503  0.00000000000E+00  0.00000000000E+00  0.34740283960E+03  0.34740283960E+03  0.00000000000E+00 0.  1.
         21   -1    0    0  503  504 -0.00000000000E+00 -0.00000000000E+00 -0.16106564803E+03  0.16106564803E+03  0.00000000000E+00 0.  1.
         25    2    1    2    0    0 -0.37087092609E+01  0.13492078446E+03 -0.66653831162E+02  0.19566453812E+03  0.12499802264E+03 0.  0.
         25    2    1    2    0    0  0.37087092609E+01 -0.13492078446E+03  0.25299102274E+03  0.31280394951E+03  0.12499792254E+03 0.  0.
          5    1    3    3  501    0  0.22011654171E+02  0.15138819729E+03 -0.56198404970E+02  0.16304370555E+03  0.47000000000E+01 0.  1.
         -5    1    3    3    0  501 -0.25720363432E+02 -0.16467412831E+02 -0.10455426192E+02  0.32620832565E+02  0.47000000000E+01 0.  1.
          5    1    4    4  502    0  0.53769300090E+02 -0.60266262574E+02  0.17846656269E+03  0.19594786050E+03  0.47000000000E+01 0.  1.
         -5    1    4    4    0  502 -0.50060590829E+02 -0.74654521890E+02  0.74524460043E+02  0.11685608900E+03  0.47000000000E+01 0.  1.
<mgrwt>
<rscale>  0 0.47309476E+03</rscale>
<asrwt>0</asrwt>
<pdfrwt beam="1">  1       21 0.53446591E-01 0.47309476E+03</pdfrwt>
<pdfrwt beam="2">  1       21 0.24779331E-01 0.47309476E+03</pdfrwt>
<totfact> 0.46712293E+04</totfact>
</mgrwt>
</event>
<event>
 8    1  0.4760912E-006  0.5144156E+03  0.7546771E-02  0.1010083E+00
         21   -1    0    0  504  503  0.00000000000E+00  0.00000000000E+00  0.17785847264E+03  0.17785847264E+03  0.00000000000E+00 0. -1.
         21   -1    0    0  503  504 -0.00000000000E+00 -0.00000000000E+00 -0.37195781548E+03  0.37195781548E+03  0.00000000000E+00 0. -1.
         25    2    1    2    0    0 -0.19868549936E+03  0.77234083974E+02 -0.20797859189E+02  0.24798848829E+03  0.12499883197E+03 0.  0.
         25    2    1    2    0    0  0.19868549936E+03 -0.77234083974E+02 -0.17330148365E+03  0.30182779983E+03  0.12500234051E+03 0.  0.
          5    1    3    3  501    0  0.21456799601E+01  0.20833542189E+02 -0.32565873905E+02  0.39003417361E+02  0.47000000000E+01 0.  1.
         -5    1    3    3    0  501 -0.20083117932E+03  0.56400541785E+02  0.11768014716E+02  0.20898507093E+03  0.47000000000E+01 0.  1.
          5    1    4    4  502    0 -0.12629124217E+02 -0.21105656482E+02 -0.35137682834E+02  0.43147308942E+02  0.47000000000E+01 0. -1.
         -5    1    4    4    0  502  0.21131462357E+03 -0.56128427491E+02 -0.13816380082E+03  0.25868049089E+03  0.47000000000E+01 0. -1.
<mgrwt>
<rscale>  0 0.51441559E+03</rscale>
<asrwt>0</asrwt>
<pdfrwt beam="1">  1       21 0.27362842E-01 0.51441559E+03</pdfrwt>
<pdfrwt beam="2">  1       21 0.57224279E-01 0.51441559E+03</pdfrwt>
<totfact> 0.32896685E+04</totfact>
</mgrwt>
</event>
<event>
 8    1  0.4760912E-006  0.2555128E+03  0.7546771E-02  0.1109870E+00
         21   -1    0    0  504  503  0.00000000000E+00  0.00000000000E+00  0.87512271140E+02  0.87512271140E+02  0.00000000000E+00 0.  1.
         21   -1    0    0  503  504 -0.00000000000E+00 -0.00000000000E+00 -0.18650760491E+03  0.18650760491E+03  0.00000000000E+00 0.  1.
         25    2    1    2    0    0 -0.19514182993E+02  0.17816345502E+02 -0.50663447421E+02  0.13744317052E+03  0.12500245882E+03 0.  0.
         25    2    1    2    0    0  0.19514182993E+02 -0.17816345502E+02 -0.48331886349E+02  0.13657670553E+03  0.12497599670E+03 0.  0.
          5    1    3    3  501    0  0.22578994883E+02 -0.44863457107E+02 -0.95361851777E+01  0.51337799147E+02  0.47000000000E+01 0. -1.
         -5    1    3    3    0  501 -0.42093177876E+02  0.62679802609E+02 -0.41127262244E+02  0.86105371368E+02  0.47000000000E+01 0. -1.
          5    1    4    4  502    0  0.48163424296E+02 -0.50646616441E+02  0.16930740418E+01  0.70069620353E+02  0.47000000000E+01 0. -1.
         -5    1    4    4    0  502 -0.28649241303E+02  0.32830270939E+02 -0.50024960390E+02  0.66507085180E+02  0.47000000000E+01 0. -1.
<mgrwt>
<rscale>  0 0.25551285E+03</rscale>
<asrwt>0</asrwt>
<pdfrwt beam="1">  1       21 0.13463427E-01 0.25551285E+03</pdfrwt>
<pdfrwt beam="2">  1       21 0.28693477E-01 0.25551285E+03</pdfrwt>
<totfact> 0.54807610E+05</totfact>
</mgrwt>
</event>
<event>
 8    1  0.4760912E-006  0.2602491E+03  0.7546771E-02  0.1106994E+00
         21   -1    0    0  504  503  0.00000000000E+00  0.00000000000E+00  0.73922400071E+03  0.73922400071E+03  0.00000000000E+00 0. -1.
         21   -1    0    0  503  504 -0.00000000000E+00 -0.00000000000E+00 -0.22905641178E+02  0.22905641178E+02  0.00000000000E+00 0. -1.
         25    2    1    2    0    0  0.11927646331E+02  0.11143193578E+02  0.26351116118E+03  0.29210211321E+03  0.12497628961E+03 0.  0.
         25    2    1    2    0    0 -0.11927646331E+02 -0.11143193578E+02  0.45280719835E+03  0.47002752868E+03  0.12500031731E+03 0.  0.
          5    1    3    3  501    0 -0.47827607129E+02 -0.35005439805E+01  0.19055084563E+03  0.19654884529E+03  0.47000000000E+01 0.  1.
         -5    1    3    3    0  501  0.59755253460E+02  0.14643737558E+02  0.72960315550E+02  0.95553267924E+02  0.47000000000E+01 0.  1.
          5    1    4    4  502    0 -0.20329164861E+02  0.35694536630E+02  0.38410036985E+03  0.38631924494E+03  0.47000000000E+01 0.  1.
         -5    1    4    4    0  502  0.84015185297E+01 -0.46837730208E+02  0.68706828497E+02  0.83708283740E+02  0.47000000000E+01 0.  1.
<mgrwt>
<rscale>  0 0.26024911E+03</rscale>
<asrwt>0</asrwt>
<pdfrwt beam="1">  1       21 0.11372675E+00 0.26024911E+03</pdfrwt>
<pdfrwt beam="2">  1       21 0.35239454E-02 0.26024911E+03</pdfrwt>
<totfact> 0.28588552E+05</totfact>
</mgrwt>
</event>
<event>
 8    1  0.4760912E-006  0.3472688E+03  0.7546771E-02  0.1063742E+00
         21   -1    0    0  504  503  0.00000000000E+00  0.00000000000E+00  0.69560248222E+03  0.69560248222E+03  0.00000000000E+00 0.  1.
         21   -1    0    0  503  504 -0.00000000000E+00 -0.00000000000E+00 -0.43342137663E+02  0.43342137663E+02  0.00000000000E+00 0.  1.
         25    2    1    2    0    0 -0.60448948007E+01  0.69186425015E+02  0.11656194444E+03  0.18448973914E+03  0.12500589906E+03 0.  0.
         25    2    1    2    0    0  0.60448948007E+01 -0.69186425015E+02  0.53569840013E+03  0.55445488074E+03  0.12499654685E+03 0.  0.
          5    1    3    3  501    0  0.46378121312E+02  0.49865591904E+02  0.17191003029E+02  0.70392669914E+02  0.47000000000E+01 0.  1.
         -5    1    3    3    0  501 -0.52423016113E+02  0.19320833111E+02  0.99370941407E+02  0.11409706923E+03  0.47000000000E+01 0.  1.
          5    1    4    4  502    0 -0.38362945808E+02 -0.40240947894E+01  0.35657310618E+03  0.35868423300E+03  0.47000000000E+01 0.  1.
         -5    1    4    4    0  502  0.44407840609E+02 -0.65162330226E+02  0.17912529394E+03  0.19577064774E+03  0.47000000000E+01 0.  1.
<mgrwt>
<rscale>  0 0.34726876E+03</rscale>
<asrwt>0</asrwt>
<pdfrwt beam="1">  1       21 0.10701576E+00 0.34726876E+03</pdfrwt>
<pdfrwt beam="2">  1       21 0.66680217E-02 0.34726876E+03</pdfrwt>
<totfact> 0.10906498E+05</totfact>
</mgrwt>
</event>
<event>
 8    1  0.4760912E-006  0.2585475E+03  0.7546771E-02  0.1108019E+00
         21   -1    0    0  504  503  0.00000000000E+00  0.00000000000E+00  0.13695232166E+03  0.13695232166E+03  0.00000000000E+00 0. -1.
         21   -1    0    0  503  504 -0.00000000000E+00 -0.00000000000E+00 -0.12202571638E+03  0.12202571638E+03  0.00000000000E+00 0. -1.
         25    2    1    2    0    0 -0.27383208880E+02 -0.16616143385E+02 -0.49430579565E+00  0.12903186781E+03  0.12499216864E+03 0.  0.
         25    2    1    2    0    0  0.27383208880E+02  0.16616143385E+02  0.15420911074E+02  0.12994617024E+03  0.12498906477E+03 0.  0.
          5    1    3    3  501    0 -0.61226292081E+02  0.32245552769E+02 -0.20550022544E+01  0.69388381950E+02  0.47000000000E+01 0.  1.
         -5    1    3    3    0  501  0.33843083201E+02 -0.48861696154E+02  0.15606964588E+01  0.59643485856E+02  0.47000000000E+01 0.  1.
          5    1    4    4  502    0  0.75128084549E+02  0.48407163198E+00  0.23123818042E+02  0.78748107115E+02  0.47000000000E+01 0. -1.
         -5    1    4    4    0  502 -0.47744875669E+02  0.16132071753E+02 -0.77029069684E+01  0.51198063122E+02  0.47000000000E+01 0. -1.
<mgrwt>
<rscale>  0 0.25854752E+03</rscale>
<asrwt>0</asrwt>
<pdfrwt beam="1">  1       21 0.21069588E-01 0.25854752E+03</pdfrwt>
<pdfrwt beam="2">  1       21 0.18773187E-01 0.25854752E+03</pdfrwt>
<totfact> 0.53718644E+05</totfact>
</mgrwt>
</event>
<event>
 8    1  0.4760912E-006  0.3191056E+03  0.7546771E-02  0.1076062E+00
         21   -1    0    0  504  503  0.00000000000E+00  0.00000000000E+00  0.50475125369E+03  0.50475125369E+03  0.00000000000E+00 0.  1.
         21   -1    0    0  503  504 -0.00000000000E+00 -0.00000000000E+00 -0.50434947272E+02  0.50434947272E+02  0.00000000000E+00 0.  1.
         25    2    1    2    0    0  0.95154351056E+01  0.85953223190E+02  0.14276843928E+03  0.20853396834E+03  0.12500035447E+03 0.  0.
         25    2    1    2    0    0 -0.95154351056E+01 -0.85953223190E+02  0.31154786715E+03  0.34665223262E+03  0.12500878681E+03 0.  0.
          5    1    3    3  501    0 -0.85600262955E+01  0.67385637216E+02  0.16212970715E+03  0.17584717824E+03  0.47000000000E+01 0. -1.
         -5    1    3    3    0  501  0.18075461401E+02  0.18567585974E+02 -0.19361267873E+02  0.32686790105E+02  0.47000000000E+01 0. -1.
          5    1    4    4  502    0  0.49966732580E+00 -0.49207561609E+02  0.30342692153E+03  0.30742742314E+03  0.47000000000E+01 0.  1.
         -5    1    4    4    0  502 -0.10015102431E+02 -0.36745661581E+02  0.81209456157E+01  0.39224809489E+02  0.47000000000E+01 0.  1.
<mgrwt>
<rscale>  0 0.31910564E+03</rscale>
<asrwt>0</asrwt>
<pdfrwt beam="1">  1       21 0.77654035E-01 0.31910564E+03</pdfrwt>
<pdfrwt beam="2">  1       21 0.77592230E-02 0.31910564E+03</pdfrwt>
<totfact> 0.17953894E+05</totfact>
</mgrwt>
</event>
<event>
 8    1  0.4760912E-006  0.9239465E+03  0.7546771E-02  0.9396132E-01
         21   -1    0    0  504  503  0.00000000000E+00  0.00000000000E+00  0.32968727394E+03  0.32968727394E+03  0.00000000000E+00 0.  1.
         21   -1    0    0  503  504 -0.00000000000E+00 -0.00000000000E+00 -0.64733854395E+03  0.64733854395E+03  0.00000000000E+00 0.  1.
         25    2    1    2    0    0  0.79484441265E+01 -0.42731284883E+03 -0.28890387014E+03  0.53080794781E+03  0.12502872765E+03 0.  0.
         25    2    1    2    0    0 -0.79484441265E+01  0.42731284883E+03 -0.28747399870E+02  0.44621787009E+03  0.12499810418E+03 0.  0.
          5    1    3    3  501    0 -0.37002001435E+02 -0.19279914272E+03 -0.75052156972E+02  0.21022743354E+03  0.47000000000E+01 0.  1.
         -5    1    3    3    0  501  0.44950445561E+02 -0.23451370610E+03 -0.21385171316E+03  0.32058051427E+03  0.47000000000E+01 0.  1.
          5    1    4    4  502    0  0.49958163815E+02  0.24909657493E+03 -0.45051761548E+02  0.25806331198E+03  0.47000000000E+01 0.  1.
         -5    1    4    4    0  502 -0.57906607942E+02  0.17821627390E+03  0.16304361678E+02  0.18815455811E+03  0.47000000000E+01 0.  1.
<mgrwt>
<rscale>  0 0.92394649E+03</rscale>
<asrwt>0</asrwt>
<pdfrwt beam="1">  1       21 0.50721119E-01 0.92394649E+03</pdfrwt>
<pdfrwt beam="2">  1       21 0.99590545E-01 0.92394649E+03</pdfrwt>
<totfact> 0.23699603E+03</totfact>
</mgrwt>
</event>
<event>
 8    1  0.4760912E-006  0.3882905E+03  0.7546771E-02  0.1047911E+00
         21   -1    0    0  504  503  0.00000000000E+00  0.00000000000E+00  0.11950798946E+03  0.11950798946E+03  0.00000000000E+00 0. -1.
         21   -1    0    0  503  504 -0.00000000000E+00 -0.00000000000E+00 -0.31539635486E+03  0.31539635486E+03  0.00000000000E+00 0. -1.
         25    2    1    2    0    0 -0.64591183403E+02 -0.74089652535E+02 -0.22269744059E+03  0.27364451338E+03  0.12500348824E+03 0.  0.
         25    2    1    2    0    0  0.64591183403E+02  0.74089652535E+02  0.26809075187E+02  0.16125983093E+03  0.12499883589E+03 0.  0.
          5    1    3    3  501    0 -0.33890821752E+02 -0.10535809962E+03 -0.18509702833E+03  0.21571257926E+03  0.47000000000E+01 0. -1.
         -5    1    3    3    0  501 -0.30700361651E+02  0.31268447085E+02 -0.37600412255E+02  0.57931934115E+02  0.47000000000E+01 0. -1.
          5    1    4    4  502    0 -0.42602455867E+01  0.47111150520E+02  0.62898250695E+02  0.78840916638E+02  0.47000000000E+01 0.  1.
         -5    1    4    4    0  502  0.68851428990E+02  0.26978502015E+02 -0.36089175507E+02  0.82418914296E+02  0.47000000000E+01 0.  1.
<mgrwt>
<rscale>  0 0.38829053E+03</rscale>
<asrwt>0</asrwt>
<pdfrwt beam="1">  1       21 0.18385845E-01 0.38829053E+03</pdfrwt>
<pdfrwt beam="2">  1       21 0.48522516E-01 0.38829053E+03</pdfrwt>
<totfact> 0.10344136E+05</totfact>
</mgrwt>
</event>
<event>
 8    1  0.4760912E-006  0.3965259E+03  0.7546771E-02  0.1044989E+00
         21   -1    0    0  504  503  0.00000000000E+00  0.00000000000E+00  0.12395665601E+03  0.12395665601E+03  0.00000000000E+00 0.  1.
         21   -1    0    0  503  504 -0.00000000000E+00 -0.00000000000E+00 -0.31711241169E+03  0.31711241169E+03  0.00000000000E+00 0.  1.
         25    2    1    2    0    0 -0.51815695783E+02  0.11489141606E+03  0.16726183331E+01  0.17751783510E+03  0.12499952125E+03 0.  0.
         25    2    1    2    0    0  0.51815695783E+02 -0.11489141606E+03 -0.19482837401E+03  0.26355123261E+03  0.12496500739E+03 0.  0.
          5    1    3    3  501    0 -0.39799283214E+02  0.20165545931E+02 -0.51358252749E+02  0.68193784999E+02  0.47000000000E+01 0. -1.
         -5    1    3    3    0  501 -0.12016412569E+02  0.94725870131E+02  0.53030871083E+02  0.10932405010E+03  0.47000000000E+01 0. -1.
          5    1    4    4  502    0  0.83068073309E+02 -0.11936591395E+03 -0.16248019630E+03  0.21810646576E+03  0.47000000000E+01 0. -1.
         -5    1    4    4    0  502 -0.31252377526E+02  0.44744978856E+01 -0.32348177712E+02  0.45444766845E+02  0.47000000000E+01 0. -1.
<mgrwt>
<rscale>  0 0.39652588E+03</rscale>
<asrwt>0</asrwt>
<pdfrwt beam="1">  1       21 0.19070255E-01 0.39652588E+03</pdfrwt>
<pdfrwt beam="2">  1       21 0.48786525E-01 0.39652588E+03</pdfrwt>
<totfact> 0.95284617E+04</totfact>
</mgrwt>
</event>
<event>
 8    1  0.4760912E-006  0.2923287E+03  0.7546771E-02  0.1089140E+00
         21   -1    0    0  504  503  0.00000000000E+00  0.00000000000E+00  0.86491680505E+02  0.86491680505E+02  0.00000000000E+00 0.  1.
         21   -1    0    0  503  504 -0.00000000000E+00 -0.00000000000E+00 -0.24700657186E+03  0.24700657186E+03  0.00000000000E+00 0.  1.
         25    2    1    2    0    0 -0.85140949857E+01  0.23365019246E+02  0.13893282613E+01  0.12745342186E+03  0.12499612223E+03 0.  0.
         25    2    1    2    0    0  0.85140949857E+01 -0.23365019246E+02 -0.16190421961E+03  0.20604483050E+03  0.12499232741E+03 0.  0.
          5    1    3    3  501    0  0.17524834388E+02  0.63539623719E+02  0.28804475741E+02  0.72084612959E+02  0.47000000000E+01 0.  1.
         -5    1    3    3    0  501 -0.26038929374E+02 -0.40174604473E+02 -0.27415147480E+02  0.55368808899E+02  0.47000000000E+01 0.  1.
          5    1    4    4  502    0 -0.28151734047E+02  0.26491026754E+02 -0.75312178962E+01  0.39662373495E+02  0.47000000000E+01 0.  1.
         -5    1    4    4    0  502  0.36665829032E+02 -0.49856045999E+02 -0.15437300172E+03  0.16638245701E+03  0.47000000000E+01 0.  1.
<mgrwt>
<rscale>  0 0.29232867E+03</rscale>
<asrwt>0</asrwt>
<pdfrwt beam="1">  1       21 0.13306413E-01 0.29232867E+03</pdfrwt>
<pdfrwt beam="2">  1       21 0.38001010E-01 0.29232867E+03</pdfrwt>
<totfact> 0.31816367E+05</totfact>
</mgrwt>
</event>
<event>
 8    1  0.4760912E-006  0.4107739E+03  0.7546771E-02  0.1040112E+00
         21   -1    0    0  504  503  0.00000000000E+00  0.00000000000E+00  0.18280848691E+03  0.18280848691E+03  0.00000000000E+00 0.  1.
         21   -1    0    0  503  504 -0.00000000000E+00 -0.00000000000E+00 -0.23075403095E+03  0.23075403095E+03  0.00000000000E+00 0.  1.
         25    2    1    2    0    0 -0.91355970804E+02  0.11307680158E+03 -0.98134663811E+02  0.21537935107E+03  0.12500230466E+03 0.  0.
         25    2    1    2    0    0  0.91355970804E+02 -0.11307680158E+03  0.50189119776E+02  0.19818316678E+03  0.12500137357E+03 0.  0.
          5    1    3    3  501    0 -0.60015957085E+02  0.13670529215E+03 -0.91849973934E+02  0.17535324268E+03  0.47000000000E+01 0.  1.
         -5    1    3    3    0  501 -0.31340013719E+02 -0.23628490569E+02 -0.62846898763E+01  0.40026108395E+02  0.47000000000E+01 0.  1.
          5    1    4    4  502    0 -0.27715864759E+02 -0.20568233136E+02 -0.92470562062E+01  0.36039137367E+02  0.47000000000E+01 0. -1.
         -5    1    4    4    0  502  0.11907183556E+03 -0.92508568442E+02  0.59436175982E+02  0.16214402942E+03  0.47000000000E+01 0. -1.
<mgrwt>
<rscale>  0 0.41077388E+03</rscale>
<asrwt>0</asrwt>
<pdfrwt beam="1">  1       21 0.28124383E-01 0.41077388E+03</pdfrwt>
<pdfrwt beam="2">  1       21 0.35500620E-01 0.41077388E+03</pdfrwt>
<totfact> 0.86687656E+04</totfact>
</mgrwt>
</event>
<event>
 8    1  0.4760912E-006  0.4369140E+03  0.7546771E-02  0.1031698E+00
         21   -1    0    0  504  503  0.00000000000E+00  0.00000000000E+00  0.12661068469E+03  0.12661068469E+03  0.00000000000E+00 0. -1.
         21   -1    0    0  503  504 -0.00000000000E+00 -0.00000000000E+00 -0.37693071589E+03  0.37693071589E+03  0.00000000000E+00 0. -1.
         25    2    1    2    0    0  0.83213043972E+02 -0.62881491964E+02  0.42722316882E+02  0.16831463207E+03  0.12500450508E+03 0.  0.
         25    2    1    2    0    0 -0.83213043972E+02  0.62881491964E+02 -0.29304234808E+03  0.33522676851E+03  0.12499870334E+03 0.  0.
          5    1    3    3  501    0  0.93098083213E+02 -0.84307064910E+02  0.59424291154E+02  0.13902615103E+03  0.47000000000E+01 0.  1.
         -5    1    3    3    0  501 -0.98850392405E+01  0.21425572946E+02 -0.16701974272E+02  0.29288481037E+02  0.47000000000E+01 0.  1.
          5    1    4    4  502    0 -0.11471355666E+03  0.38510559163E+02 -0.19838060208E+03  0.23242034449E+03  0.47000000000E+01 0.  1.
         -5    1    4    4    0  502  0.31500512686E+02  0.24370932801E+02 -0.94661745995E+02  0.10280642402E+03  0.47000000000E+01 0.  1.
<mgrwt>
<rscale>  0 0.43691398E+03</rscale>
<asrwt>0</asrwt>
<pdfrwt beam="1">  1       21 0.19478567E-01 0.43691398E+03</pdfrwt>
<pdfrwt beam="2">  1       21 0.57989340E-01 0.43691398E+03</pdfrwt>
<totfact> 0.62653493E+04</totfact>
</mgrwt>
</event>
<event>
 8    1  0.4760912E-006  0.3185411E+03  0.7546771E-02  0.1076323E+00
         21   -1    0    0  504  503  0.00000000000E+00  0.00000000000E+00  0.30071259849E+03  0.30071259849E+03  0.00000000000E+00 0.  1.
         21   -1    0    0  503  504 -0.00000000000E+00 -0.00000000000E+00 -0.84356648297E+02  0.84356648297E+02  0.00000000000E+00 0.  1.
         25    2    1    2    0    0 -0.65152875615E+02  0.61100651386E+02  0.57387474599E+02  0.16399466267E+03  0.12499096104E+03 0.  0.
         25    2    1    2    0    0  0.65152875615E+02 -0.61100651386E+02  0.15896847560E+03  0.22107458412E+03  0.12499923484E+03 0.  0.
          5    1    3    3  501    0  0.26674087026E+02  0.33011361377E+02 -0.13231539632E+02  0.44703697159E+02  0.47000000000E+01 0. -1.
         -5    1    3    3    0  501 -0.91826962641E+02  0.28089290009E+02  0.70619014231E+02  0.11929096551E+03  0.47000000000E+01 0. -1.
          5    1    4    4  502    0  0.35270057265E+02  0.62682057777E+01  0.14033510638E+03  0.14491135023E+03  0.47000000000E+01 0. -1.
         -5    1    4    4    0  502  0.29882818350E+02 -0.67368857164E+02  0.18633369214E+02  0.76163233889E+02  0.47000000000E+01 0. -1.
<mgrwt>
<rscale>  0 0.31854109E+03</rscale>
<asrwt>0</asrwt>
<pdfrwt beam="1">  1       21 0.46263476E-01 0.31854109E+03</pdfrwt>
<pdfrwt beam="2">  1       21 0.12977946E-01 0.31854109E+03</pdfrwt>
<totfact> 0.22102999E+05</totfact>
</mgrwt>
</event>
<event>
 8    1  0.4760912E-006  0.2991133E+03  0.7546771E-02  0.1085685E+00
         21   -1    0    0  504  503  0.00000000000E+00  0.00000000000E+00  0.27779226189E+02  0.27779226189E+02  0.00000000000E+00 0.  1.
         21   -1    0    0  503  504 -0.00000000000E+00 -0.00000000000E+00 -0.80517668070E+03  0.80517668070E+03  0.00000000000E+00 0.  1.
         25    2    1    2    0    0  0.19104964242E+02  0.18531355975E+02 -0.60498954063E+03  0.61834144822E+03  0.12500156598E+03 0.  0.
         25    2    1    2    0    0 -0.19104964242E+02 -0.18531355975E+02 -0.17240791388E+03  0.21461445867E+03  0.12500586502E+03 0.  0.
          5    1    3    3  501    0 -0.34831030005E+01  0.41155248506E+01  0.43653943726E+01  0.83795118793E+01  0.47000000000E+01 0.  1.
         -5    1    3    3    0  501  0.22588067243E+02  0.14415831125E+02 -0.60935493500E+03  0.60996193634E+03  0.47000000000E+01 0.  1.
          5    1    4    4  502    0  0.50749658862E+02  0.31149553924E+01 -0.96057051406E+02  0.10878546753E+03  0.47000000000E+01 0.  1.
         -5    1    4    4    0  502 -0.69854623104E+02 -0.21646311368E+02 -0.76350862476E+02  0.10582899114E+03  0.47000000000E+01 0.  1.
<mgrwt>
<rscale>  0 0.29911326E+03</rscale>
<asrwt>0</asrwt>
<pdfrwt beam="1">  1       21 0.42737272E-02 0.29911326E+03</pdfrwt>
<pdfrwt beam="2">  1       21 0.12387333E+00 0.29911326E+03</pdfrwt>
<totfact> 0.16506028E+05</totfact>
</mgrwt>
</event>
<event>
 8    1  0.4760912E-006  0.2572358E+03  0.7546771E-02  0.1108815E+00
         21   -1    0    0  504  503  0.00000000000E+00  0.00000000000E+00  0.13527254639E+02  0.13527254639E+02  0.00000000000E+00 0. -1.
         21   -1    0    0  503  504 -0.00000000000E+00 -0.00000000000E+00 -0.12229060503E+04  0.12229060503E+04  0.00000000000E+00 0. -1.
         25    2    1    2    0    0  0.23786209434E+02 -0.10845630964E+02 -0.67797712065E+03  0.68990028204E+03  0.12500404621E+03 0.  0.
         25    2    1    2    0    0 -0.23786209434E+02  0.10845630964E+02 -0.53140167505E+03  0.54653302294E+03  0.12500877346E+03 0.  0.
          5    1    3    3  501    0  0.30477533396E+02 -0.65361958586E+02 -0.36055507759E+03  0.36772696345E+03  0.47000000000E+01 0. -1.
         -5    1    3    3    0  501 -0.66913239620E+01  0.54516327622E+02 -0.31742204306E+03  0.32217331859E+03  0.47000000000E+01 0. -1.
          5    1    4    4  502    0  0.24116392407E+02  0.55948131557E+02 -0.28306763306E+03  0.28958792912E+03  0.47000000000E+01 0. -1.
         -5    1    4    4    0  502 -0.47902601841E+02 -0.45102500593E+02 -0.24833404200E+03  0.25694509382E+03  0.47000000000E+01 0. -1.
<mgrwt>
<rscale>  0 0.25723578E+03</rscale>
<asrwt>0</asrwt>
<pdfrwt beam="1">  1       21 0.20811162E-02 0.25723578E+03</pdfrwt>
<pdfrwt beam="2">  1       21 0.18813939E+00 0.25723578E+03</pdfrwt>
<totfact> 0.17985549E+05</totfact>
</mgrwt>
</event>
<event>
 8    1  0.4760912E-006  0.3409154E+03  0.7546771E-02  0.1066407E+00
         21   -1    0    0  504  503  0.00000000000E+00  0.00000000000E+00  0.18091788484E+03  0.18091788484E+03  0.00000000000E+00 0.  1.
         21   -1    0    0  503  504 -0.00000000000E+00 -0.00000000000E+00 -0.16060227989E+03  0.16060227989E+03  0.00000000000E+00 0.  1.
         25    2    1    2    0    0 -0.43346929490E+02  0.10524629649E+03 -0.11671422170E+02  0.16946497759E+03  0.12500566913E+03 0.  0.
         25    2    1    2    0    0  0.43346929490E+02 -0.10524629649E+03  0.31987027120E+02  0.17205518714E+03  0.12499631314E+03 0.  0.
          5    1    3    3  501    0 -0.76188047641E+02  0.88478018712E+02  0.22466681840E+02  0.11899504272E+03  0.47000000000E+01 0. -1.
         -5    1    3    3    0  501  0.32841118151E+02  0.16768277774E+02 -0.34138104010E+02  0.50469934875E+02  0.47000000000E+01 0. -1.
          5    1    4    4  502    0  0.60905282000E+02 -0.29695149756E+02 -0.28423023920E+02  0.73628890955E+02  0.47000000000E+01 0. -1.
         -5    1    4    4    0  502 -0.17558352510E+02 -0.75551146730E+02  0.60410051040E+02  0.98426296190E+02  0.47000000000E+01 0. -1.
<mgrwt>
<rscale>  0 0.34091538E+03</rscale>
<asrwt>0</asrwt>
<pdfrwt beam="1">  1       21 0.27833521E-01 0.34091538E+03</pdfrwt>
<pdfrwt beam="2">  1       21 0.24708043E-01 0.34091538E+03</pdfrwt>
<totfact> 0.18373242E+05</totfact>
</mgrwt>
</event>
<event>
 8    1  0.4760912E-006  0.2873379E+03  0.7546771E-02  0.1091747E+00
         21   -1    0    0  504  503  0.00000000000E+00  0.00000000000E+00  0.10249067346E+03  0.10249067346E+03  0.00000000000E+00 0. -1.
         21   -1    0    0  503  504 -0.00000000000E+00 -0.00000000000E+00 -0.20139168695E+03  0.20139168695E+03  0.00000000000E+00 0. -1.
         25    2    1    2    0    0  0.69098859242E+02  0.15380069459E+02 -0.46981161569E+02  0.15113808042E+03  0.12499716367E+03 0.  0.
         25    2    1    2    0    0 -0.69098859242E+02 -0.15380069459E+02 -0.51919851928E+02  0.15274427999E+03  0.12499578057E+03 0.  0.
          5    1    3    3  501    0  0.81547955323E+02  0.29906279506E+02 -0.76372550918E+02  0.11575539342E+03  0.47000000000E+01 0.  1.
         -5    1    3    3    0  501 -0.12449096080E+02 -0.14526210047E+02  0.29391389349E+02  0.35382687001E+02  0.47000000000E+01 0.  1.
          5    1    4    4  502    0 -0.30289951343E+02 -0.24555000893E+02 -0.89505645338E+02  0.97743438494E+02  0.47000000000E+01 0. -1.
         -5    1    4    4    0  502 -0.38808907900E+02  0.91749314342E+01  0.37585793410E+02  0.55000841497E+02  0.47000000000E+01 0. -1.
<mgrwt>
<rscale>  0 0.28733792E+03</rscale>
<asrwt>0</asrwt>
<pdfrwt beam="1">  1       21 0.15767796E-01 0.28733792E+03</pdfrwt>
<pdfrwt beam="2">  1       21 0.30983336E-01 0.28733792E+03</pdfrwt>
<totfact> 0.35096645E+05</totfact>
</mgrwt>
</event>
<event>
 8    1  0.4760912E-006  0.4724062E+03  0.7546771E-02  0.1021243E+00
         21   -1    0    0  504  503  0.00000000000E+00  0.00000000000E+00  0.94823820149E+02  0.94823820149E+02  0.00000000000E+00 0. -1.
         21   -1    0    0  503  504 -0.00000000000E+00 -0.00000000000E+00 -0.58837443359E+03  0.58837443359E+03  0.00000000000E+00 0. -1.
         25    2    1    2    0    0  0.12980995724E+03 -0.46679095469E+02 -0.36514692690E+02  0.18970376785E+03  0.12499853519E+03 0.  0.
         25    2    1    2    0    0 -0.12980995724E+03  0.46679095469E+02 -0.45703592075E+03  0.49349448589E+03  0.12500164717E+03 0.  0.
          5    1    3    3  501    0  0.31061284171E+02  0.41278018980E+02  0.19264995626E+01  0.51908377222E+02  0.47000000000E+01 0.  1.
         -5    1    3    3    0  501  0.98748673074E+02 -0.87957114449E+02 -0.38441192252E+02  0.13779539063E+03  0.47000000000E+01 0.  1.
          5    1    4    4  502    0 -0.35139620366E+02 -0.38510332647E+02 -0.80924907257E+02  0.96378261318E+02  0.47000000000E+01 0.  1.
         -5    1    4    4    0  502 -0.94670336879E+02  0.85189428117E+02 -0.37611101349E+03  0.39711622457E+03  0.47000000000E+01 0.  1.
<mgrwt>
<rscale>  0 0.47240623E+03</rscale>
<asrwt>0</asrwt>
<pdfrwt beam="1">  1       21 0.14588280E-01 0.47240623E+03</pdfrwt>
<pdfrwt beam="2">  1       21 0.90519142E-01 0.47240623E+03</pdfrwt>
<totfact> 0.38892642E+04</totfact>
</mgrwt>
</event>
<event>
 8    1  0.4760912E-006  0.2571084E+03  0.7546771E-02  0.1108893E+00
         21   -1    0    0  504  503  0.00000000000E+00  0.00000000000E+00  0.40834968661E+03  0.40834968661E+03  0.00000000000E+00 0.  1.
         21   -1    0    0  503  504 -0.00000000000E+00 -0.00000000000E+00 -0.40470653652E+02  0.40470653652E+02  0.00000000000E+00 0.  1.
         25    2    1    2    0    0 -0.12639711433E+02  0.25215047807E+02  0.20184635552E+03  0.23908760155E+03  0.12500147614E+03 0.  0.
         25    2    1    2    0    0  0.12639711433E+02 -0.25215047807E+02  0.16603267743E+03  0.20973273871E+03  0.12500164306E+03 0.  0.
          5    1    3    3  501    0 -0.45865322637E+02 -0.30657036590E+02  0.13410067407E+03  0.14508122724E+03  0.47000000000E+01 0. -1.
         -5    1    3    3    0  501  0.33225611204E+02  0.55872084398E+02  0.67745681453E+02  0.94006374307E+02  0.47000000000E+01 0. -1.
          5    1    4    4  502    0 -0.11368116034E+02 -0.64606393980E+02  0.43844966079E+02  0.79042338374E+02  0.47000000000E+01 0. -1.
         -5    1    4    4    0  502  0.24007827467E+02  0.39391346172E+02  0.12218771135E+03  0.13069040033E+03  0.47000000000E+01 0. -1.
<mgrwt>
<rscale>  0 0.25710837E+03</rscale>
<asrwt>0</asrwt>
<pdfrwt beam="1">  1       21 0.62823026E-01 0.25710837E+03</pdfrwt>
<pdfrwt beam="2">  1       21 0.62262547E-02 0.25710837E+03</pdfrwt>
<totfact> 0.42806830E+05</totfact>
</mgrwt>
</event>
<event>
 8    1  0.4760912E-006  0.5992251E+03  0.7546771E-02  0.9907015E-01
         21   -1    0    0  504  503  0.00000000000E+00  0.00000000000E+00  0.27953795045E+03  0.27953795045E+03  0.00000000000E+00 0.  1.
         21   -1    0    0  503  504 -0.00000000000E+00 -0.00000000000E+00 -0.32112880717E+03  0.32112880717E+03  0.00000000000E+00 0.  1.
         25    2    1    2    0    0 -0.69937294543E+02 -0.26298968335E+03 -0.30111749592E+02  0.30097822594E+03  0.12500550512E+03 0.  0.
         25    2    1    2    0    0  0.69937294543E+02  0.26298968335E+03 -0.11479107131E+02  0.29968853168E+03  0.12500658945E+03 0.  0.
          5    1    3    3  501    0 -0.23904245609E+02 -0.24944960002E+03 -0.18084550824E+02  0.25128799591E+03  0.47000000000E+01 0.  1.
         -5    1    3    3    0  501 -0.46033048934E+02 -0.13540083330E+02 -0.12027198769E+02  0.49690230035E+02  0.47000000000E+01 0.  1.
          5    1    4    4  502    0  0.53604734775E+02  0.26994082926E+03 -0.25720648466E+02  0.27645100949E+03  0.47000000000E+01 0.  1.
         -5    1    4    4    0  502  0.16332559768E+02 -0.69511459086E+01  0.14241541335E+02  0.23237522192E+02  0.47000000000E+01 0.  1.
<mgrwt>
<rscale>  0 0.59922513E+03</rscale>
<asrwt>0</asrwt>
<pdfrwt beam="1">  1       21 0.43005839E-01 0.59922513E+03</pdfrwt>
<pdfrwt beam="2">  1       21 0.49404432E-01 0.59922513E+03</pdfrwt>
<totfact> 0.17737291E+04</totfact>
</mgrwt>
</event>
<event>
 8    1  0.4760912E-006  0.3020062E+03  0.7546771E-02  0.1084242E+00
         21   -1    0    0  504  503  0.00000000000E+00  0.00000000000E+00  0.87030176765E+02  0.87030176765E+02  0.00000000000E+00 0. -1.
         21   -1    0    0  503  504 -0.00000000000E+00 -0.00000000000E+00 -0.26200032363E+03  0.26200032363E+03  0.00000000000E+00 0. -1.
         25    2    1    2    0    0 -0.17051639107E+02 -0.33699582110E+02 -0.17512555831E+03  0.21845142509E+03  0.12500257485E+03 0.  0.
         25    2    1    2    0    0  0.17051639107E+02  0.33699582110E+02  0.15541144777E+00  0.13057907530E+03  0.12499780208E+03 0.  0.
          5    1    3    3  501    0  0.37521361072E+02 -0.38596349725E+02 -0.14713822482E+03  0.15674590250E+03  0.47000000000E+01 0.  1.
         -5    1    3    3    0  501 -0.54573000179E+02  0.48967676150E+01 -0.27987333494E+02  0.61705522587E+02  0.47000000000E+01 0.  1.
          5    1    4    4  502    0  0.16219502545E+02  0.74115209601E+02 -0.28092618085E+02  0.81039630724E+02  0.47000000000E+01 0. -1.
         -5    1    4    4    0  502  0.83213656187E+00 -0.40415627492E+02  0.28248029533E+02  0.49539444580E+02  0.47000000000E+01 0. -1.
<mgrwt>
<rscale>  0 0.30200619E+03</rscale>
<asrwt>0</asrwt>
<pdfrwt beam="1">  1       21 0.13389258E-01 0.30200619E+03</pdfrwt>
<pdfrwt beam="2">  1       21 0.40307742E-01 0.30200619E+03</pdfrwt>
<totfact> 0.27850628E+05</totfact>
</mgrwt>
</event>
<event>
 8    1  0.4760912E-006  0.3443803E+03  0.7546771E-02  0.1064946E+00
         21   -1    0    0  504  503  0.00000000000E+00  0.00000000000E+00  0.81527184393E+02  0.81527184393E+02  0.00000000000E+00 0.  1.
         21   -1    0    0  503  504 -0.00000000000E+00 -0.00000000000E+00 -0.36367555596E+03  0.36367555596E+03  0.00000000000E+00 0.  1.
         25    2    1    2    0    0 -0.11354531913E+03  0.28783723043E+02 -0.11858337773E+03  0.20834663955E+03  0.12500105011E+03 0.  0.
         25    2    1    2    0    0  0.11354531913E+03 -0.28783723043E+02 -0.16356499383E+03  0.23685610080E+03  0.12500505218E+03 0.  0.
          5    1    3    3  501    0 -0.18194648509E+01  0.15448481973E+02 -0.90948238621E+02  0.92388517446E+02  0.47000000000E+01 0.  1.
         -5    1    3    3    0  501 -0.11172585428E+03  0.13335241069E+02 -0.27635139111E+02  0.11595812210E+03  0.47000000000E+01 0.  1.
          5    1    4    4  502    0  0.78747270407E+02 -0.68735300897E+02 -0.60469569394E+02  0.12084838852E+03  0.47000000000E+01 0.  1.
         -5    1    4    4    0  502  0.34798048720E+02  0.39951577854E+02 -0.10309542444E+03  0.11600771228E+03  0.47000000000E+01 0.  1.
<mgrwt>
<rscale>  0 0.34438028E+03</rscale>
<asrwt>0</asrwt>
<pdfrwt beam="1">  1       21 0.12542644E-01 0.34438028E+03</pdfrwt>
<pdfrwt beam="2">  1       21 0.55950086E-01 0.34438028E+03</pdfrwt>
<totfact> 0.15636263E+05</totfact>
</mgrwt>
</event>
<event>
 8    1  0.4760912E-006  0.3983444E+03  0.7546771E-02  0.1044354E+00
         21   -1    0    0  504  503  0.00000000000E+00  0.00000000000E+00  0.22892526530E+03  0.22892526530E+03  0.00000000000E+00 0.  1.
         21   -1    0    0  503  504 -0.00000000000E+00 -0.00000000000E+00 -0.17328606222E+03  0.17328606222E+03  0.00000000000E+00 0.  1.
         25    2    1    2    0    0 -0.83958598635E+02  0.88535178922E+02  0.12444633669E+03  0.21447155205E+03  0.12499452681E+03 0.  0.
         25    2    1    2    0    0  0.83958598635E+02 -0.88535178922E+02 -0.68807133614E+02  0.18773977547E+03  0.12499710984E+03 0.  0.
          5    1    3    3  501    0  0.30666756958E+02  0.34109112320E+01  0.15712033703E+02  0.34943415701E+02  0.47000000000E+01 0. -1.
         -5    1    3    3    0  501 -0.11462535559E+03  0.85124267690E+02  0.10873430298E+03  0.17952813635E+03  0.47000000000E+01 0. -1.
          5    1    4    4  502    0  0.80609412494E-01 -0.53755731215E+02 -0.79611660313E+02  0.96175836851E+02  0.47000000000E+01 0. -1.
         -5    1    4    4    0  502  0.83877989222E+02 -0.34779447707E+02  0.10804526699E+02  0.91563938622E+02  0.47000000000E+01 0. -1.
<mgrwt>
<rscale>  0 0.39834436E+03</rscale>
<asrwt>0</asrwt>
<pdfrwt beam="1">  1       21 0.35219272E-01 0.39834436E+03</pdfrwt>
<pdfrwt beam="2">  1       21 0.26659394E-01 0.39834436E+03</pdfrwt>
<totfact> 0.98093827E+04</totfact>
</mgrwt>
</event>
<event>
 8    1  0.4760912E-006  0.5233151E+03  0.7546771E-02  0.1007866E+00
         21   -1    0    0  504  503  0.00000000000E+00  0.00000000000E+00  0.37139405118E+03  0.37139405118E+03  0.00000000000E+00 0.  1.
         21   -1    0    0  503  504 -0.00000000000E+00 -0.00000000000E+00 -0.18434509192E+03  0.18434509192E+03  0.00000000000E+00 0.  1.
         25    2    1    2    0    0  0.20911275500E+03 -0.80423219134E+01 -0.74769665834E+01  0.24387311594E+03  0.12500147361E+03 0.  0.
         25    2    1    2    0    0 -0.20911275500E+03  0.80423219134E+01  0.19452592584E+03  0.31186602716E+03  0.12500903897E+03 0.  0.
          5    1    3    3  501    0  0.18081359535E+03  0.17493890407E+02 -0.48092099739E+02  0.18797481885E+03  0.47000000000E+01 0.  1.
         -5    1    3    3    0  501  0.28299159654E+02 -0.25536212320E+02  0.40615133155E+02  0.55898297094E+02  0.47000000000E+01 0.  1.
          5    1    4    4  502    0  0.13315666017E+02  0.11212209229E+02  0.30535426546E+02  0.35461568939E+02  0.47000000000E+01 0.  1.
         -5    1    4    4    0  502 -0.22242842102E+03 -0.31698873156E+01  0.16399049930E+03  0.27640445822E+03  0.47000000000E+01 0.  1.
<mgrwt>
<rscale>  0 0.52331509E+03</rscale>
<asrwt>0</asrwt>
<pdfrwt beam="1">  1       21 0.57137546E-01 0.52331509E+03</pdfrwt>
<pdfrwt beam="2">  1       21 0.28360783E-01 0.52331509E+03</pdfrwt>
<totfact> 0.30693885E+04</totfact>
</mgrwt>
</event>
<event>
 8    1  0.4760912E-006  0.2742302E+03  0.7546771E-02  0.1098883E+00
         21   -1    0    0  504  503  0.00000000000E+00  0.00000000000E+00  0.39679848078E+03  0.39679848078E+03  0.00000000000E+00 0.  1.
         21   -1    0    0  503  504 -0.00000000000E+00 -0.00000000000E+00 -0.47380596163E+02  0.47380596163E+02  0.00000000000E+00 0.  1.
         25    2    1    2    0    0  0.41064022055E+02 -0.37950832854E+02  0.18597079233E+03  0.23095293040E+03  0.12501040291E+03 0.  0.
         25    2    1    2    0    0 -0.41064022055E+02  0.37950832854E+02  0.16344709228E+03  0.21322614654E+03  0.12499567181E+03 0.  0.
          5    1    3    3  501    0 -0.50383217304E+01 -0.37315109626E+02 -0.13640146835E+01  0.37970417805E+02  0.47000000000E+01 0.  1.
         -5    1    3    3    0  501  0.46102343785E+02 -0.63572322774E+00  0.18733480702E+03  0.19298251259E+03  0.47000000000E+01 0.  1.
          5    1    4    4  502    0 -0.18792265840E+02  0.11598978416E+02  0.17506702337E+03  0.17651696301E+03  0.47000000000E+01 0.  1.
         -5    1    4    4    0  502 -0.22271756214E+02  0.26351854438E+02 -0.11619931094E+02  0.36709183535E+02  0.47000000000E+01 0.  1.
<mgrwt>
<rscale>  0 0.27423018E+03</rscale>
<asrwt>0</asrwt>
<pdfrwt beam="1">  1       21 0.61045918E-01 0.27423018E+03</pdfrwt>
<pdfrwt beam="2">  1       21 0.72893228E-02 0.27423018E+03</pdfrwt>
<totfact> 0.34538007E+05</totfact>
</mgrwt>
</event>
<event>
 8    1  0.4760912E-006  0.2523036E+03  0.7546771E-02  0.1111858E+00
         21   -1    0    0  504  503  0.00000000000E+00  0.00000000000E+00  0.67492526481E+03  0.67492526481E+03  0.00000000000E+00 0.  1.
         21   -1    0    0  503  504 -0.00000000000E+00 -0.00000000000E+00 -0.23579308199E+02  0.23579308199E+02  0.00000000000E+00 0.  1.
         25    2    1    2    0    0 -0.65643486018E+01 -0.82279720904E+01  0.28865709664E+03  0.31473675290E+03  0.12500205595E+03 0.  0.
         25    2    1    2    0    0  0.65643486018E+01  0.82279720904E+01  0.36268885998E+03  0.38376782011E+03  0.12499496151E+03 0.  0.
          5    1    3    3  501    0 -0.27473829913E+02 -0.61718634441E+02  0.14968785654E+03  0.16429408255E+03  0.47000000000E+01 0.  1.
         -5    1    3    3    0  501  0.20909481312E+02  0.53490662351E+02  0.13896924010E+03  0.15044267035E+03  0.47000000000E+01 0.  1.
          5    1    4    4  502    0 -0.34291998746E+02  0.13013374831E+02  0.27629997301E+02  0.46160544336E+02  0.47000000000E+01 0.  1.
         -5    1    4    4    0  502  0.40856347348E+02 -0.47854027404E+01  0.33505886268E+03  0.33760727578E+03  0.47000000000E+01 0.  1.
<mgrwt>
<rscale>  0 0.25230355E+03</rscale>
<asrwt>0</asrwt>
<pdfrwt beam="1">  1       21 0.10383464E+00 0.25230355E+03</pdfrwt>
<pdfrwt beam="2">  1       21 0.36275864E-02 0.25230355E+03</pdfrwt>
<totfact> 0.34059549E+05</totfact>
</mgrwt>
</event>
<event>
 8    1  0.4760912E-006  0.4166490E+03  0.7546771E-02  0.1038162E+00
         21   -1    0    0  504  503  0.00000000000E+00  0.00000000000E+00  0.26352005583E+02  0.26352005583E+02  0.00000000000E+00 0. -1.
         21   -1    0    0  503  504 -0.00000000000E+00 -0.00000000000E+00 -0.16468990752E+04  0.16468990752E+04  0.00000000000E+00 0. -1.
         25    2    1    2    0    0  0.15769633351E+02 -0.26593992170E+02 -0.15261481594E+03  0.19968178721E+03  0.12500244935E+03 0.  0.
         25    2    1    2    0    0 -0.15769633351E+02  0.26593992170E+02 -0.14679322537E+04  0.14735692936E+04  0.12500175928E+03 0.  0.
          5    1    3    3  501    0 -0.37146110825E+02  0.10654477964E+02 -0.12177068786E+03  0.12784186275E+03  0.47000000000E+01 0. -1.
         -5    1    3    3    0  501  0.52915744176E+02 -0.37248470135E+02 -0.30844128082E+02  0.71839924459E+02  0.47000000000E+01 0. -1.
          5    1    4    4  502    0 -0.68749620432E+02  0.26440706304E+02 -0.97011213019E+03  0.97291585269E+03  0.47000000000E+01 0. -1.
         -5    1    4    4    0  502  0.52979987081E+02  0.15328586646E+00 -0.49782012348E+03  0.50065344088E+03  0.47000000000E+01 0. -1.
<mgrwt>
<rscale>  0 0.41664898E+03</rscale>
<asrwt>0</asrwt>
<pdfrwt beam="1">  1       21 0.40541520E-02 0.41664898E+03</pdfrwt>
<pdfrwt beam="2">  1       21 0.25336926E+00 0.41664898E+03</pdfrwt>
<totfact> 0.21364507E+04</totfact>
</mgrwt>
</event>
<event>
 8    1  0.4760912E-006  0.3113757E+03  0.7546771E-02  0.1079688E+00
         21   -1    0    0  504  503  0.00000000000E+00  0.00000000000E+00  0.28094611519E+02  0.28094611519E+02  0.00000000000E+00 0. -1.
         21   -1    0    0  503  504 -0.00000000000E+00 -0.00000000000E+00 -0.86275266819E+03  0.86275266819E+03  0.00000000000E+00 0. -1.
         25    2    1    2    0    0 -0.54849246031E+02  0.96335131071E+01 -0.62972769856E+03  0.64442605914E+03  0.12500690781E+03 0.  0.
         25    2    1    2    0    0  0.54849246031E+02 -0.96335131071E+01 -0.20493035812E+03  0.24642122058E+03  0.12500288759E+03 0.  0.
          5    1    3    3  501    0 -0.47735801854E+02 -0.54147041333E+02 -0.31743794217E+03  0.32557571468E+03  0.47000000000E+01 0.  1.
         -5    1    3    3    0  501 -0.71134441774E+01  0.63780554440E+02 -0.31228975639E+03  0.31885034445E+03  0.47000000000E+01 0.  1.
          5    1    4    4  502    0  0.92728852456E+02 -0.24139595012E+02 -0.13988398775E+03  0.16962010540E+03  0.47000000000E+01 0. -1.
         -5    1    4    4    0  502 -0.37879606424E+02  0.14506081904E+02 -0.65046370365E+02  0.76801115179E+02  0.47000000000E+01 0. -1.
<mgrwt>
<rscale>  0 0.31137566E+03</rscale>
<asrwt>0</asrwt>
<pdfrwt beam="1">  1       21 0.43222486E-02 0.31137566E+03</pdfrwt>
<pdfrwt beam="2">  1       21 0.13273116E+00 0.31137566E+03</pdfrwt>
<totfact> 0.13525890E+05</totfact>
</mgrwt>
</event>
<event>
 8    1  0.4760912E-006  0.3296033E+03  0.7546771E-02  0.1071313E+00
         21   -1    0    0  504  503  0.00000000000E+00  0.00000000000E+00  0.48558499740E+02  0.48558499740E+02  0.00000000000E+00 0.  1.
         21   -1    0    0  503  504 -0.00000000000E+00 -0.00000000000E+00 -0.55931681019E+03  0.55931681019E+03  0.00000000000E+00 0.  1.
         25    2    1    2    0    0  0.39860790310E+02  0.67735174603E+02 -0.12040865082E+03  0.19053322824E+03  0.12501092507E+03 0.  0.
         25    2    1    2    0    0 -0.39860790310E+02 -0.67735174603E+02 -0.39034965962E+03  0.41734208169E+03  0.12499847958E+03 0.  0.
          5    1    3    3  501    0 -0.23513168589E+01 -0.33947228639E+02 -0.46637368661E+02  0.57923028053E+02  0.47000000000E+01 0.  1.
         -5    1    3    3    0  501  0.42212107169E+02  0.10168240324E+03 -0.73771282162E+02  0.13261020018E+03  0.47000000000E+01 0.  1.
          5    1    4    4  502    0 -0.74968024203E+02 -0.23795211659E+02 -0.13943330817E+03  0.16015665511E+03  0.47000000000E+01 0.  1.
         -5    1    4    4    0  502  0.35107233892E+02 -0.43939962945E+02 -0.25091635146E+03  0.25718542658E+03  0.47000000000E+01 0.  1.
<mgrwt>
<rscale>  0 0.32960331E+03</rscale>
<asrwt>0</asrwt>
<pdfrwt beam="1">  1       21 0.74705388E-02 0.32960331E+03</pdfrwt>
<pdfrwt beam="2">  1       21 0.86048736E-01 0.32960331E+03</pdfrwt>
<totfact> 0.15114102E+05</totfact>
</mgrwt>
</event>
<event>
 8    1  0.4760912E-006  0.2650040E+03  0.7546771E-02  0.1104173E+00
         21   -1    0    0  504  503  0.00000000000E+00  0.00000000000E+00  0.47737829324E+03  0.47737829324E+03  0.00000000000E+00 0.  1.
         21   -1    0    0  503  504 -0.00000000000E+00 -0.00000000000E+00 -0.36777489771E+02  0.36777489771E+02  0.00000000000E+00 0.  1.
         25    2    1    2    0    0  0.27317883966E+02 -0.51258347072E+01  0.15423301492E+03  0.20046268525E+03  0.12499969728E+03 0.  0.
         25    2    1    2    0    0 -0.27317883966E+02  0.51258347072E+01  0.28636778855E+03  0.31369309776E+03  0.12499723316E+03 0.  0.
          5    1    3    3  501    0 -0.25436804982E+02 -0.45317236838E+02  0.31702181826E+02  0.61055723195E+02  0.47000000000E+01 0. -1.
         -5    1    3    3    0  501  0.52754688949E+02  0.40191402130E+02  0.12253083309E+03  0.13940696206E+03  0.47000000000E+01 0. -1.
          5    1    4    4  502    0 -0.56511951933E+02 -0.31106690288E+02  0.23709778038E+03  0.24576141755E+03  0.47000000000E+01 0. -1.
         -5    1    4    4    0  502  0.29194067967E+02  0.36232524995E+02  0.49270008168E+02  0.67931680215E+02  0.47000000000E+01 0. -1.
<mgrwt>
<rscale>  0 0.26500396E+03</rscale>
<asrwt>0</asrwt>
<pdfrwt beam="1">  1       21 0.73442810E-01 0.26500396E+03</pdfrwt>
<pdfrwt beam="2">  1       21 0.56580757E-02 0.26500396E+03</pdfrwt>
<totfact> 0.35679043E+05</totfact>
</mgrwt>
</event>
<event>
 8    1  0.4760912E-006  0.2698318E+03  0.7546771E-02  0.1101376E+00
         21   -1    0    0  504  503  0.00000000000E+00  0.00000000000E+00  0.84133260823E+02  0.84133260823E+02  0.00000000000E+00 0. -1.
         21   -1    0    0  503  504 -0.00000000000E+00 -0.00000000000E+00 -0.21635085115E+03  0.21635085115E+03  0.00000000000E+00 0. -1.
         25    2    1    2    0    0 -0.46762536389E+01 -0.49573435162E+02 -0.77012967730E+02  0.15504453300E+03  0.12501366803E+03 0.  0.
         25    2    1    2    0    0  0.46762536389E+01  0.49573435162E+02 -0.55204622599E+02  0.14543957897E+03  0.12500291178E+03 0.  0.
          5    1    3    3  501    0  0.56175807505E+02 -0.32609025998E+02 -0.15929066027E+02  0.67043978625E+02  0.47000000000E+01 0.  1.
         -5    1    3    3    0  501 -0.60852061144E+02 -0.16964409164E+02 -0.61083901702E+02  0.88000554379E+02  0.47000000000E+01 0.  1.
          5    1    4    4  502    0 -0.52245493524E+02  0.30910054658E+02  0.40881642882E+01  0.61023160847E+02  0.47000000000E+01 0.  1.
         -5    1    4    4    0  502  0.56921747163E+02  0.18663380505E+02 -0.59292786887E+02  0.84416418124E+02  0.47000000000E+01 0.  1.
<mgrwt>
<rscale>  0 0.26983182E+03</rscale>
<asrwt>0</asrwt>
<pdfrwt beam="1">  1       21 0.12943579E-01 0.26983182E+03</pdfrwt>
<pdfrwt beam="2">  1       21 0.33284746E-01 0.26983182E+03</pdfrwt>
<totfact> 0.43832947E+05</totfact>
</mgrwt>
</event>
<event>
 8    1  0.4760912E-006  0.2976979E+03  0.7546771E-02  0.1086397E+00
         21   -1    0    0  504  503  0.00000000000E+00  0.00000000000E+00  0.52436762753E+03  0.52436762753E+03  0.00000000000E+00 0.  1.
         21   -1    0    0  503  504 -0.00000000000E+00 -0.00000000000E+00 -0.42252815717E+02  0.42252815717E+02  0.00000000000E+00 0.  1.
         25    2    1    2    0    0 -0.42355041622E+02  0.17491122159E+02  0.36774224361E+03  0.39110351867E+03  0.12501086224E+03 0.  0.
         25    2    1    2    0    0  0.42355041622E+02 -0.17491122159E+02  0.11437256821E+03  0.17551692458E+03  0.12500087020E+03 0.  0.
          5    1    3    3  501    0 -0.41377082179E+01 -0.22290402389E+01 -0.93865194075E+01  0.11501564949E+02  0.47000000000E+01 0. -1.
         -5    1    3    3    0  501 -0.38217333404E+02  0.19720162398E+02  0.37712876302E+03  0.37960195372E+03  0.47000000000E+01 0. -1.
          5    1    4    4  502    0  0.18945610674E+02 -0.27742013710E+02 -0.19513047172E+02  0.39133163665E+02  0.47000000000E+01 0. -1.
         -5    1    4    4    0  502  0.23409430948E+02  0.10250891551E+02  0.13388561538E+03  0.13638376091E+03  0.47000000000E+01 0. -1.
<mgrwt>
<rscale>  0 0.29769789E+03</rscale>
<asrwt>0</asrwt>
<pdfrwt beam="1">  1       21 0.80671938E-01 0.29769789E+03</pdfrwt>
<pdfrwt beam="2">  1       21 0.65004336E-02 0.29769789E+03</pdfrwt>
<totfact> 0.22528957E+05</totfact>
</mgrwt>
</event>
<event>
 8    1  0.4760912E-006  0.3018123E+03  0.7546771E-02  0.1084338E+00
         21   -1    0    0  504  503  0.00000000000E+00  0.00000000000E+00  0.82766490470E+03  0.82766490470E+03  0.00000000000E+00 0.  1.
         21   -1    0    0  503  504 -0.00000000000E+00 -0.00000000000E+00 -0.27514350763E+02  0.27514350763E+02  0.00000000000E+00 0.  1.
         25    2    1    2    0    0 -0.22477173353E+02 -0.81484553032E+02  0.39540031815E+03  0.42321531557E+03  0.12499934413E+03 0.  0.
         25    2    1    2    0    0  0.22477173353E+02  0.81484553032E+02  0.40475023578E+03  0.43196393989E+03  0.12500054519E+03 0.  0.
          5    1    3    3  501    0 -0.38341630526E+02 -0.40950736083E+02  0.50744976337E+02  0.75790408632E+02  0.47000000000E+01 0. -1.
         -5    1    3    3    0  501  0.15864457173E+02 -0.40533816948E+02  0.34465534182E+03  0.34742490694E+03  0.47000000000E+01 0. -1.
          5    1    4    4  502    0  0.13688478344E+02  0.22210169478E+02  0.40935277066E+01  0.26823740170E+02  0.47000000000E+01 0.  1.
         -5    1    4    4    0  502  0.87886950096E+01  0.59274383553E+02  0.40065670807E+03  0.40514019972E+03  0.47000000000E+01 0.  1.
<mgrwt>
<rscale>  0 0.30181228E+03</rscale>
<asrwt>0</asrwt>
<pdfrwt beam="1">  1       21 0.12733304E+00 0.30181228E+03</pdfrwt>
<pdfrwt beam="2">  1       21 0.42329777E-02 0.30181228E+03</pdfrwt>
<totfact> 0.15630229E+05</totfact>
</mgrwt>
</event>
<event>
 8    1  0.4760912E-006  0.4272587E+03  0.7546771E-02  0.1034729E+00
         21   -1    0    0  504  503  0.00000000000E+00  0.00000000000E+00  0.28686794363E+03  0.28686794363E+03  0.00000000000E+00 0.  1.
         21   -1    0    0  503  504 -0.00000000000E+00 -0.00000000000E+00 -0.15908890131E+03  0.15908890131E+03  0.00000000000E+00 0.  1.
         25    2    1    2    0    0 -0.11516703510E+02 -0.12956833359E+02  0.24378527902E+03  0.27451309628E+03  0.12500265505E+03 0.  0.
         25    2    1    2    0    0  0.11516703510E+02  0.12956833359E+02 -0.11600623670E+03  0.17144374866E+03  0.12503998564E+03 0.  0.
          5    1    3    3  501    0 -0.17295745361E+01  0.53688365962E+02  0.14634916107E+03  0.15596665995E+03  0.47000000000E+01 0. -1.
         -5    1    3    3    0  501 -0.97871289743E+01 -0.66645199321E+02  0.97436117949E+02  0.11854643633E+03  0.47000000000E+01 0. -1.
          5    1    4    4  502    0  0.12834981327E+02  0.52454719647E+02 -0.60937164668E+01  0.54547756501E+02  0.47000000000E+01 0.  1.
         -5    1    4    4    0  502 -0.13182778169E+01 -0.39497886288E+02 -0.10991252024E+03  0.11689599216E+03  0.47000000000E+01 0.  1.
<mgrwt>
<rscale>  0 0.42725873E+03</rscale>
<asrwt>0</asrwt>
<pdfrwt beam="1">  1       21 0.44133530E-01 0.42725873E+03</pdfrwt>
<pdfrwt beam="2">  1       21 0.24475216E-01 0.42725873E+03</pdfrwt>
<totfact> 0.72471650E+04</totfact>
</mgrwt>
</event>
<event>
 8    1  0.4760912E-006  0.3529636E+03  0.7546771E-02  0.1061405E+00
         21   -1    0    0  504  503  0.00000000000E+00  0.00000000000E+00  0.52453815726E+03  0.52453815726E+03  0.00000000000E+00 0. -1.
         21   -1    0    0  503  504 -0.00000000000E+00 -0.00000000000E+00 -0.59377618408E+02  0.59377618408E+02  0.00000000000E+00 0. -1.
         25    2    1    2    0    0 -0.55268419123E+02  0.66819421029E+02  0.84592439741E+02  0.17406664360E+03  0.12499552942E+03 0.  0.
         25    2    1    2    0    0  0.55268419123E+02 -0.66819421029E+02  0.38056809911E+03  0.40984913206E+03  0.12499919925E+03 0.  0.
          5    1    3    3  501    0  0.19667382354E+02 -0.15414690182E+02  0.52252763191E+02  0.58110755142E+02  0.47000000000E+01 0.  1.
         -5    1    3    3    0  501 -0.74935801477E+02  0.82234111211E+02  0.32339676550E+02  0.11595588846E+03  0.47000000000E+01 0.  1.
          5    1    4    4  502    0  0.25010960769E+02 -0.53160278630E+02  0.37004305594E+03  0.37470724124E+03  0.47000000000E+01 0.  1.
         -5    1    4    4    0  502  0.30257458354E+02 -0.13659142400E+02  0.10525043165E+02  0.35141890825E+02  0.47000000000E+01 0.  1.
<mgrwt>
<rscale>  0 0.35296360E+03</rscale>
<asrwt>0</asrwt>
<pdfrwt beam="1">  1       21 0.80698175E-01 0.35296360E+03</pdfrwt>
<pdfrwt beam="2">  1       21 0.91350186E-02 0.35296360E+03</pdfrwt>
<totfact> 0.12224394E+05</totfact>
</mgrwt>
</event>
<event>
 8    1  0.4760912E-006  0.2524442E+03  0.7546771E-02  0.1111770E+00
         21   -1    0    0  504  503  0.00000000000E+00  0.00000000000E+00  0.29653766016E+02  0.29653766016E+02  0.00000000000E+00 0.  1.
         21   -1    0    0  503  504 -0.00000000000E+00 -0.00000000000E+00 -0.53726791650E+03  0.53726791650E+03  0.00000000000E+00 0.  1.
         25    2    1    2    0    0 -0.10589592409E+02 -0.13670796948E+02 -0.25917456575E+03  0.28827082351E+03  0.12501832665E+03 0.  0.
         25    2    1    2    0    0  0.10589592409E+02  0.13670796948E+02 -0.24843958473E+03  0.27865085901E+03  0.12500017523E+03 0.  0.
          5    1    3    3  501    0 -0.88798020686E+01 -0.99943398318E-01  0.12597831178E+02  0.16113851925E+02  0.47000000000E+01 0. -1.
         -5    1    3    3    0  501 -0.17097903407E+01 -0.13570853550E+02 -0.27177239693E+03  0.27215697158E+03  0.47000000000E+01 0. -1.
          5    1    4    4  502    0  0.50395548178E+02 -0.27789009236E+02 -0.18063766861E+03  0.18964176131E+03  0.47000000000E+01 0. -1.
         -5    1    4    4    0  502 -0.39805955769E+02  0.41459806184E+02 -0.67801916118E+02  0.89009097696E+02  0.47000000000E+01 0. -1.
<mgrwt>
<rscale>  0 0.25244419E+03</rscale>
<asrwt>0</asrwt>
<pdfrwt beam="1">  1       21 0.45621183E-02 0.25244419E+03</pdfrwt>
<pdfrwt beam="2">  1       21 0.82656595E-01 0.25244419E+03</pdfrwt>
<totfact> 0.39530859E+05</totfact>
</mgrwt>
</event>
<event>
 8    1  0.4760912E-006  0.2896290E+03  0.7546771E-02  0.1090543E+00
         21   -1    0    0  504  503  0.00000000000E+00  0.00000000000E+00  0.36202982500E+03  0.36202982500E+03  0.00000000000E+00 0.  1.
         21   -1    0    0  503  504 -0.00000000000E+00 -0.00000000000E+00 -0.57926844054E+02  0.57926844054E+02  0.00000000000E+00 0.  1.
         25    2    1    2    0    0 -0.50711590769E+02  0.29924255950E+02  0.21489719433E+03  0.25548614222E+03  0.12500095279E+03 0.  0.
         25    2    1    2    0    0  0.50711590769E+02 -0.29924255950E+02  0.89205786613E+02  0.16447052684E+03  0.12500302117E+03 0.  0.
          5    1    3    3  501    0  0.26525831916E+02  0.30773925610E+02  0.14684758611E+03  0.15243673377E+03  0.47000000000E+01 0. -1.
         -5    1    3    3    0  501 -0.77237422685E+02 -0.84966965998E+00  0.68049608222E+02  0.10304940844E+03  0.47000000000E+01 0. -1.
          5    1    4    4  502    0  0.81197168493E+02  0.15203594645E+02  0.45112889193E+02  0.94241138750E+02  0.47000000000E+01 0. -1.
         -5    1    4    4    0  502 -0.30485577724E+02 -0.45127850595E+02  0.44092897419E+02  0.70229388089E+02  0.47000000000E+01 0. -1.
<mgrwt>
<rscale>  0 0.28962904E+03</rscale>
<asrwt>0</asrwt>
<pdfrwt beam="1">  1       21 0.55696895E-01 0.28962904E+03</pdfrwt>
<pdfrwt beam="2">  1       21 0.89118224E-02 0.28962904E+03</pdfrwt>
<totfact> 0.29480579E+05</totfact>
</mgrwt>
</event>
<event>
 8    1  0.4760912E-006  0.3105792E+03  0.7546771E-02  0.1080069E+00
         21   -1    0    0  504  503  0.00000000000E+00  0.00000000000E+00  0.21618322537E+03  0.21618322537E+03  0.00000000000E+00 0. -1.
         21   -1    0    0  503  504 -0.00000000000E+00 -0.00000000000E+00 -0.11154821648E+03  0.11154821648E+03  0.00000000000E+00 0. -1.
         25    2    1    2    0    0 -0.35712217326E+01  0.88924754053E+02  0.77494242049E+02  0.17190897348E+03  0.12500788817E+03 0.  0.
         25    2    1    2    0    0  0.35712217326E+01 -0.88924754053E+02  0.27140766837E+02  0.15582246837E+03  0.12499461954E+03 0.  0.
          5    1    3    3  501    0 -0.16996258467E+02  0.11307728856E+03  0.32623739514E+02  0.11900312757E+03  0.47000000000E+01 0.  1.
         -5    1    3    3    0  501  0.13425036734E+02 -0.24152534510E+02  0.44870502535E+02  0.52905845918E+02  0.47000000000E+01 0.  1.
          5    1    4    4  502    0 -0.18498723806E+02 -0.32032605537E+01 -0.40124595862E+02  0.44548140856E+02  0.47000000000E+01 0.  1.
         -5    1    4    4    0  502  0.22069945539E+02 -0.85721493499E+02  0.67265362699E+02  0.11127432751E+03  0.47000000000E+01 0.  1.
<mgrwt>
<rscale>  0 0.31057916E+03</rscale>
<asrwt>0</asrwt>
<pdfrwt beam="1">  1       21 0.33258958E-01 0.31057916E+03</pdfrwt>
<pdfrwt beam="2">  1       21 0.17161264E-01 0.31057916E+03</pdfrwt>
<totfact> 0.25945407E+05</totfact>
</mgrwt>
</event>
<event>
 8    1  0.4760912E-006  0.3906353E+03  0.7546771E-02  0.1047071E+00
         21   -1    0    0  504  503  0.00000000000E+00  0.00000000000E+00  0.80116168193E+02  0.80116168193E+02  0.00000000000E+00 0.  1.
         21   -1    0    0  503  504 -0.00000000000E+00 -0.00000000000E+00 -0.47617078613E+03  0.47617078613E+03  0.00000000000E+00 0.  1.
         25    2    1    2    0    0  0.30846759882E+01  0.12343528044E+03 -0.31947775325E+03  0.36460674461E+03  0.12500503875E+03 0.  0.
         25    2    1    2    0    0 -0.30846759882E+01 -0.12343528044E+03 -0.76576864686E+02  0.19168020971E+03  0.12502600891E+03 0.  0.
          5    1    3    3  501    0 -0.49078194489E+02  0.46175552989E+02 -0.65792679985E+02  0.94295374265E+02  0.47000000000E+01 0. -1.
         -5    1    3    3    0  501  0.52162870478E+02  0.77259727454E+02 -0.25368507326E+03  0.27031137035E+03  0.47000000000E+01 0. -1.
          5    1    4    4  502    0 -0.20195824170E+02  0.62779249866E+01 -0.54842952569E+02  0.58967135784E+02  0.47000000000E+01 0.  1.
         -5    1    4    4    0  502  0.17111148181E+02 -0.12971320543E+03 -0.21733912117E+02  0.13271307393E+03  0.47000000000E+01 0.  1.
<mgrwt>
<rscale>  0 0.39063527E+03</rscale>
<asrwt>0</asrwt>
<pdfrwt beam="1">  1       21 0.12325564E-01 0.39063527E+03</pdfrwt>
<pdfrwt beam="2">  1       21 0.73257044E-01 0.39063527E+03</pdfrwt>
<totfact> 0.88151996E+04</totfact>
</mgrwt>
</event>
<event>
 8    1  0.4760912E-006  0.3490364E+03  0.7546771E-02  0.1063011E+00
         21   -1    0    0  504  503  0.00000000000E+00  0.00000000000E+00  0.35525599613E+03  0.35525599613E+03  0.00000000000E+00 0.  1.
         21   -1    0    0  503  504 -0.00000000000E+00 -0.00000000000E+00 -0.85731446153E+02  0.85731446153E+02  0.00000000000E+00 0.  1.
         25    2    1    2    0    0  0.14276163422E+02 -0.59536045853E+02  0.26776914110E+03  0.30178868900E+03  0.12501100066E+03 0.  0.
         25    2    1    2    0    0 -0.14276163422E+02  0.59536045853E+02  0.17554088774E+01  0.13919875328E+03  0.12499944743E+03 0.  0.
          5    1    3    3  501    0  0.36786881921E+02  0.19720484818E+02  0.34511102374E+02  0.54362472258E+02  0.47000000000E+01 0.  1.
         -5    1    3    3    0  501 -0.22510718499E+02 -0.79256530671E+02  0.23325803873E+03  0.24742621675E+03  0.47000000000E+01 0.  1.
          5    1    4    4  502    0 -0.54501709347E+02 -0.11925234984E+02  0.91324203710E+01  0.56728640501E+02  0.47000000000E+01 0. -1.
         -5    1    4    4    0  502  0.40225545925E+02  0.71461280837E+02 -0.73770114936E+01  0.82470112783E+02  0.47000000000E+01 0. -1.
<mgrwt>
<rscale>  0 0.34903645E+03</rscale>
<asrwt>0</asrwt>
<pdfrwt beam="1">  1       21 0.54654768E-01 0.34903645E+03</pdfrwt>
<pdfrwt beam="2">  1       21 0.13189453E-01 0.34903645E+03</pdfrwt>
<totfact> 0.14988337E+05</totfact>
</mgrwt>
</event>
<event>
 8    1  0.4760912E-006  0.3061552E+03  0.7546771E-02  0.1082204E+00
         21   -1    0    0  504  503  0.00000000000E+00  0.00000000000E+00  0.38613474290E+04  0.38613474290E+04  0.00000000000E+00 0. -1.
         21   -1    0    0  503  504 -0.00000000000E+00 -0.00000000000E+00 -0.60685433633E+01  0.60685433633E+01  0.00000000000E+00 0. -1.
         25    2    1    2    0    0 -0.75630631922E+01  0.88035837516E+02  0.19303476155E+04  0.19364077351E+04  0.12500196517E+03 0.  0.
         25    2    1    2    0    0  0.75630631922E+01 -0.88035837516E+02  0.19249312702E+04  0.19310082373E+04  0.12499963599E+03 0.  0.
          5    1    3    3  501    0 -0.18292893352E+02 -0.18839198447E+02  0.12274089828E+03  0.12560638302E+03  0.47000000000E+01 0.  1.
         -5    1    3    3    0  501  0.10729830160E+02  0.10687503596E+03  0.18076067172E+04  0.18108013521E+04  0.47000000000E+01 0.  1.
          5    1    4    4  502    0 -0.29268385538E+01  0.29896022765E+02  0.60705142067E+03  0.60781235254E+03  0.47000000000E+01 0. -1.
         -5    1    4    4    0  502  0.10489901746E+02 -0.11793186028E+03  0.13178798495E+04  0.13231958848E+04  0.47000000000E+01 0. -1.
<mgrwt>
<rscale>  0 0.30615522E+03</rscale>
<asrwt>0</asrwt>
<pdfrwt beam="1">  1       21 0.59405149E+00 0.30615522E+03</pdfrwt>
<pdfrwt beam="2">  1       21 0.93362514E-03 0.30615522E+03</pdfrwt>
<totfact> 0.13973248E+03</totfact>
</mgrwt>
</event>
<event>
 8    1  0.4760912E-006  0.2757329E+03  0.7546771E-02  0.1098043E+00
         21   -1    0    0  504  503  0.00000000000E+00  0.00000000000E+00  0.29925212369E+02  0.29925212369E+02  0.00000000000E+00 0.  1.
         21   -1    0    0  503  504 -0.00000000000E+00 -0.00000000000E+00 -0.63515544704E+03  0.63515544704E+03  0.00000000000E+00 0.  1.
         25    2    1    2    0    0 -0.25114553871E+02 -0.45604784294E+02 -0.36518687094E+03  0.38947924150E+03  0.12498836619E+03 0.  0.
         25    2    1    2    0    0  0.25114553871E+02  0.45604784294E+02 -0.24004336373E+03  0.27560141791E+03  0.12499915167E+03 0.  0.
          5    1    3    3  501    0 -0.54912048738E+00 -0.83368517067E+01 -0.33556703438E+03  0.33570393086E+03  0.47000000000E+01 0.  1.
         -5    1    3    3    0  501 -0.24565433383E+02 -0.37267932587E+02 -0.29619836558E+02  0.53775310640E+02  0.47000000000E+01 0.  1.
          5    1    4    4  502    0  0.22775152196E+02 -0.33240404508E+02 -0.27944121305E+02  0.49260490912E+02  0.47000000000E+01 0. -1.
         -5    1    4    4    0  502  0.23394016753E+01  0.78845188802E+02 -0.21209924242E+03  0.22634092700E+03  0.47000000000E+01 0. -1.
<mgrwt>
<rscale>  0 0.27573293E+03</rscale>
<asrwt>0</asrwt>
<pdfrwt beam="1">  1       21 0.46038790E-02 0.27573293E+03</pdfrwt>
<pdfrwt beam="2">  1       21 0.97716218E-01 0.27573293E+03</pdfrwt>
<totfact> 0.26188267E+05</totfact>
</mgrwt>
</event>
<event>
 8    1  0.4760912E-006  0.4551305E+03  0.7546771E-02  0.1026203E+00
         21   -1    0    0  504  503  0.00000000000E+00  0.00000000000E+00  0.10413634446E+03  0.10413634446E+03  0.00000000000E+00 0. -1.
         21   -1    0    0  503  504 -0.00000000000E+00 -0.00000000000E+00 -0.49728982566E+03  0.49728982566E+03  0.00000000000E+00 0. -1.
         25    2    1    2    0    0  0.13695466551E+03  0.13190234381E+03 -0.19372483048E+03  0.29885120880E+03  0.12501170486E+03 0.  0.
         25    2    1    2    0    0 -0.13695466551E+03 -0.13190234381E+03 -0.19942865072E+03  0.30257496131E+03  0.12500004711E+03 0.  0.
          5    1    3    3  501    0  0.41452275203E+02 -0.21393440096E+02 -0.40499382604E+02  0.61953695531E+02  0.47000000000E+01 0. -1.
         -5    1    3    3    0  501  0.95502390306E+02  0.15329578391E+03 -0.15322544788E+03  0.23689751327E+03  0.47000000000E+01 0. -1.
          5    1    4    4  502    0 -0.84748792767E+02 -0.45148266335E+02 -0.17285117277E+03  0.19778862899E+03  0.47000000000E+01 0.  1.
         -5    1    4    4    0  502 -0.52205872742E+02 -0.86754077476E+02 -0.26577477949E+02  0.10478633232E+03  0.47000000000E+01 0.  1.
<mgrwt>
<rscale>  0 0.45513051E+03</rscale>
<asrwt>0</asrwt>
<pdfrwt beam="1">  1       21 0.16020976E-01 0.45513051E+03</pdfrwt>
<pdfrwt beam="2">  1       21 0.76506126E-01 0.45513051E+03</pdfrwt>
<totfact> 0.48551225E+04</totfact>
</mgrwt>
</event>
<event>
 8    1  0.4760912E-006  0.4479167E+03  0.7546771E-02  0.1028345E+00
         21   -1    0    0  504  503  0.00000000000E+00  0.00000000000E+00  0.45183377627E+03  0.45183377627E+03  0.00000000000E+00 0. -1.
         21   -1    0    0  503  504 -0.00000000000E+00 -0.00000000000E+00 -0.11100838551E+03  0.11100838551E+03  0.00000000000E+00 0. -1.
         25    2    1    2    0    0  0.17019591426E+03 -0.98020776687E+01  0.26333754664E+03  0.33768996203E+03  0.12500046811E+03 0.  0.
         25    2    1    2    0    0 -0.17019591426E+03  0.98020776687E+01  0.77487844116E+02  0.22515219975E+03  0.12500566831E+03 0.  0.
          5    1    3    3  501    0  0.31090591586E+02  0.48649928337E+02  0.97693794316E+02  0.11357644060E+03  0.47000000000E+01 0.  1.
         -5    1    3    3    0  501  0.13910532268E+03 -0.58452006006E+02  0.16564375232E+03  0.22411352143E+03  0.47000000000E+01 0.  1.
          5    1    4    4  502    0 -0.96550546922E+01  0.28206569740E+02  0.53906694774E+02  0.61780679820E+02  0.47000000000E+01 0.  1.
         -5    1    4    4    0  502 -0.16054085957E+03 -0.18404492071E+02  0.23581149342E+02  0.16337151993E+03  0.47000000000E+01 0.  1.
<mgrwt>
<rscale>  0 0.44791668E+03</rscale>
<asrwt>0</asrwt>
<pdfrwt beam="1">  1       21 0.69512887E-01 0.44791668E+03</pdfrwt>
<pdfrwt beam="2">  1       21 0.17078213E-01 0.44791668E+03</pdfrwt>
<totfact> 0.53635915E+04</totfact>
</mgrwt>
</event>
<event>
 8    1  0.4760912E-006  0.3169481E+03  0.7546771E-02  0.1077063E+00
         21   -1    0    0  504  503  0.00000000000E+00  0.00000000000E+00  0.10126340578E+03  0.10126340578E+03  0.00000000000E+00 0.  1.
         21   -1    0    0  503  504 -0.00000000000E+00 -0.00000000000E+00 -0.24800684579E+03  0.24800684579E+03  0.00000000000E+00 0.  1.
         25    2    1    2    0    0  0.57955932846E+02  0.66302500247E+02 -0.11925994248E+03  0.19391383186E+03  0.12499891445E+03 0.  0.
         25    2    1    2    0    0 -0.57955932846E+02 -0.66302500247E+02 -0.27483497525E+02  0.15535641971E+03  0.12500145126E+03 0.  0.
          5    1    3    3  501    0 -0.79337403182E+01 -0.31647851145E+02 -0.14493885718E+02  0.36009629834E+02  0.47000000000E+01 0.  1.
         -5    1    3    3    0  501  0.65889673164E+02  0.97950351392E+02 -0.10476605677E+03  0.15790420203E+03  0.47000000000E+01 0.  1.
          5    1    4    4  502    0 -0.52118461802E+02  0.65305925360E+01  0.31419619860E+02  0.61386197241E+02  0.47000000000E+01 0. -1.
         -5    1    4    4    0  502 -0.58374710435E+01 -0.72833092783E+02 -0.58903117385E+02  0.93970222465E+02  0.47000000000E+01 0. -1.
<mgrwt>
<rscale>  0 0.31694806E+03</rscale>
<asrwt>0</asrwt>
<pdfrwt beam="1">  1       21 0.15578986E-01 0.31694806E+03</pdfrwt>
<pdfrwt beam="2">  1       21 0.38154899E-01 0.31694806E+03</pdfrwt>
<totfact> 0.23517260E+05</totfact>
</mgrwt>
</event>
<event>
 8    1  0.4760912E-006  0.2578950E+03  0.7546771E-02  0.1108415E+00
         21   -1    0    0  504  503  0.00000000000E+00  0.00000000000E+00  0.47908435973E+02  0.47908435973E+02  0.00000000000E+00 0. -1.
         21   -1    0    0  503  504 -0.00000000000E+00 -0.00000000000E+00 -0.34706748108E+03  0.34706748108E+03  0.00000000000E+00 0. -1.
         25    2    1    2    0    0 -0.30283615161E+02 -0.22803127706E+01 -0.16319962125E+03  0.20780413892E+03  0.12500458633E+03 0.  0.
         25    2    1    2    0    0  0.30283615161E+02  0.22803127706E+01 -0.13595942386E+03  0.18717177813E+03  0.12500404961E+03 0.  0.
          5    1    3    3  501    0  0.18779536759E+02 -0.13838897079E+02  0.11131325584E+02  0.26271324338E+02  0.47000000000E+01 0.  1.
         -5    1    3    3    0  501 -0.49063151919E+02  0.11558584309E+02 -0.17433094683E+03  0.18153281458E+03  0.47000000000E+01 0.  1.
          5    1    4    4  502    0 -0.45597927822E+02  0.17003035388E+02 -0.70378001355E+02  0.85693799710E+02  0.47000000000E+01 0. -1.
         -5    1    4    4    0  502  0.75881542983E+02 -0.14722722618E+02 -0.65581422507E+02  0.10147797842E+03  0.47000000000E+01 0. -1.
<mgrwt>
<rscale>  0 0.25789502E+03</rscale>
<asrwt>0</asrwt>
<pdfrwt beam="1">  1       21 0.73705287E-02 0.25789502E+03</pdfrwt>
<pdfrwt beam="2">  1       21 0.53394997E-01 0.25789502E+03</pdfrwt>
<totfact> 0.45304963E+05</totfact>
</mgrwt>
</event>
<event>
 8    1  0.4760912E-006  0.3872334E+03  0.7546771E-02  0.1048292E+00
         21   -1    0    0  504  503  0.00000000000E+00  0.00000000000E+00  0.16088236436E+04  0.16088236436E+04  0.00000000000E+00 0.  1.
         21   -1    0    0  503  504 -0.00000000000E+00 -0.00000000000E+00 -0.23301136192E+02  0.23301136192E+02  0.00000000000E+00 0.  1.
         25    2    1    2    0    0 -0.65269818819E+02  0.12943508031E+03  0.91559347521E+03  0.93538722196E+03  0.12499701556E+03 0.  0.
         25    2    1    2    0    0  0.65269818819E+02 -0.12943508031E+03  0.66992903217E+03  0.69673755781E+03  0.12499890817E+03 0.  0.
          5    1    3    3  501    0 -0.25657314265E+02  0.14263624498E+03  0.61450085060E+03  0.63137689342E+03  0.47000000000E+01 0.  1.
         -5    1    3    3    0  501 -0.39612504554E+02 -0.13201164668E+02  0.30109262461E+03  0.30401032854E+03  0.47000000000E+01 0.  1.
          5    1    4    4  502    0 -0.14801844763E+02 -0.89918346190E+02  0.22291496804E+03  0.24086838017E+03  0.47000000000E+01 0. -1.
         -5    1    4    4    0  502  0.80071663582E+02 -0.39516734123E+02  0.44701406413E+03  0.45586917763E+03  0.47000000000E+01 0. -1.
<mgrwt>
<rscale>  0 0.38723336E+03</rscale>
<asrwt>0</asrwt>
<pdfrwt beam="1">  1       21 0.24751124E+00 0.38723336E+03</pdfrwt>
<pdfrwt beam="2">  1       21 0.35847914E-02 0.38723336E+03</pdfrwt>
<totfact> 0.28935773E+04</totfact>
</mgrwt>
</event>
<event>
 8    1  0.4760912E-006  0.4128245E+03  0.7546771E-02  0.1039427E+00
         21   -1    0    0  504  503  0.00000000000E+00  0.00000000000E+00  0.79172881533E+03  0.79172881533E+03  0.00000000000E+00 0. -1.
         21   -1    0    0  503  504 -0.00000000000E+00 -0.00000000000E+00 -0.53813913192E+02  0.53813913192E+02  0.00000000000E+00 0. -1.
         25    2    1    2    0    0  0.10813558255E+03  0.81098820060E+02  0.17779075835E+03  0.25593695527E+03  0.12499539388E+03 0.  0.
         25    2    1    2    0    0 -0.10813558255E+03 -0.81098820060E+02  0.56012414379E+03  0.58960577326E+03  0.12500235425E+03 0.  0.
          5    1    3    3  501    0  0.38894565382E+02  0.15277246207E+02  0.15079808894E+03  0.15655138165E+03  0.47000000000E+01 0.  1.
         -5    1    3    3    0  501  0.69241017163E+02  0.65821573853E+02  0.26992669405E+02  0.99385573621E+02  0.47000000000E+01 0.  1.
          5    1    4    4  502    0 -0.10413350817E+02 -0.69864612836E+02  0.35597092012E+03  0.36294198981E+03  0.47000000000E+01 0. -1.
         -5    1    4    4    0  502 -0.97722231729E+02 -0.11234207224E+02  0.20415322368E+03  0.22666378344E+03  0.47000000000E+01 0. -1.
<mgrwt>
<rscale>  0 0.41282454E+03</rscale>
<asrwt>0</asrwt>
<pdfrwt beam="1">  1       21 0.12180442E+00 0.41282454E+03</pdfrwt>
<pdfrwt beam="2">  1       21 0.82790641E-02 0.41282454E+03</pdfrwt>
<totfact> 0.53093054E+04</totfact>
</mgrwt>
</event>
<event>
 8    1  0.4760912E-006  0.2604608E+03  0.7546771E-02  0.1106867E+00
         21   -1    0    0  504  503  0.00000000000E+00  0.00000000000E+00  0.15469780193E+03  0.15469780193E+03  0.00000000000E+00 0. -1.
         21   -1    0    0  503  504 -0.00000000000E+00 -0.00000000000E+00 -0.10963281192E+03  0.10963281192E+03  0.00000000000E+00 0. -1.
         25    2    1    2    0    0  0.31222878912E+02  0.18268716500E+02  0.17225924873E+02  0.13126302612E+03  0.12499854147E+03 0.  0.
         25    2    1    2    0    0 -0.31222878912E+02 -0.18268716500E+02  0.27839065136E+02  0.13306758773E+03  0.12499342057E+03 0.  0.
          5    1    3    3  501    0  0.43178943608E+02  0.65312557452E+02  0.24005905333E+02  0.82027585743E+02  0.47000000000E+01 0. -1.
         -5    1    3    3    0  501 -0.11956064696E+02 -0.47043840952E+02 -0.67799804594E+01  0.49235440381E+02  0.47000000000E+01 0. -1.
          5    1    4    4  502    0  0.38739825325E+02  0.22950142873E+01  0.43343122998E+02  0.58367434996E+02  0.47000000000E+01 0. -1.
         -5    1    4    4    0  502 -0.69962704237E+02 -0.20563730787E+02 -0.15504057861E+02  0.74700152732E+02  0.47000000000E+01 0. -1.
<mgrwt>
<rscale>  0 0.26046078E+03</rscale>
<asrwt>0</asrwt>
<pdfrwt beam="1">  1       21 0.23799662E-01 0.26046078E+03</pdfrwt>
<pdfrwt beam="2">  1       21 0.16866586E-01 0.26046078E+03</pdfrwt>
<totfact> 0.51984685E+05</totfact>
</mgrwt>
</event>
<event>
 8    1  0.4760912E-006  0.2717923E+03  0.7546771E-02  0.1100258E+00
         21   -1    0    0  504  503  0.00000000000E+00  0.00000000000E+00  0.12866795189E+04  0.12866795189E+04  0.00000000000E+00 0.  1.
         21   -1    0    0  503  504 -0.00000000000E+00 -0.00000000000E+00 -0.14353042972E+02  0.14353042972E+02  0.00000000000E+00 0.  1.
         25    2    1    2    0    0  0.34855921854E+02 -0.40203879360E+02  0.61799178050E+03  0.63274567078E+03  0.12498782311E+03 0.  0.
         25    2    1    2    0    0 -0.34855921854E+02  0.40203879360E+02  0.65433469547E+03  0.66828689113E+03  0.12498875132E+03 0.  0.
          5    1    3    3  501    0  0.26300173929E+02 -0.21404001755E+02  0.33591312290E+02  0.47961408457E+02  0.47000000000E+01 0. -1.
         -5    1    3    3    0  501  0.85557479246E+01 -0.18799877605E+02  0.58440046821E+03  0.58478426232E+03  0.47000000000E+01 0. -1.
          5    1    4    4  502    0  0.24184636739E+02  0.62003931286E+02  0.23719799326E+03  0.24640284527E+03  0.47000000000E+01 0. -1.
         -5    1    4    4    0  502 -0.59040558593E+02 -0.21800051927E+02  0.41713670221E+03  0.42188404586E+03  0.47000000000E+01 0. -1.
<mgrwt>
<rscale>  0 0.27179232E+03</rscale>
<asrwt>0</asrwt>
<pdfrwt beam="1">  1       21 0.19795060E+00 0.27179232E+03</pdfrwt>
<pdfrwt beam="2">  1       21 0.22081615E-02 0.27179232E+03</pdfrwt>
<totfact> 0.13963267E+05</totfact>
</mgrwt>
</event>
<event>
 8    1  0.4760912E-006  0.4107836E+03  0.7546771E-02  0.1040108E+00
         21   -1    0    0  504  503  0.00000000000E+00  0.00000000000E+00  0.97934677269E+03  0.97934677269E+03  0.00000000000E+00 0.  1.
         21   -1    0    0  503  504 -0.00000000000E+00 -0.00000000000E+00 -0.43075446879E+02  0.43075446879E+02  0.00000000000E+00 0.  1.
         25    2    1    2    0    0 -0.75439630798E+02  0.13991691133E+03  0.37863203854E+03  0.42925044654E+03  0.12500338106E+03 0.  0.
         25    2    1    2    0    0  0.75439630798E+02 -0.13991691133E+03  0.55763928727E+03  0.59317177302E+03  0.12499319037E+03 0.  0.
          5    1    3    3  501    0 -0.96428064274E+02  0.68805620369E+02  0.16579856790E+03  0.20382306075E+03  0.47000000000E+01 0. -1.
         -5    1    3    3    0  501  0.20988433477E+02  0.71111290961E+02  0.21283347064E+03  0.22542738580E+03  0.47000000000E+01 0. -1.
          5    1    4    4  502    0  0.82744252041E+02 -0.15629087207E+03  0.44253160751E+03  0.47658132736E+03  0.47000000000E+01 0.  1.
         -5    1    4    4    0  502 -0.73046212430E+01  0.16373960744E+02  0.11510767975E+03  0.11659044566E+03  0.47000000000E+01 0.  1.
<mgrwt>
<rscale>  0 0.41078364E+03</rscale>
<asrwt>0</asrwt>
<pdfrwt beam="1">  1       21 0.15066872E+00 0.41078364E+03</pdfrwt>
<pdfrwt beam="2">  1       21 0.66269926E-02 0.41078364E+03</pdfrwt>
<totfact> 0.44989665E+04</totfact>
</mgrwt>
</event>
<event>
 8    1  0.4760912E-006  0.3030609E+03  0.7546771E-02  0.1083720E+00
         21   -1    0    0  504  503  0.00000000000E+00  0.00000000000E+00  0.10356826540E+03  0.10356826540E+03  0.00000000000E+00 0. -1.
         21   -1    0    0  503  504 -0.00000000000E+00 -0.00000000000E+00 -0.22170384699E+03  0.22170384699E+03  0.00000000000E+00 0. -1.
         25    2    1    2    0    0  0.51920239632E+02  0.56744111646E+02 -0.18591130076E+02  0.14793652101E+03  0.12499591450E+03 0.  0.
         25    2    1    2    0    0 -0.51920239632E+02 -0.56744111646E+02 -0.99544451510E+02  0.17733559138E+03  0.12499283440E+03 0.  0.
          5    1    3    3  501    0  0.22656791972E+02 -0.37044734141E+02 -0.23221953301E+02  0.49467076578E+02  0.47000000000E+01 0. -1.
         -5    1    3    3    0  501  0.29263447660E+02  0.93788845788E+02  0.46308232252E+01  0.98469444433E+02  0.47000000000E+01 0. -1.
          5    1    4    4  502    0 -0.33826583010E+02 -0.85141551780E+02 -0.24502854555E+02  0.94951574179E+02  0.47000000000E+01 0. -1.
         -5    1    4    4    0  502 -0.18093656622E+02  0.28397440134E+02 -0.75041596955E+02  0.82384017198E+02  0.47000000000E+01 0. -1.
<mgrwt>
<rscale>  0 0.30306094E+03</rscale>
<asrwt>0</asrwt>
<pdfrwt beam="1">  1       21 0.15933579E-01 0.30306094E+03</pdfrwt>
<pdfrwt beam="2">  1       21 0.34108284E-01 0.30306094E+03</pdfrwt>
<totfact> 0.28354848E+05</totfact>
</mgrwt>
</event>
<event>
 8    1  0.4760912E-006  0.2819402E+03  0.7546771E-02  0.1094634E+00
         21   -1    0    0  504  503  0.00000000000E+00  0.00000000000E+00  0.13380882613E+04  0.13380882613E+04  0.00000000000E+00 0. -1.
         21   -1    0    0  503  504 -0.00000000000E+00 -0.00000000000E+00 -0.14851468050E+02  0.14851468050E+02  0.00000000000E+00 0. -1.
         25    2    1    2    0    0  0.57912459443E+02  0.96802116018E+01  0.52584980991E+03  0.54368191008E+03  0.12499774923E+03 0.  0.
         25    2    1    2    0    0 -0.57912459443E+02 -0.96802116018E+01  0.79738698338E+03  0.80925781931E+03  0.12499862957E+03 0.  0.
          5    1    3    3  501    0  0.19997370091E+01  0.61152454001E+02  0.20988572293E+03  0.21867265094E+03  0.47000000000E+01 0.  1.
         -5    1    3    3    0  501  0.55912722434E+02 -0.51472242399E+02  0.31596408698E+03  0.32500925914E+03  0.47000000000E+01 0.  1.
          5    1    4    4  502    0  0.41840601056E+01 -0.24238385404E+02  0.62317799755E+03  0.62368093791E+03  0.47000000000E+01 0. -1.
         -5    1    4    4    0  502 -0.62096519549E+02  0.14558173802E+02  0.17420898583E+03  0.18557688139E+03  0.47000000000E+01 0. -1.
<mgrwt>
<rscale>  0 0.28194024E+03</rscale>
<asrwt>0</asrwt>
<pdfrwt beam="1">  1       21 0.20585964E+00 0.28194024E+03</pdfrwt>
<pdfrwt beam="2">  1       21 0.22848423E-02 0.28194024E+03</pdfrwt>
<totfact> 0.11676894E+05</totfact>
</mgrwt>
</event>
<event>
 8    1  0.4760912E-006  0.2829591E+03  0.7546771E-02  0.1094084E+00
         21   -1    0    0  504  503  0.00000000000E+00  0.00000000000E+00  0.11258239658E+03  0.11258239658E+03  0.00000000000E+00 0. -1.
         21   -1    0    0  503  504 -0.00000000000E+00 -0.00000000000E+00 -0.17779389196E+03  0.17779389196E+03  0.00000000000E+00 0. -1.
         25    2    1    2    0    0 -0.44252255047E+01  0.54231877520E+02 -0.71427542600E+02  0.15390497802E+03  0.12499667698E+03 0.  0.
         25    2    1    2    0    0  0.44252255047E+01 -0.54231877520E+02  0.62160472209E+01  0.13647131052E+03  0.12500040076E+03 0.  0.
          5    1    3    3  501    0 -0.59317085955E+02  0.81032241867E+00 -0.33775239335E+02  0.68425361531E+02  0.47000000000E+01 0.  1.
         -5    1    3    3    0  501  0.54891860450E+02  0.53421555101E+02 -0.37652303265E+02  0.85479616484E+02  0.47000000000E+01 0.  1.
          5    1    4    4  502    0  0.22845418798E+01 -0.33616590255E+02 -0.58875666847E+02  0.67998003049E+02  0.47000000000E+01 0.  1.
         -5    1    4    4    0  502  0.21406836249E+01 -0.20615287265E+02  0.65091714068E+02  0.68473307468E+02  0.47000000000E+01 0.  1.
<mgrwt>
<rscale>  0 0.28295910E+03</rscale>
<asrwt>0</asrwt>
<pdfrwt beam="1">  1       21 0.17320369E-01 0.28295910E+03</pdfrwt>
<pdfrwt beam="2">  1       21 0.27352906E-01 0.28295910E+03</pdfrwt>
<totfact> 0.37687696E+05</totfact>
</mgrwt>
</event>
<event>
 8    1  0.4760912E-006  0.3363238E+03  0.7546771E-02  0.1068373E+00
         21   -1    0    0  504  503  0.00000000000E+00  0.00000000000E+00  0.72611594172E+02  0.72611594172E+02  0.00000000000E+00 0. -1.
         21   -1    0    0  503  504 -0.00000000000E+00 -0.00000000000E+00 -0.38944778374E+03  0.38944778374E+03  0.00000000000E+00 0. -1.
         25    2    1    2    0    0 -0.96461746519E+02 -0.17541858571E+00 -0.23792205153E+03  0.28554661052E+03  0.12500025945E+03 0.  0.
         25    2    1    2    0    0  0.96461746519E+02  0.17541858571E+00 -0.78914138038E+02  0.17651276739E+03  0.12499766620E+03 0.  0.
          5    1    3    3  501    0 -0.95090588869E+02 -0.21514782549E+02 -0.80249579885E+02  0.12636135102E+03  0.47000000000E+01 0. -1.
         -5    1    3    3    0  501 -0.13711576496E+01  0.21339363963E+02 -0.15767247164E+03  0.15918525950E+03  0.47000000000E+01 0. -1.
          5    1    4    4  502    0  0.56898543952E+02  0.49882198410E+02 -0.83329281399E+02  0.11265672266E+03  0.47000000000E+01 0.  1.
         -5    1    4    4    0  502  0.39563202567E+02 -0.49706779824E+02  0.44151433611E+01  0.63856044731E+02  0.47000000000E+01 0.  1.
<mgrwt>
<rscale>  0 0.33632380E+03</rscale>
<asrwt>0</asrwt>
<pdfrwt beam="1">  1       21 0.11171015E-01 0.33632380E+03</pdfrwt>
<pdfrwt beam="2">  1       21 0.59915042E-01 0.33632380E+03</pdfrwt>
<totfact> 0.16655989E+05</totfact>
</mgrwt>
</event>
<event>
 8    1  0.4760912E-006  0.2570150E+03  0.7546771E-02  0.1108950E+00
         21   -1    0    0  504  503  0.00000000000E+00  0.00000000000E+00  0.18562523963E+03  0.18562523963E+03  0.00000000000E+00 0. -1.
         21   -1    0    0  503  504 -0.00000000000E+00 -0.00000000000E+00 -0.88965181817E+02  0.88965181817E+02  0.00000000000E+00 0. -1.
         25    2    1    2    0    0  0.17712540326E+02  0.92570182189E+01  0.71875206769E+02  0.14562980230E+03  0.12507025025E+03 0.  0.
         25    2    1    2    0    0 -0.17712540326E+02 -0.92570182189E+01  0.24784851047E+02  0.12896061915E+03  0.12496849995E+03 0.  0.
          5    1    3    3  501    0  0.49029229872E+02  0.27325361837E+02  0.89017809769E+02  0.10534135578E+03  0.47000000000E+01 0.  1.
         -5    1    3    3    0  501 -0.31316689546E+02 -0.18068343618E+02 -0.17142603000E+02  0.40288446518E+02  0.47000000000E+01 0.  1.
          5    1    4    4  502    0  0.21543637936E+02  0.27268200641E+02 -0.34286388968E+02  0.49044159389E+02  0.47000000000E+01 0. -1.
         -5    1    4    4    0  502 -0.39256178262E+02 -0.36525218860E+02  0.59071240015E+02  0.79916459765E+02  0.47000000000E+01 0. -1.
<mgrwt>
<rscale>  0 0.25701504E+03</rscale>
<asrwt>0</asrwt>
<pdfrwt beam="1">  1       21 0.28557729E-01 0.25701504E+03</pdfrwt>
<pdfrwt beam="2">  1       21 0.13686951E-01 0.25701504E+03</pdfrwt>
<totfact> 0.53671803E+05</totfact>
</mgrwt>
</event>
<event>
 8    1  0.4760912E-006  0.4147907E+03  0.7546771E-02  0.1038775E+00
         21   -1    0    0  504  503  0.00000000000E+00  0.00000000000E+00  0.35939051037E+02  0.35939051037E+02  0.00000000000E+00 0. -1.
         21   -1    0    0  503  504 -0.00000000000E+00 -0.00000000000E+00 -0.11968270214E+04  0.11968270214E+04  0.00000000000E+00 0. -1.
         25    2    1    2    0    0  0.15743874671E+02 -0.72817588248E+02 -0.14125143165E+03  0.20279822222E+03  0.12499952498E+03 0.  0.
         25    2    1    2    0    0 -0.15743874671E+02  0.72817588248E+02 -0.10196365387E+04  0.10299678502E+04  0.12499932259E+03 0.  0.
          5    1    3    3  501    0 -0.44699820316E+01 -0.29501748876E+02 -0.15082723296E+03  0.15382222898E+03  0.47000000000E+01 0.  1.
         -5    1    3    3    0  501  0.20213856702E+02 -0.43315839372E+02  0.95758013096E+01  0.48975993242E+02  0.47000000000E+01 0.  1.
          5    1    4    4  502    0 -0.39668374079E+02  0.10076545038E+03 -0.76925601882E+03  0.77685530724E+03  0.47000000000E+01 0.  1.
         -5    1    4    4    0  502  0.23924499408E+02 -0.27947862136E+02 -0.25038051985E+03  0.25311254293E+03  0.47000000000E+01 0.  1.
<mgrwt>
<rscale>  0 0.41479068E+03</rscale>
<asrwt>0</asrwt>
<pdfrwt beam="1">  1       21 0.55290852E-02 0.41479068E+03</pdfrwt>
<pdfrwt beam="2">  1       21 0.18412722E+00 0.41479068E+03</pdfrwt>
<totfact> 0.34977194E+04</totfact>
</mgrwt>
</event>
<event>
 8    1  0.4760912E-006  0.3558756E+03  0.7546771E-02  0.1060229E+00
         21   -1    0    0  504  503  0.00000000000E+00  0.00000000000E+00  0.40647125763E+03  0.40647125763E+03  0.00000000000E+00 0.  1.
         21   -1    0    0  503  504 -0.00000000000E+00 -0.00000000000E+00 -0.77894474658E+02  0.77894474658E+02  0.00000000000E+00 0.  1.
         25    2    1    2    0    0  0.89023802261E+01 -0.71344069969E+02  0.30616981275E+03  0.33842952835E+03  0.12500145091E+03 0.  0.
         25    2    1    2    0    0 -0.89023802261E+01  0.71344069969E+02  0.22406970226E+02  0.14593620394E+03  0.12500429837E+03 0.  0.
          5    1    3    3  501    0  0.20884223802E+02 -0.60116084719E+02  0.48393958434E+02  0.80088448971E+02  0.47000000000E+01 0. -1.
         -5    1    3    3    0  501 -0.11981843576E+02 -0.11227985250E+02  0.25777585431E+03  0.25834107938E+03  0.47000000000E+01 0. -1.
          5    1    4    4  502    0 -0.49777260375E+02  0.65704787679E+02 -0.21685778798E+02  0.85365436661E+02  0.47000000000E+01 0. -1.
         -5    1    4    4    0  502  0.40874880149E+02  0.56392822899E+01  0.44092749023E+02  0.60570767275E+02  0.47000000000E+01 0. -1.
<mgrwt>
<rscale>  0 0.35587562E+03</rscale>
<asrwt>0</asrwt>
<pdfrwt beam="1">  1       21 0.62534038E-01 0.35587562E+03</pdfrwt>
<pdfrwt beam="2">  1       21 0.11983766E-01 0.35587562E+03</pdfrwt>
<totfact> 0.13303508E+05</totfact>
</mgrwt>
</event>
<event>
 8    1  0.4760912E-006  0.2899741E+03  0.7546771E-02  0.1090363E+00
         21   -1    0    0  504  503  0.00000000000E+00  0.00000000000E+00  0.19360406277E+03  0.19360406277E+03  0.00000000000E+00 0.  1.
         21   -1    0    0  503  504 -0.00000000000E+00 -0.00000000000E+00 -0.10857851028E+03  0.10857851028E+03  0.00000000000E+00 0.  1.
         25    2    1    2    0    0 -0.56209009133E+02  0.50042248858E+01 -0.65035032742E+01  0.13729871165E+03  0.12499658272E+03 0.  0.
         25    2    1    2    0    0  0.56209009133E+02 -0.50042248858E+01  0.91529055765E+02  0.16488386140E+03  0.12499849890E+03 0.  0.
          5    1    3    3  501    0 -0.48097814528E+01  0.35889310459E+01 -0.61437330654E+02  0.61908400251E+02  0.47000000000E+01 0.  1.
         -5    1    3    3    0  501 -0.51399227680E+02  0.14152938400E+01  0.54933827380E+02  0.75390311403E+02  0.47000000000E+01 0.  1.
          5    1    4    4  502    0  0.13533965880E+01  0.54397977657E+02  0.49136305206E+02  0.73467258998E+02  0.47000000000E+01 0.  1.
         -5    1    4    4    0  502  0.54855612545E+02 -0.59402202542E+02  0.42392750559E+02  0.91416602401E+02  0.47000000000E+01 0.  1.
<mgrwt>
<rscale>  0 0.28997407E+03</rscale>
<asrwt>0</asrwt>
<pdfrwt beam="1">  1       21 0.29785240E-01 0.28997407E+03</pdfrwt>
<pdfrwt beam="2">  1       21 0.16704386E-01 0.28997407E+03</pdfrwt>
<totfact> 0.34075796E+05</totfact>
</mgrwt>
</event>
<event>
 8    1  0.4760912E-006  0.3081437E+03  0.7546771E-02  0.1081239E+00
         21   -1    0    0  504  503  0.00000000000E+00  0.00000000000E+00  0.22254736492E+03  0.22254736492E+03  0.00000000000E+00 0.  1.
         21   -1    0    0  503  504 -0.00000000000E+00 -0.00000000000E+00 -0.10666553889E+03  0.10666553889E+03  0.00000000000E+00 0.  1.
         25    2    1    2    0    0  0.24570280868E+01 -0.89905497260E+02  0.63160374974E+02  0.16644112889E+03  0.12499752395E+03 0.  0.
         25    2    1    2    0    0 -0.24570280868E+01  0.89905497260E+02  0.52721451052E+02  0.16277177493E+03  0.12500425547E+03 0.  0.
          5    1    3    3  501    0 -0.18483459804E+02 -0.46825577819E+02 -0.31975860077E+02  0.59823228366E+02  0.47000000000E+01 0. -1.
         -5    1    3    3    0  501  0.20940487891E+02 -0.43079919441E+02  0.95136235051E+02  0.10661790052E+03  0.47000000000E+01 0. -1.
          5    1    4    4  502    0  0.25860049870E+02 -0.23794858102E+02  0.21325604167E+02  0.41374011704E+02  0.47000000000E+01 0.  1.
         -5    1    4    4    0  502 -0.28317077956E+02  0.11370035536E+03  0.31395846885E+02  0.12139776322E+03  0.47000000000E+01 0.  1.
<mgrwt>
<rscale>  0 0.30814370E+03</rscale>
<asrwt>0</asrwt>
<pdfrwt beam="1">  1       21 0.34238056E-01 0.30814370E+03</pdfrwt>
<pdfrwt beam="2">  1       21 0.16410083E-01 0.30814370E+03</pdfrwt>
<totfact> 0.26619551E+05</totfact>
</mgrwt>
</event>
<event>
 8    1  0.4760912E-006  0.2975572E+03  0.7546771E-02  0.1086468E+00
         21   -1    0    0  504  503  0.00000000000E+00  0.00000000000E+00  0.21700343730E+03  0.21700343730E+03  0.00000000000E+00 0. -1.
         21   -1    0    0  503  504 -0.00000000000E+00 -0.00000000000E+00 -0.10200330759E+03  0.10200330759E+03  0.00000000000E+00 0. -1.
         25    2    1    2    0    0 -0.47733168729E+02 -0.63233055035E+02  0.73951629465E+02  0.16542897642E+03  0.12498411136E+03 0.  0.
         25    2    1    2    0    0  0.47733168729E+02  0.63233055035E+02  0.41048500240E+02  0.15357776847E+03  0.12499710777E+03 0.  0.
          5    1    3    3  501    0 -0.72439179370E+02  0.71133329168E+01  0.30985338564E+02  0.79247810184E+02  0.47000000000E+01 0.  1.
         -5    1    3    3    0  501  0.24706010640E+02 -0.70346387952E+02  0.42966290901E+02  0.86181166234E+02  0.47000000000E+01 0.  1.
          5    1    4    4  502    0  0.98187268805E+01 -0.17047449120E+02 -0.32440566212E+02  0.38229612282E+02  0.47000000000E+01 0. -1.
         -5    1    4    4    0  502  0.37914441849E+02  0.80280504155E+02  0.73489066452E+02  0.11534815619E+03  0.47000000000E+01 0. -1.
<mgrwt>
<rscale>  0 0.29755718E+03</rscale>
<asrwt>0</asrwt>
<pdfrwt beam="1">  1       21 0.33385144E-01 0.29755718E+03</pdfrwt>
<pdfrwt beam="2">  1       21 0.15692817E-01 0.29755718E+03</pdfrwt>
<totfact> 0.30471419E+05</totfact>
</mgrwt>
</event>
<event>
 8    1  0.4760912E-006  0.2619873E+03  0.7546771E-02  0.1105955E+00
         21   -1    0    0  504  503  0.00000000000E+00  0.00000000000E+00  0.67298352188E+02  0.67298352188E+02  0.00000000000E+00 0.  1.
         21   -1    0    0  503  504 -0.00000000000E+00 -0.00000000000E+00 -0.25497409610E+03  0.25497409610E+03  0.00000000000E+00 0.  1.
         25    2    1    2    0    0  0.20250549601E+02 -0.30340762239E+02 -0.11137595389E+03  0.17134884221E+03  0.12500070405E+03 0.  0.
         25    2    1    2    0    0 -0.20250549601E+02  0.30340762239E+02 -0.76299790022E+02  0.15092360607E+03  0.12500252117E+03 0.  0.
          5    1    3    3  501    0 -0.95243326662E+01 -0.52906338380E+02 -0.12099732560E+03  0.13248485330E+03  0.47000000000E+01 0.  1.
         -5    1    3    3    0  501  0.29774882267E+02  0.22565576140E+02  0.96213717099E+01  0.38863988912E+02  0.47000000000E+01 0.  1.
          5    1    4    4  502    0 -0.37203129502E+02  0.52689584303E+02  0.49295865225E+01  0.64858738517E+02  0.47000000000E+01 0. -1.
         -5    1    4    4    0  502  0.16952579901E+02 -0.22348822063E+02 -0.81229376544E+02  0.86064867552E+02  0.47000000000E+01 0. -1.
<mgrwt>
<rscale>  0 0.26198730E+03</rscale>
<asrwt>0</asrwt>
<pdfrwt beam="1">  1       21 0.10353593E-01 0.26198730E+03</pdfrwt>
<pdfrwt beam="2">  1       21 0.39226783E-01 0.26198730E+03</pdfrwt>
<totfact> 0.47146680E+05</totfact>
</mgrwt>
</event>
<event>
 8    1  0.4760912E-006  0.3107637E+03  0.7546771E-02  0.1079980E+00
         21   -1    0    0  504  503  0.00000000000E+00  0.00000000000E+00  0.22236773818E+03  0.22236773818E+03  0.00000000000E+00 0. -1.
         21   -1    0    0  503  504 -0.00000000000E+00 -0.00000000000E+00 -0.10857470525E+03  0.10857470525E+03  0.00000000000E+00 0. -1.
         25    2    1    2    0    0  0.99324121090E+01 -0.86205238298E+02  0.23436779416E+02  0.15397085619E+03  0.12501098354E+03 0.  0.
         25    2    1    2    0    0 -0.99324121090E+01  0.86205238298E+02  0.90356253520E+02  0.17697158724E+03  0.12499877688E+03 0.  0.
          5    1    3    3  501    0  0.48333920072E+02 -0.78681387719E+02  0.51266741030E+02  0.10572273804E+03  0.47000000000E+01 0.  1.
         -5    1    3    3    0  501 -0.38401507962E+02 -0.75238505789E+01 -0.27829961614E+02  0.48248118147E+02  0.47000000000E+01 0.  1.
          5    1    4    4  502    0 -0.22803289735E+01  0.73550472028E+02 -0.10896636207E+02  0.74536558255E+02  0.47000000000E+01 0. -1.
         -5    1    4    4    0  502 -0.76520831355E+01  0.12654766270E+02  0.10125288973E+03  0.10243502899E+03  0.47000000000E+01 0. -1.
<mgrwt>
<rscale>  0 0.31076365E+03</rscale>
<asrwt>0</asrwt>
<pdfrwt beam="1">  1       21 0.34210421E-01 0.31076365E+03</pdfrwt>
<pdfrwt beam="2">  1       21 0.16703801E-01 0.31076365E+03</pdfrwt>
<totfact> 0.25785868E+05</totfact>
</mgrwt>
</event>
<event>
 8    1  0.4760912E-006  0.3284595E+03  0.7546771E-02  0.1071821E+00
         21   -1    0    0  504  503  0.00000000000E+00  0.00000000000E+00  0.33442816374E+02  0.33442816374E+02  0.00000000000E+00 0.  1.
         21   -1    0    0  503  504 -0.00000000000E+00 -0.00000000000E+00 -0.80649329087E+03  0.80649329087E+03  0.00000000000E+00 0.  1.
         25    2    1    2    0    0  0.81306343119E+02  0.11356383135E+02 -0.56009163910E+03  0.57971353205E+03  0.12500178473E+03 0.  0.
         25    2    1    2    0    0 -0.81306343119E+02 -0.11356383135E+02 -0.21295883540E+03  0.26022257520E+03  0.12499853678E+03 0.  0.
          5    1    3    3  501    0  0.62941333428E+02 -0.39667352802E+02 -0.45791108491E+03  0.46393939476E+03  0.47000000000E+01 0.  1.
         -5    1    3    3    0  501  0.18365009691E+02  0.51023735937E+02 -0.10218055419E+03  0.11577413729E+03  0.47000000000E+01 0.  1.
          5    1    4    4  502    0 -0.50796151603E+02  0.15800464314E+02 -0.21249689363E+03  0.21910482307E+03  0.47000000000E+01 0.  1.
         -5    1    4    4    0  502 -0.30510191516E+02 -0.27156847449E+02 -0.46194177084E+00  0.41117752126E+02  0.47000000000E+01 0.  1.
<mgrwt>
<rscale>  0 0.32845948E+03</rscale>
<asrwt>0</asrwt>
<pdfrwt beam="1">  1       21 0.51450486E-02 0.32845948E+03</pdfrwt>
<pdfrwt beam="2">  1       21 0.12407589E+00 0.32845948E+03</pdfrwt>
<totfact> 0.11877094E+05</totfact>
</mgrwt>
</event>
<event>
 8    1  0.4760912E-006  0.3302747E+03  0.7546771E-02  0.1071015E+00
         21   -1    0    0  504  503  0.00000000000E+00  0.00000000000E+00  0.43722667301E+02  0.43722667301E+02  0.00000000000E+00 0. -1.
         21   -1    0    0  503  504 -0.00000000000E+00 -0.00000000000E+00 -0.62371192078E+03  0.62371192078E+03  0.00000000000E+00 0. -1.
         25    2    1    2    0    0 -0.21817146125E+02 -0.85778076007E+02 -0.16531664033E+03  0.22536323340E+03  0.12500051683E+03 0.  0.
         25    2    1    2    0    0  0.21817146125E+02  0.85778076007E+02 -0.41467261314E+03  0.44207135468E+03  0.12505934731E+03 0.  0.
          5    1    3    3  501    0  0.14978610484E+02 -0.78645262865E+02 -0.31239370079E+02  0.86066395219E+02  0.47000000000E+01 0.  1.
         -5    1    3    3    0  501 -0.36795756609E+02 -0.71328131420E+01 -0.13407727026E+03  0.13929683818E+03  0.47000000000E+01 0.  1.
          5    1    4    4  502    0  0.68514562506E+02  0.18920785284E+02 -0.20679851593E+03  0.21872347287E+03  0.47000000000E+01 0. -1.
         -5    1    4    4    0  502 -0.46697416382E+02  0.66857290723E+02 -0.20787409721E+03  0.22334788181E+03  0.47000000000E+01 0. -1.
<mgrwt>
<rscale>  0 0.33027473E+03</rscale>
<asrwt>0</asrwt>
<pdfrwt beam="1">  1       21 0.67265649E-02 0.33027473E+03</pdfrwt>
<pdfrwt beam="2">  1       21 0.95955670E-01 0.33027473E+03</pdfrwt>
<totfact> 0.14045972E+05</totfact>
</mgrwt>
</event>
<event>
 8    1  0.4760912E-006  0.3694779E+03  0.7546771E-02  0.1054893E+00
         21   -1    0    0  504  503  0.00000000000E+00  0.00000000000E+00  0.23519745332E+02  0.23519745332E+02  0.00000000000E+00 0. -1.
         21   -1    0    0  503  504 -0.00000000000E+00 -0.00000000000E+00 -0.14510566964E+04  0.14510566964E+04  0.00000000000E+00 0. -1.
         25    2    1    2    0    0 -0.50029292900E+02  0.35233617872E+02 -0.22892595871E+03  0.26791207900E+03  0.12500179808E+03 0.  0.
         25    2    1    2    0    0  0.50029292900E+02 -0.35233617872E+02 -0.11986109924E+04  0.12066643628E+04  0.12500494121E+03 0.  0.
          5    1    3    3  501    0 -0.60454811656E+02 -0.62730424130E+01 -0.21373313017E+03  0.22225677998E+03  0.47000000000E+01 0.  1.
         -5    1    3    3    0  501  0.10425518756E+02  0.41506660285E+02 -0.15192828543E+02  0.45655299018E+02  0.47000000000E+01 0.  1.
          5    1    4    4  502    0  0.31662771793E+02  0.45727670159E+02 -0.44938183098E+03  0.45283514765E+03  0.47000000000E+01 0. -1.
         -5    1    4    4    0  502  0.18366521107E+02 -0.80961288031E+02 -0.74922916139E+03  0.75382921510E+03  0.47000000000E+01 0. -1.
<mgrwt>
<rscale>  0 0.36947792E+03</rscale>
<asrwt>0</asrwt>
<pdfrwt beam="1">  1       21 0.36184233E-02 0.36947792E+03</pdfrwt>
<pdfrwt beam="2">  1       21 0.22323943E+00 0.36947792E+03</pdfrwt>
<totfact> 0.40559790E+04</totfact>
</mgrwt>
</event>
<event>
 8    1  0.4760912E-006  0.3654266E+03  0.7546771E-02  0.1056456E+00
         21   -1    0    0  504  503  0.00000000000E+00  0.00000000000E+00  0.22325809726E+03  0.22325809726E+03  0.00000000000E+00 0. -1.
         21   -1    0    0  503  504 -0.00000000000E+00 -0.00000000000E+00 -0.14953165650E+03  0.14953165650E+03  0.00000000000E+00 0. -1.
         25    2    1    2    0    0 -0.47134404984E+02  0.12259847214E+03  0.59826389517E+02  0.19093705659E+03  0.12500290074E+03 0.  0.
         25    2    1    2    0    0  0.47134404984E+02 -0.12259847214E+03  0.13900051236E+02  0.18185269717E+03  0.12500061815E+03 0.  0.
          5    1    3    3  501    0 -0.15081572633E+02  0.99001866853E+02  0.94626252102E+02  0.13785877216E+03  0.47000000000E+01 0.  1.
         -5    1    3    3    0  501 -0.32052832352E+02  0.23596605286E+02 -0.34799862585E+02  0.53078284437E+02  0.47000000000E+01 0.  1.
          5    1    4    4  502    0 -0.41989377865E+02 -0.51559731233E+02  0.12223434476E+02  0.67771794197E+02  0.47000000000E+01 0.  1.
         -5    1    4    4    0  502  0.89123782849E+02 -0.71038740906E+02  0.16766167596E+01  0.11408090297E+03  0.47000000000E+01 0.  1.
<mgrwt>
<rscale>  0 0.36542662E+03</rscale>
<asrwt>0</asrwt>
<pdfrwt beam="1">  1       21 0.34347400E-01 0.36542662E+03</pdfrwt>
<pdfrwt beam="2">  1       21 0.23004870E-01 0.36542662E+03</pdfrwt>
<totfact> 0.13822694E+05</totfact>
</mgrwt>
</event>
<event>
 8    1  0.4760912E-006  0.3318131E+03  0.7546771E-02  0.1070337E+00
         21   -1    0    0  504  503  0.00000000000E+00  0.00000000000E+00  0.10294358260E+03  0.10294358260E+03  0.00000000000E+00 0. -1.
         21   -1    0    0  503  504 -0.00000000000E+00 -0.00000000000E+00 -0.26737922732E+03  0.26737922732E+03  0.00000000000E+00 0. -1.
         25    2    1    2    0    0  0.80196002866E+02 -0.34373194482E+02 -0.15536104799E+03  0.21761251342E+03  0.12492091655E+03 0.  0.
         25    2    1    2    0    0 -0.80196002866E+02  0.34373194482E+02 -0.90745967214E+01  0.15271029649E+03  0.12500068390E+03 0.  0.
          5    1    3    3  501    0 -0.27383570366E+02  0.12327634834E+02 -0.56479963404E+02  0.64139744097E+02  0.47000000000E+01 0.  1.
         -5    1    3    3    0  501  0.10757957323E+03 -0.46700829315E+02 -0.98881084587E+02  0.15347276933E+03  0.47000000000E+01 0.  1.
          5    1    4    4  502    0 -0.25338801927E+02  0.75981064239E+02 -0.20375560373E+02  0.82779408469E+02  0.47000000000E+01 0.  1.
         -5    1    4    4    0  502 -0.54857200938E+02 -0.41607869757E+02  0.11300963651E+02  0.69930888025E+02  0.47000000000E+01 0.  1.
<mgrwt>
<rscale>  0 0.33181305E+03</rscale>
<asrwt>0</asrwt>
<pdfrwt beam="1">  1       21 0.15837474E-01 0.33181305E+03</pdfrwt>
<pdfrwt beam="2">  1       21 0.41135265E-01 0.33181305E+03</pdfrwt>
<totfact> 0.19504850E+05</totfact>
</mgrwt>
</event>
<event>
 8    1  0.4760912E-006  0.3219687E+03  0.7546771E-02  0.1074747E+00
         21   -1    0    0  504  503  0.00000000000E+00  0.00000000000E+00  0.52422907501E+02  0.52422907501E+02  0.00000000000E+00 0. -1.
         21   -1    0    0  503  504 -0.00000000000E+00 -0.00000000000E+00 -0.49436319508E+03  0.49436319508E+03  0.00000000000E+00 0. -1.
         25    2    1    2    0    0  0.10085150549E+03 -0.48819280428E+01 -0.23763426934E+03  0.28686200475E+03  0.12499961770E+03 0.  0.
         25    2    1    2    0    0 -0.10085150549E+03  0.48819280428E+01 -0.20430601824E+03  0.25992409783E+03  0.12499891263E+03 0.  0.
          5    1    3    3  501    0  0.15823923576E+01  0.93739129534E+01  0.13052981927E+02  0.16817982840E+02  0.47000000000E+01 0.  1.
         -5    1    3    3    0  501  0.99269113135E+02 -0.14255840996E+02 -0.25068725126E+03  0.27004402191E+03  0.47000000000E+01 0.  1.
          5    1    4    4  502    0  0.24140332947E+02  0.22420608556E+02 -0.55805344707E+02  0.64975117243E+02  0.47000000000E+01 0.  1.
         -5    1    4    4    0  502 -0.12499183844E+03 -0.17538680514E+02 -0.14850067354E+03  0.19494898059E+03  0.47000000000E+01 0.  1.
<mgrwt>
<rscale>  0 0.32196867E+03</rscale>
<asrwt>0</asrwt>
<pdfrwt beam="1">  1       21 0.80650629E-02 0.32196867E+03</pdfrwt>
<pdfrwt beam="2">  1       21 0.76055874E-01 0.32196867E+03</pdfrwt>
<totfact> 0.17573917E+05</totfact>
</mgrwt>
</event>
<event>
 8    1  0.4760912E-006  0.3089135E+03  0.7546771E-02  0.1080868E+00
         21   -1    0    0  504  503  0.00000000000E+00  0.00000000000E+00  0.11319627938E+03  0.11319627938E+03  0.00000000000E+00 0. -1.
         21   -1    0    0  503  504 -0.00000000000E+00 -0.00000000000E+00 -0.21075679396E+03  0.21075679396E+03  0.00000000000E+00 0. -1.
         25    2    1    2    0    0 -0.64446389566E+02 -0.55069641895E+02 -0.82705598921E+02  0.17219673910E+03  0.12500199309E+03 0.  0.
         25    2    1    2    0    0  0.64446389566E+02  0.55069641895E+02 -0.14854915656E+02  0.15175633423E+03  0.12499325532E+03 0.  0.
          5    1    3    3  501    0 -0.52965778390E+02 -0.78194259149E+02 -0.10240276919E+03  0.13938483771E+03  0.47000000000E+01 0. -1.
         -5    1    3    3    0  501 -0.11480611176E+02  0.23124617254E+02  0.19697170274E+02  0.32811901391E+02  0.47000000000E+01 0. -1.
          5    1    4    4  502    0  0.11067041953E+02 -0.38086885634E+02  0.10582503180E+02  0.41317909536E+02  0.47000000000E+01 0.  1.
         -5    1    4    4    0  502  0.53379347614E+02  0.93156527529E+02 -0.25437418836E+02  0.11043842470E+03  0.47000000000E+01 0.  1.
<mgrwt>
<rscale>  0 0.30891348E+03</rscale>
<asrwt>0</asrwt>
<pdfrwt beam="1">  1       21 0.17414812E-01 0.30891348E+03</pdfrwt>
<pdfrwt beam="2">  1       21 0.32424122E-01 0.30891348E+03</pdfrwt>
<totfact> 0.26566242E+05</totfact>
</mgrwt>
</event>
<event>
 8    1  0.4760912E-006  0.2818713E+03  0.7546771E-02  0.1094671E+00
         21   -1    0    0  504  503  0.00000000000E+00  0.00000000000E+00  0.10584626477E+03  0.10584626477E+03  0.00000000000E+00 0.  1.
         21   -1    0    0  503  504 -0.00000000000E+00 -0.00000000000E+00 -0.18765757009E+03  0.18765757009E+03  0.00000000000E+00 0.  1.
         25    2    1    2    0    0 -0.20813942906E+02 -0.89082548245E+01  0.22640963268E+02  0.12904093111E+03  0.12500548572E+03 0.  0.
         25    2    1    2    0    0  0.20813942906E+02  0.89082548245E+01 -0.10445226859E+03  0.16446290376E+03  0.12500077230E+03 0.  0.
          5    1    3    3  501    0  0.31341131103E+02 -0.42384461982E+02  0.37837970091E+02  0.65057752012E+02  0.47000000000E+01 0.  1.
         -5    1    3    3    0  501 -0.52155074008E+02  0.33476207157E+02 -0.15197006823E+02  0.63983179093E+02  0.47000000000E+01 0.  1.
          5    1    4    4  502    0  0.27715423506E+02  0.59467294234E+02 -0.89520503042E+02  0.11108786724E+03  0.47000000000E+01 0.  1.
         -5    1    4    4    0  502 -0.69014806008E+01 -0.50559039409E+02 -0.14931765546E+02  0.53375036513E+02  0.47000000000E+01 0.  1.
<mgrwt>
<rscale>  0 0.28187127E+03</rscale>
<asrwt>0</asrwt>
<pdfrwt beam="1">  1       21 0.16284041E-01 0.28187127E+03</pdfrwt>
<pdfrwt beam="2">  1       21 0.28870395E-01 0.28187127E+03</pdfrwt>
<totfact> 0.38035549E+05</totfact>
</mgrwt>
</event>
<event>
 8    1  0.4760912E-006  0.3886136E+03  0.7546771E-02  0.1047795E+00
         21   -1    0    0  504  503  0.00000000000E+00  0.00000000000E+00  0.16159857021E+04  0.16159857021E+04  0.00000000000E+00 0. -1.
         21   -1    0    0  503  504 -0.00000000000E+00 -0.00000000000E+00 -0.23363531864E+02  0.23363531864E+02  0.00000000000E+00 0. -1.
         25    2    1    2    0    0 -0.12440799922E+03  0.43461852566E+02  0.50516419531E+03  0.53682597336E+03  0.12499991419E+03 0.  0.
         25    2    1    2    0    0  0.12440799922E+03 -0.43461852566E+02  0.10874579749E+04  0.11025232606E+04  0.12500564009E+03 0.  0.
          5    1    3    3  501    0 -0.64224359542E+02 -0.38697197047E+02  0.27528867562E+03  0.28535624462E+03  0.47000000000E+01 0.  1.
         -5    1    3    3    0  501 -0.60183639681E+02  0.82159049613E+02  0.22987551969E+03  0.25146972874E+03  0.47000000000E+01 0.  1.
          5    1    4    4  502    0  0.92439756955E+02 -0.85047453489E+02  0.85385110979E+03  0.86305387184E+03  0.47000000000E+01 0.  1.
         -5    1    4    4    0  502  0.31968242268E+02  0.41585600923E+02  0.23360686513E+03  0.23946938877E+03  0.47000000000E+01 0.  1.
<mgrwt>
<rscale>  0 0.38861360E+03</rscale>
<asrwt>0</asrwt>
<pdfrwt beam="1">  1       21 0.24861310E+00 0.38861360E+03</pdfrwt>
<pdfrwt beam="2">  1       21 0.35943908E-02 0.38861360E+03</pdfrwt>
<totfact> 0.28345474E+04</totfact>
</mgrwt>
</event>
<event>
 8    1  0.4760912E-006  0.2530245E+03  0.7546771E-02  0.1111408E+00
         21   -1    0    0  504  503  0.00000000000E+00  0.00000000000E+00  0.97502533382E+02  0.97502533382E+02  0.00000000000E+00 0. -1.
         21   -1    0    0  503  504 -0.00000000000E+00 -0.00000000000E+00 -0.16415314822E+03  0.16415314822E+03  0.00000000000E+00 0. -1.
         25    2    1    2    0    0 -0.81829291726E+01  0.54567794462E+01 -0.15918564927E+02  0.12639458011E+03  0.12500180959E+03 0.  0.
         25    2    1    2    0    0  0.81829291726E+01 -0.54567794462E+01 -0.50732049908E+02  0.13526110149E+03  0.12500035166E+03 0.  0.
          5    1    3    3  501    0  0.40094027965E+02  0.46082006911E+02 -0.46840573406E+00  0.61264931595E+02  0.47000000000E+01 0. -1.
         -5    1    3    3    0  501 -0.48276957138E+02 -0.40625227465E+02 -0.15450159193E+02  0.65129648518E+02  0.47000000000E+01 0. -1.
          5    1    4    4  502    0  0.30469440327E+02 -0.41277660123E+02 -0.71400754452E+02  0.88047656161E+02  0.47000000000E+01 0. -1.
         -5    1    4    4    0  502 -0.22286511155E+02  0.35820880677E+02  0.20668704544E+02  0.47213445325E+02  0.47000000000E+01 0. -1.
<mgrwt>
<rscale>  0 0.25302449E+03</rscale>
<asrwt>0</asrwt>
<pdfrwt beam="1">  1       21 0.15000390E-01 0.25302449E+03</pdfrwt>
<pdfrwt beam="2">  1       21 0.25254330E-01 0.25302449E+03</pdfrwt>
<totfact> 0.57648027E+05</totfact>
</mgrwt>
</event>
<event>
 8    1  0.4760912E-006  0.3572766E+03  0.7546771E-02  0.1059667E+00
         21   -1    0    0  504  503  0.00000000000E+00  0.00000000000E+00  0.58018551396E+02  0.58018551396E+02  0.00000000000E+00 0.  1.
         21   -1    0    0  503  504 -0.00000000000E+00 -0.00000000000E+00 -0.55002470322E+03  0.55002470322E+03  0.00000000000E+00 0.  1.
         25    2    1    2    0    0  0.88479746334E+02  0.88826508779E+02 -0.20546369547E+03  0.27122074718E+03  0.12500619734E+03 0.  0.
         25    2    1    2    0    0 -0.88479746334E+02 -0.88826508779E+02 -0.28654245635E+03  0.33682250743E+03  0.12499603212E+03 0.  0.
          5    1    3    3  501    0  0.16795325535E+02 -0.28827555894E+02 -0.71294414259E+02  0.78854894859E+02  0.47000000000E+01 0.  1.
         -5    1    3    3    0  501  0.71684420799E+02  0.11765406467E+03 -0.13416928121E+03  0.19236585232E+03  0.47000000000E+01 0.  1.
          5    1    4    4  502    0 -0.77026073513E+02 -0.11890123807E+03 -0.25362416437E+03  0.29054746113E+03  0.47000000000E+01 0. -1.
         -5    1    4    4    0  502 -0.11453672822E+02  0.30074729295E+02 -0.32918291988E+02  0.46275046307E+02  0.47000000000E+01 0. -1.
<mgrwt>
<rscale>  0 0.35727657E+03</rscale>
<asrwt>0</asrwt>
<pdfrwt beam="1">  1       21 0.89259311E-02 0.35727657E+03</pdfrwt>
<pdfrwt beam="2">  1       21 0.84619184E-01 0.35727657E+03</pdfrwt>
<totfact> 0.11403389E+05</totfact>
</mgrwt>
</event>
<event>
 8    1  0.4760912E-006  0.3046392E+03  0.7546771E-02  0.1082944E+00
         21   -1    0    0  504  503  0.00000000000E+00  0.00000000000E+00  0.23476304401E+02  0.23476304401E+02  0.00000000000E+00 0. -1.
         21   -1    0    0  503  504 -0.00000000000E+00 -0.00000000000E+00 -0.98828387250E+03  0.98828387250E+03  0.00000000000E+00 0. -1.
         25    2    1    2    0    0 -0.51557804676E+02  0.53374436805E+02 -0.33130959426E+03  0.36179715273E+03  0.12499637895E+03 0.  0.
         25    2    1    2    0    0  0.51557804676E+02 -0.53374436805E+02 -0.63349797384E+03  0.64996302417E+03  0.12500084880E+03 0.  0.
          5    1    3    3  501    0 -0.36830301727E+02 -0.30190055567E+02 -0.55957102254E+02  0.73628784270E+02  0.47000000000E+01 0. -1.
         -5    1    3    3    0  501 -0.14727502948E+02  0.83564492372E+02 -0.27535249200E+03  0.28816836846E+03  0.47000000000E+01 0. -1.
          5    1    4    4  502    0  0.53387949360E+02 -0.21891233797E+01 -0.54477956749E+03  0.54741385857E+03  0.47000000000E+01 0. -1.
         -5    1    4    4    0  502 -0.18301446840E+01 -0.51185313426E+02 -0.88718406347E+02  0.10254916560E+03  0.47000000000E+01 0. -1.
<mgrwt>
<rscale>  0 0.30463915E+03</rscale>
<asrwt>0</asrwt>
<pdfrwt beam="1">  1       21 0.36117396E-02 0.30463915E+03</pdfrwt>
<pdfrwt beam="2">  1       21 0.15204365E+00 0.30463915E+03</pdfrwt>
<totfact> 0.12839073E+05</totfact>
</mgrwt>
</event>
<event>
 8    1  0.4760912E-006  0.2849093E+03  0.7546771E-02  0.1093037E+00
         21   -1    0    0  504  503  0.00000000000E+00  0.00000000000E+00  0.32918250452E+02  0.32918250452E+02  0.00000000000E+00 0. -1.
         21   -1    0    0  503  504 -0.00000000000E+00 -0.00000000000E+00 -0.61647641903E+03  0.61647641903E+03  0.00000000000E+00 0. -1.
         25    2    1    2    0    0 -0.24017186180E+02 -0.92884070921E+00 -0.43751268239E+03  0.45565291231E+03  0.12499816507E+03 0.  0.
         25    2    1    2    0    0  0.24017186180E+02  0.92884070921E+00 -0.14604548619E+03  0.19374175717E+03  0.12501558486E+03 0.  0.
          5    1    3    3  501    0 -0.20604069939E+02 -0.25442758303E+02 -0.22791374854E+02  0.40167131038E+02  0.47000000000E+01 0. -1.
         -5    1    3    3    0  501 -0.34131162415E+01  0.24513917594E+02 -0.41472130753E+03  0.41548578127E+03  0.47000000000E+01 0. -1.
          5    1    4    4  502    0  0.55619402390E+02 -0.23702376976E+01 -0.15121797567E+03  0.16120825697E+03  0.47000000000E+01 0. -1.
         -5    1    4    4    0  502 -0.31602216210E+02  0.32990784068E+01  0.51724894837E+01  0.32533500198E+02  0.47000000000E+01 0. -1.
<mgrwt>
<rscale>  0 0.28490928E+03</rscale>
<asrwt>0</asrwt>
<pdfrwt beam="1">  1       21 0.50643468E-02 0.28490928E+03</pdfrwt>
<pdfrwt beam="2">  1       21 0.94842516E-01 0.28490928E+03</pdfrwt>
<totfact> 0.23837674E+05</totfact>
</mgrwt>
</event>
<event>
 8    1  0.4760912E-006  0.3091807E+03  0.7546771E-02  0.1080739E+00
         21   -1    0    0  504  503  0.00000000000E+00  0.00000000000E+00  0.13295700954E+02  0.13295700954E+02  0.00000000000E+00 0.  1.
         21   -1    0    0  503  504 -0.00000000000E+00 -0.00000000000E+00 -0.17974358738E+04  0.17974358738E+04  0.00000000000E+00 0.  1.
         25    2    1    2    0    0  0.77508612721E+02 -0.24426773202E+02 -0.11312862124E+04  0.11410694700E+04  0.12500715488E+03 0.  0.
         25    2    1    2    0    0 -0.77508612721E+02  0.24426773202E+02 -0.65285396047E+03  0.66966210475E+03  0.12499915416E+03 0.  0.
          5    1    3    3  501    0  0.10072717224E+02  0.41379080015E+02 -0.59562914025E+03  0.59716819290E+03  0.47000000000E+01 0.  1.
         -5    1    3    3    0  501  0.67435895497E+02 -0.65805853217E+02 -0.53565707212E+03  0.54390127710E+03  0.47000000000E+01 0.  1.
          5    1    4    4  502    0 -0.11940451588E+02 -0.32346576179E+02 -0.52045519482E+02  0.62607519299E+02  0.47000000000E+01 0.  1.
         -5    1    4    4    0  502 -0.65568161133E+02  0.56773349381E+02 -0.60080844099E+03  0.60705458545E+03  0.47000000000E+01 0.  1.
<mgrwt>
<rscale>  0 0.30918066E+03</rscale>
<asrwt>0</asrwt>
<pdfrwt beam="1">  1       21 0.20454936E-02 0.30918066E+03</pdfrwt>
<pdfrwt beam="2">  1       21 0.27652845E+00 0.30918066E+03</pdfrwt>
<totfact> 0.51184379E+04</totfact>
</mgrwt>
</event>
<event>
 8    1  0.4760912E-006  0.2908918E+03  0.7546771E-02  0.1089884E+00
         21   -1    0    0  504  503  0.00000000000E+00  0.00000000000E+00  0.53787838854E+03  0.53787838854E+03  0.00000000000E+00 0. -1.
         21   -1    0    0  503  504 -0.00000000000E+00 -0.00000000000E+00 -0.39329536296E+02  0.39329536296E+02  0.00000000000E+00 0. -1.
         25    2    1    2    0    0  0.17983381500E+02 -0.42567583885E+02  0.13368201004E+03  0.18876440024E+03  0.12500287108E+03 0.  0.
         25    2    1    2    0    0 -0.17983381500E+02  0.42567583885E+02  0.36486684220E+03  0.38844352460E+03  0.12500063223E+03 0.  0.
          5    1    3    3  501    0 -0.48502099466E+02 -0.35820748409E+02  0.36208329617E+02  0.70489097049E+02  0.47000000000E+01 0. -1.
         -5    1    3    3    0  501  0.66485480966E+02 -0.67468354765E+01  0.97473680427E+02  0.11827530319E+03  0.47000000000E+01 0. -1.
          5    1    4    4  502    0  0.49669277099E+02  0.13986872544E+02  0.89542280999E+02  0.10345327340E+03  0.47000000000E+01 0. -1.
         -5    1    4    4    0  502 -0.67652658599E+02  0.28580711341E+02  0.27532456120E+03  0.28499025120E+03  0.47000000000E+01 0. -1.
<mgrwt>
<rscale>  0 0.29089178E+03</rscale>
<asrwt>0</asrwt>
<pdfrwt beam="1">  1       21 0.82750516E-01 0.29089178E+03</pdfrwt>
<pdfrwt beam="2">  1       21 0.60506983E-02 0.29089178E+03</pdfrwt>
<totfact> 0.24098963E+05</totfact>
</mgrwt>
</event>
<event>
 8    1  0.4760912E-006  0.2676481E+03  0.7546771E-02  0.1102633E+00
         21   -1    0    0  504  503  0.00000000000E+00  0.00000000000E+00  0.70965571996E+02  0.70965571996E+02  0.00000000000E+00 0.  1.
         21   -1    0    0  503  504 -0.00000000000E+00 -0.00000000000E+00 -0.25235999953E+03  0.25235999953E+03  0.00000000000E+00 0.  1.
         25    2    1    2    0    0 -0.95684263333E+01  0.44711420370E+01 -0.14701775149E+03  0.19325784020E+03  0.12499131030E+03 0.  0.
         25    2    1    2    0    0  0.95684263333E+01 -0.44711420370E+01 -0.34376676041E+02  0.13006773133E+03  0.12499725190E+03 0.  0.
          5    1    3    3  501    0  0.30017691106E+02 -0.15367155800E+02 -0.14471956073E+03  0.14867095383E+03  0.47000000000E+01 0. -1.
         -5    1    3    3    0  501 -0.39586117439E+02  0.19838297837E+02 -0.22981907664E+01  0.44586886366E+02  0.47000000000E+01 0. -1.
          5    1    4    4  502    0 -0.26529677877E+02 -0.32985475418E+02  0.29064705492E+02  0.51562704566E+02  0.47000000000E+01 0.  1.
         -5    1    4    4    0  502  0.36098104210E+02  0.28514333381E+02 -0.63441381533E+02  0.78505026760E+02  0.47000000000E+01 0.  1.
<mgrwt>
<rscale>  0 0.26764807E+03</rscale>
<asrwt>0</asrwt>
<pdfrwt beam="1">  1       21 0.10917781E-01 0.26764807E+03</pdfrwt>
<pdfrwt beam="2">  1       21 0.38824615E-01 0.26764807E+03</pdfrwt>
<totfact> 0.43743069E+05</totfact>
</mgrwt>
</event>
<event>
 8    1  0.4760912E-006  0.2918204E+03  0.7546771E-02  0.1089402E+00
         21   -1    0    0  504  503  0.00000000000E+00  0.00000000000E+00  0.24319227103E+03  0.24319227103E+03  0.00000000000E+00 0.  1.
         21   -1    0    0  503  504 -0.00000000000E+00 -0.00000000000E+00 -0.87543040867E+02  0.87543040867E+02  0.00000000000E+00 0.  1.
         25    2    1    2    0    0 -0.26249107486E+02 -0.91132309536E+00 -0.21163118932E+01  0.12774618253E+03  0.12499904888E+03 0.  0.
         25    2    1    2    0    0  0.26249107486E+02  0.91132309536E+00  0.15776554205E+03  0.20298912936E+03  0.12499909690E+03 0.  0.
          5    1    3    3  501    0  0.27152968418E+02 -0.42849234509E+02 -0.23911881465E+02  0.56277958982E+02  0.47000000000E+01 0. -1.
         -5    1    3    3    0  501 -0.53402075904E+02  0.41937911414E+02  0.21795569572E+02  0.71468223551E+02  0.47000000000E+01 0. -1.
          5    1    4    4  502    0 -0.28850052751E+01 -0.57009122389E+02  0.45039549422E+02  0.72862983078E+02  0.47000000000E+01 0. -1.
         -5    1    4    4    0  502  0.29134112761E+02  0.57920445484E+02  0.11272599263E+03  0.13012614628E+03  0.47000000000E+01 0. -1.
<mgrwt>
<rscale>  0 0.29182043E+03</rscale>
<asrwt>0</asrwt>
<pdfrwt beam="1">  1       21 0.37414195E-01 0.29182043E+03</pdfrwt>
<pdfrwt beam="2">  1       21 0.13468160E-01 0.29182043E+03</pdfrwt>
<totfact> 0.32122527E+05</totfact>
</mgrwt>
</event>
<event>
 8    1  0.4760912E-006  0.2855437E+03  0.7546771E-02  0.1092699E+00
         21   -1    0    0  504  503  0.00000000000E+00  0.00000000000E+00  0.42627044449E+03  0.42627044449E+03  0.00000000000E+00 0. -1.
         21   -1    0    0  503  504 -0.00000000000E+00 -0.00000000000E+00 -0.47818935327E+02  0.47818935327E+02  0.00000000000E+00 0. -1.
         25    2    1    2    0    0  0.16171423536E+02  0.27539388426E+02  0.29073152941E+03  0.31807198784E+03  0.12500013760E+03 0.  0.
         25    2    1    2    0    0 -0.16171423536E+02 -0.27539388426E+02  0.87719979752E+02  0.15601739198E+03  0.12500679541E+03 0.  0.
          5    1    3    3  501    0  0.57253522221E+02  0.54713456514E+02  0.17026899116E+03  0.18784341213E+03  0.47000000000E+01 0.  1.
         -5    1    3    3    0  501 -0.41082098685E+02 -0.27174068088E+02  0.12046253826E+03  0.13022857571E+03  0.47000000000E+01 0.  1.
          5    1    4    4  502    0  0.27832210281E+02 -0.48827873439E+02  0.90714959567E+02  0.10681800898E+03  0.47000000000E+01 0. -1.
         -5    1    4    4    0  502 -0.44003633817E+02  0.21288485013E+02 -0.29949798145E+01  0.49199382998E+02  0.47000000000E+01 0. -1.
<mgrwt>
<rscale>  0 0.28554368E+03</rscale>
<asrwt>0</asrwt>
<pdfrwt beam="1">  1       21 0.65580066E-01 0.28554368E+03</pdfrwt>
<pdfrwt beam="2">  1       21 0.73567595E-02 0.28554368E+03</pdfrwt>
<totfact> 0.28988679E+05</totfact>
</mgrwt>
</event>
<event>
 8    1  0.4760912E-006  0.2652223E+03  0.7546771E-02  0.1104046E+00
         21   -1    0    0  504  503  0.00000000000E+00  0.00000000000E+00  0.40845075910E+03  0.40845075910E+03  0.00000000000E+00 0.  1.
         21   -1    0    0  503  504 -0.00000000000E+00 -0.00000000000E+00 -0.43054679864E+02  0.43054679864E+02  0.00000000000E+00 0.  1.
         25    2    1    2    0    0 -0.33175292305E+02 -0.22967350330E+02  0.21366675114E+03  0.25081646455E+03  0.12500927624E+03 0.  0.
         25    2    1    2    0    0  0.33175292305E+02  0.22967350330E+02  0.15172932809E+03  0.20068897441E+03  0.12500470490E+03 0.  0.
          5    1    3    3  501    0 -0.75605014710E+02 -0.29386815977E+02  0.97675310899E+02  0.12705219227E+03  0.47000000000E+01 0. -1.
         -5    1    3    3    0  501  0.42429722406E+02  0.64194656471E+01  0.11599144024E+03  0.12376427227E+03  0.47000000000E+01 0. -1.
          5    1    4    4  502    0 -0.41168141213E+02 -0.14585457016E+02  0.30296350892E+02  0.53362067845E+02  0.47000000000E+01 0.  1.
         -5    1    4    4    0  502  0.74343433518E+02  0.37552807346E+02  0.12143297720E+03  0.14732690657E+03  0.47000000000E+01 0.  1.
<mgrwt>
<rscale>  0 0.26522230E+03</rscale>
<asrwt>0</asrwt>
<pdfrwt beam="1">  1       21 0.62838576E-01 0.26522230E+03</pdfrwt>
<pdfrwt beam="2">  1       21 0.66237972E-02 0.26522230E+03</pdfrwt>
<totfact> 0.38375454E+05</totfact>
</mgrwt>
</event>
<event>
 8    1  0.4760912E-006  0.2752662E+03  0.7546771E-02  0.1098303E+00
         21   -1    0    0  504  503  0.00000000000E+00  0.00000000000E+00  0.38287889447E+02  0.38287889447E+02  0.00000000000E+00 0. -1.
         21   -1    0    0  503  504 -0.00000000000E+00 -0.00000000000E+00 -0.49474823196E+03  0.49474823196E+03  0.00000000000E+00 0. -1.
         25    2    1    2    0    0 -0.53445983822E+02 -0.21425486351E+02 -0.22950559533E+03  0.26760362343E+03  0.12499342516E+03 0.  0.
         25    2    1    2    0    0  0.53445983822E+02  0.21425486351E+02 -0.22695474718E+03  0.26543249797E+03  0.12502171436E+03 0.  0.
          5    1    3    3  501    0 -0.67290266529E+01 -0.51870471971E+01  0.15128189058E+02  0.17976021877E+02  0.47000000000E+01 0. -1.
         -5    1    3    3    0  501 -0.46716957169E+02 -0.16238439154E+02 -0.24463378439E+03  0.24962760156E+03  0.47000000000E+01 0. -1.
          5    1    4    4  502    0  0.81715791855E+01  0.20391190467E+02  0.96770773663E+01  0.24460400270E+02  0.47000000000E+01 0. -1.
         -5    1    4    4    0  502  0.45274404636E+02  0.10342958840E+01 -0.23663182454E+03  0.24097209770E+03  0.47000000000E+01 0. -1.
<mgrwt>
<rscale>  0 0.27526617E+03</rscale>
<asrwt>0</asrwt>
<pdfrwt beam="1">  1       21 0.58904446E-02 0.27526617E+03</pdfrwt>
<pdfrwt beam="2">  1       21 0.76115112E-01 0.27526617E+03</pdfrwt>
<totfact> 0.30649076E+05</totfact>
</mgrwt>
</event>
<event>
 8    1  0.4760912E-006  0.2763606E+03  0.7546771E-02  0.1097693E+00
         21   -1    0    0  504  503  0.00000000000E+00  0.00000000000E+00  0.61404605108E+03  0.61404605108E+03  0.00000000000E+00 0. -1.
         21   -1    0    0  503  504 -0.00000000000E+00 -0.00000000000E+00 -0.31095048606E+02  0.31095048606E+02  0.00000000000E+00 0. -1.
         25    2    1    2    0    0 -0.12479370201E+02 -0.48005587656E+02  0.21730270451E+03  0.25554764527E+03  0.12499544987E+03 0.  0.
         25    2    1    2    0    0  0.12479370201E+02  0.48005587656E+02  0.36564829796E+03  0.38959345441E+03  0.12499644312E+03 0.  0.
          5    1    3    3  501    0 -0.55198221115E+02 -0.63133220036E+01  0.17098775216E+03  0.17984883386E+03  0.47000000000E+01 0.  1.
         -5    1    3    3    0  501  0.42718850914E+02 -0.41692265653E+02  0.46314952345E+02  0.75698811414E+02  0.47000000000E+01 0.  1.
          5    1    4    4  502    0  0.68705726794E+02  0.22341124351E+02  0.18973157731E+03  0.20307575966E+03  0.47000000000E+01 0. -1.
         -5    1    4    4    0  502 -0.56226356593E+02  0.25664463305E+02  0.17591672065E+03  0.18651769476E+03  0.47000000000E+01 0. -1.
<mgrwt>
<rscale>  0 0.27636057E+03</rscale>
<asrwt>0</asrwt>
<pdfrwt beam="1">  1       21 0.94468614E-01 0.27636057E+03</pdfrwt>
<pdfrwt beam="2">  1       21 0.47838541E-02 0.27636057E+03</pdfrwt>
<totfact> 0.26575746E+05</totfact>
</mgrwt>
</event>
<event>
 8    1  0.4760912E-006  0.3583805E+03  0.7546771E-02  0.1059227E+00
         21   -1    0    0  504  503  0.00000000000E+00  0.00000000000E+00  0.68274456163E+02  0.68274456163E+02  0.00000000000E+00 0. -1.
         21   -1    0    0  503  504 -0.00000000000E+00 -0.00000000000E+00 -0.47029521168E+03  0.47029521168E+03  0.00000000000E+00 0. -1.
         25    2    1    2    0    0  0.70454481215E+02 -0.75549071475E+02 -0.86438590466E+02  0.18375996770E+03  0.12499839873E+03 0.  0.
         25    2    1    2    0    0 -0.70454481215E+02  0.75549071475E+02 -0.31558216505E+03  0.35480970014E+03  0.12500529706E+03 0.  0.
          5    1    3    3  501    0 -0.15631816408E+02 -0.14341291150E+01 -0.66303581738E+02  0.68298355484E+02  0.47000000000E+01 0. -1.
         -5    1    3    3    0  501  0.86086297623E+02 -0.74114942360E+02 -0.20135008728E+02  0.11546161222E+03  0.47000000000E+01 0. -1.
          5    1    4    4  502    0 -0.86236529678E+02  0.87836262668E+02 -0.30991168408E+03  0.33349556222E+03  0.47000000000E+01 0.  1.
         -5    1    4    4    0  502  0.15782048463E+02 -0.12287191192E+02 -0.56704809764E+01  0.21314137927E+02  0.47000000000E+01 0.  1.
<mgrwt>
<rscale>  0 0.35838052E+03</rscale>
<asrwt>0</asrwt>
<pdfrwt beam="1">  1       21 0.10503762E-01 0.35838052E+03</pdfrwt>
<pdfrwt beam="2">  1       21 0.72353110E-01 0.35838052E+03</pdfrwt>
<totfact> 0.12195279E+05</totfact>
</mgrwt>
</event>
<event>
 8    1  0.4760912E-006  0.3449548E+03  0.7546771E-02  0.1064705E+00
         21   -1    0    0  504  503  0.00000000000E+00  0.00000000000E+00  0.10591132717E+04  0.10591132717E+04  0.00000000000E+00 0.  1.
         21   -1    0    0  503  504 -0.00000000000E+00 -0.00000000000E+00 -0.28088074834E+02  0.28088074834E+02  0.00000000000E+00 0.  1.
         25    2    1    2    0    0  0.33989832448E+02  0.20366813703E+02  0.16237828232E+03  0.20871305764E+03  0.12499727217E+03 0.  0.
         25    2    1    2    0    0 -0.33989832448E+02 -0.20366813703E+02  0.86864691454E+03  0.87848828889E+03  0.12499638301E+03 0.  0.
          5    1    3    3  501    0  0.47880039686E+02  0.60963348273E+02  0.61749320101E+02  0.99217420678E+02  0.47000000000E+01 0. -1.
         -5    1    3    3    0  501 -0.13890207238E+02 -0.40596534570E+02  0.10062896222E+03  0.10949563696E+03  0.47000000000E+01 0. -1.
          5    1    4    4  502    0 -0.46287383904E+02  0.44731358485E+02  0.40576847935E+03  0.41086927991E+03  0.47000000000E+01 0. -1.
         -5    1    4    4    0  502  0.12297551456E+02 -0.65098172188E+02  0.46287843519E+03  0.46761900897E+03  0.47000000000E+01 0. -1.
<mgrwt>
<rscale>  0 0.34495480E+03</rscale>
<asrwt>0</asrwt>
<pdfrwt beam="1">  1       21 0.16294047E+00 0.34495480E+03</pdfrwt>
<pdfrwt beam="2">  1       21 0.43212431E-02 0.34495480E+03</pdfrwt>
<totfact> 0.77415962E+04</totfact>
</mgrwt>
</event>
<event>
 8    1  0.4760912E-006  0.3042043E+03  0.7546771E-02  0.1083158E+00
         21   -1    0    0  504  503  0.00000000000E+00  0.00000000000E+00  0.18599928182E+03  0.18599928182E+03  0.00000000000E+00 0.  1.
         21   -1    0    0  503  504 -0.00000000000E+00 -0.00000000000E+00 -0.12438257034E+03  0.12438257034E+03  0.00000000000E+00 0.  1.
         25    2    1    2    0    0  0.56653630306E+02  0.13877973710E+02 -0.34604134785E+02  0.14219933298E+03  0.12498388766E+03 0.  0.
         25    2    1    2    0    0 -0.56653630306E+02 -0.13877973710E+02  0.96220846269E+02  0.16818251918E+03  0.12499870607E+03 0.  0.
          5    1    3    3  501    0  0.15845532770E+02  0.65090026866E+02  0.17035222724E+01  0.67177261736E+02  0.47000000000E+01 0. -1.
         -5    1    3    3    0  501  0.40808097535E+02 -0.51212053156E+02 -0.36307657057E+02  0.75022071245E+02  0.47000000000E+01 0. -1.
          5    1    4    4  502    0  0.14686938415E+02 -0.46169024139E+02  0.66726544326E+01  0.49131448860E+02  0.47000000000E+01 0. -1.
         -5    1    4    4    0  502 -0.71340568721E+02  0.32291050428E+02  0.89548191836E+02  0.11905107032E+03  0.47000000000E+01 0. -1.
<mgrwt>
<rscale>  0 0.30420433E+03</rscale>
<asrwt>0</asrwt>
<pdfrwt beam="1">  1       21 0.28615274E-01 0.30420433E+03</pdfrwt>
<pdfrwt beam="2">  1       21 0.19135780E-01 0.30420433E+03</pdfrwt>
<totfact> 0.28527787E+05</totfact>
</mgrwt>
</event>
<event>
 8    1  0.4760912E-006  0.2573109E+03  0.7546771E-02  0.1108770E+00
         21   -1    0    0  504  503  0.00000000000E+00  0.00000000000E+00  0.89229269709E+02  0.89229269709E+02  0.00000000000E+00 0.  1.
         21   -1    0    0  503  504 -0.00000000000E+00 -0.00000000000E+00 -0.18550223586E+03  0.18550223586E+03  0.00000000000E+00 0.  1.
         25    2    1    2    0    0  0.29771870835E+02 -0.61369881231E+01 -0.46133627168E+02  0.13666645482E+03  0.12500152560E+03 0.  0.
         25    2    1    2    0    0 -0.29771870835E+02  0.61369881231E+01 -0.50139338979E+02  0.13806505074E+03  0.12499591196E+03 0.  0.
          5    1    3    3  501    0 -0.31327363851E+02 -0.61259323107E+00  0.26620960850E+02  0.41382901697E+02  0.47000000000E+01 0. -1.
         -5    1    3    3    0  501  0.61099234685E+02 -0.55243948921E+01 -0.72754588018E+02  0.95283553123E+02  0.47000000000E+01 0. -1.
          5    1    4    4  502    0  0.35300653635E+02  0.34365148976E+02  0.25894485150E+01  0.49556985933E+02  0.47000000000E+01 0. -1.
         -5    1    4    4    0  502 -0.65072524469E+02 -0.28228160853E+02 -0.52728787494E+02  0.88508064811E+02  0.47000000000E+01 0. -1.
<mgrwt>
<rscale>  0 0.25731093E+03</rscale>
<asrwt>0</asrwt>
<pdfrwt beam="1">  1       21 0.13727580E-01 0.25731093E+03</pdfrwt>
<pdfrwt beam="2">  1       21 0.28538805E-01 0.25731093E+03</pdfrwt>
<totfact> 0.53449461E+05</totfact>
</mgrwt>
</event>
<event>
 8    1  0.4760912E-006  0.2858177E+03  0.7546771E-02  0.1092553E+00
         21   -1    0    0  504  503  0.00000000000E+00  0.00000000000E+00  0.69988663733E+03  0.69988663733E+03  0.00000000000E+00 0.  1.
         21   -1    0    0  503  504 -0.00000000000E+00 -0.00000000000E+00 -0.29180362939E+02  0.29180362939E+02  0.00000000000E+00 0.  1.
         25    2    1    2    0    0  0.66726007348E+02  0.89487622664E+01  0.29386123345E+03  0.32636511891E+03  0.12500930331E+03 0.  0.
         25    2    1    2    0    0 -0.66726007348E+02 -0.89487622664E+01  0.37684504093E+03  0.40270188135E+03  0.12499671982E+03 0.  0.
          5    1    3    3  501    0  0.93841372149E+02 -0.24863231053E+02  0.18235186860E+03  0.20663658284E+03  0.47000000000E+01 0.  1.
         -5    1    3    3    0  501 -0.27115364801E+02  0.33811993319E+02  0.11150936485E+03  0.11972853607E+03  0.47000000000E+01 0.  1.
          5    1    4    4  502    0 -0.35183333399E+02  0.53399544961E+02  0.11515589181E+03  0.13180420239E+03  0.47000000000E+01 0.  1.
         -5    1    4    4    0  502 -0.31542673949E+02 -0.62348307227E+02  0.26168914913E+03  0.27089767896E+03  0.47000000000E+01 0.  1.
<mgrwt>
<rscale>  0 0.28581775E+03</rscale>
<asrwt>0</asrwt>
<pdfrwt beam="1">  1       21 0.10767485E+00 0.28581775E+03</pdfrwt>
<pdfrwt beam="2">  1       21 0.44892871E-02 0.28581775E+03</pdfrwt>
<totfact> 0.21570321E+05</totfact>
</mgrwt>
</event>
<event>
 8    1  0.4760912E-006  0.2955609E+03  0.7546771E-02  0.1087481E+00
         21   -1    0    0  504  503  0.00000000000E+00  0.00000000000E+00  0.60313167109E+03  0.60313167109E+03  0.00000000000E+00 0. -1.
         21   -1    0    0  503  504 -0.00000000000E+00 -0.00000000000E+00 -0.36209441369E+02  0.36209441369E+02  0.00000000000E+00 0. -1.
         25    2    1    2    0    0  0.67123713683E+02  0.18227401544E+01  0.19414941423E+03  0.24047700686E+03  0.12500512174E+03 0.  0.
         25    2    1    2    0    0 -0.67123713683E+02 -0.18227401544E+01  0.37277281549E+03  0.39886410560E+03  0.12499634975E+03 0.  0.
          5    1    3    3  501    0 -0.18327503137E+02 -0.34259418333E+02  0.22063046206E+02  0.44927420621E+02  0.47000000000E+01 0.  1.
         -5    1    3    3    0  501  0.85451216820E+02  0.36082158487E+02  0.17208636803E+03  0.19554958624E+03  0.47000000000E+01 0.  1.
          5    1    4    4  502    0 -0.86629381173E+02  0.34249969873E+02  0.19224136140E+03  0.21367391313E+03  0.47000000000E+01 0. -1.
         -5    1    4    4    0  502  0.19505667490E+02 -0.36072710028E+02  0.18053145409E+03  0.18519019247E+03  0.47000000000E+01 0. -1.
<mgrwt>
<rscale>  0 0.29556090E+03</rscale>
<asrwt>0</asrwt>
<pdfrwt beam="1">  1       21 0.92789481E-01 0.29556090E+03</pdfrwt>
<pdfrwt beam="2">  1       21 0.55706837E-02 0.29556090E+03</pdfrwt>
<totfact> 0.21261345E+05</totfact>
</mgrwt>
</event>
<event>
 8    1  0.4760912E-006  0.4910359E+03  0.7546771E-02  0.1016146E+00
         21   -1    0    0  504  503  0.00000000000E+00  0.00000000000E+00  0.29598894861E+03  0.29598894861E+03  0.00000000000E+00 0.  1.
         21   -1    0    0  503  504 -0.00000000000E+00 -0.00000000000E+00 -0.20365309075E+03  0.20365309075E+03  0.00000000000E+00 0.  1.
         25    2    1    2    0    0 -0.24609857731E+02 -0.68295296128E+02  0.24810176347E+03  0.28713384346E+03  0.12498586501E+03 0.  0.
         25    2    1    2    0    0  0.24609857731E+02  0.68295296128E+02 -0.15576590562E+03  0.21250819590E+03  0.12500729338E+03 0.  0.
          5    1    3    3  501    0 -0.62073222197E+02 -0.84545929371E-01  0.14561613010E+03  0.15836426177E+03  0.47000000000E+01 0. -1.
         -5    1    3    3    0  501  0.37463364467E+02 -0.68210750199E+02  0.10248563338E+03  0.12876958169E+03  0.47000000000E+01 0. -1.
          5    1    4    4  502    0 -0.18608643199E+02  0.58426264487E+02 -0.15625987151E+03  0.16792601773E+03  0.47000000000E+01 0. -1.
         -5    1    4    4    0  502  0.43218500930E+02  0.98690316412E+01  0.49396589454E+00  0.44582178171E+02  0.47000000000E+01 0. -1.
<mgrwt>
<rscale>  0 0.49103590E+03</rscale>
<asrwt>0</asrwt>
<pdfrwt beam="1">  1       21 0.45536761E-01 0.49103590E+03</pdfrwt>
<pdfrwt beam="2">  1       21 0.31331245E-01 0.49103590E+03</pdfrwt>
<totfact> 0.41181614E+04</totfact>
</mgrwt>
</event>
<event>
 8    1  0.4760912E-006  0.2670894E+03  0.7546771E-02  0.1102957E+00
         21   -1    0    0  504  503  0.00000000000E+00  0.00000000000E+00  0.12659508223E+03  0.12659508223E+03  0.00000000000E+00 0. -1.
         21   -1    0    0  503  504 -0.00000000000E+00 -0.00000000000E+00 -0.14087583555E+03  0.14087583555E+03  0.00000000000E+00 0. -1.
         25    2    1    2    0    0 -0.27018948377E+02  0.34958496269E+02 -0.23048813120E+02  0.13460093975E+03  0.12503617542E+03 0.  0.
         25    2    1    2    0    0  0.27018948377E+02 -0.34958496269E+02  0.87680598006E+01  0.13286997803E+03  0.12500172862E+03 0.  0.
          5    1    3    3  501    0  0.38431452277E+02 -0.23011321889E+02 -0.87992272599E+01  0.45891326627E+02  0.47000000000E+01 0.  1.
         -5    1    3    3    0  501 -0.65450400655E+02  0.57969818158E+02 -0.14249585860E+02  0.88709613122E+02  0.47000000000E+01 0.  1.
          5    1    4    4  502    0  0.40174609494E+02  0.36867043864E+02 -0.13529420288E+02  0.56376532215E+02  0.47000000000E+01 0. -1.
         -5    1    4    4    0  502 -0.13155661117E+02 -0.71825540134E+02  0.22297480088E+02  0.76493445819E+02  0.47000000000E+01 0. -1.
<mgrwt>
<rscale>  0 0.26708941E+03</rscale>
<asrwt>0</asrwt>
<pdfrwt beam="1">  1       21 0.19476166E-01 0.26708941E+03</pdfrwt>
<pdfrwt beam="2">  1       21 0.21673205E-01 0.26708941E+03</pdfrwt>
<totfact> 0.47462987E+05</totfact>
</mgrwt>
</event>
<event>
 8    1  0.4760912E-006  0.2531107E+03  0.7546771E-02  0.1111355E+00
         21   -1    0    0  504  503  0.00000000000E+00  0.00000000000E+00  0.10320838011E+04  0.10320838011E+04  0.00000000000E+00 0. -1.
         21   -1    0    0  503  504 -0.00000000000E+00 -0.00000000000E+00 -0.15518368600E+02  0.15518368600E+02  0.00000000000E+00 0. -1.
         25    2    1    2    0    0 -0.13602280811E+02  0.19411801912E+01  0.56670506794E+03  0.58049546873E+03  0.12502625711E+03 0.  0.
         25    2    1    2    0    0  0.13602280811E+02 -0.19411801912E+01  0.44986036452E+03  0.46710670093E+03  0.12500212902E+03 0.  0.
          5    1    3    3  501    0  0.90380189157E-01  0.41649550259E+02  0.49848431545E+03  0.50024333674E+03  0.47000000000E+01 0.  1.
         -5    1    3    3    0  501 -0.13692661000E+02 -0.39708370068E+02  0.68220752489E+02  0.80252131990E+02  0.47000000000E+01 0.  1.
          5    1    4    4  502    0 -0.42173099787E+02 -0.35803702225E+02  0.14409302434E+03  0.15441944535E+03  0.47000000000E+01 0.  1.
         -5    1    4    4    0  502  0.55775380598E+02  0.33862522033E+02  0.30576734018E+03  0.31268725558E+03  0.47000000000E+01 0.  1.
<mgrwt>
<rscale>  0 0.25311070E+03</rscale>
<asrwt>0</asrwt>
<pdfrwt beam="1">  1       21 0.15878207E+00 0.25311070E+03</pdfrwt>
<pdfrwt beam="2">  1       21 0.23874421E-02 0.25311070E+03</pdfrwt>
<totfact> 0.23144880E+05</totfact>
</mgrwt>
</event>
<event>
 8    1  0.4760912E-006  0.4341231E+03  0.7546771E-02  0.1032565E+00
         21   -1    0    0  504  503  0.00000000000E+00  0.00000000000E+00  0.34089265021E+02  0.34089265021E+02  0.00000000000E+00 0. -1.
         21   -1    0    0  503  504 -0.00000000000E+00 -0.00000000000E+00 -0.13821276306E+04  0.13821276306E+04  0.00000000000E+00 0. -1.
         25    2    1    2    0    0 -0.15830948293E+03  0.65945296244E+02 -0.82279155789E+03  0.84971847724E+03  0.12499947336E+03 0.  0.
         25    2    1    2    0    0  0.15830948293E+03 -0.65945296244E+02 -0.52524680770E+03  0.56649841840E+03  0.12500229822E+03 0.  0.
          5    1    3    3  501    0 -0.46597387102E+02 -0.26256042372E+02 -0.11075411877E+03  0.12308233452E+03  0.47000000000E+01 0. -1.
         -5    1    3    3    0  501 -0.11171209583E+03  0.92201338616E+02 -0.71203743912E+03  0.72663614272E+03  0.47000000000E+01 0. -1.
          5    1    4    4  502    0  0.15165351254E+03 -0.56190402918E+02 -0.52904478165E+03  0.55323288065E+03  0.47000000000E+01 0. -1.
         -5    1    4    4    0  502  0.66559703890E+01 -0.97548933257E+01  0.37979739432E+01  0.13265537746E+02  0.47000000000E+01 0. -1.
<mgrwt>
<rscale>  0 0.43412309E+03</rscale>
<asrwt>0</asrwt>
<pdfrwt beam="1">  1       21 0.52445029E-02 0.43412309E+03</pdfrwt>
<pdfrwt beam="2">  1       21 0.21263500E+00 0.43412309E+03</pdfrwt>
<totfact> 0.24554699E+04</totfact>
</mgrwt>
</event>
<event>
 8    1  0.4760912E-006  0.2909079E+03  0.7546771E-02  0.1089876E+00
         21   -1    0    0  504  503  0.00000000000E+00  0.00000000000E+00  0.28449885571E+02  0.28449885571E+02  0.00000000000E+00 0. -1.
         21   -1    0    0  503  504 -0.00000000000E+00 -0.00000000000E+00 -0.74365316239E+03  0.74365316239E+03  0.00000000000E+00 0. -1.
         25    2    1    2    0    0 -0.17092558560E+01 -0.48175996436E+02 -0.20736239411E+03  0.24688680265E+03  0.12502032893E+03 0.  0.
         25    2    1    2    0    0  0.17092558560E+01  0.48175996436E+02 -0.50784088271E+03  0.52521624531E+03  0.12500357592E+03 0.  0.
          5    1    3    3  501    0  0.48788641412E+02  0.14573076706E+02 -0.59581891179E+02  0.78516226679E+02  0.47000000000E+01 0. -1.
         -5    1    3    3    0  501 -0.50497897268E+02 -0.62749073142E+02 -0.14778050293E+03  0.16837057598E+03  0.47000000000E+01 0. -1.
          5    1    4    4  502    0 -0.11383238954E+02 -0.36949542455E+02 -0.25758480171E+03  0.26051270006E+03  0.47000000000E+01 0.  1.
         -5    1    4    4    0  502  0.13092494810E+02  0.85125538891E+02 -0.25025608100E+03  0.26470354525E+03  0.47000000000E+01 0.  1.
<mgrwt>
<rscale>  0 0.29090787E+03</rscale>
<asrwt>0</asrwt>
<pdfrwt beam="1">  1       21 0.43769054E-02 0.29090787E+03</pdfrwt>
<pdfrwt beam="2">  1       21 0.11440818E+00 0.29090787E+03</pdfrwt>
<totfact> 0.19380077E+05</totfact>
</mgrwt>
</event>
<event>
 8    1  0.4760912E-006  0.3489655E+03  0.7546771E-02  0.1063040E+00
         21   -1    0    0  504  503  0.00000000000E+00  0.00000000000E+00  0.70646305678E+02  0.70646305678E+02  0.00000000000E+00 0. -1.
         21   -1    0    0  503  504 -0.00000000000E+00 -0.00000000000E+00 -0.43093871171E+03  0.43093871171E+03  0.00000000000E+00 0. -1.
         25    2    1    2    0    0 -0.71594353345E+02 -0.98296703271E+02 -0.17210225766E+03  0.24501417338E+03  0.12499905904E+03 0.  0.
         25    2    1    2    0    0  0.71594353345E+02  0.98296703271E+02 -0.18819014836E+03  0.25657084400E+03  0.12500029098E+03 0.  0.
          5    1    3    3  501    0 -0.58007165274E+02  0.12407960485E+02 -0.38334212242E+02  0.70784112163E+02  0.47000000000E+01 0.  1.
         -5    1    3    3    0  501 -0.13587188071E+02 -0.11070466376E+03 -0.13376804542E+03  0.17423006122E+03  0.47000000000E+01 0.  1.
          5    1    4    4  502    0  0.36028538086E+02  0.12444742043E+03 -0.13285168627E+03  0.18562563550E+03  0.47000000000E+01 0. -1.
         -5    1    4    4    0  502  0.35565815259E+02 -0.26150717159E+02 -0.55338462090E+02  0.70945208502E+02  0.47000000000E+01 0. -1.
<mgrwt>
<rscale>  0 0.34896549E+03</rscale>
<asrwt>0</asrwt>
<pdfrwt beam="1">  1       21 0.10868663E-01 0.34896549E+03</pdfrwt>
<pdfrwt beam="2">  1       21 0.66298263E-01 0.34896549E+03</pdfrwt>
<totfact> 0.13971989E+05</totfact>
</mgrwt>
</event>
<event>
 8    1  0.4760912E-006  0.2641022E+03  0.7546771E-02  0.1104703E+00
         21   -1    0    0  504  503  0.00000000000E+00  0.00000000000E+00  0.74431609078E+02  0.74431609078E+02  0.00000000000E+00 0.  1.
         21   -1    0    0  503  504 -0.00000000000E+00 -0.00000000000E+00 -0.23427538322E+03  0.23427538322E+03  0.00000000000E+00 0.  1.
         25    2    1    2    0    0  0.30987810908E+02 -0.27365474988E+02 -0.67838314621E+02  0.14808824570E+03  0.12497590943E+03 0.  0.
         25    2    1    2    0    0 -0.30987810908E+02  0.27365474988E+02 -0.92005459525E+02  0.16061874660E+03  0.12499705409E+03 0.  0.
          5    1    3    3  501    0  0.90184397425E+01  0.34734670819E+02  0.17483846115E+02  0.40194582810E+02  0.47000000000E+01 0.  1.
         -5    1    3    3    0  501  0.21969371165E+02 -0.62100145808E+02 -0.85322160736E+02  0.10789366289E+03  0.47000000000E+01 0.  1.
          5    1    4    4  502    0 -0.27425416736E+01  0.57337790895E+02  0.22623946554E+01  0.57639849315E+02  0.47000000000E+01 0.  1.
         -5    1    4    4    0  502 -0.28245269234E+02 -0.29972315906E+02 -0.94267854181E+02  0.10297889729E+03  0.47000000000E+01 0.  1.
<mgrwt>
<rscale>  0 0.26410221E+03</rscale>
<asrwt>0</asrwt>
<pdfrwt beam="1">  1       21 0.11451017E-01 0.26410221E+03</pdfrwt>
<pdfrwt beam="2">  1       21 0.36042367E-01 0.26410221E+03</pdfrwt>
<totfact> 0.46686293E+05</totfact>
</mgrwt>
</event>
<event>
 8    1  0.4760912E-006  0.3293783E+03  0.7546771E-02  0.1071412E+00
         21   -1    0    0  504  503  0.00000000000E+00  0.00000000000E+00  0.12524764391E+03  0.12524764391E+03  0.00000000000E+00 0.  1.
         21   -1    0    0  503  504 -0.00000000000E+00 -0.00000000000E+00 -0.21655108035E+03  0.21655108035E+03  0.00000000000E+00 0.  1.
         25    2    1    2    0    0  0.82040549765E+02  0.46133710065E+01  0.25819532661E+02  0.15181208543E+03  0.12501330336E+03 0.  0.
         25    2    1    2    0    0 -0.82040549765E+02 -0.46133710065E+01 -0.11712296909E+03  0.18998663883E+03  0.12500079219E+03 0.  0.
          5    1    3    3  501    0  0.14259024030E+01  0.47994136701E+02 -0.16311120432E+02  0.50927526988E+02  0.47000000000E+01 0. -1.
         -5    1    3    3    0  501  0.80614647362E+02 -0.43380765695E+02  0.42130653093E+02  0.10088455844E+03  0.47000000000E+01 0. -1.
          5    1    4    4  502    0 -0.84445333925E+02 -0.42803332140E+02 -0.11808158256E+03  0.15142156321E+03  0.47000000000E+01 0. -1.
         -5    1    4    4    0  502  0.24047841597E+01  0.38189961134E+02  0.95861346824E+00  0.38565075626E+02  0.47000000000E+01 0. -1.
<mgrwt>
<rscale>  0 0.32937828E+03</rscale>
<asrwt>0</asrwt>
<pdfrwt beam="1">  1       21 0.19268868E-01 0.32937828E+03</pdfrwt>
<pdfrwt beam="2">  1       21 0.33315551E-01 0.32937828E+03</pdfrwt>
<totfact> 0.20737885E+05</totfact>
</mgrwt>
</event>
<event>
 8    1  0.4760912E-006  0.3847477E+03  0.7546771E-02  0.1049193E+00
         21   -1    0    0  504  503  0.00000000000E+00  0.00000000000E+00  0.19520228043E+03  0.19520228043E+03  0.00000000000E+00 0. -1.
         21   -1    0    0  503  504 -0.00000000000E+00 -0.00000000000E+00 -0.18958639340E+03  0.18958639340E+03  0.00000000000E+00 0. -1.
         25    2    1    2    0    0 -0.13173617909E+02 -0.15643125862E+02 -0.14199798318E+03  0.19027974247E+03  0.12499880628E+03 0.  0.
         25    2    1    2    0    0  0.13173617909E+02  0.15643125862E+02  0.14761387021E+03  0.19450893136E+03  0.12500247239E+03 0.  0.
          5    1    3    3  501    0  0.11946592118E+01 -0.46888622136E+02 -0.32441667955E+01  0.47250235075E+02  0.47000000000E+01 0. -1.
         -5    1    3    3    0  501 -0.14368277121E+02  0.31245496275E+02 -0.13875381638E+03  0.14302950739E+03  0.47000000000E+01 0. -1.
          5    1    4    4  502    0 -0.29457925239E+02  0.63428100436E+01 -0.90518262693E+01  0.31812358564E+02  0.47000000000E+01 0.  1.
         -5    1    4    4    0  502  0.42631543148E+02  0.93003158180E+01  0.15666569648E+03  0.16269657279E+03  0.47000000000E+01 0.  1.
<mgrwt>
<rscale>  0 0.38474769E+03</rscale>
<asrwt>0</asrwt>
<pdfrwt beam="1">  1       21 0.30031120E-01 0.38474769E+03</pdfrwt>
<pdfrwt beam="2">  1       21 0.29167137E-01 0.38474769E+03</pdfrwt>
<totfact> 0.11339380E+05</totfact>
</mgrwt>
</event>
<event>
 8    1  0.4760912E-006  0.4134448E+03  0.7546771E-02  0.1039221E+00
         21   -1    0    0  504  503  0.00000000000E+00  0.00000000000E+00  0.19210708108E+03  0.19210708108E+03  0.00000000000E+00 0.  1.
         21   -1    0    0  503  504 -0.00000000000E+00 -0.00000000000E+00 -0.22244963805E+03  0.22244963805E+03  0.00000000000E+00 0.  1.
         25    2    1    2    0    0  0.74787219879E+02  0.24246795555E+02 -0.16021882025E+03  0.21790037515E+03  0.12501786982E+03 0.  0.
         25    2    1    2    0    0 -0.74787219879E+02 -0.24246795555E+02  0.12987626328E+03  0.19665634399E+03  0.12499935406E+03 0.  0.
          5    1    3    3  501    0  0.87987569606E+01 -0.93100722820E+00  0.21043735226E+02  0.23306945119E+02  0.47000000000E+01 0.  1.
         -5    1    3    3    0  501  0.65988462919E+02  0.25177802783E+02 -0.18126255548E+03  0.19459343003E+03  0.47000000000E+01 0.  1.
          5    1    4    4  502    0 -0.52994934198E+02  0.20588712712E+02  0.13476882695E+03  0.14634577158E+03  0.47000000000E+01 0. -1.
         -5    1    4    4    0  502 -0.21792285681E+02 -0.44835508268E+02 -0.48925636714E+01  0.50310572409E+02  0.47000000000E+01 0. -1.
<mgrwt>
<rscale>  0 0.41344480E+03</rscale>
<asrwt>0</asrwt>
<pdfrwt beam="1">  1       21 0.29554936E-01 0.41344480E+03</pdfrwt>
<pdfrwt beam="2">  1       21 0.34223021E-01 0.41344480E+03</pdfrwt>
<totfact> 0.84588658E+04</totfact>
</mgrwt>
</event>
<event>
 8    1  0.4760912E-006  0.2899923E+03  0.7546771E-02  0.1090353E+00
         21   -1    0    0  504  503  0.00000000000E+00  0.00000000000E+00  0.53301452720E+02  0.53301452720E+02  0.00000000000E+00 0.  1.
         21   -1    0    0  503  504 -0.00000000000E+00 -0.00000000000E+00 -0.39443355549E+03  0.39443355549E+03  0.00000000000E+00 0.  1.
         25    2    1    2    0    0 -0.42288432419E+01  0.72604549602E+02 -0.18620132337E+03  0.23576534130E+03  0.12500023839E+03 0.  0.
         25    2    1    2    0    0  0.42288432419E+01 -0.72604549602E+02 -0.15493077940E+03  0.21196966691E+03  0.12505314688E+03 0.  0.
          5    1    3    3  501    0  0.48302947135E+02  0.49901481059E+02 -0.15613613144E+03  0.17095003380E+03  0.47000000000E+01 0.  1.
         -5    1    3    3    0  501 -0.52531790377E+02  0.22703068543E+02 -0.30065191930E+02  0.64815307507E+02  0.47000000000E+01 0.  1.
          5    1    4    4  502    0  0.62764471493E+02 -0.41770115367E+02 -0.10300228232E+03  0.12773285240E+03  0.47000000000E+01 0.  1.
         -5    1    4    4    0  502 -0.58535628251E+02 -0.30834434235E+02 -0.51928497085E+02  0.84236814510E+02  0.47000000000E+01 0.  1.
<mgrwt>
<rscale>  0 0.28999229E+03</rscale>
<asrwt>0</asrwt>
<pdfrwt beam="1">  1       21 0.82002233E-02 0.28999229E+03</pdfrwt>
<pdfrwt beam="2">  1       21 0.60682087E-01 0.28999229E+03</pdfrwt>
<totfact> 0.28374026E+05</totfact>
</mgrwt>
</event>
<event>
 8    1  0.4760912E-006  0.2797214E+03  0.7546771E-02  0.1095841E+00
         21   -1    0    0  504  503  0.00000000000E+00  0.00000000000E+00  0.14510787503E+03  0.14510787503E+03  0.00000000000E+00 0. -1.
         21   -1    0    0  503  504 -0.00000000000E+00 -0.00000000000E+00 -0.13480322225E+03  0.13480322225E+03  0.00000000000E+00 0. -1.
         25    2    1    2    0    0  0.37122565605E+02  0.25551441308E+02 -0.38523034281E+02  0.13834748160E+03  0.12500016186E+03 0.  0.
         25    2    1    2    0    0 -0.37122565605E+02 -0.25551441308E+02  0.48827687063E+02  0.14156361568E+03  0.12500061292E+03 0.  0.
          5    1    3    3  501    0 -0.10806784487E+02  0.32639564904E+02 -0.71551149169E+02  0.79522227934E+02  0.47000000000E+01 0. -1.
         -5    1    3    3    0  501  0.47929350092E+02 -0.70881235959E+01  0.33028114888E+02  0.58825253671E+02  0.47000000000E+01 0. -1.
          5    1    4    4  502    0 -0.38621609111E+02 -0.67280331301E+02  0.76608107684E+00  0.77723539231E+02  0.47000000000E+01 0. -1.
         -5    1    4    4    0  502  0.14990435056E+01  0.41728889994E+02  0.48061605986E+02  0.63840076452E+02  0.47000000000E+01 0. -1.
<mgrwt>
<rscale>  0 0.27972136E+03</rscale>
<asrwt>0</asrwt>
<pdfrwt beam="1">  1       21 0.22324289E-01 0.27972136E+03</pdfrwt>
<pdfrwt beam="2">  1       21 0.20738957E-01 0.27972136E+03</pdfrwt>
<totfact> 0.39770252E+05</totfact>
</mgrwt>
</event>
<event>
 8    1  0.4760912E-006  0.2782379E+03  0.7546771E-02  0.1096655E+00
         21   -1    0    0  504  503  0.00000000000E+00  0.00000000000E+00  0.14737636960E+03  0.14737636960E+03  0.00000000000E+00 0. -1.
         21   -1    0    0  503  504 -0.00000000000E+00 -0.00000000000E+00 -0.13132423195E+03  0.13132423195E+03  0.00000000000E+00 0. -1.
         25    2    1    2    0    0  0.44818228765E+02  0.36107313495E+02  0.28504923852E+02  0.14053196085E+03  0.12499715844E+03 0.  0.
         25    2    1    2    0    0 -0.44818228765E+02 -0.36107313495E+02 -0.12452786207E+02  0.13816864069E+03  0.12499235844E+03 0.  0.
          5    1    3    3  501    0  0.61971119452E+02  0.69555575641E+02  0.25680464072E+00  0.93276758613E+02  0.47000000000E+01 0. -1.
         -5    1    3    3    0  501 -0.17152890687E+02 -0.33448262146E+02  0.28248119212E+02  0.47255202237E+02  0.47000000000E+01 0. -1.
          5    1    4    4  502    0 -0.16525826944E+02  0.46798766356E+02 -0.32046813726E+01  0.49955855226E+02  0.47000000000E+01 0. -1.
         -5    1    4    4    0  502 -0.28292401821E+02 -0.82906079851E+02 -0.92481048344E+01  0.88212785469E+02  0.47000000000E+01 0. -1.
<mgrwt>
<rscale>  0 0.27823795E+03</rscale>
<asrwt>0</asrwt>
<pdfrwt beam="1">  1       21 0.22673288E-01 0.27823795E+03</pdfrwt>
<pdfrwt beam="2">  1       21 0.20203728E-01 0.27823795E+03</pdfrwt>
<totfact> 0.40576832E+05</totfact>
</mgrwt>
</event>
<event>
 8    1  0.4760912E-006  0.3136453E+03  0.7546771E-02  0.1078612E+00
         21   -1    0    0  504  503  0.00000000000E+00  0.00000000000E+00  0.50257609995E+03  0.50257609995E+03  0.00000000000E+00 0.  1.
         21   -1    0    0  503  504 -0.00000000000E+00 -0.00000000000E+00 -0.48934568774E+02  0.48934568774E+02  0.00000000000E+00 0.  1.
         25    2    1    2    0    0  0.76159532275E+02 -0.30372280123E+02  0.14355374318E+03  0.20727248445E+03  0.12502582082E+03 0.  0.
         25    2    1    2    0    0 -0.76159532275E+02  0.30372280123E+02  0.31008778799E+03  0.34423818427E+03  0.12499096564E+03 0.  0.
          5    1    3    3  501    0  0.15316232355E+02 -0.63431290336E+02  0.11483015224E+03  0.13215963616E+03  0.47000000000E+01 0.  1.
         -5    1    3    3    0  501  0.60843299921E+02  0.33059010213E+02  0.28723590945E+02  0.75112848290E+02  0.47000000000E+01 0.  1.
          5    1    4    4  502    0  0.37428399382E+01 -0.36290870951E+02  0.37977782771E+02  0.52871903213E+02  0.47000000000E+01 0. -1.
         -5    1    4    4    0  502 -0.79902372214E+02  0.66663151074E+02  0.27211000522E+03  0.29136628106E+03  0.47000000000E+01 0. -1.
<mgrwt>
<rscale>  0 0.31364531E+03</rscale>
<asrwt>0</asrwt>
<pdfrwt beam="1">  1       21 0.77319396E-01 0.31364531E+03</pdfrwt>
<pdfrwt beam="2">  1       21 0.75283955E-02 0.31364531E+03</pdfrwt>
<totfact> 0.19142029E+05</totfact>
</mgrwt>
</event>
<event>
 8    1  0.4760912E-006  0.2912510E+03  0.7546771E-02  0.1089698E+00
         21   -1    0    0  504  503  0.00000000000E+00  0.00000000000E+00  0.31700141569E+03  0.31700141569E+03  0.00000000000E+00 0.  1.
         21   -1    0    0  503  504 -0.00000000000E+00 -0.00000000000E+00 -0.66898065263E+02  0.66898065263E+02  0.00000000000E+00 0.  1.
         25    2    1    2    0    0 -0.45531989601E+02  0.58107695520E+02  0.11046863486E+03  0.18246599578E+03  0.12506339981E+03 0.  0.
         25    2    1    2    0    0  0.45531989601E+02 -0.58107695520E+02  0.13963471557E+03  0.20143348518E+03  0.12501171467E+03 0.  0.
          5    1    3    3  501    0  0.41274241467E+02  0.37063833763E+02  0.45844784182E+02  0.72118825688E+02  0.47000000000E+01 0.  1.
         -5    1    3    3    0  501 -0.86806231068E+02  0.21043861757E+02  0.64623850683E+02  0.11034717009E+03  0.47000000000E+01 0.  1.
          5    1    4    4  502    0  0.53172998429E+02 -0.21930729684E+02  0.15166016021E+03  0.16226897073E+03  0.47000000000E+01 0. -1.
         -5    1    4    4    0  502 -0.76410088283E+01 -0.36176965836E+02 -0.12025444646E+02  0.39164514448E+02  0.47000000000E+01 0. -1.
<mgrwt>
<rscale>  0 0.29125097E+03</rscale>
<asrwt>0</asrwt>
<pdfrwt beam="1">  1       21 0.48769448E-01 0.29125097E+03</pdfrwt>
<pdfrwt beam="2">  1       21 0.10292010E-01 0.29125097E+03</pdfrwt>
<totfact> 0.30233019E+05</totfact>
</mgrwt>
</event>
<event>
 8    1  0.4760912E-006  0.3043594E+03  0.7546771E-02  0.1083081E+00
         21   -1    0    0  504  503  0.00000000000E+00  0.00000000000E+00  0.21857488795E+04  0.21857488795E+04  0.00000000000E+00 0. -1.
         21   -1    0    0  503  504 -0.00000000000E+00 -0.00000000000E+00 -0.10595298378E+02  0.10595298378E+02  0.00000000000E+00 0. -1.
         25    2    1    2    0    0  0.29989191495E+01 -0.37245835095E+02  0.16528513826E+04  0.16579933005E+04  0.12501138195E+03 0.  0.
         25    2    1    2    0    0 -0.29989191495E+01  0.37245835095E+02  0.52230219847E+03  0.53835087738E+03  0.12500333956E+03 0.  0.
          5    1    3    3  501    0  0.27699956398E+02  0.39094026901E+02  0.48664315463E+03  0.48901869134E+03  0.47000000000E+01 0. -1.
         -5    1    3    3    0  501 -0.24701037248E+02 -0.76339861996E+02  0.11662082280E+04  0.11689746091E+04  0.47000000000E+01 0. -1.
          5    1    4    4  502    0  0.41698471003E+02 -0.84176768481E+01  0.37861160353E+03  0.38102290757E+03  0.47000000000E+01 0.  1.
         -5    1    4    4    0  502 -0.44697390152E+02  0.45663511943E+02  0.14369059494E+03  0.15732796981E+03  0.47000000000E+01 0.  1.
<mgrwt>
<rscale>  0 0.30435940E+03</rscale>
<asrwt>0</asrwt>
<pdfrwt beam="1">  1       21 0.33626870E+00 0.30435940E+03</pdfrwt>
<pdfrwt beam="2">  1       21 0.16300477E-02 0.30435940E+03</pdfrwt>
<totfact> 0.32967626E+04</totfact>
</mgrwt>
</event>
<event>
 8    1  0.4760912E-006  0.3364978E+03  0.7546771E-02  0.1068297E+00
         21   -1    0    0  504  503  0.00000000000E+00  0.00000000000E+00  0.23825192197E+03  0.23825192197E+03  0.00000000000E+00 0. -1.
         21   -1    0    0  503  504 -0.00000000000E+00 -0.00000000000E+00 -0.11881409251E+03  0.11881409251E+03  0.00000000000E+00 0. -1.
         25    2    1    2    0    0  0.36392399247E+02  0.15696234156E+02 -0.52143310317E+02  0.14112010937E+03  0.12500072787E+03 0.  0.
         25    2    1    2    0    0 -0.36392399247E+02 -0.15696234156E+02  0.17158113977E+03  0.21594590511E+03  0.12498707100E+03 0.  0.
          5    1    3    3  501    0 -0.30757763780E+02  0.58204870571E+00 -0.63956205611E+02  0.71125698939E+02  0.47000000000E+01 0.  1.
         -5    1    3    3    0  501  0.67150163027E+02  0.15114185451E+02  0.11812895294E+02  0.69994410432E+02  0.47000000000E+01 0.  1.
          5    1    4    4  502    0 -0.13420339740E+02 -0.55221087777E+02  0.24878457460E+02  0.62213356279E+02  0.47000000000E+01 0.  1.
         -5    1    4    4    0  502 -0.22972059508E+02  0.39524853620E+02  0.14670268231E+03  0.15373254883E+03  0.47000000000E+01 0.  1.
<mgrwt>
<rscale>  0 0.33649776E+03</rscale>
<asrwt>0</asrwt>
<pdfrwt beam="1">  1       21 0.36654142E-01 0.33649776E+03</pdfrwt>
<pdfrwt beam="2">  1       21 0.18279091E-01 0.33649776E+03</pdfrwt>
<totfact> 0.18871769E+05</totfact>
</mgrwt>
</event>
<event>
 8    1  0.4760912E-006  0.3784996E+03  0.7546771E-02  0.1051490E+00
         21   -1    0    0  504  503  0.00000000000E+00  0.00000000000E+00  0.70128154539E+02  0.70128154539E+02  0.00000000000E+00 0.  1.
         21   -1    0    0  503  504 -0.00000000000E+00 -0.00000000000E+00 -0.51071468689E+03  0.51071468689E+03  0.00000000000E+00 0.  1.
         25    2    1    2    0    0 -0.13848592965E+03 -0.22325565301E+02 -0.18550162458E+03  0.26403027309E+03  0.12499739521E+03 0.  0.
         25    2    1    2    0    0  0.13848592965E+03  0.22325565301E+02 -0.25508490777E+03  0.31681256833E+03  0.12500043882E+03 0.  0.
          5    1    3    3  501    0 -0.56842668723E+02 -0.69111021062E+02 -0.11782189576E+03  0.14802537397E+03  0.47000000000E+01 0. -1.
         -5    1    3    3    0  501 -0.81643260931E+02  0.46785455761E+02 -0.67679728825E+02  0.11600489912E+03  0.47000000000E+01 0. -1.
          5    1    4    4  502    0  0.60241417519E+02 -0.11096770219E+02 -0.21317424261E+03  0.22185020713E+03  0.47000000000E+01 0.  1.
         -5    1    4    4    0  502  0.78244512136E+02  0.33422335520E+02 -0.41910665161E+02  0.94962361203E+02  0.47000000000E+01 0.  1.
<mgrwt>
<rscale>  0 0.37849956E+03</rscale>
<asrwt>0</asrwt>
<pdfrwt beam="1">  1       21 0.10788947E-01 0.37849956E+03</pdfrwt>
<pdfrwt beam="2">  1       21 0.78571489E-01 0.37849956E+03</pdfrwt>
<totfact> 0.95916397E+04</totfact>
</mgrwt>
</event>
<event>
 8    1  0.4760912E-006  0.3245862E+03  0.7546771E-02  0.1073558E+00
         21   -1    0    0  504  503  0.00000000000E+00  0.00000000000E+00  0.52019282779E+02  0.52019282779E+02  0.00000000000E+00 0. -1.
         21   -1    0    0  503  504 -0.00000000000E+00 -0.00000000000E+00 -0.50633237451E+03  0.50633237451E+03  0.00000000000E+00 0. -1.
         25    2    1    2    0    0  0.92900772676E+02  0.15276944949E+02 -0.30111231308E+03  0.33935388085E+03  0.12501397021E+03 0.  0.
         25    2    1    2    0    0 -0.92900772676E+02 -0.15276944949E+02 -0.15320077865E+03  0.21899777644E+03  0.12500243556E+03 0.  0.
          5    1    3    3  501    0  0.97851803387E+01  0.60301177017E+02 -0.10423622145E+03  0.12091013839E+03  0.47000000000E+01 0. -1.
         -5    1    3    3    0  501  0.83115592337E+02 -0.45024232067E+02 -0.19687609163E+03  0.21844374246E+03  0.47000000000E+01 0. -1.
          5    1    4    4  502    0 -0.41978364207E+02  0.72815400376E+01 -0.15722169387E+03  0.16295997948E+03  0.47000000000E+01 0.  1.
         -5    1    4    4    0  502 -0.50922408468E+02 -0.22558484987E+02  0.40209152235E+01  0.56037796962E+02  0.47000000000E+01 0.  1.
<mgrwt>
<rscale>  0 0.32458618E+03</rscale>
<asrwt>0</asrwt>
<pdfrwt beam="1">  1       21 0.80029668E-02 0.32458618E+03</pdfrwt>
<pdfrwt beam="2">  1       21 0.77897286E-01 0.32458618E+03</pdfrwt>
<totfact> 0.16861312E+05</totfact>
</mgrwt>
</event>
<event>
 8    1  0.4760912E-006  0.2705005E+03  0.7546771E-02  0.1100993E+00
         21   -1    0    0  504  503  0.00000000000E+00  0.00000000000E+00  0.11627802762E+02  0.11627802762E+02  0.00000000000E+00 0. -1.
         21   -1    0    0  503  504 -0.00000000000E+00 -0.00000000000E+00 -0.15731805624E+04  0.15731805624E+04  0.00000000000E+00 0. -1.
         25    2    1    2    0    0 -0.28945494106E+02 -0.40295551706E+02 -0.86479390546E+03  0.87518904432E+03  0.12500316499E+03 0.  0.
         25    2    1    2    0    0  0.28945494106E+02  0.40295551706E+02 -0.69675885422E+03  0.70961932089E+03  0.12500042610E+03 0.  0.
          5    1    3    3  501    0 -0.52036887948E+00  0.43592656259E+02 -0.22041153279E+03  0.22473078171E+03  0.47000000000E+01 0.  1.
         -5    1    3    3    0  501 -0.28425125227E+02 -0.83888207966E+02 -0.64438237267E+03  0.65045826261E+03  0.47000000000E+01 0.  1.
          5    1    4    4  502    0  0.53512195891E+02 -0.27054812751E+02 -0.38641142000E+03  0.39106443652E+03  0.47000000000E+01 0. -1.
         -5    1    4    4    0  502 -0.24566701785E+02  0.67350364458E+02 -0.31034743422E+03  0.31855488437E+03  0.47000000000E+01 0. -1.
<mgrwt>
<rscale>  0 0.27050052E+03</rscale>
<asrwt>0</asrwt>
<pdfrwt beam="1">  1       21 0.17888951E-02 0.27050052E+03</pdfrwt>
<pdfrwt beam="2">  1       21 0.24202746E+00 0.27050052E+03</pdfrwt>
<totfact> 0.10448107E+05</totfact>
</mgrwt>
</event>
<event>
 8    1  0.4760912E-006  0.2605713E+03  0.7546771E-02  0.1106800E+00
         21   -1    0    0  504  503  0.00000000000E+00  0.00000000000E+00  0.10322040919E+04  0.10322040919E+04  0.00000000000E+00 0. -1.
         21   -1    0    0  503  504 -0.00000000000E+00 -0.00000000000E+00 -0.16444767203E+02  0.16444767203E+02  0.00000000000E+00 0. -1.
         25    2    1    2    0    0  0.22102781294E+02 -0.19269264820E+02  0.59629891560E+03  0.60996621563E+03  0.12500619968E+03 0.  0.
         25    2    1    2    0    0 -0.22102781294E+02  0.19269264820E+02  0.41946040910E+03  0.43868264348E+03  0.12504235033E+03 0.  0.
          5    1    3    3  501    0  0.63343842271E+02 -0.44907959630E+02  0.41440581964E+03  0.42164373652E+03  0.47000000000E+01 0. -1.
         -5    1    3    3    0  501 -0.41241060978E+02  0.25638694811E+02  0.18189309596E+03  0.18832247912E+03  0.47000000000E+01 0. -1.
          5    1    4    4  502    0 -0.57323608884E+02 -0.11473274638E+02  0.34963804223E+03  0.35452289452E+03  0.47000000000E+01 0. -1.
         -5    1    4    4    0  502  0.35220827591E+02  0.30742539458E+02  0.69822366876E+02  0.84159748958E+02  0.47000000000E+01 0. -1.
<mgrwt>
<rscale>  0 0.26057134E+03</rscale>
<asrwt>0</asrwt>
<pdfrwt beam="1">  1       21 0.15880058E+00 0.26057134E+03</pdfrwt>
<pdfrwt beam="2">  1       21 0.25299650E-02 0.26057134E+03</pdfrwt>
<totfact> 0.20972560E+05</totfact>
</mgrwt>
</event>
<event>
 8    1  0.4760912E-006  0.2632854E+03  0.7546771E-02  0.1105185E+00
         21   -1    0    0  504  503  0.00000000000E+00  0.00000000000E+00  0.50508595818E+03  0.50508595818E+03  0.00000000000E+00 0. -1.
         21   -1    0    0  503  504 -0.00000000000E+00 -0.00000000000E+00 -0.34310593976E+02  0.34310593976E+02  0.00000000000E+00 0. -1.
         25    2    1    2    0    0  0.13455815895E+02 -0.22037934270E+02  0.16935715189E+03  0.21206613747E+03  0.12499388881E+03 0.  0.
         25    2    1    2    0    0 -0.13455815895E+02  0.22037934270E+02  0.30141821231E+03  0.32733041468E+03  0.12500212851E+03 0.  0.
          5    1    3    3  501    0 -0.58847588406E+01 -0.62077958432E+02  0.15153588437E+03  0.16393144165E+03  0.47000000000E+01 0.  1.
         -5    1    3    3    0  501  0.19340574736E+02  0.40040024162E+02  0.17821267517E+02  0.48134695823E+02  0.47000000000E+01 0.  1.
          5    1    4    4  502    0 -0.38614942407E+02 -0.25391399526E+02  0.24477624451E+03  0.24914521232E+03  0.47000000000E+01 0.  1.
         -5    1    4    4    0  502  0.25159126512E+02  0.47429333796E+02  0.56641967807E+02  0.78185202361E+02  0.47000000000E+01 0.  1.
<mgrwt>
<rscale>  0 0.26328539E+03</rscale>
<asrwt>0</asrwt>
<pdfrwt beam="1">  1       21 0.77705526E-01 0.26328539E+03</pdfrwt>
<pdfrwt beam="2">  1       21 0.52785533E-02 0.26328539E+03</pdfrwt>
<totfact> 0.35403354E+05</totfact>
</mgrwt>
</event>
<event>
 8    1  0.4760912E-006  0.3512444E+03  0.7546771E-02  0.1062105E+00
         21   -1    0    0  504  503  0.00000000000E+00  0.00000000000E+00  0.10509233283E+04  0.10509233283E+04  0.00000000000E+00 0.  1.
         21   -1    0    0  503  504 -0.00000000000E+00 -0.00000000000E+00 -0.29348625648E+02  0.29348625648E+02  0.00000000000E+00 0.  1.
         25    2    1    2    0    0  0.75203714166E+02  0.94836734785E+02  0.58429220697E+03  0.60964337087E+03  0.12497220342E+03 0.  0.
         25    2    1    2    0    0 -0.75203714166E+02 -0.94836734785E+02  0.43728249566E+03  0.47062858306E+03  0.12500270914E+03 0.  0.
          5    1    3    3  501    0  0.21481029439E+02  0.44716401338E+02  0.51034458457E+02  0.71327393927E+02  0.47000000000E+01 0.  1.
         -5    1    3    3    0  501  0.53722684727E+02  0.50120333447E+02  0.53325774851E+03  0.53831597694E+03  0.47000000000E+01 0.  1.
          5    1    4    4  502    0 -0.78034895679E+02 -0.14762704183E+01  0.23750145734E+03  0.25004130970E+03  0.47000000000E+01 0.  1.
         -5    1    4    4    0  502  0.28311815138E+01 -0.93360464367E+02  0.19978103832E+03  0.22058727336E+03  0.47000000000E+01 0.  1.
<mgrwt>
<rscale>  0 0.35124439E+03</rscale>
<asrwt>0</asrwt>
<pdfrwt beam="1">  1       21 0.16168048E+00 0.35124439E+03</pdfrwt>
<pdfrwt beam="2">  1       21 0.45151740E-02 0.35124439E+03</pdfrwt>
<totfact> 0.73249942E+04</totfact>
</mgrwt>
</event>
<event>
 8    1  0.4760912E-006  0.3275116E+03  0.7546771E-02  0.1072243E+00
         21   -1    0    0  504  503  0.00000000000E+00  0.00000000000E+00  0.20140600311E+03  0.20140600311E+03  0.00000000000E+00 0. -1.
         21   -1    0    0  503  504 -0.00000000000E+00 -0.00000000000E+00 -0.13314384299E+03  0.13314384299E+03  0.00000000000E+00 0. -1.
         25    2    1    2    0    0  0.40152285388E+02  0.84670385045E+02  0.84269645441E+02  0.17750464283E+03  0.12500097983E+03 0.  0.
         25    2    1    2    0    0 -0.40152285388E+02 -0.84670385045E+02 -0.16007485322E+02  0.15704520326E+03  0.12500270459E+03 0.  0.
          5    1    3    3  501    0  0.44675473242E+02  0.11523580464E+03  0.76033539695E+02  0.14518394449E+03  0.47000000000E+01 0.  1.
         -5    1    3    3    0  501 -0.45231878539E+01 -0.30565419593E+02  0.82361057465E+01  0.32320698339E+02  0.47000000000E+01 0.  1.
          5    1    4    4  502    0 -0.23858417052E+02  0.25192054368E+02 -0.28547655100E+02  0.45176567811E+02  0.47000000000E+01 0. -1.
         -5    1    4    4    0  502 -0.16293868336E+02 -0.10986243941E+03  0.12540169778E+02  0.11186863545E+03  0.47000000000E+01 0. -1.
<mgrwt>
<rscale>  0 0.32751164E+03</rscale>
<asrwt>0</asrwt>
<pdfrwt beam="1">  1       21 0.30985539E-01 0.32751164E+03</pdfrwt>
<pdfrwt beam="2">  1       21 0.20483668E-01 0.32751164E+03</pdfrwt>
<totfact> 0.21349647E+05</totfact>
</mgrwt>
</event>
<event>
 8    1  0.4760912E-006  0.2693191E+03  0.7546771E-02  0.1101670E+00
         21   -1    0    0  504  503  0.00000000000E+00  0.00000000000E+00  0.24694146779E+03  0.24694146779E+03  0.00000000000E+00 0.  1.
         21   -1    0    0  503  504 -0.00000000000E+00 -0.00000000000E+00 -0.73431130394E+02  0.73431130394E+02  0.00000000000E+00 0.  1.
         25    2    1    2    0    0 -0.31723826406E+02  0.37207241456E+02  0.73801695380E+02  0.15316732760E+03  0.12499103978E+03 0.  0.
         25    2    1    2    0    0  0.31723826406E+02 -0.37207241456E+02  0.99708642011E+02  0.16720527058E+03  0.12500003696E+03 0.  0.
          5    1    3    3  501    0 -0.15161726504E+02 -0.34855621372E+02  0.69005118887E+02  0.78921408531E+02  0.47000000000E+01 0.  1.
         -5    1    3    3    0  501 -0.16562099902E+02  0.72062862828E+02  0.47965764926E+01  0.74245919068E+02  0.47000000000E+01 0.  1.
          5    1    4    4  502    0  0.64000557390E+02 -0.11481195712E+02  0.10673919059E+03  0.12507291477E+03  0.47000000000E+01 0. -1.
         -5    1    4    4    0  502 -0.32276730983E+02 -0.25726045744E+02 -0.70305485831E+01  0.42132355808E+02  0.47000000000E+01 0. -1.
<mgrwt>
<rscale>  0 0.26931908E+03</rscale>
<asrwt>0</asrwt>
<pdfrwt beam="1">  1       21 0.37990995E-01 0.26931908E+03</pdfrwt>
<pdfrwt beam="2">  1       21 0.11297097E-01 0.26931908E+03</pdfrwt>
<totfact> 0.42980268E+05</totfact>
</mgrwt>
</event>
<event>
 8    1  0.4760912E-006  0.3034765E+03  0.7546771E-02  0.1083516E+00
         21   -1    0    0  504  503  0.00000000000E+00  0.00000000000E+00  0.21923139922E+02  0.21923139922E+02  0.00000000000E+00 0.  1.
         21   -1    0    0  503  504 -0.00000000000E+00 -0.00000000000E+00 -0.10502373725E+04  0.10502373725E+04  0.00000000000E+00 0.  1.
         25    2    1    2    0    0 -0.45787275957E+02  0.14234964995E+02 -0.76648491553E+03  0.77808879837E+03  0.12499577413E+03 0.  0.
         25    2    1    2    0    0  0.45787275957E+02 -0.14234964995E+02 -0.26182931702E+03  0.29407171402E+03  0.12499789146E+03 0.  0.
          5    1    3    3  501    0 -0.53916510653E+02 -0.44321448612E+02 -0.31168320004E+03  0.31943682962E+03  0.47000000000E+01 0. -1.
         -5    1    3    3    0  501  0.81292346960E+01  0.58556413608E+02 -0.45480171549E+03  0.45865196875E+03  0.47000000000E+01 0. -1.
          5    1    4    4  502    0  0.62037759015E+02  0.34671091643E+02 -0.20591635861E+03  0.21788622004E+03  0.47000000000E+01 0.  1.
         -5    1    4    4    0  502 -0.16250483058E+02 -0.48906056638E+02 -0.55912958413E+02  0.76185493986E+02  0.47000000000E+01 0.  1.
<mgrwt>
<rscale>  0 0.30347653E+03</rscale>
<asrwt>0</asrwt>
<pdfrwt beam="1">  1       21 0.33727922E-02 0.30347653E+03</pdfrwt>
<pdfrwt beam="2">  1       21 0.16157491E+00 0.30347653E+03</pdfrwt>
<totfact> 0.12211821E+05</totfact>
</mgrwt>
</event>
<event>
 8    1  0.4760912E-006  0.3065438E+03  0.7546771E-02  0.1082014E+00
         21   -1    0    0  504  503  0.00000000000E+00  0.00000000000E+00  0.52304509005E+03  0.52304509005E+03  0.00000000000E+00 0.  1.
         21   -1    0    0  503  504 -0.00000000000E+00 -0.00000000000E+00 -0.44914444824E+02  0.44914444824E+02  0.00000000000E+00 0.  1.
         25    2    1    2    0    0 -0.83200229789E+02 -0.23756345361E+02  0.27530220868E+03  0.31448736382E+03  0.12499741484E+03 0.  0.
         25    2    1    2    0    0  0.83200229789E+02  0.23756345361E+02  0.20282843655E+03  0.25347217106E+03  0.12498849805E+03 0.  0.
          5    1    3    3  501    0 -0.66492756513E+02 -0.36162987216E+02  0.28208467610E+03  0.29210084355E+03  0.47000000000E+01 0.  1.
         -5    1    3    3    0  501 -0.16707473276E+02  0.12406641856E+02 -0.67824674201E+01  0.22386520268E+02  0.47000000000E+01 0.  1.
          5    1    4    4  502    0 -0.26489240890E+02 -0.98115514337E+01  0.12603542860E+02  0.31287149392E+02  0.47000000000E+01 0. -1.
         -5    1    4    4    0  502  0.10968947068E+03  0.33567896794E+02  0.19022489369E+03  0.22218502166E+03  0.47000000000E+01 0. -1.
<mgrwt>
<rscale>  0 0.30654383E+03</rscale>
<asrwt>0</asrwt>
<pdfrwt beam="1">  1       21 0.80468471E-01 0.30654383E+03</pdfrwt>
<pdfrwt beam="2">  1       21 0.69099150E-02 0.30654383E+03</pdfrwt>
<totfact> 0.20333331E+05</totfact>
</mgrwt>
</event>
<event>
 8    1  0.4760912E-006  0.2608719E+03  0.7546771E-02  0.1106620E+00
         21   -1    0    0  504  503  0.00000000000E+00  0.00000000000E+00  0.40420235984E+03  0.40420235984E+03  0.00000000000E+00 0. -1.
         21   -1    0    0  503  504 -0.00000000000E+00 -0.00000000000E+00 -0.42091647712E+02  0.42091647712E+02  0.00000000000E+00 0. -1.
         25    2    1    2    0    0 -0.35674333469E+02  0.57746927719E+01  0.19643592236E+03  0.23563045110E+03  0.12501453015E+03 0.  0.
         25    2    1    2    0    0  0.35674333469E+02 -0.57746927719E+01  0.16567478977E+03  0.21066355645E+03  0.12499997163E+03 0.  0.
          5    1    3    3  501    0 -0.45018276902E+02  0.54184127504E+02  0.68198667728E+02  0.98161668734E+02  0.47000000000E+01 0. -1.
         -5    1    3    3    0  501  0.93439434327E+01 -0.48409434733E+02  0.12823725464E+03  0.13746878237E+03  0.47000000000E+01 0. -1.
          5    1    4    4  502    0  0.19637994834E+02 -0.49744110410E+02  0.15270941351E+03  0.16187149946E+03  0.47000000000E+01 0. -1.
         -5    1    4    4    0  502  0.16036338635E+02  0.43969417638E+02  0.12965376256E+02  0.48792056994E+02  0.47000000000E+01 0. -1.
<mgrwt>
<rscale>  0 0.26087195E+03</rscale>
<asrwt>0</asrwt>
<pdfrwt beam="1">  1       21 0.62184976E-01 0.26087195E+03</pdfrwt>
<pdfrwt beam="2">  1       21 0.64756384E-02 0.26087195E+03</pdfrwt>
<totfact> 0.40865192E+05</totfact>
</mgrwt>
</event>
<event>
 8    1  0.4760912E-006  0.3299541E+03  0.7546771E-02  0.1071157E+00
         21   -1    0    0  504  503  0.00000000000E+00  0.00000000000E+00  0.11845728581E+03  0.11845728581E+03  0.00000000000E+00 0.  1.
         21   -1    0    0  503  504 -0.00000000000E+00 -0.00000000000E+00 -0.22976570935E+03  0.22976570935E+03  0.00000000000E+00 0.  1.
         25    2    1    2    0    0 -0.19834972502E+02 -0.56092889416E+02 -0.15035586801E+03  0.20438168831E+03  0.12500059638E+03 0.  0.
         25    2    1    2    0    0  0.19834972502E+02  0.56092889416E+02  0.39047444461E+02  0.14384130685E+03  0.12500312100E+03 0.  0.
          5    1    3    3  501    0 -0.42661894513E+01 -0.95144123679E+02 -0.11383068418E+03  0.14849282577E+03  0.47000000000E+01 0.  1.
         -5    1    3    3    0  501 -0.15568783051E+02  0.39051234263E+02 -0.36525183826E+02  0.55888862546E+02  0.47000000000E+01 0.  1.
          5    1    4    4  502    0 -0.16293515883E+00  0.30475850893E+01 -0.43352711727E+02  0.43713406831E+02  0.47000000000E+01 0.  1.
         -5    1    4    4    0  502  0.19997907661E+02  0.53045304327E+02  0.82400156187E+02  0.10012790002E+03  0.47000000000E+01 0.  1.
<mgrwt>
<rscale>  0 0.32995407E+03</rscale>
<asrwt>0</asrwt>
<pdfrwt beam="1">  1       21 0.18224198E-01 0.32995407E+03</pdfrwt>
<pdfrwt beam="2">  1       21 0.35348571E-01 0.32995407E+03</pdfrwt>
<totfact> 0.20446373E+05</totfact>
</mgrwt>
</event>
<event>
 8    1  0.4760912E-006  0.2940873E+03  0.7546771E-02  0.1088234E+00
         21   -1    0    0  504  503  0.00000000000E+00  0.00000000000E+00  0.63119402694E+03  0.63119402694E+03  0.00000000000E+00 0.  1.
         21   -1    0    0  503  504 -0.00000000000E+00 -0.00000000000E+00 -0.34255437824E+02  0.34255437824E+02  0.00000000000E+00 0.  1.
         25    2    1    2    0    0  0.63131810692E+02  0.41095578911E+02  0.33916427520E+03  0.36922694333E+03  0.12498663122E+03 0.  0.
         25    2    1    2    0    0 -0.63131810692E+02 -0.41095578911E+02  0.25777431392E+03  0.29622252143E+03  0.12500285261E+03 0.  0.
          5    1    3    3  501    0  0.61229514608E+02 -0.33044070572E+02  0.13478109312E+03  0.15175307945E+03  0.47000000000E+01 0.  1.
         -5    1    3    3    0  501  0.19022960839E+01  0.74139649483E+02  0.20438318208E+03  0.21747386389E+03  0.47000000000E+01 0.  1.
          5    1    4    4  502    0 -0.78664430464E+02  0.20230282823E+02  0.16300031152E+03  0.18217724479E+03  0.47000000000E+01 0.  1.
         -5    1    4    4    0  502  0.15532619772E+02 -0.61325861735E+02  0.94774002399E+02  0.11404527665E+03  0.47000000000E+01 0.  1.
<mgrwt>
<rscale>  0 0.29408725E+03</rscale>
<asrwt>0</asrwt>
<pdfrwt beam="1">  1       21 0.97106765E-01 0.29408725E+03</pdfrwt>
<pdfrwt beam="2">  1       21 0.52700678E-02 0.29408725E+03</pdfrwt>
<totfact> 0.21005823E+05</totfact>
</mgrwt>
</event>
<event>
 8    1  0.4760912E-006  0.3183422E+03  0.7546771E-02  0.1076415E+00
         21   -1    0    0  504  503  0.00000000000E+00  0.00000000000E+00  0.62937862316E+02  0.62937862316E+02  0.00000000000E+00 0. -1.
         21   -1    0    0  503  504 -0.00000000000E+00 -0.00000000000E+00 -0.40254691863E+03  0.40254691863E+03  0.00000000000E+00 0. -1.
         25    2    1    2    0    0 -0.50026946629E+02 -0.64809845610E+02 -0.89625934974E+02  0.17424723982E+03  0.12500512344E+03 0.  0.
         25    2    1    2    0    0  0.50026946629E+02  0.64809845610E+02 -0.24998312134E+03  0.29123754113E+03  0.12499893172E+03 0.  0.
          5    1    3    3  501    0  0.30311138694E+02 -0.32067144391E+02  0.63052623160E+01  0.44820901499E+02  0.47000000000E+01 0. -1.
         -5    1    3    3    0  501 -0.80338085323E+02 -0.32742701219E+02 -0.95931197290E+02  0.12942633832E+03  0.47000000000E+01 0. -1.
          5    1    4    4  502    0 -0.21645973662E+02  0.22314638644E+02 -0.42602487646E+01  0.31729024459E+02  0.47000000000E+01 0.  1.
         -5    1    4    4    0  502  0.71672920291E+02  0.42495206966E+02 -0.24572287258E+03  0.25950851667E+03  0.47000000000E+01 0.  1.
<mgrwt>
<rscale>  0 0.31834222E+03</rscale>
<asrwt>0</asrwt>
<pdfrwt beam="1">  1       21 0.96827479E-02 0.31834222E+03</pdfrwt>
<pdfrwt beam="2">  1       21 0.61930296E-01 0.31834222E+03</pdfrwt>
<totfact> 0.20100785E+05</totfact>
</mgrwt>
</event>
<event>
 8    1  0.4760912E-006  0.2691251E+03  0.7546771E-02  0.1101781E+00
         21   -1    0    0  504  503  0.00000000000E+00  0.00000000000E+00  0.15596961804E+03  0.15596961804E+03  0.00000000000E+00 0. -1.
         21   -1    0    0  503  504 -0.00000000000E+00 -0.00000000000E+00 -0.11609361016E+03  0.11609361016E+03  0.00000000000E+00 0. -1.
         25    2    1    2    0    0  0.10993383368E+02 -0.21893310530E+02  0.63791278375E+02  0.14246151019E+03  0.12500313262E+03 0.  0.
         25    2    1    2    0    0 -0.10993383368E+02  0.21893310530E+02 -0.23915270494E+02  0.12960171802E+03  0.12499797449E+03 0.  0.
          5    1    3    3  501    0 -0.52466402820E+01  0.51462913977E+02  0.22560220403E+02  0.56630489084E+02  0.47000000000E+01 0.  1.
         -5    1    3    3    0  501  0.16240023650E+02 -0.73356224507E+02  0.41231057973E+02  0.85831021103E+02  0.47000000000E+01 0.  1.
          5    1    4    4  502    0 -0.39138281391E+01 -0.26386882720E+02  0.40457688152E+02  0.48687782461E+02  0.47000000000E+01 0. -1.
         -5    1    4    4    0  502 -0.70795552290E+01  0.48280193250E+02 -0.64372958645E+02  0.80913935557E+02  0.47000000000E+01 0. -1.
<mgrwt>
<rscale>  0 0.26912507E+03</rscale>
<asrwt>0</asrwt>
<pdfrwt beam="1">  1       21 0.23995326E-01 0.26912507E+03</pdfrwt>
<pdfrwt beam="2">  1       21 0.17860555E-01 0.26912507E+03</pdfrwt>
<totfact> 0.45946354E+05</totfact>
</mgrwt>
</event>
<event>
 8    1  0.4760912E-006  0.3609235E+03  0.7546771E-02  0.1058219E+00
         21   -1    0    0  504  503  0.00000000000E+00  0.00000000000E+00  0.22265884535E+03  0.22265884535E+03  0.00000000000E+00 0.  1.
         21   -1    0    0  503  504 -0.00000000000E+00 -0.00000000000E+00 -0.14626159092E+03  0.14626159092E+03  0.00000000000E+00 0.  1.
         25    2    1    2    0    0 -0.69483079386E+02  0.10926733477E+03  0.24629011110E+02  0.18165148057E+03  0.12499369358E+03 0.  0.
         25    2    1    2    0    0  0.69483079386E+02 -0.10926733477E+03  0.51768243321E+02  0.18726895571E+03  0.12498984754E+03 0.  0.
          5    1    3    3  501    0 -0.32955073462E+02  0.12607002338E+03 -0.65496413704E+01  0.13055525828E+03  0.47000000000E+01 0.  1.
         -5    1    3    3    0  501 -0.36528005925E+02 -0.16802688615E+02  0.31178652480E+02  0.51096222287E+02  0.47000000000E+01 0.  1.
          5    1    4    4  502    0  0.84147773276E+02 -0.10622864312E+03  0.25670754241E+01  0.13562467417E+03  0.47000000000E+01 0.  1.
         -5    1    4    4    0  502 -0.14664693890E+02 -0.30386916425E+01  0.49201167896E+02  0.51644281543E+02  0.47000000000E+01 0.  1.
<mgrwt>
<rscale>  0 0.36092347E+03</rscale>
<asrwt>0</asrwt>
<pdfrwt beam="1">  1       21 0.34255207E-01 0.36092347E+03</pdfrwt>
<pdfrwt beam="2">  1       21 0.22501783E-01 0.36092347E+03</pdfrwt>
<totfact> 0.14513312E+05</totfact>
</mgrwt>
</event>
<event>
 8    1  0.4760912E-006  0.4317759E+03  0.7546771E-02  0.1033300E+00
         21   -1    0    0  504  503  0.00000000000E+00  0.00000000000E+00  0.29953386693E+02  0.29953386693E+02  0.00000000000E+00 0.  1.
         21   -1    0    0  503  504 -0.00000000000E+00 -0.00000000000E+00 -0.15560046559E+04  0.15560046559E+04  0.00000000000E+00 0.  1.
         25    2    1    2    0    0  0.47981889257E+02  0.11882353599E+03 -0.31979677120E+03  0.36649275365E+03  0.12500267680E+03 0.  0.
         25    2    1    2    0    0 -0.47981889257E+02 -0.11882353599E+03 -0.12062544980E+04  0.12194652889E+04  0.12499753025E+03 0.  0.
          5    1    3    3  501    0  0.50611916883E+02  0.20430664863E+02 -0.34701163027E+02  0.64847813477E+02  0.47000000000E+01 0.  1.
         -5    1    3    3    0  501 -0.26300276254E+01  0.98392871125E+02 -0.28509560817E+03  0.30164494017E+03  0.47000000000E+01 0.  1.
          5    1    4    4  502    0 -0.77149342208E+02 -0.70554171537E+02 -0.10040910689E+04  0.10095300276E+04  0.47000000000E+01 0. -1.
         -5    1    4    4    0  502  0.29167452950E+02 -0.48269364451E+02 -0.20216342909E+03  0.20993526126E+03  0.47000000000E+01 0. -1.
<mgrwt>
<rscale>  0 0.43177591E+03</rscale>
<asrwt>0</asrwt>
<pdfrwt beam="1">  1       21 0.46082133E-02 0.43177591E+03</pdfrwt>
<pdfrwt beam="2">  1       21 0.23938533E+00 0.43177591E+03</pdfrwt>
<totfact> 0.20797812E+04</totfact>
</mgrwt>
</event>
<event>
 8    1  0.4760912E-006  0.5186001E+03  0.7546771E-02  0.1009035E+00
         21   -1    0    0  504  503  0.00000000000E+00  0.00000000000E+00  0.74021027357E+02  0.74021027357E+02  0.00000000000E+00 0.  1.
         21   -1    0    0  503  504 -0.00000000000E+00 -0.00000000000E+00 -0.90834344134E+03  0.90834344134E+03  0.00000000000E+00 0.  1.
         25    2    1    2    0    0 -0.42400434196E+02 -0.21549988587E+03 -0.52721983522E+03  0.58465611814E+03  0.12499609672E+03 0.  0.
         25    2    1    2    0    0  0.42400434196E+02  0.21549988587E+03 -0.30710257876E+03  0.39770835056E+03  0.12498776178E+03 0.  0.
          5    1    3    3  501    0 -0.73603693376E+02 -0.13396390611E+03 -0.24138639552E+03  0.28575043965E+03  0.47000000000E+01 0.  1.
         -5    1    3    3    0  501  0.31203259180E+02 -0.81535979758E+02 -0.28583343971E+03  0.29890567849E+03  0.47000000000E+01 0.  1.
          5    1    4    4  502    0  0.52262696355E+02  0.17914368953E+03 -0.16022453096E+03  0.24600374235E+03  0.47000000000E+01 0.  1.
         -5    1    4    4    0  502 -0.98622621592E+01  0.36356196342E+02 -0.14687804780E+03  0.15170460821E+03  0.47000000000E+01 0.  1.
<mgrwt>
<rscale>  0 0.51860010E+03</rscale>
<asrwt>0</asrwt>
<pdfrwt beam="1">  1       21 0.11387852E-01 0.51860010E+03</pdfrwt>
<pdfrwt beam="2">  1       21 0.13974513E+00 0.51860010E+03</pdfrwt>
<totfact> 0.20391141E+04</totfact>
</mgrwt>
</event>
<event>
 8    1  0.4760912E-006  0.2972812E+03  0.7546771E-02  0.1086608E+00
         21   -1    0    0  504  503  0.00000000000E+00  0.00000000000E+00  0.20147796265E+03  0.20147796265E+03  0.00000000000E+00 0. -1.
         21   -1    0    0  503  504 -0.00000000000E+00 -0.00000000000E+00 -0.10965980957E+03  0.10965980957E+03  0.00000000000E+00 0. -1.
         25    2    1    2    0    0 -0.47847800406E+02 -0.58702841391E+02  0.17547593301E+02  0.14719710224E+03  0.12499453303E+03 0.  0.
         25    2    1    2    0    0  0.47847800406E+02  0.58702841391E+02  0.74270559779E+02  0.16394066998E+03  0.12499996653E+03 0.  0.
          5    1    3    3  501    0 -0.28719854747E+02  0.84638797403E+01  0.58655731077E+02  0.66023117960E+02  0.47000000000E+01 0. -1.
         -5    1    3    3    0  501 -0.19127945659E+02 -0.67166721131E+02 -0.41108137776E+02  0.81173984281E+02  0.47000000000E+01 0. -1.
          5    1    4    4  502    0  0.67735295890E+02  0.78866487322E+02  0.83883305725E+02  0.13366559808E+03  0.47000000000E+01 0. -1.
         -5    1    4    4    0  502 -0.19887495484E+02 -0.20163645930E+02 -0.96127459455E+01  0.30275071898E+02  0.47000000000E+01 0. -1.
<mgrwt>
<rscale>  0 0.29728125E+03</rscale>
<asrwt>0</asrwt>
<pdfrwt beam="1">  1       21 0.30996610E-01 0.29728125E+03</pdfrwt>
<pdfrwt beam="2">  1       21 0.16870740E-01 0.29728125E+03</pdfrwt>
<totfact> 0.30883203E+05</totfact>
</mgrwt>
</event>
<event>
 8    1  0.4760912E-006  0.3423650E+03  0.7546771E-02  0.1065793E+00
         21   -1    0    0  504  503  0.00000000000E+00  0.00000000000E+00  0.19715989438E+03  0.19715989438E+03  0.00000000000E+00 0.  1.
         21   -1    0    0  503  504 -0.00000000000E+00 -0.00000000000E+00 -0.14862787357E+03  0.14862787357E+03  0.00000000000E+00 0.  1.
         25    2    1    2    0    0  0.72900767262E+01 -0.23543835924E+02  0.13974260575E+03  0.18909591428E+03  0.12498724537E+03 0.  0.
         25    2    1    2    0    0 -0.72900767262E+01  0.23543835924E+02 -0.91210584939E+02  0.15669185368E+03  0.12500203509E+03 0.  0.
          5    1    3    3  501    0 -0.25866920390E+02 -0.22069133053E+02  0.15012875475E+03  0.15400284805E+03  0.47000000000E+01 0.  1.
         -5    1    3    3    0  501  0.33156997116E+02 -0.14747028710E+01 -0.10386148998E+02  0.35093066229E+02  0.47000000000E+01 0.  1.
          5    1    4    4  502    0  0.86895675225E+01 -0.32388961144E+02  0.13790170524E+02  0.36562442352E+02  0.47000000000E+01 0. -1.
         -5    1    4    4    0  502 -0.15979644249E+02  0.55932797068E+02 -0.10500075546E+03  0.12012941133E+03  0.47000000000E+01 0. -1.
<mgrwt>
<rscale>  0 0.34236504E+03</rscale>
<asrwt>0</asrwt>
<pdfrwt beam="1">  1       21 0.30332291E-01 0.34236504E+03</pdfrwt>
<pdfrwt beam="2">  1       21 0.22865827E-01 0.34236504E+03</pdfrwt>
<totfact> 0.18002786E+05</totfact>
</mgrwt>
</event>
<event>
 8    1  0.4760912E-006  0.3074701E+03  0.7546771E-02  0.1081565E+00
         21   -1    0    0  504  503  0.00000000000E+00  0.00000000000E+00  0.19456291650E+03  0.19456291650E+03  0.00000000000E+00 0. -1.
         21   -1    0    0  503  504 -0.00000000000E+00 -0.00000000000E+00 -0.12147464168E+03  0.12147464168E+03  0.00000000000E+00 0. -1.
         25    2    1    2    0    0  0.47224835182E+02  0.23153525529E+02  0.11096182804E+03  0.17523259175E+03  0.12501065205E+03 0.  0.
         25    2    1    2    0    0 -0.47224835182E+02 -0.23153525529E+02 -0.37873553218E+02  0.14080496644E+03  0.12500144694E+03 0.  0.
          5    1    3    3  501    0 -0.25717555933E+02  0.50388888432E+02  0.56545015837E+02  0.80124038694E+02  0.47000000000E+01 0.  1.
         -5    1    3    3    0  501  0.72942391115E+02 -0.27235362902E+02  0.54416812198E+02  0.95108553053E+02  0.47000000000E+01 0.  1.
          5    1    4    4  502    0  0.40539721386E+02 -0.23916337819E+02 -0.18565164729E+02  0.50815505174E+02  0.47000000000E+01 0.  1.
         -5    1    4    4    0  502 -0.87764556569E+02  0.76281228914E+00 -0.19308388490E+02  0.89989461263E+02  0.47000000000E+01 0.  1.
<mgrwt>
<rscale>  0 0.30747007E+03</rscale>
<asrwt>0</asrwt>
<pdfrwt beam="1">  1       21 0.29932756E-01 0.30747007E+03</pdfrwt>
<pdfrwt beam="2">  1       21 0.18688406E-01 0.30747007E+03</pdfrwt>
<totfact> 0.27282140E+05</totfact>
</mgrwt>
</event>
<event>
 8    1  0.4760912E-006  0.2612875E+03  0.7546771E-02  0.1106372E+00
         21   -1    0    0  504  503  0.00000000000E+00  0.00000000000E+00  0.70706008466E+02  0.70706008466E+02  0.00000000000E+00 0.  1.
         21   -1    0    0  503  504 -0.00000000000E+00 -0.00000000000E+00 -0.24139094827E+03  0.24139094827E+03  0.00000000000E+00 0.  1.
         25    2    1    2    0    0 -0.11246811231E+02 -0.30183057718E+02 -0.10939660623E+03  0.16921333232E+03  0.12501210599E+03 0.  0.
         25    2    1    2    0    0  0.11246811231E+02  0.30183057718E+02 -0.61288333579E+02  0.14288362442E+03  0.12498784964E+03 0.  0.
          5    1    3    3  501    0 -0.24477178832E+02 -0.73742141170E+02 -0.44067926207E+02  0.89448911609E+02  0.47000000000E+01 0. -1.
         -5    1    3    3    0  501  0.13230367601E+02  0.43559083451E+02 -0.65328680021E+02  0.79764420710E+02  0.47000000000E+01 0. -1.
          5    1    4    4  502    0  0.14756771983E-01  0.69575083892E+02 -0.87194585194E+00  0.69739105285E+02  0.47000000000E+01 0. -1.
         -5    1    4    4    0  502  0.11232054459E+02 -0.39392026174E+02 -0.60416387727E+02  0.73144519134E+02  0.47000000000E+01 0. -1.
<mgrwt>
<rscale>  0 0.26128751E+03</rscale>
<asrwt>0</asrwt>
<pdfrwt beam="1">  1       21 0.10877848E-01 0.26128751E+03</pdfrwt>
<pdfrwt beam="2">  1       21 0.37137068E-01 0.26128751E+03</pdfrwt>
<totfact> 0.48222775E+05</totfact>
</mgrwt>
</event>
<event>
 8    1  0.4760912E-006  0.2700428E+03  0.7546771E-02  0.1101255E+00
         21   -1    0    0  504  503  0.00000000000E+00  0.00000000000E+00  0.16178897851E+03  0.16178897851E+03  0.00000000000E+00 0. -1.
         21   -1    0    0  503  504 -0.00000000000E+00 -0.00000000000E+00 -0.11268241983E+03  0.11268241983E+03  0.00000000000E+00 0. -1.
         25    2    1    2    0    0 -0.17197019174E+02 -0.47736542311E+02  0.30206448432E+02  0.13824937435E+03  0.12500378011E+03 0.  0.
         25    2    1    2    0    0  0.17197019174E+02  0.47736542311E+02  0.18900110248E+02  0.13622202399E+03  0.12499884284E+03 0.  0.
          5    1    3    3  501    0  0.16913990511E+02  0.37993125624E+02  0.15853980965E+02  0.44754881099E+02  0.47000000000E+01 0. -1.
         -5    1    3    3    0  501 -0.34111009685E+02 -0.85729667936E+02  0.14352467467E+02  0.93494493252E+02  0.47000000000E+01 0. -1.
          5    1    4    4  502    0  0.56342318299E+02  0.34150133175E+02 -0.29495627926E+02  0.72337891135E+02  0.47000000000E+01 0. -1.
         -5    1    4    4    0  502 -0.39145299124E+02  0.13586409137E+02  0.48395738175E+02  0.63884132852E+02  0.47000000000E+01 0. -1.
<mgrwt>
<rscale>  0 0.27004276E+03</rscale>
<asrwt>0</asrwt>
<pdfrwt beam="1">  1       21 0.24890612E-01 0.27004276E+03</pdfrwt>
<pdfrwt beam="2">  1       21 0.17335757E-01 0.27004276E+03</pdfrwt>
<totfact> 0.45261199E+05</totfact>
</mgrwt>
</event>
<event>
 8    1  0.4760912E-006  0.5059845E+03  0.7546771E-02  0.1012229E+00
         21   -1    0    0  504  503  0.00000000000E+00  0.00000000000E+00  0.32001761266E+02  0.32001761266E+02  0.00000000000E+00 0.  1.
         21   -1    0    0  503  504 -0.00000000000E+00 -0.00000000000E+00 -0.20000488077E+04  0.20000488077E+04  0.00000000000E+00 0.  1.
         25    2    1    2    0    0  0.17227088762E+03 -0.10240917928E+03 -0.13480395128E+04  0.13685762046E+04  0.12500160466E+03 0.  0.
         25    2    1    2    0    0 -0.17227088762E+03  0.10240917928E+03 -0.62000753367E+03  0.66347436434E+03  0.12499596637E+03 0.  0.
          5    1    3    3  501    0  0.12572205058E+03 -0.15523991399E+02 -0.54782339750E+03  0.56229849116E+03  0.47000000000E+01 0.  1.
         -5    1    3    3    0  501  0.46548837040E+02 -0.86885187883E+02 -0.80021611528E+03  0.80627771348E+03  0.47000000000E+01 0.  1.
          5    1    4    4  502    0 -0.17860511021E+03  0.11920404943E+03 -0.53578613014E+03  0.57723327870E+03  0.47000000000E+01 0.  1.
         -5    1    4    4    0  502  0.63342225911E+01 -0.16794870153E+02 -0.84221403529E+02  0.86241085636E+02  0.47000000000E+01 0.  1.
<mgrwt>
<rscale>  0 0.50598452E+03</rscale>
<asrwt>0</asrwt>
<pdfrwt beam="1">  1       21 0.49233477E-02 0.50598452E+03</pdfrwt>
<pdfrwt beam="2">  1       21 0.30769983E+00 0.50598452E+03</pdfrwt>
<totfact> 0.69299264E+03</totfact>
</mgrwt>
</event>
<event>
 8    1  0.4760912E-006  0.3847476E+03  0.7546771E-02  0.1049193E+00
         21   -1    0    0  504  503  0.00000000000E+00  0.00000000000E+00  0.44748880723E+03  0.44748880723E+03  0.00000000000E+00 0.  1.
         21   -1    0    0  503  504 -0.00000000000E+00 -0.00000000000E+00 -0.82700775676E+02  0.82700775676E+02  0.00000000000E+00 0.  1.
         25    2    1    2    0    0 -0.73260369123E+02 -0.10587783401E+03  0.86838701629E+02  0.19935631281E+03  0.12499912775E+03 0.  0.
         25    2    1    2    0    0  0.73260369123E+02  0.10587783401E+03  0.27794932992E+03  0.33083327009E+03  0.12497049723E+03 0.  0.
          5    1    3    3  501    0 -0.35443838159E+02  0.22485785399E+02  0.38036029752E+02  0.56839297742E+02  0.47000000000E+01 0. -1.
         -5    1    3    3    0  501 -0.37816530965E+02 -0.12836361941E+03  0.48802671877E+02  0.14251701507E+03  0.47000000000E+01 0. -1.
          5    1    4    4  502    0  0.62439246089E+02  0.13029047457E+03  0.26238388519E+03  0.29956912461E+03  0.47000000000E+01 0. -1.
         -5    1    4    4    0  502  0.10821123034E+02 -0.24412640560E+02  0.15565444735E+02  0.31264145481E+02  0.47000000000E+01 0. -1.
<mgrwt>
<rscale>  0 0.38474756E+03</rscale>
<asrwt>0</asrwt>
<pdfrwt beam="1">  1       21 0.68844430E-01 0.38474756E+03</pdfrwt>
<pdfrwt beam="2">  1       21 0.12723197E-01 0.38474756E+03</pdfrwt>
<totfact> 0.95803723E+04</totfact>
</mgrwt>
</event>
<event>
 8    1  0.4760912E-006  0.2741473E+03  0.7546771E-02  0.1098929E+00
         21   -1    0    0  504  503  0.00000000000E+00  0.00000000000E+00  0.14815111996E+03  0.14815111996E+03  0.00000000000E+00 0. -1.
         21   -1    0    0  503  504 -0.00000000000E+00 -0.00000000000E+00 -0.12682447512E+03  0.12682447512E+03  0.00000000000E+00 0. -1.
         25    2    1    2    0    0  0.13722811007E+02 -0.22532026205E+02 -0.39166449524E+02  0.13362400141E+03  0.12500142094E+03 0.  0.
         25    2    1    2    0    0 -0.13722811007E+02  0.22532026205E+02  0.60493094365E+02  0.14135159368E+03  0.12499940329E+03 0.  0.
          5    1    3    3  501    0 -0.46704362199E+02 -0.38477096580E+02 -0.36648921348E+02  0.70901465751E+02  0.47000000000E+01 0.  1.
         -5    1    3    3    0  501  0.60427173206E+02  0.15945070376E+02 -0.25175281761E+01  0.62722535656E+02  0.47000000000E+01 0.  1.
          5    1    4    4  502    0 -0.29340269951E+02 -0.32556131827E+02 -0.14931655122E+02  0.46538129367E+02  0.47000000000E+01 0. -1.
         -5    1    4    4    0  502  0.15617458943E+02  0.55088158032E+02  0.75424749487E+02  0.94813464309E+02  0.47000000000E+01 0. -1.
<mgrwt>
<rscale>  0 0.27414732E+03</rscale>
<asrwt>0</asrwt>
<pdfrwt beam="1">  1       21 0.22792480E-01 0.27414732E+03</pdfrwt>
<pdfrwt beam="2">  1       21 0.19511458E-01 0.27414732E+03</pdfrwt>
<totfact> 0.42929274E+05</totfact>
</mgrwt>
</event>
<event>
 8    1  0.4760912E-006  0.2963540E+03  0.7546771E-02  0.1087078E+00
         21   -1    0    0  504  503  0.00000000000E+00  0.00000000000E+00  0.32756616117E+03  0.32756616117E+03  0.00000000000E+00 0.  1.
         21   -1    0    0  503  504 -0.00000000000E+00 -0.00000000000E+00 -0.67028986632E+02  0.67028986632E+02  0.00000000000E+00 0.  1.
         25    2    1    2    0    0  0.14634212886E+02  0.65113732313E+02  0.72601938511E+02  0.15921998041E+03  0.12500400939E+03 0.  0.
         25    2    1    2    0    0 -0.14634212886E+02 -0.65113732313E+02  0.18793523603E+03  0.23537516740E+03  0.12501143213E+03 0.  0.
          5    1    3    3  501    0  0.60515697048E+02  0.39677819593E+01  0.13073469502E+02  0.62216545128E+02  0.47000000000E+01 0.  1.
         -5    1    3    3    0  501 -0.45881484162E+02  0.61145950354E+02  0.59528469010E+02  0.97003435281E+02  0.47000000000E+01 0.  1.
          5    1    4    4  502    0  0.53155241183E+02 -0.21165064507E+02  0.10393196501E+03  0.11873240069E+03  0.47000000000E+01 0.  1.
         -5    1    4    4    0  502 -0.67789454069E+02 -0.43948667806E+02  0.84003271017E+02  0.11664276671E+03  0.47000000000E+01 0.  1.
<mgrwt>
<rscale>  0 0.29635403E+03</rscale>
<asrwt>0</asrwt>
<pdfrwt beam="1">  1       21 0.50394793E-01 0.29635403E+03</pdfrwt>
<pdfrwt beam="2">  1       21 0.10312152E-01 0.29635403E+03</pdfrwt>
<totfact> 0.28090307E+05</totfact>
</mgrwt>
</event>
<event>
 8    1  0.4760912E-006  0.2783155E+03  0.7546771E-02  0.1096613E+00
         21   -1    0    0  504  503  0.00000000000E+00  0.00000000000E+00  0.20532932044E+03  0.20532932044E+03  0.00000000000E+00 0. -1.
         21   -1    0    0  503  504 -0.00000000000E+00 -0.00000000000E+00 -0.94311327730E+02  0.94311327730E+02  0.00000000000E+00 0. -1.
         25    2    1    2    0    0  0.42767813038E+02 -0.42746641779E+02  0.45760450677E+02  0.14620108899E+03  0.12499751341E+03 0.  0.
         25    2    1    2    0    0 -0.42767813038E+02  0.42746641779E+02  0.65257542033E+02  0.15343955918E+03  0.12501516034E+03 0.  0.
          5    1    3    3  501    0  0.30300100969E+02 -0.46570069673E+02 -0.33959084819E+02  0.65285350193E+02  0.47000000000E+01 0.  1.
         -5    1    3    3    0  501  0.12467712069E+02  0.38234278943E+01  0.79719535496E+02  0.80915738796E+02  0.47000000000E+01 0.  1.
          5    1    4    4  502    0  0.38303091591E+02  0.38802687280E+02  0.41670649782E+02  0.68784507114E+02  0.47000000000E+01 0. -1.
         -5    1    4    4    0  502 -0.81070904630E+02  0.39439544983E+01  0.23586892251E+02  0.84655052068E+02  0.47000000000E+01 0. -1.
<mgrwt>
<rscale>  0 0.27831551E+03</rscale>
<asrwt>0</asrwt>
<pdfrwt beam="1">  1       21 0.31589126E-01 0.27831551E+03</pdfrwt>
<pdfrwt beam="2">  1       21 0.14509435E-01 0.27831551E+03</pdfrwt>
<totfact> 0.39425276E+05</totfact>
</mgrwt>
</event>
<event>
 8    1  0.4760912E-006  0.4052807E+03  0.7546771E-02  0.1041966E+00
         21   -1    0    0  504  503  0.00000000000E+00  0.00000000000E+00  0.15848274264E+03  0.15848274264E+03  0.00000000000E+00 0. -1.
         21   -1    0    0  503  504 -0.00000000000E+00 -0.00000000000E+00 -0.25910151837E+03  0.25910151837E+03  0.00000000000E+00 0. -1.
         25    2    1    2    0    0 -0.34079400836E+01 -0.12703064011E+03 -0.14961206226E+03  0.23272184558E+03  0.12500916229E+03 0.  0.
         25    2    1    2    0    0  0.34079400836E+01  0.12703064011E+03  0.48993286530E+02  0.18486241542E+03  0.12500149170E+03 0.  0.
          5    1    3    3  501    0 -0.47442831118E+02 -0.11491867909E+03 -0.13709837459E+03  0.18513557018E+03  0.47000000000E+01 0.  1.
         -5    1    3    3    0  501  0.44034891035E+02 -0.12111961012E+02 -0.12513687666E+02  0.47586275406E+02  0.47000000000E+01 0.  1.
          5    1    4    4  502    0 -0.27561973849E+02  0.76982408413E+02  0.83099124153E+02  0.11667693878E+03  0.47000000000E+01 0. -1.
         -5    1    4    4    0  502  0.30969913933E+02  0.50048231693E+02 -0.34105837623E+02  0.68185476640E+02  0.47000000000E+01 0. -1.
<mgrwt>
<rscale>  0 0.40528074E+03</rscale>
<asrwt>0</asrwt>
<pdfrwt beam="1">  1       21 0.24381961E-01 0.40528074E+03</pdfrwt>
<pdfrwt beam="2">  1       21 0.39861772E-01 0.40528074E+03</pdfrwt>
<totfact> 0.90559454E+04</totfact>
</mgrwt>
</event>
<event>
 8    1  0.4760912E-006  0.2533480E+03  0.7546771E-02  0.1111207E+00
         21   -1    0    0  504  503  0.00000000000E+00  0.00000000000E+00  0.19941363360E+03  0.19941363360E+03  0.00000000000E+00 0. -1.
         21   -1    0    0  503  504 -0.00000000000E+00 -0.00000000000E+00 -0.80467425110E+02  0.80467425110E+02  0.00000000000E+00 0. -1.
         25    2    1    2    0    0 -0.16502082106E+02  0.12187945063E+02  0.59392948560E+02  0.13990317590E+03  0.12499804627E+03 0.  0.
         25    2    1    2    0    0  0.16502082106E+02 -0.12187945063E+02  0.59553259925E+02  0.13997788280E+03  0.12500540863E+03 0.  0.
          5    1    3    3  501    0 -0.20050704504E+01 -0.50024359942E+02 -0.31468951141E+01  0.50383031310E+02  0.47000000000E+01 0.  1.
         -5    1    3    3    0  501 -0.14497011655E+02  0.62212305005E+02  0.62539843674E+02  0.89520144592E+02  0.47000000000E+01 0.  1.
          5    1    4    4  502    0  0.25290759745E+02  0.11398402312E+02 -0.33336879876E+02  0.43623200979E+02  0.47000000000E+01 0.  1.
         -5    1    4    4    0  502 -0.87886776396E+01 -0.23586347375E+02  0.92890139801E+02  0.96354681824E+02  0.47000000000E+01 0.  1.
<mgrwt>
<rscale>  0 0.25334799E+03</rscale>
<asrwt>0</asrwt>
<pdfrwt beam="1">  1       21 0.30679021E-01 0.25334799E+03</pdfrwt>
<pdfrwt beam="2">  1       21 0.12379604E-01 0.25334799E+03</pdfrwt>
<totfact> 0.55983207E+05</totfact>
</mgrwt>
</event>
<event>
 8    1  0.4760912E-006  0.2789279E+03  0.7546771E-02  0.1096276E+00
         21   -1    0    0  504  503  0.00000000000E+00  0.00000000000E+00  0.30509509487E+03  0.30509509487E+03  0.00000000000E+00 0. -1.
         21   -1    0    0  503  504 -0.00000000000E+00 -0.00000000000E+00 -0.63751234485E+02  0.63751234485E+02  0.00000000000E+00 0. -1.
         25    2    1    2    0    0  0.50415200961E+02  0.32532779336E+02  0.10084186172E+03  0.17144159313E+03  0.12499225801E+03 0.  0.
         25    2    1    2    0    0 -0.50415200961E+02 -0.32532779336E+02  0.14050199867E+03  0.19740473622E+03  0.12501097565E+03 0.  0.
          5    1    3    3  501    0 -0.58657972760E+01  0.91055568101E+00 -0.27057222837E+02  0.28096618960E+02  0.47000000000E+01 0.  1.
         -5    1    3    3    0  501  0.56280998237E+02  0.31622223655E+02  0.12789908455E+03  0.14334497417E+03  0.47000000000E+01 0.  1.
          5    1    4    4  502    0  0.35822034811E+02 -0.37133006440E+01  0.89275252665E+01  0.37400501161E+02  0.47000000000E+01 0. -1.
         -5    1    4    4    0  502 -0.86237235772E+02 -0.28819478692E+02  0.13157447340E+03  0.16000423506E+03  0.47000000000E+01 0. -1.
<mgrwt>
<rscale>  0 0.27892787E+03</rscale>
<asrwt>0</asrwt>
<pdfrwt beam="1">  1       21 0.46937706E-01 0.27892787E+03</pdfrwt>
<pdfrwt beam="2">  1       21 0.98078824E-02 0.27892787E+03</pdfrwt>
<totfact> 0.35778867E+05</totfact>
</mgrwt>
</event>
<event>
 8    1  0.4760912E-006  0.3134926E+03  0.7546771E-02  0.1078684E+00
         21   -1    0    0  504  503  0.00000000000E+00  0.00000000000E+00  0.27564578224E+02  0.27564578224E+02  0.00000000000E+00 0. -1.
         21   -1    0    0  503  504 -0.00000000000E+00 -0.00000000000E+00 -0.89133964558E+03  0.89133964558E+03  0.00000000000E+00 0. -1.
         25    2    1    2    0    0  0.17640946278E+02 -0.60718745434E+02 -0.63804826995E+03  0.65324424559E+03  0.12499792230E+03 0.  0.
         25    2    1    2    0    0 -0.17640946278E+02  0.60718745434E+02 -0.22572679741E+03  0.26565997822E+03  0.12499867169E+03 0.  0.
          5    1    3    3  501    0 -0.46153931726E+02 -0.57621563863E+02 -0.39699608402E+03  0.40382968039E+03  0.47000000000E+01 0.  1.
         -5    1    3    3    0  501  0.63794878003E+02 -0.30971815711E+01 -0.24105218593E+03  0.24941456520E+03  0.47000000000E+01 0.  1.
          5    1    4    4  502    0  0.44157379499E+02  0.36298509703E+02 -0.44546990715E+02  0.72622175350E+02  0.47000000000E+01 0. -1.
         -5    1    4    4    0  502 -0.61798325776E+02  0.24420235731E+02 -0.18117980670E+03  0.19303780287E+03  0.47000000000E+01 0. -1.
<mgrwt>
<rscale>  0 0.31349259E+03</rscale>
<asrwt>0</asrwt>
<pdfrwt beam="1">  1       21 0.42407040E-02 0.31349259E+03</pdfrwt>
<pdfrwt beam="2">  1       21 0.13712919E+00 0.31349259E+03</pdfrwt>
<totfact> 0.12832682E+05</totfact>
</mgrwt>
</event>
<event>
 8    1  0.4760912E-006  0.3000898E+03  0.7546771E-02  0.1085196E+00
         21   -1    0    0  504  503  0.00000000000E+00  0.00000000000E+00  0.19723226092E+03  0.19723226092E+03  0.00000000000E+00 0. -1.
         21   -1    0    0  503  504 -0.00000000000E+00 -0.00000000000E+00 -0.11414701838E+03  0.11414701838E+03  0.00000000000E+00 0. -1.
         25    2    1    2    0    0  0.60105807341E+02 -0.45387905037E+02  0.53771621809E+01  0.14604100038E+03  0.12500515957E+03 0.  0.
         25    2    1    2    0    0 -0.60105807341E+02  0.45387905037E+02  0.77708080364E+02  0.16533827892E+03  0.12500172288E+03 0.  0.
          5    1    3    3  501    0  0.86610990577E+02 -0.17784341916E+02  0.37208186753E+02  0.96043144823E+02  0.47000000000E+01 0.  1.
         -5    1    3    3    0  501 -0.26505183236E+02 -0.27603563121E+02 -0.31831024572E+02  0.49997855561E+02  0.47000000000E+01 0.  1.
          5    1    4    4  502    0 -0.24699092591E+02  0.70512044916E+02  0.92713737050E+02  0.11916342010E+03  0.47000000000E+01 0. -1.
         -5    1    4    4    0  502 -0.35406714750E+02 -0.25124139879E+02 -0.15005656686E+02  0.46174858815E+02  0.47000000000E+01 0. -1.
<mgrwt>
<rscale>  0 0.30008982E+03</rscale>
<asrwt>0</asrwt>
<pdfrwt beam="1">  1       21 0.30343425E-01 0.30008982E+03</pdfrwt>
<pdfrwt beam="2">  1       21 0.17561080E-01 0.30008982E+03</pdfrwt>
<totfact> 0.29877690E+05</totfact>
</mgrwt>
</event>
<event>
 8    1  0.4760912E-006  0.2841408E+03  0.7546771E-02  0.1093449E+00
         21   -1    0    0  504  503  0.00000000000E+00  0.00000000000E+00  0.30134139883E+03  0.30134139883E+03  0.00000000000E+00 0.  1.
         21   -1    0    0  503  504 -0.00000000000E+00 -0.00000000000E+00 -0.66980484930E+02  0.66980484930E+02  0.00000000000E+00 0.  1.
         25    2    1    2    0    0 -0.51072218093E+02  0.40121297033E+02  0.14111494524E+03  0.19938733495E+03  0.12499516643E+03 0.  0.
         25    2    1    2    0    0  0.51072218093E+02 -0.40121297033E+02  0.93245968658E+02  0.16893454881E+03  0.12500392463E+03 0.  0.
          5    1    3    3  501    0  0.70315019099E+01 -0.14305062820E+02  0.11392082264E+03  0.11512654200E+03  0.47000000000E+01 0. -1.
         -5    1    3    3    0  501 -0.58103720003E+02  0.54426359853E+02  0.27194122606E+02  0.84260792955E+02  0.47000000000E+01 0. -1.
          5    1    4    4  502    0  0.84197054075E+02 -0.38738924153E+02  0.98169270925E+02  0.13508939231E+03  0.47000000000E+01 0. -1.
         -5    1    4    4    0  502 -0.33124835982E+02 -0.13823728802E+01 -0.49233022676E+01  0.33845156505E+02  0.47000000000E+01 0. -1.
<mgrwt>
<rscale>  0 0.28414076E+03</rscale>
<asrwt>0</asrwt>
<pdfrwt beam="1">  1       21 0.46360214E-01 0.28414076E+03</pdfrwt>
<pdfrwt beam="2">  1       21 0.10304690E-01 0.28414076E+03</pdfrwt>
<totfact> 0.33584145E+05</totfact>
</mgrwt>
</event>
<event>
 8    1  0.4760912E-006  0.3013541E+03  0.7546771E-02  0.1084566E+00
         21   -1    0    0  504  503  0.00000000000E+00  0.00000000000E+00  0.33725287251E+02  0.33725287251E+02  0.00000000000E+00 0. -1.
         21   -1    0    0  503  504 -0.00000000000E+00 -0.00000000000E+00 -0.67319133917E+03  0.67319133917E+03  0.00000000000E+00 0. -1.
         25    2    1    2    0    0 -0.29543187102E+02 -0.12258130308E+02 -0.13721259556E+03  0.18835587549E+03  0.12501031073E+03 0.  0.
         25    2    1    2    0    0  0.29543187102E+02  0.12258130308E+02 -0.50225345636E+03  0.51856075093E+03  0.12499462516E+03 0.  0.
          5    1    3    3  501    0 -0.35147713469E+01 -0.67280667512E+02 -0.64180191302E+02  0.93167745460E+02  0.47000000000E+01 0.  1.
         -5    1    3    3    0  501 -0.26028415755E+02  0.55022537204E+02 -0.73032404261E+02  0.95188130034E+02  0.47000000000E+01 0.  1.
          5    1    4    4  502    0  0.26490612034E+02  0.67662352595E+02 -0.30738230113E+03  0.31588908739E+03  0.47000000000E+01 0.  1.
         -5    1    4    4    0  502  0.30525750686E+01 -0.55404222287E+02 -0.19487115523E+03  0.20267166354E+03  0.47000000000E+01 0.  1.
<mgrwt>
<rscale>  0 0.30135409E+03</rscale>
<asrwt>0</asrwt>
<pdfrwt beam="1">  1       21 0.51885060E-02 0.30135409E+03</pdfrwt>
<pdfrwt beam="2">  1       21 0.10356789E+00 0.30135409E+03</pdfrwt>
<totfact> 0.18445216E+05</totfact>
</mgrwt>
</event>
<event>
 8    1  0.4760912E-006  0.2622712E+03  0.7546771E-02  0.1105786E+00
         21   -1    0    0  504  503  0.00000000000E+00  0.00000000000E+00  0.26397925798E+03  0.26397925798E+03  0.00000000000E+00 0.  1.
         21   -1    0    0  503  504 -0.00000000000E+00 -0.00000000000E+00 -0.65143528487E+02  0.65143528487E+02  0.00000000000E+00 0.  1.
         25    2    1    2    0    0 -0.34589468665E+02  0.19207646920E+02  0.10020429667E+03  0.16501511651E+03  0.12499489014E+03 0.  0.
         25    2    1    2    0    0  0.34589468665E+02 -0.19207646920E+02  0.98631432821E+02  0.16410766996E+03  0.12505120054E+03 0.  0.
          5    1    3    3  501    0  0.45769968393E+02  0.18700889423E+02  0.28803994572E+02  0.57414052071E+02  0.47000000000E+01 0.  1.
         -5    1    3    3    0  501 -0.80359437057E+02  0.50675749702E+00  0.71400302102E+02  0.10760106444E+03  0.47000000000E+01 0.  1.
          5    1    4    4  502    0 -0.23775328750E+02 -0.18780040936E+02 -0.16590159568E+02  0.34860860420E+02  0.47000000000E+01 0.  1.
         -5    1    4    4    0  502  0.58364797415E+02 -0.42760598441E+00  0.11522159239E+03  0.12924680954E+03  0.47000000000E+01 0.  1.
<mgrwt>
<rscale>  0 0.26227116E+03</rscale>
<asrwt>0</asrwt>
<pdfrwt beam="1">  1       21 0.40612193E-01 0.26227116E+03</pdfrwt>
<pdfrwt beam="2">  1       21 0.10022081E-01 0.26227116E+03</pdfrwt>
<totfact> 0.46550813E+05</totfact>
</mgrwt>
</event>
<event>
 8    1  0.4760912E-006  0.3841251E+03  0.7546771E-02  0.1049420E+00
         21   -1    0    0  504  503  0.00000000000E+00  0.00000000000E+00  0.45008840592E+02  0.45008840592E+02  0.00000000000E+00 0. -1.
         21   -1    0    0  503  504 -0.00000000000E+00 -0.00000000000E+00 -0.81957282014E+03  0.81957282014E+03  0.00000000000E+00 0. -1.
         25    2    1    2    0    0  0.13440251577E+03  0.20735891241E+02 -0.50572684427E+03  0.53840146510E+03  0.12498993228E+03 0.  0.
         25    2    1    2    0    0 -0.13440251577E+03 -0.20735891241E+02 -0.26883713527E+03  0.32618019563E+03  0.12500440508E+03 0.  0.
          5    1    3    3  501    0  0.15519088335E+03  0.12270543891E+02 -0.47615515247E+03  0.50097963606E+03  0.47000000000E+01 0.  1.
         -5    1    3    3    0  501 -0.20788367582E+02  0.84653473497E+01 -0.29571691804E+02  0.37421829039E+02  0.47000000000E+01 0.  1.
          5    1    4    4  502    0 -0.49506240869E+02 -0.63459126078E+02 -0.74393801683E+02  0.10970166952E+03  0.47000000000E+01 0. -1.
         -5    1    4    4    0  502 -0.84896274904E+02  0.42723234838E+02 -0.19444333359E+03  0.21647852611E+03  0.47000000000E+01 0. -1.
<mgrwt>
<rscale>  0 0.38412510E+03</rscale>
<asrwt>0</asrwt>
<pdfrwt beam="1">  1       21 0.69244374E-02 0.38412510E+03</pdfrwt>
<pdfrwt beam="2">  1       21 0.12608812E+00 0.38412510E+03</pdfrwt>
<totfact> 0.67090816E+04</totfact>
</mgrwt>
</event>
<event>
 8    1  0.4760912E-006  0.3417590E+03  0.7546771E-02  0.1066049E+00
         21   -1    0    0  504  503  0.00000000000E+00  0.00000000000E+00  0.34658244074E+02  0.34658244074E+02  0.00000000000E+00 0. -1.
         21   -1    0    0  503  504 -0.00000000000E+00 -0.00000000000E+00 -0.84250683501E+03  0.84250683501E+03  0.00000000000E+00 0. -1.
         25    2    1    2    0    0  0.11380572791E+03 -0.12851826353E+02 -0.45885778085E+03  0.48917487006E+03  0.12499870921E+03 0.  0.
         25    2    1    2    0    0 -0.11380572791E+03  0.12851826353E+02 -0.34899081009E+03  0.38799020903E+03  0.12499961451E+03 0.  0.
          5    1    3    3  501    0  0.89083610266E+02 -0.52784504211E+02 -0.40264726433E+03  0.41577518321E+03  0.47000000000E+01 0. -1.
         -5    1    3    3    0  501  0.24722117648E+02  0.39932677858E+02 -0.56210516519E+02  0.73399686847E+02  0.47000000000E+01 0. -1.
          5    1    4    4  502    0 -0.57839091334E+02 -0.11425704284E+01 -0.33049875949E+02  0.66791094120E+02  0.47000000000E+01 0. -1.
         -5    1    4    4    0  502 -0.55966636579E+02  0.13994396781E+02 -0.31594093414E+03  0.32119911491E+03  0.47000000000E+01 0. -1.
<mgrwt>
<rscale>  0 0.34175902E+03</rscale>
<asrwt>0</asrwt>
<pdfrwt beam="1">  1       21 0.53320383E-02 0.34175902E+03</pdfrwt>
<pdfrwt beam="2">  1       21 0.12961642E+00 0.34175902E+03</pdfrwt>
<totfact> 0.99526611E+04</totfact>
</mgrwt>
</event>
<event>
 8    1  0.4760912E-006  0.3030599E+03  0.7546771E-02  0.1083721E+00
         21   -1    0    0  504  503  0.00000000000E+00  0.00000000000E+00  0.72775788437E+03  0.72775788437E+03  0.00000000000E+00 0. -1.
         21   -1    0    0  503  504 -0.00000000000E+00 -0.00000000000E+00 -0.31550768638E+02  0.31550768638E+02  0.00000000000E+00 0. -1.
         25    2    1    2    0    0 -0.43315419761E+00  0.35249969585E+02  0.15251759254E+03  0.20032196735E+03  0.12499810634E+03 0.  0.
         25    2    1    2    0    0  0.43315419761E+00 -0.35249969585E+02  0.54368952319E+03  0.55898668566E+03  0.12500027656E+03 0.  0.
          5    1    3    3  501    0  0.57382774560E+02  0.17408096949E+02  0.11267176297E+03  0.12772173201E+03  0.47000000000E+01 0.  1.
         -5    1    3    3    0  501 -0.57815928758E+02  0.17841872636E+02  0.39845829569E+02  0.72600235340E+02  0.47000000000E+01 0.  1.
          5    1    4    4  502    0  0.41396868069E+02  0.30415598626E+02  0.24731521533E+03  0.25263751713E+03  0.47000000000E+01 0. -1.
         -5    1    4    4    0  502 -0.40963713871E+02 -0.65665568211E+02  0.29637430785E+03  0.30634916853E+03  0.47000000000E+01 0. -1.
<mgrwt>
<rscale>  0 0.30305987E+03</rscale>
<asrwt>0</asrwt>
<pdfrwt beam="1">  1       21 0.11196274E+00 0.30305987E+03</pdfrwt>
<pdfrwt beam="2">  1       21 0.48539650E-02 0.30305987E+03</pdfrwt>
<totfact> 0.17080944E+05</totfact>
</mgrwt>
</event>
<event>
 8    1  0.4760912E-006  0.3280492E+03  0.7546771E-02  0.1072003E+00
         21   -1    0    0  504  503  0.00000000000E+00  0.00000000000E+00  0.25343692606E+03  0.25343692606E+03  0.00000000000E+00 0. -1.
         21   -1    0    0  503  504 -0.00000000000E+00 -0.00000000000E+00 -0.10615684517E+03  0.10615684517E+03  0.00000000000E+00 0. -1.
         25    2    1    2    0    0  0.23469065297E+02 -0.77888359241E+02  0.14847163991E+03  0.21044131961E+03  0.12499731041E+03 0.  0.
         25    2    1    2    0    0 -0.23469065297E+02  0.77888359241E+02 -0.11915590186E+01  0.14915245162E+03  0.12501056147E+03 0.  0.
          5    1    3    3  501    0  0.34525443061E+02  0.25930411088E+02  0.56184865724E+02  0.71015643165E+02  0.47000000000E+01 0. -1.
         -5    1    3    3    0  501 -0.11056377764E+02 -0.10381877033E+03  0.92286774190E+02  0.13942567645E+03  0.47000000000E+01 0. -1.
          5    1    4    4  502    0 -0.18748060999E+02  0.85224675875E+02  0.47499177987E+02  0.99463546482E+02  0.47000000000E+01 0.  1.
         -5    1    4    4    0  502 -0.47210042976E+01 -0.73363166335E+01 -0.48690737006E+02  0.49688905135E+02  0.47000000000E+01 0.  1.
<mgrwt>
<rscale>  0 0.32804917E+03</rscale>
<asrwt>0</asrwt>
<pdfrwt beam="1">  1       21 0.38990296E-01 0.32804917E+03</pdfrwt>
<pdfrwt beam="2">  1       21 0.16331822E-01 0.32804917E+03</pdfrwt>
<totfact> 0.20574708E+05</totfact>
</mgrwt>
</event>
<event>
 8    1  0.4760912E-006  0.4813360E+03  0.7546771E-02  0.1018769E+00
         21   -1    0    0  504  503  0.00000000000E+00  0.00000000000E+00  0.15444529210E+03  0.15444529210E+03  0.00000000000E+00 0.  1.
         21   -1    0    0  503  504 -0.00000000000E+00 -0.00000000000E+00 -0.37502657603E+03  0.37502657603E+03  0.00000000000E+00 0.  1.
         25    2    1    2    0    0 -0.19221239005E+03 -0.19904913328E+02 -0.18771410269E+03  0.29698959511E+03  0.12499770713E+03 0.  0.
         25    2    1    2    0    0  0.19221239005E+03  0.19904913328E+02 -0.32867181237E+02  0.23248227303E+03  0.12500378876E+03 0.  0.
          5    1    3    3  501    0 -0.21469896244E+02  0.30687608241E+02 -0.80914930903E+02  0.89286067151E+02  0.47000000000E+01 0.  1.
         -5    1    3    3    0  501 -0.17074249381E+03 -0.50592521569E+02 -0.10679917179E+03  0.20770352795E+03  0.47000000000E+01 0.  1.
          5    1    4    4  502    0  0.25778911998E+02  0.36970525336E+02  0.29272088645E+02  0.53947356015E+02  0.47000000000E+01 0. -1.
         -5    1    4    4    0  502  0.16643347805E+03 -0.17065612007E+02 -0.62139269883E+02  0.17853491701E+03  0.47000000000E+01 0. -1.
<mgrwt>
<rscale>  0 0.48133601E+03</rscale>
<asrwt>0</asrwt>
<pdfrwt beam="1">  1       21 0.23760814E-01 0.48133601E+03</pdfrwt>
<pdfrwt beam="2">  1       21 0.57696396E-01 0.48133601E+03</pdfrwt>
<totfact> 0.42868509E+04</totfact>
</mgrwt>
</event>
<event>
 8    1  0.4760912E-006  0.3674649E+03  0.7546771E-02  0.1055667E+00
         21   -1    0    0  504  503  0.00000000000E+00  0.00000000000E+00  0.10919695120E+04  0.10919695120E+04  0.00000000000E+00 0.  1.
         21   -1    0    0  503  504 -0.00000000000E+00 -0.00000000000E+00 -0.30914434548E+02  0.30914434548E+02  0.00000000000E+00 0.  1.
         25    2    1    2    0    0  0.58140586410E+02  0.17723625940E+02  0.16332300439E+03  0.21445629898E+03  0.12499058247E+03 0.  0.
         25    2    1    2    0    0 -0.58140586410E+02 -0.17723625940E+02  0.89773207304E+03  0.90842764754E+03  0.12499384445E+03 0.  0.
          5    1    3    3  501    0  0.33327025110E+02  0.43877723051E+02  0.91462512486E+01  0.56050772472E+02  0.47000000000E+01 0. -1.
         -5    1    3    3    0  501  0.24813561300E+02 -0.26154097111E+02  0.15417675314E+03  0.15840552651E+03  0.47000000000E+01 0. -1.
          5    1    4    4  502    0 -0.18699264258E+02 -0.67865404529E+02  0.35530766576E+03  0.36224439674E+03  0.47000000000E+01 0. -1.
         -5    1    4    4    0  502 -0.39441322152E+02  0.50141778588E+02  0.54242440727E+03  0.54618325080E+03  0.47000000000E+01 0. -1.
<mgrwt>
<rscale>  0 0.36746494E+03</rscale>
<asrwt>0</asrwt>
<pdfrwt beam="1">  1       21 0.16799528E+00 0.36746494E+03</pdfrwt>
<pdfrwt beam="2">  1       21 0.47560677E-02 0.36746494E+03</pdfrwt>
<totfact> 0.59913904E+04</totfact>
</mgrwt>
</event>
<event>
 8    1  0.4760912E-006  0.2805096E+03  0.7546771E-02  0.1095411E+00
         21   -1    0    0  504  503  0.00000000000E+00  0.00000000000E+00  0.79599545734E+02  0.79599545734E+02  0.00000000000E+00 0.  1.
         21   -1    0    0  503  504 -0.00000000000E+00 -0.00000000000E+00 -0.24712971945E+03  0.24712971945E+03  0.00000000000E+00 0.  1.
         25    2    1    2    0    0 -0.33576782387E+02 -0.34924878555E+02 -0.13177745207E+03  0.18798593857E+03  0.12500507497E+03 0.  0.
         25    2    1    2    0    0  0.33576782387E+02  0.34924878555E+02 -0.35752721641E+02  0.13874332661E+03  0.12499722443E+03 0.  0.
          5    1    3    3  501    0 -0.49236634465E+02 -0.75220571545E+02 -0.80662811934E+02  0.12087580315E+03  0.47000000000E+01 0. -1.
         -5    1    3    3    0  501  0.15659852079E+02  0.40295692990E+02 -0.51114640140E+02  0.67110135429E+02  0.47000000000E+01 0. -1.
          5    1    4    4  502    0  0.70272023023E+02  0.57005400960E+02 -0.28986026310E+02  0.95131764830E+02  0.47000000000E+01 0.  1.
         -5    1    4    4    0  502 -0.36695240637E+02 -0.22080522405E+02 -0.67666953314E+01  0.43611561778E+02  0.47000000000E+01 0.  1.
<mgrwt>
<rscale>  0 0.28050963E+03</rscale>
<asrwt>0</asrwt>
<pdfrwt beam="1">  1       21 0.12246084E-01 0.28050963E+03</pdfrwt>
<pdfrwt beam="2">  1       21 0.38019956E-01 0.28050963E+03</pdfrwt>
<totfact> 0.37035152E+05</totfact>
</mgrwt>
</event>
<event>
 8    1  0.4760912E-006  0.3076431E+03  0.7546771E-02  0.1081481E+00
         21   -1    0    0  504  503  0.00000000000E+00  0.00000000000E+00  0.40896367807E+03  0.40896367807E+03  0.00000000000E+00 0. -1.
         21   -1    0    0  503  504 -0.00000000000E+00 -0.00000000000E+00 -0.57856173795E+02  0.57856173795E+02  0.00000000000E+00 0. -1.
         25    2    1    2    0    0  0.58054961978E+02 -0.10139191077E+02  0.73057472285E+02  0.15632131692E+03  0.12500311221E+03 0.  0.
         25    2    1    2    0    0 -0.58054961978E+02  0.10139191077E+02  0.27805003199E+03  0.31049853494E+03  0.12499735240E+03 0.  0.
          5    1    3    3  501    0 -0.17039300844E+02  0.22116198896E+01  0.77908463287E+02  0.79919007048E+02  0.47000000000E+01 0.  1.
         -5    1    3    3    0  501  0.75094262822E+02 -0.12350810967E+02 -0.48509910019E+01  0.76402309874E+02  0.47000000000E+01 0.  1.
          5    1    4    4  502    0 -0.95799931111E+02 -0.45009548650E+01  0.21437226176E+03  0.23489453379E+03  0.47000000000E+01 0. -1.
         -5    1    4    4    0  502  0.37744969133E+02  0.14640145942E+02  0.63677770232E+02  0.75604001149E+02  0.47000000000E+01 0. -1.
<mgrwt>
<rscale>  0 0.30764313E+03</rscale>
<asrwt>0</asrwt>
<pdfrwt beam="1">  1       21 0.62917487E-01 0.30764313E+03</pdfrwt>
<pdfrwt beam="2">  1       21 0.89009501E-02 0.30764313E+03</pdfrwt>
<totfact> 0.22602733E+05</totfact>
</mgrwt>
</event>
<event>
 8    1  0.4760912E-006  0.5666800E+03  0.7546771E-02  0.9977052E-01
         21   -1    0    0  504  503  0.00000000000E+00  0.00000000000E+00  0.80739938892E+02  0.80739938892E+02  0.00000000000E+00 0.  1.
         21   -1    0    0  503  504 -0.00000000000E+00 -0.00000000000E+00 -0.99432262711E+03  0.99432262711E+03  0.00000000000E+00 0.  1.
         25    2    1    2    0    0  0.23904508463E+03 -0.57135242915E+02 -0.33313509320E+03  0.43244899693E+03  0.12500462454E+03 0.  0.
         25    2    1    2    0    0 -0.23904508463E+03  0.57135242915E+02 -0.58044759502E+03  0.64261356907E+03  0.12500320046E+03 0.  0.
          5    1    3    3  501    0  0.10544314923E+03  0.26148363362E+02 -0.19349822337E+03  0.22195866073E+03  0.47000000000E+01 0.  1.
         -5    1    3    3    0  501  0.13360193540E+03 -0.83283606277E+02 -0.13963686983E+03  0.21049033620E+03  0.47000000000E+01 0.  1.
          5    1    4    4  502    0 -0.55642155080E+02  0.66425035827E+02 -0.24865741580E+03  0.26336464311E+03  0.47000000000E+01 0. -1.
         -5    1    4    4    0  502 -0.18340292955E+03 -0.92897929111E+01 -0.33179017922E+03  0.37924892596E+03  0.47000000000E+01 0. -1.
<mgrwt>
<rscale>  0 0.56667997E+03</rscale>
<asrwt>0</asrwt>
<pdfrwt beam="1">  1       21 0.12421529E-01 0.56667997E+03</pdfrwt>
<pdfrwt beam="2">  1       21 0.15297271E+00 0.56667997E+03</pdfrwt>
<totfact> 0.13453913E+04</totfact>
</mgrwt>
</event>
<event>
 8    1  0.4760912E-006  0.3605564E+03  0.7546771E-02  0.1058364E+00
         21   -1    0    0  504  503  0.00000000000E+00  0.00000000000E+00  0.36004328224E+03  0.36004328224E+03  0.00000000000E+00 0.  1.
         21   -1    0    0  503  504 -0.00000000000E+00 -0.00000000000E+00 -0.90267544357E+02  0.90267544357E+02  0.00000000000E+00 0.  1.
         25    2    1    2    0    0 -0.56391045984E+02  0.11698608445E+03  0.13914802473E+03  0.22771022172E+03  0.12499631301E+03 0.  0.
         25    2    1    2    0    0  0.56391045984E+02 -0.11698608445E+03  0.13062771316E+03  0.22260060488E+03  0.12498694263E+03 0.  0.
          5    1    3    3  501    0 -0.21779354399E+02  0.81960153414E+02  0.15416639958E+03  0.17601470332E+03  0.47000000000E+01 0.  1.
         -5    1    3    3    0  501 -0.34611691584E+02  0.35025931034E+02 -0.15018374851E+02  0.51695518397E+02  0.47000000000E+01 0.  1.
          5    1    4    4  502    0  0.43350326196E+02 -0.70514632447E+02 -0.37677950620E+00  0.82908359851E+02  0.47000000000E+01 0. -1.
         -5    1    4    4    0  502  0.13040719788E+02 -0.46471452002E+02  0.13100449267E+03  0.13969224503E+03  0.47000000000E+01 0. -1.
<mgrwt>
<rscale>  0 0.36055636E+03</rscale>
<asrwt>0</asrwt>
<pdfrwt beam="1">  1       21 0.55391273E-01 0.36055636E+03</pdfrwt>
<pdfrwt beam="2">  1       21 0.13887315E-01 0.36055636E+03</pdfrwt>
<totfact> 0.13218942E+05</totfact>
</mgrwt>
</event>
<event>
 8    1  0.4760912E-006  0.3017427E+03  0.7546771E-02  0.1084373E+00
         21   -1    0    0  504  503  0.00000000000E+00  0.00000000000E+00  0.12898655795E+04  0.12898655795E+04  0.00000000000E+00 0. -1.
         21   -1    0    0  503  504 -0.00000000000E+00 -0.00000000000E+00 -0.17646932284E+02  0.17646932284E+02  0.00000000000E+00 0. -1.
         25    2    1    2    0    0 -0.10316807502E+02  0.63426716274E+02  0.87370369467E+03  0.88493859110E+03  0.12501511544E+03 0.  0.
         25    2    1    2    0    0  0.10316807502E+02 -0.63426716274E+02  0.39851495252E+03  0.42257392066E+03  0.12500066473E+03 0.  0.
          5    1    3    3  501    0 -0.57751123241E+02  0.66784542910E+02  0.66392098752E+03  0.66978245354E+03  0.47000000000E+01 0. -1.
         -5    1    3    3    0  501  0.47434315739E+02 -0.33578266361E+01  0.20978270715E+03  0.21515613756E+03  0.47000000000E+01 0. -1.
          5    1    4    4  502    0 -0.60386305696E+01 -0.36634353540E+02  0.19440547812E+02  0.42173046104E+02  0.47000000000E+01 0.  1.
         -5    1    4    4    0  502  0.16355438072E+02 -0.26792362733E+02  0.37907440471E+03  0.38040087456E+03  0.47000000000E+01 0.  1.
<mgrwt>
<rscale>  0 0.30174274E+03</rscale>
<asrwt>0</asrwt>
<pdfrwt beam="1">  1       21 0.19844078E+00 0.30174274E+03</pdfrwt>
<pdfrwt beam="2">  1       21 0.27149137E-02 0.30174274E+03</pdfrwt>
<totfact> 0.97319292E+04</totfact>
</mgrwt>
</event>
<event>
 8    1  0.4760912E-006  0.3949725E+03  0.7546771E-02  0.1045535E+00
         21   -1    0    0  504  503  0.00000000000E+00  0.00000000000E+00  0.29794082706E+03  0.29794082706E+03  0.00000000000E+00 0.  1.
         21   -1    0    0  503  504 -0.00000000000E+00 -0.00000000000E+00 -0.13090121440E+03  0.13090121440E+03  0.00000000000E+00 0.  1.
         25    2    1    2    0    0 -0.14447321551E+03  0.45155347918E+01  0.13757234946E+03  0.23546469503E+03  0.12499828484E+03 0.  0.
         25    2    1    2    0    0  0.14447321551E+03 -0.45155347918E+01  0.29467263195E+02  0.19337734643E+03  0.12503430912E+03 0.  0.
          5    1    3    3  501    0  0.59862334429E+01  0.33987034826E+02  0.42709982276E+02  0.55110671499E+02  0.47000000000E+01 0. -1.
         -5    1    3    3    0  501 -0.15045944896E+03 -0.29471500034E+02  0.94862367186E+02  0.18035402353E+03  0.47000000000E+01 0. -1.
          5    1    4    4  502    0  0.10298126126E+03  0.36818572602E+02 -0.26070657577E+02  0.11252784832E+03  0.47000000000E+01 0. -1.
         -5    1    4    4    0  502  0.41491954250E+02 -0.41334107394E+02  0.55537920772E+02  0.80849498114E+02  0.47000000000E+01 0. -1.
<mgrwt>
<rscale>  0 0.39497249E+03</rscale>
<asrwt>0</asrwt>
<pdfrwt beam="1">  1       21 0.45837050E-01 0.39497249E+03</pdfrwt>
<pdfrwt beam="2">  1       21 0.20138648E-01 0.39497249E+03</pdfrwt>
<totfact> 0.98013549E+04</totfact>
</mgrwt>
</event>
<event>
 8    1  0.4760912E-006  0.4920445E+03  0.7546771E-02  0.1015877E+00
         21   -1    0    0  504  503  0.00000000000E+00  0.00000000000E+00  0.90357067975E+03  0.90357067975E+03  0.00000000000E+00 0. -1.
         21   -1    0    0  503  504 -0.00000000000E+00 -0.00000000000E+00 -0.66986409140E+02  0.66986409140E+02  0.00000000000E+00 0. -1.
         25    2    1    2    0    0  0.11550060059E+03  0.13624895271E+03  0.19344527821E+03  0.29147019962E+03  0.12501854166E+03 0.  0.
         25    2    1    2    0    0 -0.11550060059E+03 -0.13624895271E+03  0.64313899240E+03  0.67908688927E+03  0.12500829484E+03 0.  0.
          5    1    3    3  501    0  0.75974926373E+02  0.15565901558E+03  0.14616770529E+03  0.22669143486E+03  0.47000000000E+01 0. -1.
         -5    1    3    3    0  501  0.39525674213E+02 -0.19410062877E+02  0.47277572918E+02  0.64778764761E+02  0.47000000000E+01 0. -1.
          5    1    4    4  502    0 -0.84909228517E+02 -0.20509936082E+02  0.38029498245E+03  0.39022634232E+03  0.47000000000E+01 0. -1.
         -5    1    4    4    0  502 -0.30591372070E+02 -0.11573901662E+03  0.26284400995E+03  0.28886054694E+03  0.47000000000E+01 0. -1.
<mgrwt>
<rscale>  0 0.49204453E+03</rscale>
<asrwt>0</asrwt>
<pdfrwt beam="1">  1       21 0.13901087E+00 0.49204453E+03</pdfrwt>
<pdfrwt beam="2">  1       21 0.10305602E-01 0.49204453E+03</pdfrwt>
<totfact> 0.24947305E+04</totfact>
</mgrwt>
</event>
<event>
 8    1  0.4760912E-006  0.3700246E+03  0.7546771E-02  0.1054684E+00
         21   -1    0    0  504  503  0.00000000000E+00  0.00000000000E+00  0.15259994210E+03  0.15259994210E+03  0.00000000000E+00 0.  1.
         21   -1    0    0  503  504 -0.00000000000E+00 -0.00000000000E+00 -0.22430906219E+03  0.22430906219E+03  0.00000000000E+00 0.  1.
         25    2    1    2    0    0 -0.83638494803E+01  0.11248956719E+03  0.42255184240E+02  0.17359732207E+03  0.12500669154E+03 0.  0.
         25    2    1    2    0    0  0.83638494803E+01 -0.11248956719E+03 -0.11396430433E+03  0.20331168222E+03  0.12499568296E+03 0.  0.
          5    1    3    3  501    0  0.39600712623E+02  0.59987778377E+02 -0.24362583732E+02  0.76041932386E+02  0.47000000000E+01 0.  1.
         -5    1    3    3    0  501 -0.47964562103E+02  0.52501788816E+02  0.66617767971E+02  0.97555389683E+02  0.47000000000E+01 0.  1.
          5    1    4    4  502    0 -0.28994020314E+02 -0.92390153455E+02 -0.18438843561E+02  0.98684723343E+02  0.47000000000E+01 0.  1.
         -5    1    4    4    0  502  0.37357869794E+02 -0.20099413739E+02 -0.95525460768E+02  0.10462695887E+03  0.47000000000E+01 0.  1.
<mgrwt>
<rscale>  0 0.37002459E+03</rscale>
<asrwt>0</asrwt>
<pdfrwt beam="1">  1       21 0.23476914E-01 0.37002459E+03</pdfrwt>
<pdfrwt beam="2">  1       21 0.34509086E-01 0.37002459E+03</pdfrwt>
<totfact> 0.13155680E+05</totfact>
</mgrwt>
</event>
<event>
 8    1  0.4760912E-006  0.2641010E+03  0.7546771E-02  0.1104704E+00
         21   -1    0    0  504  503  0.00000000000E+00  0.00000000000E+00  0.39606175026E+03  0.39606175026E+03  0.00000000000E+00 0. -1.
         21   -1    0    0  503  504 -0.00000000000E+00 -0.00000000000E+00 -0.44026817142E+02  0.44026817142E+02  0.00000000000E+00 0. -1.
         25    2    1    2    0    0 -0.40652684735E+02 -0.35073307912E+01  0.19630839254E+03  0.23627226429E+03  0.12499062264E+03 0.  0.
         25    2    1    2    0    0  0.40652684735E+02  0.35073307912E+01  0.15572654058E+03  0.20381630311E+03  0.12500155130E+03 0.  0.
          5    1    3    3  501    0 -0.40564087225E+02 -0.28626860831E+02  0.20366264272E+03  0.20967952779E+03  0.47000000000E+01 0.  1.
         -5    1    3    3    0  501 -0.88597509670E-01  0.25119530039E+02 -0.73542501835E+01  0.26592736502E+02  0.47000000000E+01 0.  1.
          5    1    4    4  502    0 -0.16192138643E+02 -0.11346941385E+02  0.14180412277E+03  0.14325305465E+03  0.47000000000E+01 0. -1.
         -5    1    4    4    0  502  0.56844823378E+02  0.14854272176E+02  0.13922417816E+02  0.60563248465E+02  0.47000000000E+01 0. -1.
<mgrwt>
<rscale>  0 0.26410103E+03</rscale>
<asrwt>0</asrwt>
<pdfrwt beam="1">  1       21 0.60932575E-01 0.26410103E+03</pdfrwt>
<pdfrwt beam="2">  1       21 0.67733567E-02 0.26410103E+03</pdfrwt>
<totfact> 0.39485178E+05</totfact>
</mgrwt>
</event>
<event>
 8    1  0.4760912E-006  0.2529761E+03  0.7546771E-02  0.1111438E+00
         21   -1    0    0  504  503  0.00000000000E+00  0.00000000000E+00  0.21627751391E+02  0.21627751391E+02  0.00000000000E+00 0. -1.
         21   -1    0    0  503  504 -0.00000000000E+00 -0.00000000000E+00 -0.73975475037E+03  0.73975475037E+03  0.00000000000E+00 0. -1.
         25    2    1    2    0    0  0.77707299996E+01 -0.88626416509E+01 -0.40530874616E+03  0.42431018496E+03  0.12500009073E+03 0.  0.
         25    2    1    2    0    0 -0.77707299996E+01  0.88626416509E+01 -0.31281825282E+03  0.33707231680E+03  0.12499422706E+03 0.  0.
          5    1    3    3  501    0 -0.41766947072E+01  0.21397734060E+02 -0.38505458297E+03  0.38569992179E+03  0.47000000000E+01 0.  1.
         -5    1    3    3    0  501  0.11947424707E+02 -0.30260375711E+02 -0.20254163190E+02  0.38610263167E+02  0.47000000000E+01 0.  1.
          5    1    4    4  502    0  0.49464876808E+02 -0.21864744108E+02 -0.91727118008E+02  0.10658703134E+03  0.47000000000E+01 0.  1.
         -5    1    4    4    0  502 -0.57235606808E+02  0.30727385759E+02 -0.22109113481E+03  0.23048528546E+03  0.47000000000E+01 0.  1.
<mgrwt>
<rscale>  0 0.25297614E+03</rscale>
<asrwt>0</asrwt>
<pdfrwt beam="1">  1       21 0.33273464E-02 0.25297614E+03</pdfrwt>
<pdfrwt beam="2">  1       21 0.11380842E+00 0.25297614E+03</pdfrwt>
<totfact> 0.31478834E+05</totfact>
</mgrwt>
</event>
<event>
 8    1  0.4760912E-006  0.2768885E+03  0.7546771E-02  0.1097401E+00
         21   -1    0    0  504  503  0.00000000000E+00  0.00000000000E+00  0.14683954121E+02  0.14683954121E+02  0.00000000000E+00 0.  1.
         21   -1    0    0  503  504 -0.00000000000E+00 -0.00000000000E+00 -0.13052895178E+04  0.13052895178E+04  0.00000000000E+00 0.  1.
         25    2    1    2    0    0  0.38379235097E+02  0.26284037081E+02 -0.82225654787E+03  0.83300397108E+03  0.12500387607E+03 0.  0.
         25    2    1    2    0    0 -0.38379235097E+02 -0.26284037081E+02 -0.46834901577E+03  0.48696950080E+03  0.12499871137E+03 0.  0.
          5    1    3    3  501    0 -0.45971487343E+02  0.11070822190E+02 -0.28625266655E+03  0.29016998442E+03  0.47000000000E+01 0.  1.
         -5    1    3    3    0  501  0.84350722440E+02  0.15213214891E+02 -0.53600388132E+03  0.54283398666E+03  0.47000000000E+01 0.  1.
          5    1    4    4  502    0  0.40910758889E+02 -0.88642387279E+01 -0.25861950203E+03  0.26202748282E+03  0.47000000000E+01 0.  1.
         -5    1    4    4    0  502 -0.79289993986E+02 -0.17419798354E+02 -0.20972951374E+03  0.22494201799E+03  0.47000000000E+01 0.  1.
<mgrwt>
<rscale>  0 0.27688851E+03</rscale>
<asrwt>0</asrwt>
<pdfrwt beam="1">  1       21 0.22590703E-02 0.27688851E+03</pdfrwt>
<pdfrwt beam="2">  1       21 0.20081373E+00 0.27688851E+03</pdfrwt>
<totfact> 0.12854308E+05</totfact>
</mgrwt>
</event>
<event>
 8    1  0.4760912E-006  0.3003432E+03  0.7546771E-02  0.1085069E+00
         21   -1    0    0  504  503  0.00000000000E+00  0.00000000000E+00  0.38258698533E+03  0.38258698533E+03  0.00000000000E+00 0.  1.
         21   -1    0    0  503  504 -0.00000000000E+00 -0.00000000000E+00 -0.58944784201E+02  0.58944784201E+02  0.00000000000E+00 0.  1.
         25    2    1    2    0    0  0.33742563146E+02 -0.15392290366E+02  0.52294201740E+02  0.14048180859E+03  0.12499988735E+03 0.  0.
         25    2    1    2    0    0 -0.33742563146E+02  0.15392290366E+02  0.27134799939E+03  0.30104996094E+03  0.12500343611E+03 0.  0.
          5    1    3    3  501    0  0.33674834523E+02  0.10900912918E+02 -0.34512274196E+02  0.49658951386E+02  0.47000000000E+01 0. -1.
         -5    1    3    3    0  501  0.67728622138E-01 -0.26293203284E+02  0.86806475935E+02  0.90822857202E+02  0.47000000000E+01 0. -1.
          5    1    4    4  502    0  0.85521671266E+01  0.60722632208E+02  0.87337220791E+02  0.10681880808E+03  0.47000000000E+01 0. -1.
         -5    1    4    4    0  502 -0.42294730272E+02 -0.45330341842E+02  0.18401077860E+03  0.19423115286E+03  0.47000000000E+01 0. -1.
<mgrwt>
<rscale>  0 0.30034319E+03</rscale>
<asrwt>0</asrwt>
<pdfrwt beam="1">  1       21 0.58859535E-01 0.30034319E+03</pdfrwt>
<pdfrwt beam="2">  1       21 0.90684286E-02 0.30034319E+03</pdfrwt>
<totfact> 0.25323833E+05</totfact>
</mgrwt>
</event>
<event>
 8    1  0.4760912E-006  0.2932770E+03  0.7546771E-02  0.1088650E+00
         21   -1    0    0  504  503  0.00000000000E+00  0.00000000000E+00  0.12564551540E+03  0.12564551540E+03  0.00000000000E+00 0.  1.
         21   -1    0    0  503  504 -0.00000000000E+00 -0.00000000000E+00 -0.17113900283E+03  0.17113900283E+03  0.00000000000E+00 0.  1.
         25    2    1    2    0    0 -0.17942164343E+02  0.56355238305E+02 -0.72116761075E+02  0.15596081087E+03  0.12500045261E+03 0.  0.
         25    2    1    2    0    0  0.17942164343E+02 -0.56355238305E+02  0.26623273653E+02  0.14082370736E+03  0.12499873483E+03 0.  0.
          5    1    3    3  501    0  0.49558763351E+01  0.49711470183E+02 -0.10423558787E+03  0.11568465221E+03  0.47000000000E+01 0.  1.
         -5    1    3    3    0  501 -0.22898040678E+02  0.66437681213E+01  0.32118826795E+02  0.40276158661E+02  0.47000000000E+01 0.  1.
          5    1    4    4  502    0  0.23895886791E+02 -0.74263872741E+02  0.62461485462E+02  0.10004830516E+03  0.47000000000E+01 0.  1.
         -5    1    4    4    0  502 -0.59537224480E+01  0.17908634437E+02 -0.35838211810E+02  0.40775402194E+02  0.47000000000E+01 0.  1.
<mgrwt>
<rscale>  0 0.29327699E+03</rscale>
<asrwt>0</asrwt>
<pdfrwt beam="1">  1       21 0.19330079E-01 0.29327699E+03</pdfrwt>
<pdfrwt beam="2">  1       21 0.26329077E-01 0.29327699E+03</pdfrwt>
<totfact> 0.32992229E+05</totfact>
</mgrwt>
</event>
<event>
 8    1  0.4760912E-006  0.2945912E+03  0.7546771E-02  0.1087976E+00
         21   -1    0    0  504  503  0.00000000000E+00  0.00000000000E+00  0.39885568871E+02  0.39885568871E+02  0.00000000000E+00 0. -1.
         21   -1    0    0  503  504 -0.00000000000E+00 -0.00000000000E+00 -0.54395581560E+03  0.54395581560E+03  0.00000000000E+00 0. -1.
         25    2    1    2    0    0  0.62790859431E+02 -0.25868219787E+02 -0.17641999653E+03  0.22664192126E+03  0.12502275182E+03 0.  0.
         25    2    1    2    0    0 -0.62790859431E+02  0.25868219787E+02 -0.32765025021E+03  0.35719946322E+03  0.12499965296E+03 0.  0.
          5    1    3    3  501    0  0.54470331434E+02 -0.74427506120E+02 -0.10625368193E+03  0.14077785905E+03  0.47000000000E+01 0.  1.
         -5    1    3    3    0  501  0.83205279966E+01  0.48559286333E+02 -0.70166314594E+02  0.85864062209E+02  0.47000000000E+01 0.  1.
          5    1    4    4  502    0  0.10318346704E+02  0.13877138421E+02 -0.24675468529E+03  0.24740454313E+03  0.47000000000E+01 0.  1.
         -5    1    4    4    0  502 -0.73109206135E+02  0.11991081366E+02 -0.80895564918E+02  0.10979492009E+03  0.47000000000E+01 0.  1.
<mgrwt>
<rscale>  0 0.29459115E+03</rscale>
<asrwt>0</asrwt>
<pdfrwt beam="1">  1       21 0.61362409E-02 0.29459115E+03</pdfrwt>
<pdfrwt beam="2">  1       21 0.83685517E-01 0.29459115E+03</pdfrwt>
<totfact> 0.22900458E+05</totfact>
</mgrwt>
</event>
<event>
 8    1  0.4760912E-006  0.3005338E+03  0.7546771E-02  0.1084974E+00
         21   -1    0    0  504  503  0.00000000000E+00  0.00000000000E+00  0.20041875973E+03  0.20041875973E+03  0.00000000000E+00 0.  1.
         21   -1    0    0  503  504 -0.00000000000E+00 -0.00000000000E+00 -0.11266479404E+03  0.11266479404E+03  0.00000000000E+00 0.  1.
         25    2    1    2    0    0  0.41623752404E+01  0.77031183400E+02  0.76902415768E+02  0.16579792814E+03  0.12499537128E+03 0.  0.
         25    2    1    2    0    0 -0.41623752404E+01 -0.77031183400E+02  0.10851549926E+02  0.14728562563E+03  0.12499668315E+03 0.  0.
          5    1    3    3  501    0 -0.47043945352E+02  0.74949392895E+02  0.71856153611E+02  0.11408742745E+03  0.47000000000E+01 0. -1.
         -5    1    3    3    0  501  0.51206320593E+02  0.20817905046E+01  0.50462621573E+01  0.51710500695E+02  0.47000000000E+01 0. -1.
          5    1    4    4  502    0 -0.58007672621E+02 -0.15089550866E+02 -0.13355294230E+02  0.61587649024E+02  0.47000000000E+01 0.  1.
         -5    1    4    4    0  502  0.53845297381E+02 -0.61941632534E+02  0.24206844156E+02  0.85697976610E+02  0.47000000000E+01 0.  1.
<mgrwt>
<rscale>  0 0.30053378E+03</rscale>
<asrwt>0</asrwt>
<pdfrwt beam="1">  1       21 0.30833655E-01 0.30053378E+03</pdfrwt>
<pdfrwt beam="2">  1       21 0.17333045E-01 0.30053378E+03</pdfrwt>
<totfact> 0.29658138E+05</totfact>
</mgrwt>
</event>
<event>
 8    1  0.4760912E-006  0.3101032E+03  0.7546771E-02  0.1080296E+00
         21   -1    0    0  504  503  0.00000000000E+00  0.00000000000E+00  0.58632743597E+02  0.58632743597E+02  0.00000000000E+00 0. -1.
         21   -1    0    0  503  504 -0.00000000000E+00 -0.00000000000E+00 -0.41002672722E+03  0.41002672722E+03  0.00000000000E+00 0. -1.
         25    2    1    2    0    0 -0.34403051932E+02 -0.18600974420E+02 -0.50281723206E+02  0.14029431040E+03  0.12499870243E+03 0.  0.
         25    2    1    2    0    0  0.34403051932E+02  0.18600974420E+02 -0.30111226042E+03  0.32836516042E+03  0.12500207587E+03 0.  0.
          5    1    3    3  501    0 -0.60858183741E+02  0.34690321540E+02 -0.18168100914E+02  0.72521078506E+02  0.47000000000E+01 0. -1.
         -5    1    3    3    0  501  0.26455131809E+02 -0.53291295961E+02 -0.32113622292E+02  0.67773231891E+02  0.47000000000E+01 0. -1.
          5    1    4    4  502    0 -0.21083673389E+02  0.51808764464E+02 -0.20412884728E+03  0.21170579976E+03  0.47000000000E+01 0.  1.
         -5    1    4    4    0  502  0.55486725320E+02 -0.33207790043E+02 -0.96983413134E+02  0.11665936066E+03  0.47000000000E+01 0.  1.
<mgrwt>
<rscale>  0 0.31010316E+03</rscale>
<asrwt>0</asrwt>
<pdfrwt beam="1">  1       21 0.90204217E-02 0.31010316E+03</pdfrwt>
<pdfrwt beam="2">  1       21 0.63081037E-01 0.31010316E+03</pdfrwt>
<totfact> 0.21938011E+05</totfact>
</mgrwt>
</event>
<event>
 8    1  0.4760912E-006  0.2660585E+03  0.7546771E-02  0.1103557E+00
         21   -1    0    0  504  503  0.00000000000E+00  0.00000000000E+00  0.75519419836E+02  0.75519419836E+02  0.00000000000E+00 0. -1.
         21   -1    0    0  503  504 -0.00000000000E+00 -0.00000000000E+00 -0.23433412103E+03  0.23433412103E+03  0.00000000000E+00 0. -1.
         25    2    1    2    0    0  0.38159416694E+02 -0.22275119252E+00 -0.50565213665E+02  0.14014347421E+03  0.12500864702E+03 0.  0.
         25    2    1    2    0    0 -0.38159416694E+02  0.22275119252E+00 -0.10824948753E+03  0.16971006665E+03  0.12500945754E+03 0.  0.
          5    1    3    3  501    0 -0.23095014125E+02  0.32401388727E+02 -0.57669888140E+02  0.70222045449E+02  0.47000000000E+01 0.  1.
         -5    1    3    3    0  501  0.61254430819E+02 -0.32624139920E+02  0.71046744755E+01  0.69921428760E+02  0.47000000000E+01 0.  1.
          5    1    4    4  502    0 -0.32207005882E+02  0.61050839856E+02 -0.62295315663E+02  0.93098295519E+02  0.47000000000E+01 0.  1.
         -5    1    4    4    0  502 -0.59524108129E+01 -0.60828088663E+02 -0.45954171862E+02  0.76611771135E+02  0.47000000000E+01 0.  1.
<mgrwt>
<rscale>  0 0.26605847E+03</rscale>
<asrwt>0</asrwt>
<pdfrwt beam="1">  1       21 0.11618373E-01 0.26605847E+03</pdfrwt>
<pdfrwt beam="2">  1       21 0.36051403E-01 0.26605847E+03</pdfrwt>
<totfact> 0.45446014E+05</totfact>
</mgrwt>
</event>
<event>
 8    1  0.4760912E-006  0.3460507E+03  0.7546771E-02  0.1064248E+00
         21   -1    0    0  504  503  0.00000000000E+00  0.00000000000E+00  0.14269187607E+03  0.14269187607E+03  0.00000000000E+00 0. -1.
         21   -1    0    0  503  504 -0.00000000000E+00 -0.00000000000E+00 -0.20980712263E+03  0.20980712263E+03  0.00000000000E+00 0. -1.
         25    2    1    2    0    0 -0.94533726183E+02 -0.67537918518E+02 -0.44986851229E+01  0.17071130661E+03  0.12499646480E+03 0.  0.
         25    2    1    2    0    0  0.94533726183E+02  0.67537918518E+02 -0.62616561437E+02  0.18178769209E+03  0.12501174107E+03 0.  0.
          5    1    3    3  501    0 -0.11046995073E+02 -0.63426805270E+01 -0.54138593827E+02  0.55815258111E+02  0.47000000000E+01 0.  1.
         -5    1    3    3    0  501 -0.83486731110E+02 -0.61195237991E+02  0.49639908704E+02  0.11489604850E+03  0.47000000000E+01 0.  1.
          5    1    4    4  502    0  0.12279313334E+02  0.74571487112E+02 -0.63913245380E+02  0.99089258556E+02  0.47000000000E+01 0. -1.
         -5    1    4    4    0  502  0.82254412848E+02 -0.70335685939E+01  0.12966839433E+01  0.82698433537E+02  0.47000000000E+01 0. -1.
<mgrwt>
<rscale>  0 0.34605070E+03</rscale>
<asrwt>0</asrwt>
<pdfrwt beam="1">  1       21 0.21952596E-01 0.34605070E+03</pdfrwt>
<pdfrwt beam="2">  1       21 0.32278019E-01 0.34605070E+03</pdfrwt>
<totfact> 0.17190201E+05</totfact>
</mgrwt>
</event>
<event>
 8    1  0.4760912E-006  0.2921650E+03  0.7546771E-02  0.1089224E+00
         21   -1    0    0  504  503  0.00000000000E+00  0.00000000000E+00  0.12152376504E+03  0.12152376504E+03  0.00000000000E+00 0. -1.
         21   -1    0    0  503  504 -0.00000000000E+00 -0.00000000000E+00 -0.17560425008E+03  0.17560425008E+03  0.00000000000E+00 0. -1.
         25    2    1    2    0    0  0.44099341459E+02 -0.34794936684E+02 -0.78495138048E+02  0.15792913263E+03  0.12499873879E+03 0.  0.
         25    2    1    2    0    0 -0.44099341459E+02  0.34794936684E+02  0.24414653001E+02  0.13919888250E+03  0.12499925628E+03 0.  0.
          5    1    3    3  501    0  0.43955676515E+02 -0.66281959014E+00  0.23643130782E+02  0.50136099379E+02  0.47000000000E+01 0.  1.
         -5    1    3    3    0  501  0.14366494309E+00 -0.34132117094E+02 -0.10213826883E+03  0.10779303325E+03  0.47000000000E+01 0.  1.
          5    1    4    4  502    0  0.54073865551E+01  0.53664111156E+02 -0.31001037027E+02  0.62387746812E+02  0.47000000000E+01 0.  1.
         -5    1    4    4    0  502 -0.49506728014E+02 -0.18869174472E+02  0.55415690028E+02  0.76811135685E+02  0.47000000000E+01 0.  1.
<mgrwt>
<rscale>  0 0.29216495E+03</rscale>
<asrwt>0</asrwt>
<pdfrwt beam="1">  1       21 0.18695964E-01 0.29216495E+03</pdfrwt>
<pdfrwt beam="2">  1       21 0.27016038E-01 0.29216495E+03</pdfrwt>
<totfact> 0.33418184E+05</totfact>
</mgrwt>
</event>
<event>
 8    1  0.4760912E-006  0.3356848E+03  0.7546771E-02  0.1068649E+00
         21   -1    0    0  504  503  0.00000000000E+00  0.00000000000E+00  0.84742677800E+02  0.84742677800E+02  0.00000000000E+00 0.  1.
         21   -1    0    0  503  504 -0.00000000000E+00 -0.00000000000E+00 -0.33243078670E+03  0.33243078670E+03  0.00000000000E+00 0.  1.
         25    2    1    2    0    0  0.40198913677E+02 -0.92259156929E+02 -0.62724021638E+02  0.17229799252E+03  0.12499836254E+03 0.  0.
         25    2    1    2    0    0 -0.40198913677E+02  0.92259156929E+02 -0.18496408726E+03  0.24487547198E+03  0.12499831400E+03 0.  0.
          5    1    3    3  501    0 -0.37301958220E+02 -0.62306525567E+02 -0.91977375904E+01  0.73350034710E+02  0.47000000000E+01 0.  1.
         -5    1    3    3    0  501  0.77500871897E+02 -0.29952631362E+02 -0.53526284048E+02  0.98947957807E+02  0.47000000000E+01 0.  1.
          5    1    4    4  502    0 -0.57987446592E+02  0.85166161639E+02 -0.19657642494E+03  0.22199144104E+03  0.47000000000E+01 0.  1.
         -5    1    4    4    0  502  0.17788532915E+02  0.70929952893E+01  0.11612337687E+02  0.22884030939E+02  0.47000000000E+01 0.  1.
<mgrwt>
<rscale>  0 0.33568482E+03</rscale>
<asrwt>0</asrwt>
<pdfrwt beam="1">  1       21 0.13037335E-01 0.33568482E+03</pdfrwt>
<pdfrwt beam="2">  1       21 0.51143198E-01 0.33568482E+03</pdfrwt>
<totfact> 0.17687986E+05</totfact>
</mgrwt>
</event>
<event>
 8    1  0.4760912E-006  0.3377700E+03  0.7546771E-02  0.1067750E+00
         21   -1    0    0  504  503  0.00000000000E+00  0.00000000000E+00  0.40443325999E+03  0.40443325999E+03  0.00000000000E+00 0. -1.
         21   -1    0    0  503  504 -0.00000000000E+00 -0.00000000000E+00 -0.70523742854E+02  0.70523742854E+02  0.00000000000E+00 0. -1.
         25    2    1    2    0    0  0.72861139818E+02 -0.74708634037E+02  0.10395535443E+03  0.19318840258E+03  0.12499966993E+03 0.  0.
         25    2    1    2    0    0 -0.72861139818E+02  0.74708634037E+02  0.22995416271E+03  0.28176860026E+03  0.12499800579E+03 0.  0.
          5    1    3    3  501    0  0.48006796812E+01 -0.46867433374E+02 -0.18040186422E+02  0.50666963227E+02  0.47000000000E+01 0.  1.
         -5    1    3    3    0  501  0.68060460136E+02 -0.27841200662E+02  0.12199554085E+03  0.14252143936E+03  0.47000000000E+01 0.  1.
          5    1    4    4  502    0 -0.77759285021E+02 -0.35581344225E+01  0.75805519758E+02  0.10875538402E+03  0.47000000000E+01 0.  1.
         -5    1    4    4    0  502  0.48981452029E+01  0.78266768459E+02  0.15414864295E+03  0.17301321624E+03  0.47000000000E+01 0.  1.
<mgrwt>
<rscale>  0 0.33777002E+03</rscale>
<asrwt>0</asrwt>
<pdfrwt beam="1">  1       21 0.62220500E-01 0.33777002E+03</pdfrwt>
<pdfrwt beam="2">  1       21 0.10849807E-01 0.33777002E+03</pdfrwt>
<totfact> 0.16159856E+05</totfact>
</mgrwt>
</event>
<event>
 8    1  0.4760912E-006  0.3477245E+03  0.7546771E-02  0.1063553E+00
         21   -1    0    0  504  503  0.00000000000E+00  0.00000000000E+00  0.85716086824E+02  0.85716086824E+02  0.00000000000E+00 0.  1.
         21   -1    0    0  503  504 -0.00000000000E+00 -0.00000000000E+00 -0.35265345589E+03  0.35265345589E+03  0.00000000000E+00 0.  1.
         25    2    1    2    0    0 -0.59298941177E+02 -0.10244215723E+03 -0.10277404485E+03  0.20049115039E+03  0.12499374819E+03 0.  0.
         25    2    1    2    0    0  0.59298941177E+02  0.10244215723E+03 -0.16416332422E+03  0.23787839233E+03  0.12500309001E+03 0.  0.
          5    1    3    3  501    0  0.27062158457E+02 -0.52402552750E+02 -0.29326216386E+01  0.59237473146E+02  0.47000000000E+01 0. -1.
         -5    1    3    3    0  501 -0.86361099634E+02 -0.50039604482E+02 -0.99841423207E+02  0.14125367724E+03  0.47000000000E+01 0. -1.
          5    1    4    4  502    0  0.59691032945E+02  0.91978306129E+02 -0.18441406861E+03  0.21460118106E+03  0.47000000000E+01 0.  1.
         -5    1    4    4    0  502 -0.39209176871E+00  0.10463851104E+02  0.20250744389E+02  0.23277211263E+02  0.47000000000E+01 0.  1.
<mgrwt>
<rscale>  0 0.34772446E+03</rscale>
<asrwt>0</asrwt>
<pdfrwt beam="1">  1       21 0.13187091E-01 0.34772446E+03</pdfrwt>
<pdfrwt beam="2">  1       21 0.54254377E-01 0.34772446E+03</pdfrwt>
<totfact> 0.15235632E+05</totfact>
</mgrwt>
</event>
<event>
 8    1  0.4760912E-006  0.3516421E+03  0.7546771E-02  0.1061943E+00
         21   -1    0    0  504  503  0.00000000000E+00  0.00000000000E+00  0.12359061481E+03  0.12359061481E+03  0.00000000000E+00 0. -1.
         21   -1    0    0  503  504 -0.00000000000E+00 -0.00000000000E+00 -0.25012445927E+03  0.25012445927E+03  0.00000000000E+00 0. -1.
         25    2    1    2    0    0 -0.62675579823E+02  0.63629597000E+02  0.27595159535E+02  0.15609619245E+03  0.12501029777E+03 0.  0.
         25    2    1    2    0    0  0.62675579823E+02 -0.63629597000E+02 -0.15412900400E+03  0.21761888162E+03  0.12500109538E+03 0.  0.
          5    1    3    3  501    0  0.15200289309E+02 -0.21064504780E+02  0.31224190609E+02  0.40887678290E+02  0.47000000000E+01 0. -1.
         -5    1    3    3    0  501 -0.77875869132E+02  0.84694101781E+02 -0.36290310743E+01  0.11520851416E+03  0.47000000000E+01 0. -1.
          5    1    4    4  502    0  0.36434198183E+02 -0.53782956618E+02 -0.44694799207E+01  0.65284940611E+02  0.47000000000E+01 0. -1.
         -5    1    4    4    0  502  0.26241381639E+02 -0.98466403820E+01 -0.14965952408E+03  0.15233394101E+03  0.47000000000E+01 0. -1.
<mgrwt>
<rscale>  0 0.35164207E+03</rscale>
<asrwt>0</asrwt>
<pdfrwt beam="1">  1       21 0.19013941E-01 0.35164207E+03</pdfrwt>
<pdfrwt beam="2">  1       21 0.38480686E-01 0.35164207E+03</pdfrwt>
<totfact> 0.15827532E+05</totfact>
</mgrwt>
</event>
<event>
 8    1  0.4760912E-006  0.2630250E+03  0.7546771E-02  0.1105339E+00
         21   -1    0    0  504  503  0.00000000000E+00  0.00000000000E+00  0.23634744215E+03  0.23634744215E+03  0.00000000000E+00 0.  1.
         21   -1    0    0  503  504 -0.00000000000E+00 -0.00000000000E+00 -0.73178426125E+02  0.73178426125E+02  0.00000000000E+00 0.  1.
         25    2    1    2    0    0 -0.12935070211E+02  0.38764005418E+02  0.80435626204E+02  0.15415997163E+03  0.12500177091E+03 0.  0.
         25    2    1    2    0    0  0.12935070211E+02 -0.38764005418E+02  0.82733389819E+02  0.15536589665E+03  0.12499513547E+03 0.  0.
          5    1    3    3  501    0 -0.50107649509E+02  0.61879835799E+02  0.75553101376E+02  0.10986469745E+03  0.47000000000E+01 0. -1.
         -5    1    3    3    0  501  0.37172579298E+02 -0.23115830381E+02  0.48825248279E+01  0.44295274179E+02  0.47000000000E+01 0. -1.
          5    1    4    4  502    0  0.72203005114E+01  0.30675526225E+02 -0.15024957123E+02  0.35227261960E+02  0.47000000000E+01 0.  1.
         -5    1    4    4    0  502  0.57147696994E+01 -0.69439531642E+02  0.97758346942E+02  0.12013863469E+03  0.47000000000E+01 0.  1.
<mgrwt>
<rscale>  0 0.26302497E+03</rscale>
<asrwt>0</asrwt>
<pdfrwt beam="1">  1       21 0.36361145E-01 0.26302497E+03</pdfrwt>
<pdfrwt beam="2">  1       21 0.11258219E-01 0.26302497E+03</pdfrwt>
<totfact> 0.47296365E+05</totfact>
</mgrwt>
</event>
<event>
 8    1  0.4760912E-006  0.3156598E+03  0.7546771E-02  0.1077664E+00
         21   -1    0    0  504  503  0.00000000000E+00  0.00000000000E+00  0.43848992056E+03  0.43848992056E+03  0.00000000000E+00 0.  1.
         21   -1    0    0  503  504 -0.00000000000E+00 -0.00000000000E+00 -0.56809248737E+02  0.56809248737E+02  0.00000000000E+00 0.  1.
         25    2    1    2    0    0  0.81655122045E+02 -0.31344785472E+01  0.11072570303E+03  0.18591355878E+03  0.12500514435E+03 0.  0.
         25    2    1    2    0    0 -0.81655122045E+02  0.31344785472E+01  0.27095496880E+03  0.30938561052E+03  0.12500190787E+03 0.  0.
          5    1    3    3  501    0  0.21750872496E+02 -0.57343619411E+02  0.76202492698E+02  0.97930082380E+02  0.47000000000E+01 0.  1.
         -5    1    3    3    0  501  0.59904249549E+02  0.54209140864E+02  0.34523210331E+02  0.87983476397E+02  0.47000000000E+01 0.  1.
          5    1    4    4  502    0  0.26473900030E+02  0.26098495030E+02  0.52377023274E+02  0.64400631928E+02  0.47000000000E+01 0.  1.
         -5    1    4    4    0  502 -0.10812902208E+03 -0.22964016483E+02  0.21857794552E+03  0.24498497859E+03  0.47000000000E+01 0.  1.
<mgrwt>
<rscale>  0 0.31565984E+03</rscale>
<asrwt>0</asrwt>
<pdfrwt beam="1">  1       21 0.67459986E-01 0.31565984E+03</pdfrwt>
<pdfrwt beam="2">  1       21 0.87398847E-02 0.31565984E+03</pdfrwt>
<totfact> 0.19985359E+05</totfact>
</mgrwt>
</event>
<event>
 8    1  0.4760912E-006  0.3031451E+03  0.7546771E-02  0.1083679E+00
         21   -1    0    0  504  503  0.00000000000E+00  0.00000000000E+00  0.30236771579E+02  0.30236771579E+02  0.00000000000E+00 0.  1.
         21   -1    0    0  503  504 -0.00000000000E+00 -0.00000000000E+00 -0.75981105591E+03  0.75981105591E+03  0.00000000000E+00 0.  1.
         25    2    1    2    0    0  0.52522987890E+02 -0.43671180596E+02 -0.22979364783E+03  0.27036346647E+03  0.12500178857E+03 0.  0.
         25    2    1    2    0    0 -0.52522987890E+02  0.43671180596E+02 -0.49978063651E+03  0.51968436103E+03  0.12500125678E+03 0.  0.
          5    1    3    3  501    0 -0.10828623117E+02 -0.44790123705E+02 -0.18961308707E+03  0.19518869601E+03  0.47000000000E+01 0. -1.
         -5    1    3    3    0  501  0.63351611007E+02  0.11189431095E+01 -0.40180560752E+02  0.75174770456E+02  0.47000000000E+01 0. -1.
          5    1    4    4  502    0 -0.67562624088E+02  0.12694688159E+02 -0.12046209598E+03  0.13877705087E+03  0.47000000000E+01 0.  1.
         -5    1    4    4    0  502  0.15039636198E+02  0.30976492437E+02 -0.37931854053E+03  0.38090731015E+03  0.47000000000E+01 0.  1.
<mgrwt>
<rscale>  0 0.30314507E+03</rscale>
<asrwt>0</asrwt>
<pdfrwt beam="1">  1       21 0.46518112E-02 0.30314507E+03</pdfrwt>
<pdfrwt beam="2">  1       21 0.11689400E+00 0.30314507E+03</pdfrwt>
<totfact> 0.16512328E+05</totfact>
</mgrwt>
</event>
<event>
 8    1  0.4760912E-006  0.4048491E+03  0.7546771E-02  0.1042113E+00
         21   -1    0    0  504  503  0.00000000000E+00  0.00000000000E+00  0.12804665551E+03  0.12804665551E+03  0.00000000000E+00 0. -1.
         21   -1    0    0  503  504 -0.00000000000E+00 -0.00000000000E+00 -0.32000603697E+03  0.32000603697E+03  0.00000000000E+00 0. -1.
         25    2    1    2    0    0 -0.10192568486E+03 -0.36908949480E+02 -0.22503903682E+03  0.27931966816E+03  0.12500317253E+03 0.  0.
         25    2    1    2    0    0  0.10192568486E+03  0.36908949480E+02  0.33079655359E+02  0.16873302432E+03  0.12500181643E+03 0.  0.
          5    1    3    3  501    0 -0.97058542176E+02 -0.28213699697E+02 -0.68038854679E+02  0.12193338020E+03  0.47000000000E+01 0.  1.
         -5    1    3    3    0  501 -0.48671426821E+01 -0.86952497824E+01 -0.15700018214E+03  0.15738628796E+03  0.47000000000E+01 0.  1.
          5    1    4    4  502    0  0.55313676668E+02 -0.97023438481E+01  0.72466499373E+02  0.91799901057E+02  0.47000000000E+01 0.  1.
         -5    1    4    4    0  502  0.46612008190E+02  0.46611293328E+02 -0.39386844014E+02  0.76933123260E+02  0.47000000000E+01 0.  1.
<mgrwt>
<rscale>  0 0.40484912E+03</rscale>
<asrwt>0</asrwt>
<pdfrwt beam="1">  1       21 0.19699486E-01 0.40484912E+03</pdfrwt>
<pdfrwt beam="2">  1       21 0.49231697E-01 0.40484912E+03</pdfrwt>
<totfact> 0.87743348E+04</totfact>
</mgrwt>
</event>
<event>
 8    1  0.4760912E-006  0.2608356E+03  0.7546771E-02  0.1106642E+00
         21   -1    0    0  504  503  0.00000000000E+00  0.00000000000E+00  0.17384254555E+04  0.17384254555E+04  0.00000000000E+00 0.  1.
         21   -1    0    0  503  504 -0.00000000000E+00 -0.00000000000E+00 -0.97840268672E+01  0.97840268672E+01  0.00000000000E+00 0.  1.
         25    2    1    2    0    0  0.15222208660E+02 -0.32555407386E+02  0.79846724308E+03  0.80898634558E+03  0.12496959177E+03 0.  0.
         25    2    1    2    0    0 -0.15222208660E+02  0.32555407386E+02  0.93017418555E+03  0.93922313679E+03  0.12499806011E+03 0.  0.
          5    1    3    3  501    0 -0.44950307900E+02  0.16354505454E+02  0.41157029434E+03  0.41436722507E+03  0.47000000000E+01 0. -1.
         -5    1    3    3    0  501  0.60172516560E+02 -0.48909912841E+02  0.38689694874E+03  0.39461912050E+03  0.47000000000E+01 0. -1.
          5    1    4    4  502    0  0.48753934205E+02  0.64590390298E+01  0.59037751200E+03  0.59244101982E+03  0.47000000000E+01 0. -1.
         -5    1    4    4    0  502 -0.63976142865E+02  0.26096368356E+02  0.33979667355E+03  0.34678211697E+03  0.47000000000E+01 0. -1.
<mgrwt>
<rscale>  0 0.26083559E+03</rscale>
<asrwt>0</asrwt>
<pdfrwt beam="1">  1       21 0.26744982E+00 0.26083559E+03</pdfrwt>
<pdfrwt beam="2">  1       21 0.15052363E-02 0.26083559E+03</pdfrwt>
<totfact> 0.98108247E+04</totfact>
</mgrwt>
</event>
<event>
 8    1  0.4760912E-006  0.3034406E+03  0.7546771E-02  0.1083533E+00
         21   -1    0    0  504  503  0.00000000000E+00  0.00000000000E+00  0.87407263488E+02  0.87407263488E+02  0.00000000000E+00 0.  1.
         21   -1    0    0  503  504 -0.00000000000E+00 -0.00000000000E+00 -0.26335403475E+03  0.26335403475E+03  0.00000000000E+00 0.  1.
         25    2    1    2    0    0  0.63322781495E+02 -0.22158656064E+02 -0.15015305030E+03  0.20656791663E+03  0.12499433976E+03 0.  0.
         25    2    1    2    0    0 -0.63322781495E+02  0.22158656064E+02 -0.25793720968E+02  0.14419338161E+03  0.12500253823E+03 0.  0.
          5    1    3    3  501    0  0.10704326486E+02 -0.65513931214E+02 -0.10615034810E+03  0.12528624901E+03  0.47000000000E+01 0.  1.
         -5    1    3    3    0  501  0.52618455009E+02  0.43355275150E+02 -0.44002702198E+02  0.81281667623E+02  0.47000000000E+01 0.  1.
          5    1    4    4  502    0  0.43136308464E+01 -0.26499323399E+02 -0.50305699820E+02  0.57215163952E+02  0.47000000000E+01 0.  1.
         -5    1    4    4    0  502 -0.67636412341E+02  0.48657979462E+02  0.24511978852E+02  0.86978217658E+02  0.47000000000E+01 0.  1.
<mgrwt>
<rscale>  0 0.30344064E+03</rscale>
<asrwt>0</asrwt>
<pdfrwt beam="1">  1       21 0.13447271E-01 0.30344064E+03</pdfrwt>
<pdfrwt beam="2">  1       21 0.40516005E-01 0.30344064E+03</pdfrwt>
<totfact> 0.27334349E+05</totfact>
</mgrwt>
</event>
<event>
 8    1  0.4760912E-006  0.3450742E+03  0.7546771E-02  0.1064655E+00
         21   -1    0    0  504  503  0.00000000000E+00  0.00000000000E+00  0.64330657363E+03  0.64330657363E+03  0.00000000000E+00 0. -1.
         21   -1    0    0  503  504 -0.00000000000E+00 -0.00000000000E+00 -0.46275072032E+02  0.46275072032E+02  0.00000000000E+00 0. -1.
         25    2    1    2    0    0  0.52959600471E+02 -0.24789455092E+02  0.50544509816E+03  0.52394558910E+03  0.12499998685E+03 0.  0.
         25    2    1    2    0    0 -0.52959600471E+02  0.24789455092E+02  0.91586403433E+02  0.16563605656E+03  0.12501198972E+03 0.  0.
          5    1    3    3  501    0  0.78452942753E+02 -0.47318316427E+02  0.44560240034E+03  0.45494777336E+03  0.47000000000E+01 0. -1.
         -5    1    3    3    0  501 -0.25493342283E+02  0.22528861335E+02  0.59842697819E+02  0.68997815734E+02  0.47000000000E+01 0. -1.
          5    1    4    4  502    0 -0.38634403560E+02  0.31343273330E+02 -0.19277055902E+02  0.53560365997E+02  0.47000000000E+01 0.  1.
         -5    1    4    4    0  502 -0.14325196911E+02 -0.65538182385E+01  0.11086345933E+03  0.11207569057E+03  0.47000000000E+01 0.  1.
<mgrwt>
<rscale>  0 0.34507424E+03</rscale>
<asrwt>0</asrwt>
<pdfrwt beam="1">  1       21 0.98970235E-01 0.34507424E+03</pdfrwt>
<pdfrwt beam="2">  1       21 0.71192423E-02 0.34507424E+03</pdfrwt>
<totfact> 0.11770021E+05</totfact>
</mgrwt>
</event>
<event>
 8    1  0.4760912E-006  0.2822100E+03  0.7546771E-02  0.1094488E+00
         21   -1    0    0  504  503  0.00000000000E+00  0.00000000000E+00  0.23849998673E+04  0.23849998673E+04  0.00000000000E+00 0.  1.
         21   -1    0    0  503  504 -0.00000000000E+00 -0.00000000000E+00 -0.83482682481E+01  0.83482682481E+01  0.00000000000E+00 0.  1.
         25    2    1    2    0    0 -0.58937822552E+02  0.26491170228E+02  0.10958971683E+04  0.11048932883E+04  0.12499250418E+03 0.  0.
         25    2    1    2    0    0  0.58937822552E+02 -0.26491170228E+02  0.12807544308E+04  0.12884548473E+04  0.12493411216E+03 0.  0.
          5    1    3    3  501    0  0.10791719074E+02  0.61350427894E+02  0.46275176592E+03  0.46694927247E+03  0.47000000000E+01 0.  1.
         -5    1    3    3    0  501 -0.69729541627E+02 -0.34859257665E+02  0.63314540236E+03  0.63794401584E+03  0.47000000000E+01 0.  1.
          5    1    4    4  502    0  0.37637138832E+02 -0.29875470548E+02  0.15199004038E+03  0.15947463853E+03  0.47000000000E+01 0. -1.
         -5    1    4    4    0  502  0.21300683720E+02  0.33843003196E+01  0.11287643904E+04  0.11289802087E+04  0.47000000000E+01 0. -1.
<mgrwt>
<rscale>  0 0.28220998E+03</rscale>
<asrwt>0</asrwt>
<pdfrwt beam="1">  1       21 0.36692251E+00 0.28220998E+03</pdfrwt>
<pdfrwt beam="2">  1       21 0.12843509E-02 0.28220998E+03</pdfrwt>
<totfact> 0.32176472E+04</totfact>
</mgrwt>
</event>
<event>
 8    1  0.4760912E-006  0.2748823E+03  0.7546771E-02  0.1098517E+00
         21   -1    0    0  504  503  0.00000000000E+00  0.00000000000E+00  0.46690348812E+02  0.46690348812E+02  0.00000000000E+00 0.  1.
         21   -1    0    0  503  504 -0.00000000000E+00 -0.00000000000E+00 -0.40458195530E+03  0.40458195530E+03  0.00000000000E+00 0.  1.
         25    2    1    2    0    0 -0.50741965270E+02 -0.44448885341E+01 -0.13653161489E+03  0.19200368295E+03  0.12502011170E+03 0.  0.
         25    2    1    2    0    0  0.50741965270E+02  0.44448885341E+01 -0.22135999160E+03  0.25926862116E+03  0.12500187184E+03 0.  0.
          5    1    3    3  501    0 -0.91542078378E+02 -0.86955549420E+00 -0.10904365972E+03  0.14245461722E+03  0.47000000000E+01 0. -1.
         -5    1    3    3    0  501  0.40800113108E+02 -0.35753330399E+01 -0.27487955164E+02  0.49549065733E+02  0.47000000000E+01 0. -1.
          5    1    4    4  502    0  0.77094115581E+02  0.38123247006E+02 -0.10879959380E+03  0.13876716554E+03  0.47000000000E+01 0.  1.
         -5    1    4    4    0  502 -0.26352150311E+02 -0.33678358472E+02 -0.11256039779E+03  0.12050145562E+03  0.47000000000E+01 0.  1.
<mgrwt>
<rscale>  0 0.27488232E+03</rscale>
<asrwt>0</asrwt>
<pdfrwt beam="1">  1       21 0.71831305E-02 0.27488232E+03</pdfrwt>
<pdfrwt beam="2">  1       21 0.62243378E-01 0.27488232E+03</pdfrwt>
<totfact> 0.33961998E+05</totfact>
</mgrwt>
</event>
<event>
 8    1  0.4760912E-006  0.3116798E+03  0.7546771E-02  0.1079543E+00
         21   -1    0    0  504  503  0.00000000000E+00  0.00000000000E+00  0.92617953990E+03  0.92617953990E+03  0.00000000000E+00 0. -1.
         21   -1    0    0  503  504 -0.00000000000E+00 -0.00000000000E+00 -0.26221785019E+02  0.26221785019E+02  0.00000000000E+00 0. -1.
         25    2    1    2    0    0 -0.20725456214E+02  0.11695994419E+02  0.72478880994E+03  0.73587442402E+03  0.12500403235E+03 0.  0.
         25    2    1    2    0    0  0.20725456214E+02 -0.11695994419E+02  0.17516894494E+03  0.21652690089E+03  0.12503359035E+03 0.  0.
          5    1    3    3  501    0 -0.32539126212E+02  0.25499711472E+02  0.71188389324E+03  0.71309872912E+03  0.47000000000E+01 0. -1.
         -5    1    3    3    0  501  0.11813669998E+02 -0.13803717053E+02  0.12904916693E+02  0.22775694900E+02  0.47000000000E+01 0. -1.
          5    1    4    4  502    0 -0.48395216084E+02 -0.21521465684E+02  0.49277107905E+02  0.72495474262E+02  0.47000000000E+01 0.  1.
         -5    1    4    4    0  502  0.69120672297E+02  0.98254712650E+01  0.12589183704E+03  0.14403142663E+03  0.47000000000E+01 0.  1.
<mgrwt>
<rscale>  0 0.31167984E+03</rscale>
<asrwt>0</asrwt>
<pdfrwt beam="1">  1       21 0.14248914E+00 0.31167984E+03</pdfrwt>
<pdfrwt beam="2">  1       21 0.40341215E-02 0.31167984E+03</pdfrwt>
<totfact> 0.12634823E+05</totfact>
</mgrwt>
</event>
<event>
 8    1  0.4760912E-006  0.3250713E+03  0.7546771E-02  0.1073339E+00
         21   -1    0    0  504  503  0.00000000000E+00  0.00000000000E+00  0.76924496535E+02  0.76924496535E+02  0.00000000000E+00 0.  1.
         21   -1    0    0  503  504 -0.00000000000E+00 -0.00000000000E+00 -0.34342547936E+03  0.34342547936E+03  0.00000000000E+00 0.  1.
         25    2    1    2    0    0  0.44946113798E+02  0.88585497708E+02 -0.17258061601E+03  0.23510404039E+03  0.12498918848E+03 0.  0.
         25    2    1    2    0    0 -0.44946113798E+02 -0.88585497708E+02 -0.93920366816E+02  0.18524593550E+03  0.12500991068E+03 0.  0.
          5    1    3    3  501    0 -0.47445712887E+01  0.11752937559E+02 -0.13564631960E+03  0.13631821785E+03  0.47000000000E+01 0.  1.
         -5    1    3    3    0  501  0.49690685087E+02  0.76832560149E+02 -0.36934296409E+02  0.98785822539E+02  0.47000000000E+01 0.  1.
          5    1    4    4  502    0 -0.33156845527E+01 -0.16837950185E+02  0.30691363180E+02  0.35476190668E+02  0.47000000000E+01 0. -1.
         -5    1    4    4    0  502 -0.41630429245E+02 -0.71747547523E+02 -0.12461173000E+03  0.14976974483E+03  0.47000000000E+01 0. -1.
<mgrwt>
<rscale>  0 0.32507127E+03</rscale>
<asrwt>0</asrwt>
<pdfrwt beam="1">  1       21 0.11834538E-01 0.32507127E+03</pdfrwt>
<pdfrwt beam="2">  1       21 0.52834689E-01 0.32507127E+03</pdfrwt>
<totfact> 0.19721370E+05</totfact>
</mgrwt>
</event>
<event>
 8    1  0.4760912E-006  0.2729855E+03  0.7546771E-02  0.1099583E+00
         21   -1    0    0  504  503  0.00000000000E+00  0.00000000000E+00  0.72114523058E+03  0.72114523058E+03  0.00000000000E+00 0.  1.
         21   -1    0    0  503  504 -0.00000000000E+00 -0.00000000000E+00 -0.25834286398E+02  0.25834286398E+02  0.00000000000E+00 0.  1.
         25    2    1    2    0    0 -0.50482932710E+02 -0.20682185137E+01  0.40568300152E+03  0.42750017337E+03  0.12499958595E+03 0.  0.
         25    2    1    2    0    0  0.50482932710E+02  0.20682185137E+01  0.28962794266E+03  0.31947934361E+03  0.12501960565E+03 0.  0.
          5    1    3    3  501    0  0.14344138867E+02 -0.42973657644E+02  0.72809773434E+02  0.85882726311E+02  0.47000000000E+01 0. -1.
         -5    1    3    3    0  501 -0.64827071577E+02  0.40905439131E+02  0.33287322808E+03  0.34161744706E+03  0.47000000000E+01 0. -1.
          5    1    4    4  502    0  0.40599496716E+01 -0.37236979284E+02  0.19389050944E+02  0.42439381641E+02  0.47000000000E+01 0. -1.
         -5    1    4    4    0  502  0.46422983039E+02  0.39305197798E+02  0.27023889172E+03  0.27703996197E+03  0.47000000000E+01 0. -1.
<mgrwt>
<rscale>  0 0.27298551E+03</rscale>
<asrwt>0</asrwt>
<pdfrwt beam="1">  1       21 0.11094540E+00 0.27298551E+03</pdfrwt>
<pdfrwt beam="2">  1       21 0.39745061E-02 0.27298551E+03</pdfrwt>
<totfact> 0.24726667E+05</totfact>
</mgrwt>
</event>
<event>
 8    1  0.4760912E-006  0.2845930E+03  0.7546771E-02  0.1093206E+00
         21   -1    0    0  504  503  0.00000000000E+00  0.00000000000E+00  0.26071154739E+02  0.26071154739E+02  0.00000000000E+00 0.  1.
         21   -1    0    0  503  504 -0.00000000000E+00 -0.00000000000E+00 -0.77665523147E+03  0.77665523147E+03  0.00000000000E+00 0.  1.
         25    2    1    2    0    0  0.15007196495E+02 -0.18923137966E+02 -0.19602952620E+03  0.23374515592E+03  0.12500368665E+03 0.  0.
         25    2    1    2    0    0 -0.15007196495E+02  0.18923137966E+02 -0.55455455053E+03  0.56898123029E+03  0.12500235923E+03 0.  0.
          5    1    3    3  501    0  0.62485288418E+02  0.12752842997E+02 -0.67213276603E+02  0.92772629719E+02  0.47000000000E+01 0.  1.
         -5    1    3    3    0  501 -0.47478091923E+02 -0.31675980963E+02 -0.12881624960E+03  0.14097252620E+03  0.47000000000E+01 0.  1.
          5    1    4    4  502    0  0.31189118076E+02  0.29934162409E+02 -0.46904333674E+03  0.47105472814E+03  0.47000000000E+01 0. -1.
         -5    1    4    4    0  502 -0.46196314571E+02 -0.11011024442E+02 -0.85511213795E+02  0.97926502153E+02  0.47000000000E+01 0. -1.
<mgrwt>
<rscale>  0 0.28459303E+03</rscale>
<asrwt>0</asrwt>
<pdfrwt beam="1">  1       21 0.40109470E-02 0.28459303E+03</pdfrwt>
<pdfrwt beam="2">  1       21 0.11948542E+00 0.28459303E+03</pdfrwt>
<totfact> 0.20209793E+05</totfact>
</mgrwt>
</event>
<event>
 8    1  0.4760912E-006  0.3254677E+03  0.7546771E-02  0.1073160E+00
         21   -1    0    0  504  503  0.00000000000E+00  0.00000000000E+00  0.52146163432E+03  0.52146163432E+03  0.00000000000E+00 0. -1.
         21   -1    0    0  503  504 -0.00000000000E+00 -0.00000000000E+00 -0.50784750251E+02  0.50784750251E+02  0.00000000000E+00 0. -1.
         25    2    1    2    0    0 -0.23469153829E+02 -0.84513412027E+02  0.13655976425E+03  0.20488767382E+03  0.12504827738E+03 0.  0.
         25    2    1    2    0    0  0.23469153829E+02  0.84513412027E+02  0.33411711982E+03  0.36735871075E+03  0.12499941847E+03 0.  0.
          5    1    3    3  501    0  0.14254528661E+01 -0.88634689567E+02  0.27624822495E+02  0.92969677468E+02  0.47000000000E+01 0.  1.
         -5    1    3    3    0  501 -0.24894606695E+02  0.41212775406E+01  0.10893494176E+03  0.11191799635E+03  0.47000000000E+01 0.  1.
          5    1    4    4  502    0 -0.49464612364E+02  0.54250038791E+02  0.16488487516E+03  0.18055172843E+03  0.47000000000E+01 0. -1.
         -5    1    4    4    0  502  0.72933766193E+02  0.30263373235E+02  0.16923224466E+03  0.18680698232E+03  0.47000000000E+01 0. -1.
<mgrwt>
<rscale>  0 0.32546766E+03</rscale>
<asrwt>0</asrwt>
<pdfrwt beam="1">  1       21 0.80224863E-01 0.32546766E+03</pdfrwt>
<pdfrwt beam="2">  1       21 0.78130389E-02 0.32546766E+03</pdfrwt>
<totfact> 0.16440766E+05</totfact>
</mgrwt>
</event>
<event>
 8    1  0.4760912E-006  0.3419759E+03  0.7546771E-02  0.1065957E+00
         21   -1    0    0  504  503  0.00000000000E+00  0.00000000000E+00  0.68148905158E+02  0.68148905158E+02  0.00000000000E+00 0. -1.
         21   -1    0    0  503  504 -0.00000000000E+00 -0.00000000000E+00 -0.42901464765E+03  0.42901464765E+03  0.00000000000E+00 0. -1.
         25    2    1    2    0    0 -0.85743907808E+02  0.55388003331E+02 -0.26255951450E+03  0.30819395033E+03  0.12500465482E+03 0.  0.
         25    2    1    2    0    0  0.85743907808E+02 -0.55388003331E+02 -0.98306227996E+02  0.18896960248E+03  0.12500219022E+03 0.  0.
          5    1    3    3  501    0 -0.97999363975E+02  0.66907707219E+02 -0.26515930607E+03  0.29053754357E+03  0.47000000000E+01 0.  1.
         -5    1    3    3    0  501  0.12255456167E+02 -0.11519703887E+02  0.25997915764E+01  0.17656406762E+02  0.47000000000E+01 0.  1.
          5    1    4    4  502    0  0.54621033183E+02 -0.79561052541E+02 -0.11113244726E+03  0.14726143141E+03  0.47000000000E+01 0.  1.
         -5    1    4    4    0  502  0.31122874625E+02  0.24173049210E+02  0.12826219266E+02  0.41708171066E+02  0.47000000000E+01 0.  1.
<mgrwt>
<rscale>  0 0.34197590E+03</rscale>
<asrwt>0</asrwt>
<pdfrwt beam="1">  1       21 0.10484447E-01 0.34197590E+03</pdfrwt>
<pdfrwt beam="2">  1       21 0.66002254E-01 0.34197590E+03</pdfrwt>
<totfact> 0.15077523E+05</totfact>
</mgrwt>
</event>
<event>
 8    1  0.4760912E-006  0.2578941E+03  0.7546771E-02  0.1108415E+00
         21   -1    0    0  504  503  0.00000000000E+00  0.00000000000E+00  0.62491949475E+03  0.62491949475E+03  0.00000000000E+00 0. -1.
         21   -1    0    0  503  504 -0.00000000000E+00 -0.00000000000E+00 -0.26607175895E+02  0.26607175895E+02  0.00000000000E+00 0. -1.
         25    2    1    2    0    0 -0.16912752379E+02  0.11014387890E+02  0.23754706689E+03  0.26918679651E+03  0.12500225796E+03 0.  0.
         25    2    1    2    0    0  0.16912752379E+02 -0.11014387890E+02  0.36076525197E+03  0.38233987413E+03  0.12499941757E+03 0.  0.
          5    1    3    3  501    0  0.37830915362E+02  0.35367429406E+02  0.49594477709E+02  0.71859136087E+02  0.47000000000E+01 0. -1.
         -5    1    3    3    0  501 -0.54743667741E+02 -0.24353041516E+02  0.18795258918E+03  0.19732766042E+03  0.47000000000E+01 0. -1.
          5    1    4    4  502    0  0.50404727219E+02  0.37721256356E+02  0.13702216706E+03  0.15086647730E+03  0.47000000000E+01 0. -1.
         -5    1    4    4    0  502 -0.33491974840E+02 -0.48735644246E+02  0.22374308490E+03  0.23147339683E+03  0.47000000000E+01 0. -1.
<mgrwt>
<rscale>  0 0.25789411E+03</rscale>
<asrwt>0</asrwt>
<pdfrwt beam="1">  1       21 0.96141450E-01 0.25789411E+03</pdfrwt>
<pdfrwt beam="2">  1       21 0.40934121E-02 0.25789411E+03</pdfrwt>
<totfact> 0.33363444E+05</totfact>
</mgrwt>
</event>
<event>
 8    1  0.4760912E-006  0.2533873E+03  0.7546771E-02  0.1111183E+00
         21   -1    0    0  504  503  0.00000000000E+00  0.00000000000E+00  0.20670156551E+02  0.20670156551E+02  0.00000000000E+00 0.  1.
         21   -1    0    0  503  504 -0.00000000000E+00 -0.00000000000E+00 -0.77654370569E+03  0.77654370569E+03  0.00000000000E+00 0.  1.
         25    2    1    2    0    0 -0.79500058302E+01  0.60967823503E+01 -0.32084121129E+03  0.34447009556E+03  0.12498076063E+03 0.  0.
         25    2    1    2    0    0  0.79500058302E+01 -0.60967823503E+01 -0.43503233785E+03  0.45274376668E+03  0.12499363961E+03 0.  0.
          5    1    3    3  501    0 -0.10613557977E+02  0.63274486743E+02 -0.21001159650E+03  0.21964350423E+03  0.47000000000E+01 0. -1.
         -5    1    3    3    0  501  0.26635521472E+01 -0.57177704393E+02 -0.11082961480E+03  0.12482659134E+03  0.47000000000E+01 0. -1.
          5    1    4    4  502    0 -0.35653099898E+02  0.28377785212E+02 -0.71227477748E+02  0.84686987266E+02  0.47000000000E+01 0.  1.
         -5    1    4    4    0  502  0.43603105728E+02 -0.34474567563E+02 -0.36380486010E+03  0.36805677941E+03  0.47000000000E+01 0.  1.
<mgrwt>
<rscale>  0 0.25338729E+03</rscale>
<asrwt>0</asrwt>
<pdfrwt beam="1">  1       21 0.31800244E-02 0.25338729E+03</pdfrwt>
<pdfrwt beam="2">  1       21 0.11946825E+00 0.25338729E+03</pdfrwt>
<totfact> 0.30114076E+05</totfact>
</mgrwt>
</event>
<event>
 8    1  0.4760912E-006  0.3118684E+03  0.7546771E-02  0.1079454E+00
         21   -1    0    0  504  503  0.00000000000E+00  0.00000000000E+00  0.25063384030E+03  0.25063384030E+03  0.00000000000E+00 0. -1.
         21   -1    0    0  503  504 -0.00000000000E+00 -0.00000000000E+00 -0.97015927332E+02  0.97015927332E+02  0.00000000000E+00 0. -1.
         25    2    1    2    0    0 -0.38029948698E+01  0.21814132070E+02  0.17773800251E+03  0.21842937019E+03  0.12502109061E+03 0.  0.
         25    2    1    2    0    0  0.38029948698E+01 -0.21814132070E+02 -0.24120089543E+02  0.12922039744E+03  0.12500325303E+03 0.  0.
          5    1    3    3  501    0  0.23227838949E+02  0.61688796421E+02  0.14678886828E+03  0.16097857608E+03  0.47000000000E+01 0.  1.
         -5    1    3    3    0  501 -0.27030833818E+02 -0.39874664351E+02  0.30949134228E+02  0.57450794107E+02  0.47000000000E+01 0.  1.
          5    1    4    4  502    0  0.27475734245E+02  0.18850818103E+02  0.38253461977E+02  0.50947881886E+02  0.47000000000E+01 0. -1.
         -5    1    4    4    0  502 -0.23672739375E+02 -0.40664950173E+02 -0.62373551520E+02  0.78272515555E+02  0.47000000000E+01 0. -1.
<mgrwt>
<rscale>  0 0.31186840E+03</rscale>
<asrwt>0</asrwt>
<pdfrwt beam="1">  1       21 0.38559052E-01 0.31186840E+03</pdfrwt>
<pdfrwt beam="2">  1       21 0.14925527E-01 0.31186840E+03</pdfrwt>
<totfact> 0.24936938E+05</totfact>
</mgrwt>
</event>
<event>
 8    1  0.4760912E-006  0.3148253E+03  0.7546771E-02  0.1078056E+00
         21   -1    0    0  504  503  0.00000000000E+00  0.00000000000E+00  0.88949737407E+02  0.88949737407E+02  0.00000000000E+00 0.  1.
         21   -1    0    0  503  504 -0.00000000000E+00 -0.00000000000E+00 -0.27857014903E+03  0.27857014903E+03  0.00000000000E+00 0.  1.
         25    2    1    2    0    0  0.54483657711E+02 -0.78312395343E+02 -0.10341391326E+03  0.18819484683E+03  0.12498625003E+03 0.  0.
         25    2    1    2    0    0 -0.54483657711E+02  0.78312395343E+02 -0.86206498362E+02  0.17932503961E+03  0.12499843699E+03 0.  0.
          5    1    3    3  501    0  0.84066956402E+02 -0.23745513187E+02 -0.31258190827E+02  0.92899230615E+02  0.47000000000E+01 0.  1.
         -5    1    3    3    0  501 -0.29583298690E+02 -0.54566882155E+02 -0.72155722438E+02  0.95295616217E+02  0.47000000000E+01 0.  1.
          5    1    4    4  502    0 -0.15818491873E+02  0.99884466250E+02 -0.26145044191E+02  0.10455995705E+03  0.47000000000E+01 0. -1.
         -5    1    4    4    0  502 -0.38665165838E+02 -0.21572070907E+02 -0.60061454171E+02  0.74765082556E+02  0.47000000000E+01 0. -1.
<mgrwt>
<rscale>  0 0.31482530E+03</rscale>
<asrwt>0</asrwt>
<pdfrwt beam="1">  1       21 0.13684575E-01 0.31482530E+03</pdfrwt>
<pdfrwt beam="2">  1       21 0.42856945E-01 0.31482530E+03</pdfrwt>
<totfact> 0.23534712E+05</totfact>
</mgrwt>
</event>
<event>
 8    1  0.4760912E-006  0.2992619E+03  0.7546771E-02  0.1085610E+00
         21   -1    0    0  504  503  0.00000000000E+00  0.00000000000E+00  0.34460701290E+03  0.34460701290E+03  0.00000000000E+00 0.  1.
         21   -1    0    0  503  504 -0.00000000000E+00 -0.00000000000E+00 -0.64970868530E+02  0.64970868530E+02  0.00000000000E+00 0.  1.
         25    2    1    2    0    0 -0.22587179151E+02 -0.31035897539E+02  0.23937864525E+03  0.27276196497E+03  0.12499418440E+03 0.  0.
         25    2    1    2    0    0  0.22587179151E+02  0.31035897539E+02  0.40257499121E+02  0.13681591646E+03  0.12499808464E+03 0.  0.
          5    1    3    3  501    0 -0.28081577759E+02  0.32658924585E+02  0.27309599602E+02  0.51216057979E+02  0.47000000000E+01 0.  1.
         -5    1    3    3    0  501  0.54943986074E+01 -0.63694822124E+02  0.21206904565E+03  0.22154590699E+03  0.47000000000E+01 0.  1.
          5    1    4    4  502    0  0.20019470107E+02  0.76826343991E+01  0.84065264287E+02  0.86884179885E+02  0.47000000000E+01 0.  1.
         -5    1    4    4    0  502  0.25677090440E+01  0.23353263140E+02 -0.43807765165E+02  0.49931736579E+02  0.47000000000E+01 0.  1.
<mgrwt>
<rscale>  0 0.29926187E+03</rscale>
<asrwt>0</asrwt>
<pdfrwt beam="1">  1       21 0.53016463E-01 0.29926187E+03</pdfrwt>
<pdfrwt beam="2">  1       21 0.99955184E-02 0.29926187E+03</pdfrwt>
<totfact> 0.26658349E+05</totfact>
</mgrwt>
</event>
<event>
 8    1  0.4760912E-006  0.2898288E+03  0.7546771E-02  0.1090439E+00
         21   -1    0    0  504  503  0.00000000000E+00  0.00000000000E+00  0.23235824229E+03  0.23235824229E+03  0.00000000000E+00 0. -1.
         21   -1    0    0  503  504 -0.00000000000E+00 -0.00000000000E+00 -0.90378466556E+02  0.90378466556E+02  0.00000000000E+00 0. -1.
         25    2    1    2    0    0  0.24868671847E+02 -0.25744667472E+02  0.14223950677E+03  0.19271373250E+03  0.12500106666E+03 0.  0.
         25    2    1    2    0    0 -0.24868671847E+02  0.25744667472E+02 -0.25973103543E+00  0.13002297635E+03  0.12499867269E+03 0.  0.
          5    1    3    3  501    0 -0.25256971480E+02  0.39788281254E+02  0.53621014435E+02  0.71542470760E+02  0.47000000000E+01 0.  1.
         -5    1    3    3    0  501  0.50125643327E+02 -0.65532948726E+02  0.88618492331E+02  0.12117126174E+03  0.47000000000E+01 0.  1.
          5    1    4    4  502    0  0.19820518387E+02  0.47974613469E+02  0.40020136146E+02  0.65712386837E+02  0.47000000000E+01 0. -1.
         -5    1    4    4    0  502 -0.44689190234E+02 -0.22229945997E+02 -0.40279867181E+02  0.64310589509E+02  0.47000000000E+01 0. -1.
<mgrwt>
<rscale>  0 0.28982879E+03</rscale>
<asrwt>0</asrwt>
<pdfrwt beam="1">  1       21 0.35747422E-01 0.28982879E+03</pdfrwt>
<pdfrwt beam="2">  1       21 0.13904380E-01 0.28982879E+03</pdfrwt>
<totfact> 0.33235649E+05</totfact>
</mgrwt>
</event>
<event>
 8    1  0.4760912E-006  0.2606117E+03  0.7546771E-02  0.1106776E+00
         21   -1    0    0  504  503  0.00000000000E+00  0.00000000000E+00  0.54662753523E+03  0.54662753523E+03  0.00000000000E+00 0. -1.
         21   -1    0    0  503  504 -0.00000000000E+00 -0.00000000000E+00 -0.31062482178E+02  0.31062482178E+02  0.00000000000E+00 0. -1.
         25    2    1    2    0    0 -0.34402660890E+02 -0.11484736549E+02  0.27175491828E+03  0.30131599187E+03  0.12500059638E+03 0.  0.
         25    2    1    2    0    0  0.34402660890E+02  0.11484736549E+02  0.24381013477E+03  0.27637402554E+03  0.12499511161E+03 0.  0.
          5    1    3    3  501    0 -0.80776020704E+02 -0.49070235519E+01  0.19634361595E+03  0.21241880784E+03  0.47000000000E+01 0. -1.
         -5    1    3    3    0  501  0.46373359814E+02 -0.65777129970E+01  0.75411302331E+02  0.88897184027E+02  0.47000000000E+01 0. -1.
          5    1    4    4  502    0  0.36731949786E+02  0.13375074782E+02  0.25807344898E+03  0.26105961738E+03  0.47000000000E+01 0. -1.
         -5    1    4    4    0  502 -0.23292888957E+01 -0.18903382329E+01 -0.14263314201E+02  0.15314408163E+02  0.47000000000E+01 0. -1.
<mgrwt>
<rscale>  0 0.26061165E+03</rscale>
<asrwt>0</asrwt>
<pdfrwt beam="1">  1       21 0.84096537E-01 0.26061165E+03</pdfrwt>
<pdfrwt beam="2">  1       21 0.47788438E-02 0.26061165E+03</pdfrwt>
<totfact> 0.35046549E+05</totfact>
</mgrwt>
</event>
<event>
 8    1  0.4760912E-006  0.3375004E+03  0.7546771E-02  0.1067866E+00
         21   -1    0    0  504  503  0.00000000000E+00  0.00000000000E+00  0.38838508586E+03  0.38838508586E+03  0.00000000000E+00 0.  1.
         21   -1    0    0  503  504 -0.00000000000E+00 -0.00000000000E+00 -0.73320595142E+02  0.73320595142E+02  0.00000000000E+00 0.  1.
         25    2    1    2    0    0 -0.69453678242E+02 -0.89545713789E+02  0.16236815311E+03  0.23415850008E+03  0.12499815094E+03 0.  0.
         25    2    1    2    0    0  0.69453678242E+02  0.89545713789E+02  0.15269633761E+03  0.22754718092E+03  0.12497719690E+03 0.  0.
          5    1    3    3  501    0  0.30638655317E+02  0.19919203169E+01  0.45293528394E+02  0.54920748907E+02  0.47000000000E+01 0.  1.
         -5    1    3    3    0  501 -0.10009233356E+03 -0.91537634106E+02  0.11707462471E+03  0.17923775118E+03  0.47000000000E+01 0.  1.
          5    1    4    4  502    0  0.14428779488E+02  0.72964778706E+02  0.15266719890E+03  0.16988646864E+03  0.47000000000E+01 0.  1.
         -5    1    4    4    0  502  0.55024898754E+02  0.16580935083E+02  0.29138715321E-01  0.57660712276E+02  0.47000000000E+01 0.  1.
<mgrwt>
<rscale>  0 0.33750037E+03</rscale>
<asrwt>0</asrwt>
<pdfrwt beam="1">  1       21 0.59751550E-01 0.33750037E+03</pdfrwt>
<pdfrwt beam="2">  1       21 0.11280092E-01 0.33750037E+03</pdfrwt>
<totfact> 0.16460166E+05</totfact>
</mgrwt>
</event>
<event>
 8    1  0.4760912E-006  0.3099017E+03  0.7546771E-02  0.1080393E+00
         21   -1    0    0  504  503  0.00000000000E+00  0.00000000000E+00  0.10989149904E+03  0.10989149904E+03  0.00000000000E+00 0. -1.
         21   -1    0    0  503  504 -0.00000000000E+00 -0.00000000000E+00 -0.21848610257E+03  0.21848610257E+03  0.00000000000E+00 0. -1.
         25    2    1    2    0    0  0.70425081374E+02  0.32404606995E+01  0.75714063956E+01  0.14370985729E+03  0.12500001686E+03 0.  0.
         25    2    1    2    0    0 -0.70425081374E+02 -0.32404606995E+01 -0.11616600993E+03  0.18466774432E+03  0.12504975512E+03 0.  0.
          5    1    3    3  501    0  0.72424344628E+02 -0.79203370786E+01  0.57098761756E+02  0.92684281452E+02  0.47000000000E+01 0. -1.
         -5    1    3    3    0  501 -0.19992632538E+01  0.11160797778E+02 -0.49527355361E+02  0.51025575838E+02  0.47000000000E+01 0. -1.
          5    1    4    4  502    0 -0.83753998951E+02  0.16929303671E+02 -0.23443437984E+02  0.88730031261E+02  0.47000000000E+01 0.  1.
         -5    1    4    4    0  502  0.13328917576E+02 -0.20169764371E+02 -0.92722571942E+02  0.95937713054E+02  0.47000000000E+01 0.  1.
<mgrwt>
<rscale>  0 0.30990170E+03</rscale>
<asrwt>0</asrwt>
<pdfrwt beam="1">  1       21 0.16906385E-01 0.30990170E+03</pdfrwt>
<pdfrwt beam="2">  1       21 0.33613246E-01 0.30990170E+03</pdfrwt>
<totfact> 0.26122864E+05</totfact>
</mgrwt>
</event>
<event>
 8    1  0.4760912E-006  0.4801438E+03  0.7546771E-02  0.1019096E+00
         21   -1    0    0  504  503  0.00000000000E+00  0.00000000000E+00  0.85342801309E+03  0.85342801309E+03  0.00000000000E+00 0.  1.
         21   -1    0    0  503  504 -0.00000000000E+00 -0.00000000000E+00 -0.67532947713E+02  0.67532947713E+02  0.00000000000E+00 0.  1.
         25    2    1    2    0    0  0.14506104778E+03 -0.90449559662E+02  0.17605852322E+03  0.27539941459E+03  0.12499761409E+03 0.  0.
         25    2    1    2    0    0 -0.14506104778E+03  0.90449559662E+02  0.60983654215E+03  0.64556154621E+03  0.12500108553E+03 0.  0.
          5    1    3    3  501    0  0.12748404740E+03 -0.10064174116E+03  0.19023331295E+03  0.25018342423E+03  0.47000000000E+01 0. -1.
         -5    1    3    3    0  501  0.17577000375E+02  0.10192181497E+02 -0.14174789722E+02  0.25215990354E+02  0.47000000000E+01 0. -1.
          5    1    4    4  502    0 -0.84497048412E+02  0.91831471031E+02  0.23780009977E+03  0.26859588178E+03  0.47000000000E+01 0. -1.
         -5    1    4    4    0  502 -0.60563999366E+02 -0.13819113690E+01  0.37203644238E+03  0.37696566443E+03  0.47000000000E+01 0. -1.
<mgrwt>
<rscale>  0 0.48014377E+03</rscale>
<asrwt>0</asrwt>
<pdfrwt beam="1">  1       21 0.13129661E+00 0.48014377E+03</pdfrwt>
<pdfrwt beam="2">  1       21 0.10389685E-01 0.48014377E+03</pdfrwt>
<totfact> 0.28653176E+04</totfact>
</mgrwt>
</event>
<event>
 8    1  0.4760912E-006  0.3250149E+03  0.7546771E-02  0.1073364E+00
         21   -1    0    0  504  503  0.00000000000E+00  0.00000000000E+00  0.67939254880E+02  0.67939254880E+02  0.00000000000E+00 0.  1.
         21   -1    0    0  503  504 -0.00000000000E+00 -0.00000000000E+00 -0.38870996751E+03  0.38870996751E+03  0.00000000000E+00 0.  1.
         25    2    1    2    0    0  0.55598085739E+02 -0.74870151099E+02 -0.96177008482E+02  0.18321928791E+03  0.12499041499E+03 0.  0.
         25    2    1    2    0    0 -0.55598085739E+02  0.74870151099E+02 -0.22459370415E+03  0.27342993448E+03  0.12499964185E+03 0.  0.
          5    1    3    3  501    0 -0.51183968668E+01 -0.82203666864E+02 -0.89176109528E+02  0.12148295906E+03  0.47000000000E+01 0. -1.
         -5    1    3    3    0  501  0.60716482606E+02  0.73335157653E+01 -0.70008989533E+01  0.61736328849E+02  0.47000000000E+01 0. -1.
          5    1    4    4  502    0 -0.51932819660E+02  0.10556660988E+03 -0.20535682954E+03  0.23671680193E+03  0.47000000000E+01 0. -1.
         -5    1    4    4    0  502 -0.36652660798E+01 -0.30696458776E+02 -0.19236874617E+02  0.36713132553E+02  0.47000000000E+01 0. -1.
<mgrwt>
<rscale>  0 0.32501486E+03</rscale>
<asrwt>0</asrwt>
<pdfrwt beam="1">  1       21 0.10452193E-01 0.32501486E+03</pdfrwt>
<pdfrwt beam="2">  1       21 0.59801535E-01 0.32501486E+03</pdfrwt>
<totfact> 0.18894749E+05</totfact>
</mgrwt>
</event>
<event>
 8    1  0.4760912E-006  0.2693454E+03  0.7546771E-02  0.1101655E+00
         21   -1    0    0  504  503  0.00000000000E+00  0.00000000000E+00  0.36844583342E+03  0.36844583342E+03  0.00000000000E+00 0.  1.
         21   -1    0    0  503  504 -0.00000000000E+00 -0.00000000000E+00 -0.49224970484E+02  0.49224970484E+02  0.00000000000E+00 0.  1.
         25    2    1    2    0    0 -0.38458791170E+02 -0.26519863682E+02  0.13143682106E+03  0.18730207249E+03  0.12499618651E+03 0.  0.
         25    2    1    2    0    0  0.38458791170E+02  0.26519863682E+02  0.18778404187E+03  0.23036873141E+03  0.12499809695E+03 0.  0.
          5    1    3    3  501    0  0.10530512141E+02 -0.16532052731E+01  0.13164747295E+03  0.13216191550E+03  0.47000000000E+01 0.  1.
         -5    1    3    3    0  501 -0.48989303310E+02 -0.24866658409E+02 -0.21065188895E+00  0.55140156995E+02  0.47000000000E+01 0.  1.
          5    1    4    4  502    0  0.58207830283E+02 -0.33135010557E+02  0.71336492752E+02  0.97964614167E+02  0.47000000000E+01 0. -1.
         -5    1    4    4    0  502 -0.19749039114E+02  0.59654874239E+02  0.11644754912E+03  0.13240411724E+03  0.47000000000E+01 0. -1.
<mgrwt>
<rscale>  0 0.26934539E+03</rscale>
<asrwt>0</asrwt>
<pdfrwt beam="1">  1       21 0.56683972E-01 0.26934539E+03</pdfrwt>
<pdfrwt beam="2">  1       21 0.75730726E-02 0.26934539E+03</pdfrwt>
<totfact> 0.37954749E+05</totfact>
</mgrwt>
</event>
<event>
 8    1  0.4760912E-006  0.2833644E+03  0.7546771E-02  0.1093865E+00
         21   -1    0    0  504  503  0.00000000000E+00  0.00000000000E+00  0.85671756386E+02  0.85671756386E+02  0.00000000000E+00 0. -1.
         21   -1    0    0  503  504 -0.00000000000E+00 -0.00000000000E+00 -0.23431119767E+03  0.23431119767E+03  0.00000000000E+00 0. -1.
         25    2    1    2    0    0 -0.36009631731E+02 -0.14918116774E+02 -0.13543852349E+03  0.18838091519E+03  0.12499812709E+03 0.  0.
         25    2    1    2    0    0  0.36009631731E+02  0.14918116774E+02 -0.13200917800E+02  0.13160203887E+03  0.12500235446E+03 0.  0.
          5    1    3    3  501    0 -0.40887079040E+02  0.35017979160E+02 -0.12428566995E+02  0.55448817610E+02  0.47000000000E+01 0. -1.
         -5    1    3    3    0  501  0.48774473084E+01 -0.49936095934E+02 -0.12300995649E+03  0.13293209758E+03  0.47000000000E+01 0. -1.
          5    1    4    4  502    0  0.10702860054E+02  0.62213368000E+02  0.22290239029E+02  0.67111840439E+02  0.47000000000E+01 0. -1.
         -5    1    4    4    0  502  0.25306771678E+02 -0.47295251226E+02 -0.35491156829E+02  0.64490198436E+02  0.47000000000E+01 0. -1.
<mgrwt>
<rscale>  0 0.28336444E+03</rscale>
<asrwt>0</asrwt>
<pdfrwt beam="1">  1       21 0.13180270E-01 0.28336444E+03</pdfrwt>
<pdfrwt beam="2">  1       21 0.36047876E-01 0.28336444E+03</pdfrwt>
<totfact> 0.36072201E+05</totfact>
</mgrwt>
</event>
<event>
 8    1  0.4760912E-006  0.3291200E+03  0.7546771E-02  0.1071527E+00
         21   -1    0    0  504  503  0.00000000000E+00  0.00000000000E+00  0.80683601950E+03  0.80683601950E+03  0.00000000000E+00 0.  1.
         21   -1    0    0  503  504 -0.00000000000E+00 -0.00000000000E+00 -0.33563189013E+02  0.33563189013E+02  0.00000000000E+00 0.  1.
         25    2    1    2    0    0  0.26594632490E+01  0.48574896194E+02  0.14320263888E+03  0.19620948725E+03  0.12499829528E+03 0.  0.
         25    2    1    2    0    0 -0.26594632490E+01 -0.48574896194E+02  0.63007019161E+03  0.64418972125E+03  0.12500142933E+03 0.  0.
          5    1    3    3  501    0  0.29551365052E+01  0.86706873168E+02  0.12840253504E+03  0.15503585292E+03  0.47000000000E+01 0.  1.
         -5    1    3    3    0  501 -0.29567325626E+00 -0.38131976973E+02  0.14800103836E+02  0.41173634332E+02  0.47000000000E+01 0.  1.
          5    1    4    4  502    0 -0.19839845473E+01 -0.68409661900E+02  0.61504170504E+03  0.61885556229E+03  0.47000000000E+01 0.  1.
         -5    1    4    4    0  502 -0.67547870169E+00  0.19834765706E+02  0.15028486565E+02  0.25334158966E+02  0.47000000000E+01 0.  1.
<mgrwt>
<rscale>  0 0.32911998E+03</rscale>
<asrwt>0</asrwt>
<pdfrwt beam="1">  1       21 0.12412860E+00 0.32911998E+03</pdfrwt>
<pdfrwt beam="2">  1       21 0.51635682E-02 0.32911998E+03</pdfrwt>
<totfact> 0.11789133E+05</totfact>
</mgrwt>
</event>
<event>
 8    1  0.4760912E-006  0.3199384E+03  0.7546771E-02  0.1075678E+00
         21   -1    0    0  504  503  0.00000000000E+00  0.00000000000E+00  0.13603328395E+02  0.13603328395E+02  0.00000000000E+00 0. -1.
         21   -1    0    0  503  504 -0.00000000000E+00 -0.00000000000E+00 -0.18811683050E+04  0.18811683050E+04  0.00000000000E+00 0. -1.
         25    2    1    2    0    0  0.69377982682E+02 -0.41630822918E+02 -0.12800933972E+04  0.12887240412E+04  0.12499647537E+03 0.  0.
         25    2    1    2    0    0 -0.69377982682E+02  0.41630822918E+02 -0.58747157934E+03  0.60604759216E+03  0.12499759007E+03 0.  0.
          5    1    3    3  501    0  0.79407610982E+02 -0.10016620905E+02 -0.11884314697E+04  0.11911328010E+04  0.47000000000E+01 0. -1.
         -5    1    3    3    0  501 -0.10029628299E+02 -0.31614202013E+02 -0.91661927569E+02  0.97591240275E+02  0.47000000000E+01 0. -1.
          5    1    4    4  502    0 -0.79981305474E+02  0.68212780546E+02 -0.31660402459E+03  0.33363181958E+03  0.47000000000E+01 0.  1.
         -5    1    4    4    0  502  0.10603322792E+02 -0.26581957628E+02 -0.27086755476E+03  0.27241577257E+03  0.47000000000E+01 0.  1.
<mgrwt>
<rscale>  0 0.31993843E+03</rscale>
<asrwt>0</asrwt>
<pdfrwt beam="1">  1       21 0.20928196E-02 0.31993843E+03</pdfrwt>
<pdfrwt beam="2">  1       21 0.28941054E+00 0.31993843E+03</pdfrwt>
<totfact> 0.41118359E+04</totfact>
</mgrwt>
</event>
<event>
 8    1  0.4760912E-006  0.4418384E+03  0.7546771E-02  0.1030184E+00
         21   -1    0    0  504  503  0.00000000000E+00  0.00000000000E+00  0.97792049354E+03  0.97792049354E+03  0.00000000000E+00 0.  1.
         21   -1    0    0  503  504 -0.00000000000E+00 -0.00000000000E+00 -0.49907217760E+02  0.49907217760E+02  0.00000000000E+00 0.  1.
         25    2    1    2    0    0 -0.26669682672E+02 -0.15976202088E+03  0.65787966767E+03  0.68895555642E+03  0.12497570284E+03 0.  0.
         25    2    1    2    0    0  0.26669682672E+02  0.15976202088E+03  0.27013360811E+03  0.33887215488E+03  0.12500798306E+03 0.  0.
          5    1    3    3  501    0 -0.24121164267E+02 -0.64776832609E+02  0.92185680072E+02  0.11531764054E+03  0.47000000000E+01 0.  1.
         -5    1    3    3    0  501 -0.25485184053E+01 -0.94985188276E+02  0.56569398760E+03  0.57363791589E+03  0.47000000000E+01 0.  1.
          5    1    4    4  502    0  0.46605291456E+02  0.15762906072E+03  0.16952422622E+03  0.23617689821E+03  0.47000000000E+01 0. -1.
         -5    1    4    4    0  502 -0.19935608784E+02  0.21329601661E+01  0.10060938189E+03  0.10269525666E+03  0.47000000000E+01 0. -1.
<mgrwt>
<rscale>  0 0.44183839E+03</rscale>
<asrwt>0</asrwt>
<pdfrwt beam="1">  1       21 0.15044929E+00 0.44183839E+03</pdfrwt>
<pdfrwt beam="2">  1       21 0.76780342E-02 0.44183839E+03</pdfrwt>
<totfact> 0.34570039E+04</totfact>
</mgrwt>
</event>
<event>
 8    1  0.4760912E-006  0.3043738E+03  0.7546771E-02  0.1083074E+00
         21   -1    0    0  504  503  0.00000000000E+00  0.00000000000E+00  0.11513420393E+03  0.11513420393E+03  0.00000000000E+00 0. -1.
         21   -1    0    0  503  504 -0.00000000000E+00 -0.00000000000E+00 -0.20116395876E+03  0.20116395876E+03  0.00000000000E+00 0. -1.
         25    2    1    2    0    0  0.16538549693E+02  0.49840308113E+02 -0.11482062585E+03  0.17769123974E+03  0.12503127856E+03 0.  0.
         25    2    1    2    0    0 -0.16538549693E+02 -0.49840308113E+02  0.28790871018E+02  0.13860692296E+03  0.12500153958E+03 0.  0.
          5    1    3    3  501    0  0.20134018987E+02 -0.39712174750E+02 -0.27910319129E+02  0.52758994094E+02  0.47000000000E+01 0. -1.
         -5    1    3    3    0  501 -0.35954692933E+01  0.89552482862E+02 -0.86910306723E+02  0.12493224564E+03  0.47000000000E+01 0. -1.
          5    1    4    4  502    0 -0.63274795466E+02 -0.27262563854E+01 -0.55280492979E+01  0.63747796386E+02  0.47000000000E+01 0.  1.
         -5    1    4    4    0  502  0.46736245772E+02 -0.47114051727E+02  0.34318920316E+02  0.74859126569E+02  0.47000000000E+01 0.  1.
<mgrwt>
<rscale>  0 0.30437380E+03</rscale>
<asrwt>0</asrwt>
<pdfrwt beam="1">  1       21 0.17712955E-01 0.30437380E+03</pdfrwt>
<pdfrwt beam="2">  1       21 0.30948301E-01 0.30437380E+03</pdfrwt>
<totfact> 0.28254396E+05</totfact>
</mgrwt>
</event>
<event>
 8    1  0.4760912E-006  0.5414878E+03  0.7546771E-02  0.1003484E+00
         21   -1    0    0  504  503  0.00000000000E+00  0.00000000000E+00  0.12243007762E+04  0.12243007762E+04  0.00000000000E+00 0. -1.
         21   -1    0    0  503  504 -0.00000000000E+00 -0.00000000000E+00 -0.59872761978E+02  0.59872761978E+02  0.00000000000E+00 0. -1.
         25    2    1    2    0    0 -0.19874930722E+03 -0.12794080852E+03  0.68289029163E+03  0.73338021318E+03  0.12504898670E+03 0.  0.
         25    2    1    2    0    0  0.19874930722E+03  0.12794080852E+03  0.48153772257E+03  0.55079332497E+03  0.12499828387E+03 0.  0.
          5    1    3    3  501    0 -0.12705103599E+02  0.61711186729E+01  0.18032041756E+03  0.18093381484E+03  0.47000000000E+01 0.  1.
         -5    1    3    3    0  501 -0.18604420362E+03 -0.13411192719E+03  0.50256987407E+03  0.55244639834E+03  0.47000000000E+01 0.  1.
          5    1    4    4  502    0  0.10908352433E+01 -0.16603736344E+02  0.11472438738E+02  0.20750441747E+02  0.47000000000E+01 0.  1.
         -5    1    4    4    0  502  0.19765847198E+03  0.14454454487E+03  0.47006528383E+03  0.53004288323E+03  0.47000000000E+01 0.  1.
<mgrwt>
<rscale>  0 0.54148784E+03</rscale>
<asrwt>0</asrwt>
<pdfrwt beam="1">  1       21 0.18835395E+00 0.54148784E+03</pdfrwt>
<pdfrwt beam="2">  1       21 0.92111951E-02 0.54148784E+03</pdfrwt>
<totfact> 0.12813530E+04</totfact>
</mgrwt>
</event>
<event>
 8    1  0.4760912E-006  0.3152727E+03  0.7546771E-02  0.1077846E+00
         21   -1    0    0  504  503  0.00000000000E+00  0.00000000000E+00  0.72703829210E+01  0.72703829210E+01  0.00000000000E+00 0.  1.
         21   -1    0    0  503  504 -0.00000000000E+00 -0.00000000000E+00 -0.34178700898E+04  0.34178700898E+04  0.00000000000E+00 0.  1.
         25    2    1    2    0    0  0.46816041384E+02 -0.75045786856E+01 -0.26130094199E+04  0.26164269760E+04  0.12499532782E+03 0.  0.
         25    2    1    2    0    0 -0.46816041384E+02  0.75045786856E+01 -0.79759028701E+03  0.80871349673E+03  0.12497677151E+03 0.  0.
          5    1    3    3  501    0  0.38348421183E+02 -0.67712391101E+01 -0.22470308427E+03  0.22810089251E+03  0.47000000000E+01 0. -1.
         -5    1    3    3    0  501  0.84676202012E+01 -0.73333957558E+00 -0.23883063356E+04  0.23883260835E+04  0.47000000000E+01 0. -1.
          5    1    4    4  502    0  0.25745663617E+02  0.70830700307E+01 -0.44416474998E+02  0.52037701019E+02  0.47000000000E+01 0. -1.
         -5    1    4    4    0  502 -0.72561705001E+02  0.42150865496E+00 -0.75317381202E+03  0.75667579571E+03  0.47000000000E+01 0. -1.
<mgrwt>
<rscale>  0 0.31527273E+03</rscale>
<asrwt>0</asrwt>
<pdfrwt beam="1">  1       21 0.11185185E-02 0.31527273E+03</pdfrwt>
<pdfrwt beam="2">  1       21 0.52582708E+00 0.31527273E+03</pdfrwt>
<totfact> 0.33947632E+03</totfact>
</mgrwt>
</event>
<event>
 8    1  0.4760912E-006  0.2708700E+03  0.7546771E-02  0.1100783E+00
         21   -1    0    0  504  503  0.00000000000E+00  0.00000000000E+00  0.56452356851E+02  0.56452356851E+02  0.00000000000E+00 0. -1.
         21   -1    0    0  503  504 -0.00000000000E+00 -0.00000000000E+00 -0.32492252846E+03  0.32492252846E+03  0.00000000000E+00 0. -1.
         25    2    1    2    0    0  0.20100305374E+02  0.47716837826E+02 -0.14274429780E+03  0.19667847813E+03  0.12500228126E+03 0.  0.
         25    2    1    2    0    0 -0.20100305374E+02 -0.47716837826E+02 -0.12572587381E+03  0.18469640718E+03  0.12499939436E+03 0.  0.
          5    1    3    3  501    0  0.27276198975E+02  0.79218309698E+02 -0.48461181560E+02  0.96902568284E+02  0.47000000000E+01 0.  1.
         -5    1    3    3    0  501 -0.71758936001E+01 -0.31501471871E+02 -0.94283116236E+02  0.99775909849E+02  0.47000000000E+01 0.  1.
          5    1    4    4  502    0  0.47822706789E+02 -0.30321556343E+02 -0.25475779343E+02  0.62269682807E+02  0.47000000000E+01 0. -1.
         -5    1    4    4    0  502 -0.67923012164E+02 -0.17395281483E+02 -0.10025009447E+03  0.12242672437E+03  0.47000000000E+01 0. -1.
<mgrwt>
<rscale>  0 0.27087002E+03</rscale>
<asrwt>0</asrwt>
<pdfrwt beam="1">  1       21 0.86849778E-02 0.27087002E+03</pdfrwt>
<pdfrwt beam="2">  1       21 0.49988082E-01 0.27087002E+03</pdfrwt>
<totfact> 0.38957027E+05</totfact>
</mgrwt>
</event>
<event>
 8    1  0.4760912E-006  0.2963083E+03  0.7546771E-02  0.1087101E+00
         21   -1    0    0  504  503  0.00000000000E+00  0.00000000000E+00  0.31573090768E+03  0.31573090768E+03  0.00000000000E+00 0. -1.
         21   -1    0    0  503  504 -0.00000000000E+00 -0.00000000000E+00 -0.69520145447E+02  0.69520145447E+02  0.00000000000E+00 0. -1.
         25    2    1    2    0    0  0.45958801792E+02 -0.31890755585E+02  0.49612417783E+02  0.14565707264E+03  0.12500143623E+03 0.  0.
         25    2    1    2    0    0 -0.45958801792E+02  0.31890755585E+02  0.19659834445E+03  0.23959398049E+03  0.12500053876E+03 0.  0.
          5    1    3    3  501    0  0.38680232641E+01 -0.75579839106E+02  0.22928193193E+02  0.79215312449E+02  0.47000000000E+01 0. -1.
         -5    1    3    3    0  501  0.42090778528E+02  0.43689083521E+02  0.26684224590E+02  0.66441760196E+02  0.47000000000E+01 0. -1.
          5    1    4    4  502    0 -0.88972272517E+01  0.61304259064E+02  0.35342351914E+02  0.71474083911E+02  0.47000000000E+01 0. -1.
         -5    1    4    4    0  502 -0.37061574540E+02 -0.29413503479E+02  0.16125599254E+03  0.16811989658E+03  0.47000000000E+01 0. -1.
<mgrwt>
<rscale>  0 0.29630834E+03</rscale>
<asrwt>0</asrwt>
<pdfrwt beam="1">  1       21 0.48573985E-01 0.29630834E+03</pdfrwt>
<pdfrwt beam="2">  1       21 0.10695407E-01 0.29630834E+03</pdfrwt>
<totfact> 0.28433011E+05</totfact>
</mgrwt>
</event>
<event>
 8    1  0.4760912E-006  0.3110015E+03  0.7546771E-02  0.1079867E+00
         21   -1    0    0  504  503  0.00000000000E+00  0.00000000000E+00  0.22062746124E+02  0.22062746124E+02  0.00000000000E+00 0.  1.
         21   -1    0    0  503  504 -0.00000000000E+00 -0.00000000000E+00 -0.10959868547E+04  0.10959868547E+04  0.00000000000E+00 0.  1.
         25    2    1    2    0    0 -0.69518439554E+02  0.26142661975E+02 -0.73511841131E+03  0.74936134813E+03  0.12500839660E+03 0.  0.
         25    2    1    2    0    0  0.69518439554E+02 -0.26142661975E+02 -0.33880569724E+03  0.36868825266E+03  0.12500189981E+03 0.  0.
          5    1    3    3  501    0 -0.47586032176E+02  0.69193943426E+02 -0.30078212085E+03  0.31232067893E+03  0.47000000000E+01 0. -1.
         -5    1    3    3    0  501 -0.21932407378E+02 -0.43051281451E+02 -0.43433629046E+03  0.43704066921E+03  0.47000000000E+01 0. -1.
          5    1    4    4  502    0  0.81054110182E+02  0.28821697560E+02 -0.23921981103E+03  0.25426102143E+03  0.47000000000E+01 0.  1.
         -5    1    4    4    0  502 -0.11535670628E+02 -0.54964359535E+02 -0.99585886206E+02  0.11442723123E+03  0.47000000000E+01 0.  1.
<mgrwt>
<rscale>  0 0.31100148E+03</rscale>
<asrwt>0</asrwt>
<pdfrwt beam="1">  1       21 0.33942695E-02 0.31100148E+03</pdfrwt>
<pdfrwt beam="2">  1       21 0.16861332E+00 0.31100148E+03</pdfrwt>
<totfact> 0.10706469E+05</totfact>
</mgrwt>
</event>
<event>
 8    1  0.4760912E-006  0.3502029E+03  0.7546771E-02  0.1062532E+00
         21   -1    0    0  504  503  0.00000000000E+00  0.00000000000E+00  0.85698287700E+03  0.85698287700E+03  0.00000000000E+00 0. -1.
         21   -1    0    0  503  504 -0.00000000000E+00 -0.00000000000E+00 -0.35777282806E+02  0.35777282806E+02  0.00000000000E+00 0. -1.
         25    2    1    2    0    0  0.13426061700E+02 -0.96022203688E+02  0.21924495211E+03  0.27035966589E+03  0.12500190872E+03 0.  0.
         25    2    1    2    0    0 -0.13426061700E+02  0.96022203688E+02  0.60196064208E+03  0.62240049391E+03  0.12500094987E+03 0.  0.
          5    1    3    3  501    0 -0.27640109788E+02  0.20100813940E+02  0.56604917504E+02  0.66288951385E+02  0.47000000000E+01 0.  1.
         -5    1    3    3    0  501  0.41066171488E+02 -0.11612301763E+03  0.16264003461E+03  0.20407071451E+03  0.47000000000E+01 0.  1.
          5    1    4    4  502    0  0.47617111039E+02  0.72487232357E+02  0.25759365451E+03  0.27184254443E+03  0.47000000000E+01 0.  1.
         -5    1    4    4    0  502 -0.61043172739E+02  0.23534971331E+02  0.34436698757E+03  0.35055794948E+03  0.47000000000E+01 0.  1.
<mgrwt>
<rscale>  0 0.35020291E+03</rscale>
<asrwt>0</asrwt>
<pdfrwt beam="1">  1       21 0.13184350E+00 0.35020291E+03</pdfrwt>
<pdfrwt beam="2">  1       21 0.55041980E-02 0.35020291E+03</pdfrwt>
<totfact> 0.89966301E+04</totfact>
</mgrwt>
</event>
<event>
 8    1  0.4760912E-006  0.2816412E+03  0.7546771E-02  0.1094796E+00
         21   -1    0    0  504  503  0.00000000000E+00  0.00000000000E+00  0.40859405621E+03  0.40859405621E+03  0.00000000000E+00 0. -1.
         21   -1    0    0  503  504 -0.00000000000E+00 -0.00000000000E+00 -0.48533343060E+02  0.48533343060E+02  0.00000000000E+00 0. -1.
         25    2    1    2    0    0 -0.54287569337E+02 -0.35021045277E+02  0.17090391283E+03  0.22137483717E+03  0.12500022926E+03 0.  0.
         25    2    1    2    0    0  0.54287569337E+02  0.35021045277E+02  0.18915680032E+03  0.23575256210E+03  0.12500144652E+03 0.  0.
          5    1    3    3  501    0 -0.26176603214E+02  0.29514604670E+02  0.13786015193E+03  0.14347068667E+03  0.47000000000E+01 0. -1.
         -5    1    3    3    0  501 -0.28110966123E+02 -0.64535649947E+02  0.33043760901E+02  0.77904150499E+02  0.47000000000E+01 0. -1.
          5    1    4    4  502    0  0.23985620048E+02  0.10516899774E+02  0.19434563005E+03  0.19615868339E+03  0.47000000000E+01 0. -1.
         -5    1    4    4    0  502  0.30301949290E+02  0.24504145504E+02 -0.51888297241E+01  0.39593878713E+02  0.47000000000E+01 0. -1.
<mgrwt>
<rscale>  0 0.28164116E+03</rscale>
<asrwt>0</asrwt>
<pdfrwt beam="1">  1       21 0.62860622E-01 0.28164116E+03</pdfrwt>
<pdfrwt beam="2">  1       21 0.74666684E-02 0.28164116E+03</pdfrwt>
<totfact> 0.31022431E+05</totfact>
</mgrwt>
</event>
