<event>
 8    1  0.3682083E-007  0.1370405E+03  0.7546771E-02  0.1217376E+00
          5   -1    0    0  501    0  0.00000000000E+00  0.00000000000E+00  0.54967406068E+03  0.54969415404E+03  0.47000000000E+01 0.  1.
         -5   -1    0    0    0  501 -0.00000000000E+00 -0.00000000000E+00 -0.34274461571E+02  0.34595212328E+02  0.47000000000E+01 0.  1.
         25    2    1    2    0    0  0.40553564720E+02 -0.38871816417E+02  0.23065300805E+03  0.26829259453E+03  0.12499798574E+03 0.  0.
         25    2    1    2    0    0 -0.40553564720E+02  0.38871816417E+02  0.28474659106E+03  0.31599677183E+03  0.12497091247E+03 0.  0.
          5    1    3    3  502    0  0.85225343072E+02 -0.33877589919E+02  0.15632501765E+03  0.18130265124E+03  0.47000000000E+01 0. -1.
         -5    1    3    3    0  502 -0.44671778352E+02 -0.49942264983E+01  0.74327990391E+02  0.86989943299E+02  0.47000000000E+01 0. -1.
          5    1    4    4  503    0 -0.35649717533E+02  0.43861322472E+02  0.29630919765E+03  0.30168849594E+03  0.47000000000E+01 0.  1.
         -5    1    4    4    0  503 -0.49038471863E+01 -0.49895060552E+01 -0.11562606589E+02  0.14308275893E+02  0.47000000000E+01 0.  1.
<mgrwt>
<rscale>  0 0.13703435E+03</rscale>
<asrwt>0</asrwt>
<pdfrwt beam="1">  1        5 0.84591462E-01 0.13704053E+03</pdfrwt>
<pdfrwt beam="2">  1       -5 0.52992127E-02 0.13704053E+03</pdfrwt>
<totfact> 0.20259643E+02</totfact>
</mgrwt>
</event>
<event>
 8    1  0.3682083E-007  0.2506701E+03  0.7546771E-02  0.1112882E+00
          5   -1    0    0  501    0  0.00000000000E+00  0.00000000000E+00  0.16540555815E+04  0.16540622590E+04  0.47000000000E+01 0. -1.
         -5   -1    0    0    0  501 -0.00000000000E+00 -0.00000000000E+00 -0.43208282703E+02  0.43463153292E+02  0.47000000000E+01 0. -1.
         25    2    1    2    0    0 -0.16562817712E+03  0.14063528034E+03  0.11037278739E+04  0.11318351183E+04  0.12499816075E+03 0.  0.
         25    2    1    2    0    0  0.16562817712E+03 -0.14063528034E+03  0.50711942490E+03  0.56569029403E+03  0.12499769007E+03 0.  0.
          5    1    4    4  502    0  0.16438263325E+03 -0.15667151701E+03  0.49613109195E+03  0.54565168813E+03  0.47000000000E+01 0.  1.
         -5    1    4    4    0  502  0.12455438728E+01  0.16036236661E+02  0.10988332946E+02  0.20038605908E+02  0.47000000000E+01 0. -1.
          5    1    3    3  503    0 -0.15511760811E+03  0.12888562073E+03  0.71922126279E+03  0.74697676699E+03  0.47000000000E+01 0. -1.
         -5    1    3    3    0  503 -0.10510569017E+02  0.11749659618E+02  0.38450661113E+03  0.38485835130E+03  0.47000000000E+01 0. -1.
<mgrwt>
<rscale>  0 0.25067007E+03</rscale>
<asrwt>0</asrwt>
<pdfrwt beam="1">  1        5 0.25449024E+00 0.25067013E+03</pdfrwt>
<pdfrwt beam="2">  1       -5 0.66675464E-02 0.25067013E+03</pdfrwt>
<totfact> 0.70814096E+00</totfact>
</mgrwt>
</event>
<event>
 8    1  0.3682083E-007  0.1349175E+03  0.7546771E-02  0.1220342E+00
          5   -1    0    0  501    0  0.00000000000E+00  0.00000000000E+00  0.27213743731E+03  0.27217802040E+03  0.47000000000E+01 0.  1.
         -5   -1    0    0    0  501 -0.00000000000E+00 -0.00000000000E+00 -0.66876592985E+02  0.67041544502E+02  0.47000000000E+01 0.  1.
         25    2    1    2    0    0 -0.47435192571E+02 -0.17963012133E+02  0.10995885934E+03  0.17403722359E+03  0.12500094859E+03 0.  0.
         25    2    1    2    0    0  0.47435192571E+02  0.17963012133E+02  0.95301984984E+02  0.16518234130E+03  0.12501987937E+03 0.  0.
          5    1    4    4  502    0  0.86079971101E+02 -0.20378162328E+00  0.39680464990E+02  0.94902224703E+02  0.47000000000E+01 0.  1.
         -5    1    4    4    0  502 -0.38644778530E+02  0.18166793756E+02  0.55621519994E+02  0.70280116601E+02  0.47000000000E+01 0.  1.
          5    1    3    3  503    0 -0.36907676914E+00 -0.64844912591E+02  0.35261162105E+02  0.73962412478E+02  0.47000000000E+01 0. -1.
         -5    1    3    3    0  503 -0.47066115802E+02  0.46881900458E+02  0.74697697238E+02  0.10007481112E+03  0.47000000000E+01 0. -1.
<mgrwt>
<rscale>  0 0.13491314E+03</rscale>
<asrwt>0</asrwt>
<pdfrwt beam="1">  1        5 0.41883108E-01 0.13491752E+03</pdfrwt>
<pdfrwt beam="2">  1       -5 0.10304517E-01 0.13491752E+03</pdfrwt>
<totfact> 0.30213384E+02</totfact>
</mgrwt>
</event>
<event>
 8    1  0.3682083E-007  0.1289418E+03  0.7546771E-02  0.1229049E+00
          5   -1    0    0  501    0  0.00000000000E+00  0.00000000000E+00  0.51530214541E+02  0.51744110879E+02  0.47000000000E+01 0.  1.
         -5   -1    0    0    0  501 -0.00000000000E+00 -0.00000000000E+00 -0.38303705188E+03  0.38306588612E+03  0.47000000000E+01 0.  1.
         25    2    1    2    0    0 -0.31373068776E+02  0.39323790158E+01 -0.25278099475E+03  0.28376791480E+03  0.12500506035E+03 0.  0.
         25    2    1    2    0    0  0.31373068776E+02 -0.39323790158E+01 -0.78725842580E+02  0.15104208220E+03  0.12496487208E+03 0.  0.
          5    1    3    3  502    0  0.34403837750E+02  0.23784002330E+02 -0.17450642421E+03  0.17951012481E+03  0.47000000000E+01 0. -1.
         -5    1    3    3    0  502 -0.65776906526E+02 -0.19851623314E+02 -0.78274570542E+02  0.10425778999E+03  0.47000000000E+01 0. -1.
          5    1    4    4  503    0  0.27001547823E+02 -0.50381219664E+02 -0.86223265382E+02  0.10355622807E+03  0.47000000000E+01 0.  1.
         -5    1    4    4    0  503  0.43715209527E+01  0.46448840648E+02  0.74974228017E+01  0.47485854122E+02  0.47000000000E+01 0.  1.
<mgrwt>
<rscale>  0 0.12893210E+03</rscale>
<asrwt>0</asrwt>
<pdfrwt beam="1">  1        5 0.79463972E-02 0.12894184E+03</pdfrwt>
<pdfrwt beam="2">  1       -5 0.58947447E-01 0.12894184E+03</pdfrwt>
<totfact> 0.22611794E+02</totfact>
</mgrwt>
</event>
<event>
 8    1  0.3682083E-007  0.1734293E+03  0.7546771E-02  0.1174319E+00
         -5   -1    0    0    0  501 -0.00000000000E+00  0.00000000000E+00  0.18450435675E+03  0.18456421012E+03  0.47000000000E+01 0. -1.
          5   -1    0    0  501    0  0.00000000000E+00 -0.00000000000E+00 -0.20925593895E+03  0.20930871455E+03  0.47000000000E+01 0. -1.
         25    2    1    2    0    0 -0.21839536475E+02 -0.11822036401E+03  0.80292056023E+02  0.19111227912E+03  0.12499627655E+03 0.  0.
         25    2    1    2    0    0  0.21839536475E+02  0.11822036401E+03 -0.10504363822E+03  0.20276064555E+03  0.12499877452E+03 0.  0.
          5    1    3    3  502    0  0.25277693377E+02 -0.10709989787E+03  0.17246597044E+02  0.11148490937E+03  0.47000000000E+01 0.  1.
         -5    1    3    3    0  502 -0.47117229851E+02 -0.11120466136E+02  0.63045458979E+02  0.79627369753E+02  0.47000000000E+01 0.  1.
          5    1    4    4  503    0  0.46921881211E+02 -0.49118627502E+01 -0.23802065516E+02  0.53051085332E+02  0.47000000000E+01 0.  1.
         -5    1    4    4    0  503 -0.25082344737E+02  0.12313222676E+03 -0.81241572706E+02  0.14970956022E+03  0.47000000000E+01 0.  1.
<mgrwt>
<rscale>  0 0.17342882E+03</rscale>
<asrwt>0</asrwt>
<pdfrwt beam="2">  1        5 0.32201885E-01 0.17342928E+03</pdfrwt>
<pdfrwt beam="1">  1       -5 0.28393949E-01 0.17342928E+03</pdfrwt>
<totfact> 0.86064483E+01</totfact>
</mgrwt>
</event>
<event>
 8    1  0.3682083E-007  0.1318131E+03  0.7546771E-02  0.1224796E+00
         -5   -1    0    0    0  501 -0.00000000000E+00  0.00000000000E+00  0.54024770002E+03  0.54026814396E+03  0.47000000000E+01 0.  1.
          5   -1    0    0  501    0  0.00000000000E+00 -0.00000000000E+00 -0.36068933832E+02  0.36373864076E+02  0.47000000000E+01 0.  1.
         25    2    1    2    0    0  0.33493373100E+02 -0.25043945098E+02  0.34888268557E+03  0.37294724005E+03  0.12498604059E+03 0.  0.
         25    2    1    2    0    0 -0.33493373100E+02  0.25043945098E+02  0.15529608062E+03  0.20369476799E+03  0.12500272246E+03 0.  0.
          5    1    4    4  502    0 -0.66822004141E+02  0.33009859381E+02  0.15149121134E+03  0.16889792233E+03  0.47000000000E+01 0. -1.
         -5    1    4    4    0  502  0.33328631041E+02 -0.79659142837E+01  0.38048692772E+01  0.34796845657E+02  0.47000000000E+01 0. -1.
          5    1    3    3  503    0 -0.46722066992E+02 -0.32318857472E+01  0.15375468111E+03  0.16079797447E+03  0.47000000000E+01 0. -1.
         -5    1    3    3    0  503  0.80215440092E+02 -0.21812059351E+02  0.19512800446E+03  0.21214926558E+03  0.47000000000E+01 0. -1.
<mgrwt>
<rscale>  0 0.13180912E+03</rscale>
<asrwt>0</asrwt>
<pdfrwt beam="2">  1        5 0.55740955E-02 0.13181307E+03</pdfrwt>
<pdfrwt beam="1">  1       -5 0.83140060E-01 0.13181307E+03</pdfrwt>
<totfact> 0.19136600E+02</totfact>
</mgrwt>
</event>
<event>
 8    1  0.3682083E-007  0.1308401E+03  0.7546771E-02  0.1226217E+00
         -5   -1    0    0    0  501 -0.00000000000E+00  0.00000000000E+00  0.90597270834E+03  0.90598489957E+03  0.47000000000E+01 0.  1.
          5   -1    0    0  501    0  0.00000000000E+00 -0.00000000000E+00 -0.19014486584E+02  0.19586748072E+02  0.47000000000E+01 0.  1.
         25    2    1    2    0    0 -0.21722348303E+02 -0.31964733756E+02  0.51154726382E+03  0.52801343545E+03  0.12499592102E+03 0.  0.
         25    2    1    2    0    0  0.21722348303E+02  0.31964733756E+02  0.37541095794E+03  0.39755821220E+03  0.12500216050E+03 0.  0.
          5    1    4    4  502    0 -0.44704580104E+02  0.33289629878E+02  0.10393523339E+03  0.11803101999E+03  0.47000000000E+01 0. -1.
         -5    1    4    4    0  502  0.66426928407E+02 -0.13248961225E+01  0.27147572454E+03  0.27952719221E+03  0.47000000000E+01 0. -1.
          5    1    3    3  503    0  0.51565753357E+02 -0.59174310749E+01  0.23415099678E+03  0.23988085001E+03  0.47000000000E+01 0.  1.
         -5    1    3    3    0  503 -0.73288101659E+02 -0.26047302681E+02  0.27739626704E+03  0.28813258543E+03  0.47000000000E+01 0.  1.
<mgrwt>
<rscale>  0 0.13083866E+03</rscale>
<asrwt>0</asrwt>
<pdfrwt beam="2">  1        5 0.29702636E-02 0.13084015E+03</pdfrwt>
<pdfrwt beam="1">  1       -5 0.13942537E+00 0.13084015E+03</pdfrwt>
<totfact> 0.14880391E+02</totfact>
</mgrwt>
</event>
<event>
 8    1  0.3682083E-007  0.1309030E+03  0.7546771E-02  0.1226130E+00
          5   -1    0    0  501    0  0.00000000000E+00  0.00000000000E+00  0.21051525572E+03  0.21056771569E+03  0.47000000000E+01 0.  1.
         -5   -1    0    0    0  501 -0.00000000000E+00 -0.00000000000E+00 -0.86858522469E+02  0.86985590332E+02  0.47000000000E+01 0.  1.
         25    2    1    2    0    0  0.31844573505E+01 -0.38649700622E+02  0.24080071036E+02  0.13309939812E+03  0.12502663649E+03 0.  0.
         25    2    1    2    0    0 -0.31844573505E+01  0.38649700622E+02  0.99576662216E+02  0.16445390790E+03  0.12500254413E+03 0.  0.
          5    1    3    3  502    0 -0.70227085948E+01  0.33233578690E+02 -0.27465342125E+02  0.43934316959E+02  0.47000000000E+01 0.  1.
         -5    1    3    3    0  502  0.10207165945E+02 -0.71883279312E+02  0.51545413161E+02  0.89165081166E+02  0.47000000000E+01 0.  1.
          5    1    4    4  503    0  0.25254334926E+02  0.18211088942E+02  0.11971215132E+03  0.12378414425E+03  0.47000000000E+01 0.  1.
         -5    1    4    4    0  503 -0.28438792276E+02  0.20438611680E+02 -0.20135489108E+02  0.40669763648E+02  0.47000000000E+01 0.  1.
<mgrwt>
<rscale>  0 0.13089726E+03</rscale>
<asrwt>0</asrwt>
<pdfrwt beam="1">  1        5 0.32400772E-01 0.13090302E+03</pdfrwt>
<pdfrwt beam="2">  1       -5 0.13376659E-01 0.13090302E+03</pdfrwt>
<totfact> 0.31643634E+02</totfact>
</mgrwt>
</event>
<event>
 8    1  0.3682083E-007  0.1424525E+03  0.7546771E-02  0.1210072E+00
         -5   -1    0    0    0  501 -0.00000000000E+00  0.00000000000E+00  0.84277538156E+02  0.84408491502E+02  0.47000000000E+01 0.  1.
          5   -1    0    0  501    0  0.00000000000E+00 -0.00000000000E+00 -0.24295864183E+03  0.24300409799E+03  0.47000000000E+01 0.  1.
         25    2    1    2    0    0  0.18503356569E+02  0.65770269373E+02 -0.62604179926E+02  0.15560203701E+03  0.12499843214E+03 0.  0.
         25    2    1    2    0    0 -0.18503356569E+02 -0.65770269373E+02 -0.96076923746E+02  0.17181055248E+03  0.12497995091E+03 0.  0.
          5    1    3    3  502    0 -0.18759402081E+02  0.88543132741E+02 -0.65131787422E+02  0.11160663625E+03  0.47000000000E+01 0.  1.
         -5    1    3    3    0  502  0.37262758650E+02 -0.22772863368E+02  0.25276074962E+01  0.43995400758E+02  0.47000000000E+01 0.  1.
          5    1    4    4  503    0 -0.51138138185E+02  0.95496937252E+01 -0.10774169604E+02  0.53333653146E+02  0.47000000000E+01 0.  1.
         -5    1    4    4    0  503  0.32634781616E+02 -0.75319963098E+02 -0.85302754142E+02  0.11847689934E+03  0.47000000000E+01 0.  1.
<mgrwt>
<rscale>  0 0.14244843E+03</rscale>
<asrwt>0</asrwt>
<pdfrwt beam="2">  1        5 0.37391822E-01 0.14245249E+03</pdfrwt>
<pdfrwt beam="1">  1       -5 0.12979345E-01 0.14245249E+03</pdfrwt>
<totfact> 0.25806140E+02</totfact>
</mgrwt>
</event>
<event>
 8    1  0.3682083E-007  0.1284185E+03  0.7546771E-02  0.1229826E+00
          5   -1    0    0  501    0  0.00000000000E+00  0.00000000000E+00  0.29280029786E+03  0.29283801739E+03  0.47000000000E+01 0.  1.
         -5   -1    0    0    0  501 -0.00000000000E+00 -0.00000000000E+00 -0.59256973872E+02  0.59443073209E+02  0.47000000000E+01 0.  1.
         25    2    1    2    0    0  0.29147314702E+02  0.41831273042E+01  0.76700829363E+02  0.14958054046E+03  0.12499702537E+03 0.  0.
         25    2    1    2    0    0 -0.29147314702E+02 -0.41831273042E+01  0.15684249463E+03  0.20270055014E+03  0.12498352050E+03 0.  0.
          5    1    4    4  502    0 -0.39485355465E+02 -0.47132934163E+02  0.14369836508E+03  0.15637108718E+03  0.47000000000E+01 0. -1.
         -5    1    4    4    0  502  0.10338040763E+02  0.42949806859E+02  0.13144129541E+02  0.46329462952E+02  0.47000000000E+01 0. -1.
          5    1    3    3  503    0 -0.25993446234E+02  0.46515029137E+02  0.12714627890E+02  0.54982351215E+02  0.47000000000E+01 0. -1.
         -5    1    3    3    0  503  0.55140760937E+02 -0.42331901833E+02  0.63986201473E+02  0.94598189245E+02  0.47000000000E+01 0. -1.
<mgrwt>
<rscale>  0 0.12841525E+03</rscale>
<asrwt>0</asrwt>
<pdfrwt beam="1">  1        5 0.45063417E-01 0.12841854E+03</pdfrwt>
<pdfrwt beam="2">  1       -5 0.91336742E-02 0.12841854E+03</pdfrwt>
<totfact> 0.31468406E+02</totfact>
</mgrwt>
</event>
<event>
 8    1  0.3682083E-007  0.1437130E+03  0.7546771E-02  0.1208420E+00
         -5   -1    0    0    0  501 -0.00000000000E+00  0.00000000000E+00  0.40816968410E+02  0.41086675580E+02  0.47000000000E+01 0. -1.
          5   -1    0    0  501    0  0.00000000000E+00 -0.00000000000E+00 -0.50598405369E+03  0.50600588197E+03  0.47000000000E+01 0. -1.
         25    2    1    2    0    0  0.70280129189E+02 -0.94306414376E+01 -0.24953797923E+03  0.28796069215E+03  0.12499569426E+03 0.  0.
         25    2    1    2    0    0 -0.70280129189E+02  0.94306414376E+01 -0.21562910605E+03  0.25913186540E+03  0.12500071494E+03 0.  0.
          5    1    3    3  502    0  0.29525086570E+02 -0.45116271193E+02 -0.30189660457E+02  0.61973496447E+02  0.47000000000E+01 0.  1.
         -5    1    3    3    0  502  0.40755042619E+02  0.35685629755E+02 -0.21934831878E+03  0.22598719570E+03  0.47000000000E+01 0.  1.
          5    1    4    4  503    0  0.24214408908E+02  0.37491797154E+02 -0.72970945896E+02  0.85666921257E+02  0.47000000000E+01 0. -1.
         -5    1    4    4    0  503 -0.94494538097E+02 -0.28061155717E+02 -0.14265816015E+03  0.17346494415E+03  0.47000000000E+01 0. -1.
<mgrwt>
<rscale>  0 0.14371186E+03</rscale>
<asrwt>0</asrwt>
<pdfrwt beam="2">  1        5 0.77866122E-01 0.14371295E+03</pdfrwt>
<pdfrwt beam="1">  1       -5 0.63019598E-02 0.14371295E+03</pdfrwt>
<totfact> 0.18653165E+02</totfact>
</mgrwt>
</event>
<event>
 8    1  0.3682083E-007  0.1541806E+03  0.7546771E-02  0.1195432E+00
         -5   -1    0    0    0  501 -0.00000000000E+00  0.00000000000E+00  0.26967664558E+03  0.26971759893E+03  0.47000000000E+01 0. -1.
          5   -1    0    0  501    0  0.00000000000E+00 -0.00000000000E+00 -0.88084003345E+02  0.88209305888E+02  0.47000000000E+01 0. -1.
         25    2    1    2    0    0  0.89093595683E+02  0.14364753533E+02  0.95184497060E+02  0.18119532107E+03  0.12501056341E+03 0.  0.
         25    2    1    2    0    0 -0.89093595683E+02 -0.14364753533E+02  0.86408145174E+02  0.17673158374E+03  0.12499468070E+03 0.  0.
          5    1    4    4  502    0 -0.29527903983E+02 -0.15968246927E+02  0.10798803588E+03  0.11318298422E+03  0.47000000000E+01 0. -1.
         -5    1    4    4    0  502 -0.59565691700E+02  0.16034933931E+01 -0.21579890703E+02  0.63548599524E+02  0.47000000000E+01 0. -1.
          5    1    3    3  503    0  0.25392723010E+02 -0.39353345341E+01  0.11005089853E+03  0.11310865355E+03  0.47000000000E+01 0.  1.
         -5    1    3    3    0  503  0.63700872673E+02  0.18300088068E+02 -0.14866401469E+02  0.68086667529E+02  0.47000000000E+01 0.  1.
<mgrwt>
<rscale>  0 0.15417738E+03</rscale>
<asrwt>0</asrwt>
<pdfrwt beam="2">  1        5 0.13564174E-01 0.15418060E+03</pdfrwt>
<pdfrwt beam="1">  1       -5 0.41501503E-01 0.15418060E+03</pdfrwt>
<totfact> 0.19784203E+02</totfact>
</mgrwt>
</event>
<event>
 8    1  0.3682083E-007  0.1253692E+03  0.7546771E-02  0.1234496E+00
         -5   -1    0    0    0  501 -0.00000000000E+00  0.00000000000E+00  0.73418297887E+02  0.73568583408E+02  0.47000000000E+01 0. -1.
          5   -1    0    0  501    0  0.00000000000E+00 -0.00000000000E+00 -0.21984536816E+03  0.21989560228E+03  0.47000000000E+01 0. -1.
         25    2    1    2    0    0  0.95132618376E+01 -0.49635443690E+00 -0.48635908131E+02  0.13446564467E+03  0.12499923807E+03 0.  0.
         25    2    1    2    0    0 -0.95132618376E+01  0.49635443690E+00 -0.97791162141E+02  0.15899854102E+03  0.12500670436E+03 0.  0.
          5    1    3    3  502    0 -0.52020390594E+02 -0.11950496813E+02 -0.47629126517E+02  0.71690718398E+02  0.47000000000E+01 0.  1.
         -5    1    3    3    0  502  0.61533652432E+02  0.11454142376E+02 -0.10067816142E+01  0.62774926272E+02  0.47000000000E+01 0.  1.
          5    1    4    4  503    0 -0.24384666124E+02 -0.58230292888E+02 -0.61302931563E+02  0.88122178650E+02  0.47000000000E+01 0.  1.
         -5    1    4    4    0  503  0.14871404286E+02  0.58726647325E+02 -0.36488230578E+02  0.70876362366E+02  0.47000000000E+01 0.  1.
<mgrwt>
<rscale>  0 0.12536729E+03</rscale>
<asrwt>0</asrwt>
<pdfrwt beam="2">  1        5 0.33837789E-01 0.12536915E+03</pdfrwt>
<pdfrwt beam="1">  1       -5 0.11310547E-01 0.12536915E+03</pdfrwt>
<totfact> 0.38478907E+02</totfact>
</mgrwt>
</event>
<event>
 8    1  0.3682083E-007  0.1493942E+03  0.7546771E-02  0.1201220E+00
         -5   -1    0    0    0  501 -0.00000000000E+00  0.00000000000E+00  0.69023630641E+02  0.69183463247E+02  0.47000000000E+01 0. -1.
          5   -1    0    0  501    0  0.00000000000E+00 -0.00000000000E+00 -0.33787257258E+03  0.33790526084E+03  0.47000000000E+01 0. -1.
         25    2    1    2    0    0  0.34115721518E+01 -0.81737847847E+02 -0.91433711725E+02  0.17515349457E+03  0.12500363364E+03 0.  0.
         25    2    1    2    0    0 -0.34115721518E+01  0.81737847847E+02 -0.17741523022E+03  0.23193522952E+03  0.12500028874E+03 0.  0.
          5    1    4    4  502    0  0.40563388026E+02 -0.13214757119E+02 -0.36423099359E+02  0.56291654984E+02  0.47000000000E+01 0. -1.
         -5    1    4    4    0  502 -0.43974960178E+02  0.94952604966E+02 -0.14099213086E+03  0.17564357454E+03  0.47000000000E+01 0. -1.
          5    1    3    3  503    0  0.32551779730E+02  0.22028203302E+02 -0.37556011327E+02  0.54565594390E+02  0.47000000000E+01 0. -1.
         -5    1    3    3    0  503 -0.29140207579E+02 -0.10376605115E+03 -0.53877700398E+02  0.12058790018E+03  0.47000000000E+01 0. -1.
<mgrwt>
<rscale>  0 0.14939349E+03</rscale>
<asrwt>0</asrwt>
<pdfrwt beam="2">  1        5 0.51995204E-01 0.14939419E+03</pdfrwt>
<pdfrwt beam="1">  1       -5 0.10633830E-01 0.14939419E+03</pdfrwt>
<totfact> 0.18798808E+02</totfact>
</mgrwt>
</event>
<event>
 8    1  0.3682083E-007  0.1464513E+03  0.7546771E-02  0.1204904E+00
         -5   -1    0    0    0  501 -0.00000000000E+00  0.00000000000E+00  0.14062859504E+04  0.14062938044E+04  0.47000000000E+01 0.  1.
          5   -1    0    0  501    0  0.00000000000E+00 -0.00000000000E+00 -0.21478670549E+02  0.21986889014E+02  0.47000000000E+01 0.  1.
         25    2    1    2    0    0 -0.95425082069E+01  0.75704156752E+02  0.10825695866E+04  0.10924301175E+04  0.12499789129E+03 0.  0.
         25    2    1    2    0    0  0.95425082069E+01 -0.75704156752E+02  0.30223769323E+03  0.33585057597E+03  0.12500322937E+03 0.  0.
          5    1    3    3  502    0  0.49445583052E+02 -0.84497391977E+00  0.37505886973E+03  0.37833427736E+03  0.47000000000E+01 0. -1.
         -5    1    3    3    0  502 -0.58988091259E+02  0.76549130672E+02  0.70751071691E+03  0.71409584010E+03  0.47000000000E+01 0. -1.
          5    1    4    4  503    0 -0.40484230952E+02 -0.69823029427E+02  0.25160525662E+03  0.26427546907E+03  0.47000000000E+01 0. -1.
         -5    1    4    4    0  503  0.50026739159E+02 -0.58811273254E+01  0.50632436614E+02  0.71575106895E+02  0.47000000000E+01 0. -1.
<mgrwt>
<rscale>  0 0.14645017E+03</rscale>
<asrwt>0</asrwt>
<pdfrwt beam="2">  1        5 0.33441089E-02 0.14645131E+03</pdfrwt>
<pdfrwt beam="1">  1       -5 0.21639137E+00 0.14645131E+03</pdfrwt>
<totfact> 0.35194426E+01</totfact>
</mgrwt>
</event>
<event>
 8    1  0.3682083E-007  0.1332639E+03  0.7546771E-02  0.1222695E+00
          5   -1    0    0  501    0  0.00000000000E+00  0.00000000000E+00  0.20911682413E+03  0.20916963483E+03  0.47000000000E+01 0. -1.
         -5   -1    0    0    0  501 -0.00000000000E+00 -0.00000000000E+00 -0.88014976419E+02  0.88140377092E+02  0.47000000000E+01 0. -1.
         25    2    1    2    0    0 -0.40843217432E+02 -0.21522940352E+02  0.32129261783E+02  0.13708229168E+03  0.12501143891E+03 0.  0.
         25    2    1    2    0    0  0.40843217432E+02  0.21522940352E+02  0.88972585931E+02  0.16022772024E+03  0.12500158365E+03 0.  0.
          5    1    3    3  502    0  0.30783039317E+01 -0.77213630567E+01 -0.45616547486E+02  0.46605308786E+02  0.47000000000E+01 0. -1.
         -5    1    3    3    0  502 -0.43921521363E+02 -0.13801577296E+02  0.77745809268E+02  0.90476982893E+02  0.47000000000E+01 0. -1.
          5    1    4    4  503    0 -0.40653555698E+02 -0.41723370769E+01  0.53742748607E+02  0.67679339649E+02  0.47000000000E+01 0.  1.
         -5    1    4    4    0  503  0.81496773129E+02  0.25695277429E+02  0.35229837324E+02  0.92548380594E+02  0.47000000000E+01 0.  1.
<mgrwt>
<rscale>  0 0.13326158E+03</rscale>
<asrwt>0</asrwt>
<pdfrwt beam="1">  1        5 0.32185527E-01 0.13326389E+03</pdfrwt>
<pdfrwt beam="2">  1       -5 0.13554474E-01 0.13326389E+03</pdfrwt>
<totfact> 0.31516388E+02</totfact>
</mgrwt>
</event>
<event>
 8    1  0.3682083E-007  0.2073799E+03  0.7546771E-02  0.1143658E+00
          5   -1    0    0  501    0  0.00000000000E+00  0.00000000000E+00  0.49944404494E+02  0.50165062944E+02  0.47000000000E+01 0.  1.
         -5   -1    0    0    0  501 -0.00000000000E+00 -0.00000000000E+00 -0.87596881865E+03  0.87598142745E+03  0.47000000000E+01 0.  1.
         25    2    1    2    0    0  0.72187733268E+02  0.14889652453E+03 -0.47753331721E+03  0.52061909215E+03  0.12499970485E+03 0.  0.
         25    2    1    2    0    0 -0.72187733268E+02 -0.14889652453E+03 -0.34849109694E+03  0.40552739825E+03  0.12500072892E+03 0.  0.
          5    1    3    3  502    0  0.94032215711E+02  0.15415778744E+03 -0.38481851478E+03  0.42510476396E+03  0.47000000000E+01 0. -1.
         -5    1    3    3    0  502 -0.21844482443E+02 -0.52612629121E+01 -0.92714802429E+02  0.95514328192E+02  0.47000000000E+01 0. -1.
          5    1    4    4  503    0 -0.10094709258E+03 -0.72799961418E+02 -0.18762880697E+03  0.22520392779E+03  0.47000000000E+01 0.  1.
         -5    1    4    4    0  503  0.28759359315E+02 -0.76096563111E+02 -0.16086228997E+03  0.18032347046E+03  0.47000000000E+01 0.  1.
<mgrwt>
<rscale>  0 0.20737975E+03</rscale>
<asrwt>0</asrwt>
<pdfrwt beam="1">  1        5 0.77016988E-02 0.20737991E+03</pdfrwt>
<pdfrwt beam="2">  1       -5 0.13478237E+00 0.20737991E+03</pdfrwt>
<totfact> 0.38046157E+01</totfact>
</mgrwt>
</event>
<event>
 8    1  0.3682083E-007  0.1910814E+03  0.7546771E-02  0.1157492E+00
         -5   -1    0    0    0  501 -0.00000000000E+00  0.00000000000E+00  0.37307941826E+03  0.37310902205E+03  0.47000000000E+01 0.  1.
          5   -1    0    0  501    0  0.00000000000E+00 -0.00000000000E+00 -0.97826682382E+02  0.97939521062E+02  0.47000000000E+01 0.  1.
         25    2    1    2    0    0  0.20553792430E+01  0.14449414683E+03  0.14321874637E+03  0.23878774367E+03  0.12500077665E+03 0.  0.
         25    2    1    2    0    0 -0.20553792430E+01 -0.14449414683E+03  0.13203398951E+03  0.23226079944E+03  0.12501728487E+03 0.  0.
          5    1    4    4  502    0  0.41636490526E+02 -0.91321286273E+01  0.83083086335E+01  0.43681931149E+02  0.47000000000E+01 0. -1.
         -5    1    4    4    0  502 -0.43691869769E+02 -0.13536201821E+03  0.12372568088E+03  0.18857886829E+03  0.47000000000E+01 0. -1.
          5    1    3    3  503    0 -0.12864240143E+02  0.13512047182E+03  0.51461132557E+02  0.14523556294E+03  0.47000000000E+01 0.  1.
         -5    1    3    3    0  503  0.14919619386E+02  0.93736750111E+01  0.91757613811E+02  0.93552180724E+02  0.47000000000E+01 0.  1.
<mgrwt>
<rscale>  0 0.19107871E+03</rscale>
<asrwt>0</asrwt>
<pdfrwt beam="2">  1        5 0.15061216E-01 0.19108141E+03</pdfrwt>
<pdfrwt beam="1">  1       -5 0.57407790E-01 0.19108141E+03</pdfrwt>
<totfact> 0.87747113E+01</totfact>
</mgrwt>
</event>
<event>
 8    1  0.3682083E-007  0.1396980E+03  0.7546771E-02  0.1213736E+00
         -5   -1    0    0    0  501 -0.00000000000E+00  0.00000000000E+00  0.58389588723E+02  0.58578443742E+02  0.47000000000E+01 0.  1.
          5   -1    0    0  501    0  0.00000000000E+00 -0.00000000000E+00 -0.33581933184E+03  0.33585221994E+03  0.47000000000E+01 0.  1.
         25    2    1    2    0    0  0.19336951986E+01  0.62342683111E+02 -0.12226271368E+03  0.18564405060E+03  0.12500077220E+03 0.  0.
         25    2    1    2    0    0 -0.19336951986E+01 -0.62342683111E+02 -0.15516702943E+03  0.20878661309E+03  0.12499877386E+03 0.  0.
          5    1    3    3  502    0 -0.67848290713E+01 -0.53975440968E+01 -0.11652712955E+03  0.11694370145E+03  0.47000000000E+01 0.  1.
         -5    1    3    3    0  502  0.87185242699E+01  0.67740227208E+02 -0.57355841361E+01  0.68700349147E+02  0.47000000000E+01 0.  1.
          5    1    4    4  503    0 -0.31118394780E+02 -0.77805109374E+02 -0.48302611404E+02  0.96836056337E+02  0.47000000000E+01 0.  1.
         -5    1    4    4    0  503  0.29184699581E+02  0.15462426263E+02 -0.10686441803E+03  0.11195055675E+03  0.47000000000E+01 0.  1.
<mgrwt>
<rscale>  0 0.13969759E+03</rscale>
<asrwt>0</asrwt>
<pdfrwt beam="2">  1        5 0.51681569E-01 0.13969804E+03</pdfrwt>
<pdfrwt beam="1">  1       -5 0.90000710E-02 0.13969804E+03</pdfrwt>
<totfact> 0.24909665E+02</totfact>
</mgrwt>
</event>
<event>
 8    1  0.3682083E-007  0.1277146E+03  0.7546771E-02  0.1230887E+00
         -5   -1    0    0    0  501 -0.00000000000E+00  0.00000000000E+00  0.19694440016E+02  0.20247492870E+02  0.47000000000E+01 0. -1.
          5   -1    0    0  501    0  0.00000000000E+00 -0.00000000000E+00 -0.83895762936E+03  0.83897079440E+03  0.47000000000E+01 0. -1.
         25    2    1    2    0    0 -0.24624374483E+02  0.89191174728E+01 -0.33885546540E+03  0.36212413147E+03  0.12499979874E+03 0.  0.
         25    2    1    2    0    0  0.24624374483E+02 -0.89191174728E+01 -0.48040772394E+03  0.49709415580E+03  0.12500043214E+03 0.  0.
          5    1    3    3  502    0 -0.13619906253E+02  0.50269402489E+02 -0.58428021011E+02  0.78411978117E+02  0.47000000000E+01 0.  1.
         -5    1    3    3    0  502 -0.11004468230E+02 -0.41350285016E+02 -0.28042744439E+03  0.28371215335E+03  0.47000000000E+01 0.  1.
          5    1    4    4  503    0 -0.45729851998E+02  0.21276812423E+02 -0.20945515721E+03  0.21549356137E+03  0.47000000000E+01 0.  1.
         -5    1    4    4    0  503  0.70354226482E+02 -0.30195929896E+02 -0.27095256673E+03  0.28160059443E+03  0.47000000000E+01 0.  1.
<mgrwt>
<rscale>  0 0.12771444E+03</rscale>
<asrwt>0</asrwt>
<pdfrwt beam="2">  1        5 0.12911393E+00 0.12771460E+03</pdfrwt>
<pdfrwt beam="1">  1       -5 0.30734697E-02 0.12771460E+03</pdfrwt>
<totfact> 0.17084340E+02</totfact>
</mgrwt>
</event>
<event>
 8    1  0.3682083E-007  0.1295072E+03  0.7546771E-02  0.1228191E+00
         -5   -1    0    0    0  501 -0.00000000000E+00  0.00000000000E+00  0.82652105519E+03  0.82653441833E+03  0.47000000000E+01 0.  1.
          5   -1    0    0  501    0  0.00000000000E+00 -0.00000000000E+00 -0.20010649224E+02  0.20555195994E+02  0.47000000000E+01 0.  1.
         25    2    1    2    0    0  0.33833903770E+02  0.12584759644E+01  0.40979541767E+03  0.42977249208E+03  0.12500317517E+03 0.  0.
         25    2    1    2    0    0 -0.33833903770E+02 -0.12584759644E+01  0.39671498830E+03  0.41731712224E+03  0.12499792704E+03 0.  0.
          5    1    3    3  502    0  0.17770198611E+02 -0.52423590070E+01 -0.46451449199E+00  0.19119834213E+02  0.47000000000E+01 0. -1.
         -5    1    3    3    0  502  0.16063705159E+02  0.65008349714E+01  0.41025993216E+03  0.41065265787E+03  0.47000000000E+01 0. -1.
          5    1    4    4  503    0 -0.46600649460E+02 -0.49334545721E+02  0.30872634922E+03  0.31613219803E+03  0.47000000000E+01 0. -1.
         -5    1    4    4    0  503  0.12766745690E+02  0.48076069757E+02  0.87988639081E+02  0.10118492420E+03  0.47000000000E+01 0. -1.
<mgrwt>
<rscale>  0 0.12950592E+03</rscale>
<asrwt>0</asrwt>
<pdfrwt beam="2">  1        5 0.31214770E-02 0.12950718E+03</pdfrwt>
<pdfrwt beam="1">  1       -5 0.12720003E+00 0.12950718E+03</pdfrwt>
<totfact> 0.17401574E+02</totfact>
</mgrwt>
</event>
<event>
 8    1  0.3682083E-007  0.1538946E+03  0.7546771E-02  0.1195769E+00
         -5   -1    0    0    0  501 -0.00000000000E+00  0.00000000000E+00  0.55422877729E+02  0.55621806657E+02  0.47000000000E+01 0. -1.
          5   -1    0    0  501    0  0.00000000000E+00 -0.00000000000E+00 -0.43523223585E+03  0.43525761237E+03  0.47000000000E+01 0. -1.
         25    2    1    2    0    0 -0.80803653986E+02  0.39113378280E+02 -0.15482152290E+03  0.21829623461E+03  0.12499782092E+03 0.  0.
         25    2    1    2    0    0  0.80803653986E+02 -0.39113378280E+02 -0.22498783523E+03  0.27258318441E+03  0.12499191801E+03 0.  0.
          5    1    3    3  502    0 -0.91958900116E+01  0.19665602477E+02 -0.14091696130E+03  0.14265686207E+03  0.47000000000E+01 0.  1.
         -5    1    3    3    0  502 -0.71607763975E+02  0.19447775802E+02 -0.13904561598E+02  0.75639372541E+02  0.47000000000E+01 0.  1.
          5    1    4    4  503    0  0.10471287001E+03  0.33187163354E+01 -0.15766007446E+03  0.18935307788E+03  0.47000000000E+01 0.  1.
         -5    1    4    4    0  503 -0.23909216022E+02 -0.42432094615E+02 -0.67327760764E+02  0.83230106535E+02  0.47000000000E+01 0.  1.
<mgrwt>
<rscale>  0 0.15389338E+03</rscale>
<asrwt>0</asrwt>
<pdfrwt beam="2">  1        5 0.66976057E-01 0.15389458E+03</pdfrwt>
<pdfrwt beam="1">  1       -5 0.85438511E-02 0.15389458E+03</pdfrwt>
<totfact> 0.15973335E+02</totfact>
</mgrwt>
</event>
<event>
 8    1  0.3682083E-007  0.1264205E+03  0.7546771E-02  0.1232869E+00
         -5   -1    0    0    0  501 -0.00000000000E+00  0.00000000000E+00  0.12904002558E+03  0.12912559081E+03  0.47000000000E+01 0. -1.
          5   -1    0    0  501    0  0.00000000000E+00 -0.00000000000E+00 -0.12389083094E+03  0.12397994995E+03  0.47000000000E+01 0. -1.
         25    2    1    2    0    0 -0.78580560825E+01  0.17213902004E+02 -0.26967540563E+01  0.12644930742E+03  0.12499634953E+03 0.  0.
         25    2    1    2    0    0  0.78580560825E+01 -0.17213902004E+02  0.78459486981E+01  0.12665623334E+03  0.12498869975E+03 0.  0.
          5    1    3    3  502    0 -0.33188464996E+02  0.59454063677E+02 -0.24317560044E+02  0.72454769498E+02  0.47000000000E+01 0.  1.
         -5    1    3    3    0  502  0.25330408913E+02 -0.42240161673E+02  0.21620805988E+02  0.53994537922E+02  0.47000000000E+01 0.  1.
          5    1    4    4  503    0  0.64807220455E+02  0.32547930256E+01  0.10496730634E+02  0.65900234103E+02  0.47000000000E+01 0. -1.
         -5    1    4    4    0  503 -0.56949164373E+02 -0.20468695029E+02 -0.26507819363E+01  0.60755999242E+02  0.47000000000E+01 0. -1.
<mgrwt>
<rscale>  0 0.12641866E+03</rscale>
<asrwt>0</asrwt>
<pdfrwt beam="2">  1        5 0.19073565E-01 0.12642055E+03</pdfrwt>
<pdfrwt beam="1">  1       -5 0.19865749E-01 0.12642055E+03</pdfrwt>
<totfact> 0.41872008E+02</totfact>
</mgrwt>
</event>
<event>
 8    1  0.3682083E-007  0.1469270E+03  0.7546771E-02  0.1204305E+00
          5   -1    0    0  501    0  0.00000000000E+00  0.00000000000E+00  0.16047373134E+02  0.16721488705E+02  0.47000000000E+01 0.  1.
         -5   -1    0    0    0  501 -0.00000000000E+00 -0.00000000000E+00 -0.13641669086E+04  0.13641750051E+04  0.47000000000E+01 0.  1.
         25    2    1    2    0    0 -0.74721343435E+02 -0.19520236960E+02 -0.80275051849E+03  0.81608573992E+03  0.12499288439E+03 0.  0.
         25    2    1    2    0    0  0.74721343435E+02  0.19520236960E+02 -0.54536901695E+03  0.56481075385E+03  0.12497801488E+03 0.  0.
          5    1    4    4  502    0  0.70948118504E+02  0.60031636993E+02 -0.25269409868E+03  0.26928392167E+03  0.47000000000E+01 0. -1.
         -5    1    4    4    0  502  0.37732249302E+01 -0.40511400033E+02 -0.29267491827E+03  0.29552683219E+03  0.47000000000E+01 0. -1.
          5    1    3    3  503    0 -0.90714120441E+02  0.24104572711E+02 -0.41358969814E+03  0.42413277459E+03  0.47000000000E+01 0.  1.
         -5    1    3    3    0  503  0.15992777007E+02 -0.43624809671E+02 -0.38916082035E+03  0.39195296533E+03  0.47000000000E+01 0.  1.
<mgrwt>
<rscale>  0 0.14692383E+03</rscale>
<asrwt>0</asrwt>
<pdfrwt beam="1">  1        5 0.25213055E-02 0.14692699E+03</pdfrwt>
<pdfrwt beam="2">  1       -5 0.20992422E+00 0.14692699E+03</pdfrwt>
<totfact> 0.61316509E+01</totfact>
</mgrwt>
</event>
<event>
 8    1  0.3682083E-007  0.1481004E+03  0.7546771E-02  0.1202832E+00
         -5   -1    0    0    0  501 -0.00000000000E+00  0.00000000000E+00  0.61266543721E+02  0.61446557101E+02  0.47000000000E+01 0. -1.
          5   -1    0    0  501    0  0.00000000000E+00 -0.00000000000E+00 -0.36757501577E+03  0.36760506283E+03  0.47000000000E+01 0. -1.
         25    2    1    2    0    0  0.25210817170E+02 -0.75317954090E+02 -0.11719504802E+03  0.18884831246E+03  0.12498250409E+03 0.  0.
         25    2    1    2    0    0 -0.25210817170E+02  0.75317954090E+02 -0.18911342403E+03  0.24020330747E+03  0.12500144903E+03 0.  0.
          5    1    4    4  502    0  0.14934326051E+02  0.91074001831E+02 -0.78023211394E+02  0.12094304205E+03  0.47000000000E+01 0.  1.
         -5    1    4    4    0  502 -0.40145143221E+02 -0.15756047741E+02 -0.11109021263E+03  0.11926026542E+03  0.47000000000E+01 0.  1.
          5    1    3    3  503    0  0.75257315778E+01 -0.10033501067E+03 -0.45079480274E+02  0.11035397838E+03  0.47000000000E+01 0.  1.
         -5    1    3    3    0  503  0.17685085592E+02  0.25017056579E+02 -0.72115567745E+02  0.78494334085E+02  0.47000000000E+01 0.  1.
<mgrwt>
<rscale>  0 0.14809645E+03</rscale>
<asrwt>0</asrwt>
<pdfrwt beam="2">  1        5 0.56566160E-01 0.14810044E+03</pdfrwt>
<pdfrwt beam="1">  1       -5 0.94417808E-02 0.14810044E+03</pdfrwt>
<totfact> 0.19247941E+02</totfact>
</mgrwt>
</event>
<event>
 8    1  0.3682083E-007  0.1308768E+03  0.7546771E-02  0.1226163E+00
         -5   -1    0    0    0  501 -0.00000000000E+00  0.00000000000E+00  0.21347368051E+03  0.21352541364E+03  0.47000000000E+01 0.  1.
          5   -1    0    0  501    0  0.00000000000E+00 -0.00000000000E+00 -0.86457453870E+02  0.86585110324E+02  0.47000000000E+01 0.  1.
         25    2    1    2    0    0  0.76923654404E+01  0.37989324875E+02  0.10414472301E+03  0.16725690578E+03  0.12500555151E+03 0.  0.
         25    2    1    2    0    0 -0.76923654404E+01 -0.37989324875E+02  0.22871503621E+02  0.13285361818E+03  0.12499846757E+03 0.  0.
          5    1    3    3  502    0  0.15990344314E+02  0.64956630346E+01 -0.26810865260E+02  0.32230377682E+02  0.47000000000E+01 0.  1.
         -5    1    3    3    0  502 -0.82979788734E+01  0.31493661840E+02  0.13095558827E+03  0.13502652810E+03  0.47000000000E+01 0.  1.
          5    1    4    4  503    0 -0.21033282610E+01  0.36264576103E+02 -0.24871035279E+02  0.44274167023E+02  0.47000000000E+01 0.  1.
         -5    1    4    4    0  503 -0.55890371794E+01 -0.74253900978E+02  0.47742538901E+02  0.88579451159E+02  0.47000000000E+01 0.  1.
<mgrwt>
<rscale>  0 0.13087516E+03</rscale>
<asrwt>0</asrwt>
<pdfrwt beam="2">  1        5 0.13314946E-01 0.13087685E+03</pdfrwt>
<pdfrwt beam="1">  1       -5 0.32855904E-01 0.13087685E+03</pdfrwt>
<totfact> 0.31033652E+02</totfact>
</mgrwt>
</event>
<event>
 8    1  0.3682083E-007  0.1788843E+03  0.7546771E-02  0.1168888E+00
          5   -1    0    0  501    0  0.00000000000E+00  0.00000000000E+00  0.36247168761E+03  0.36250215768E+03  0.47000000000E+01 0. -1.
         -5   -1    0    0    0  501 -0.00000000000E+00 -0.00000000000E+00 -0.14333726787E+03  0.14341430319E+03  0.47000000000E+01 0. -1.
         25    2    1    2    0    0  0.59671853410E+02  0.11321533842E+03 -0.47273082773E+02  0.18502519022E+03  0.12498453392E+03 0.  0.
         25    2    1    2    0    0 -0.59671853410E+02 -0.11321533842E+03  0.26640750252E+03  0.32089127065E+03  0.12497922722E+03 0.  0.
          5    1    3    3  502    0  0.96843337155E+01  0.17690512390E+02  0.40785004166E+02  0.45741087798E+02  0.47000000000E+01 0. -1.
         -5    1    3    3    0  502  0.49987519695E+02  0.95524826026E+02 -0.88058086939E+02  0.13928410242E+03  0.47000000000E+01 0. -1.
          5    1    4    4  503    0 -0.65593173223E+02 -0.44457134402E+01  0.13429032826E+03  0.14959348584E+03  0.47000000000E+01 0. -1.
         -5    1    4    4    0  503  0.59213198131E+01 -0.10876962498E+03  0.13211717426E+03  0.17129778481E+03  0.47000000000E+01 0. -1.
<mgrwt>
<rscale>  0 0.17888333E+03</rscale>
<asrwt>0</asrwt>
<pdfrwt beam="1">  1        5 0.55773144E-01 0.17888425E+03</pdfrwt>
<pdfrwt beam="2">  1       -5 0.22060157E-01 0.17888425E+03</pdfrwt>
<totfact> 0.45146826E+01</totfact>
</mgrwt>
</event>
<event>
 8    1  0.3682083E-007  0.1478411E+03  0.7546771E-02  0.1203153E+00
         -5   -1    0    0    0  501 -0.00000000000E+00  0.00000000000E+00  0.14913727683E+03  0.14921131773E+03  0.47000000000E+01 0. -1.
          5   -1    0    0  501    0  0.00000000000E+00 -0.00000000000E+00 -0.16190160736E+03  0.16196981344E+03  0.47000000000E+01 0. -1.
         25    2    1    2    0    0 -0.14458374531E+02  0.77599786321E+02  0.41737698614E+02  0.15361972050E+03  0.12500484634E+03 0.  0.
         25    2    1    2    0    0  0.14458374531E+02 -0.77599786321E+02 -0.54502029147E+02  0.15756141067E+03  0.12499742206E+03 0.  0.
          5    1    4    4  502    0 -0.16807196395E+02 -0.75569937879E+01 -0.75530709954E+02  0.77888177229E+02  0.47000000000E+01 0. -1.
         -5    1    4    4    0  502  0.31265570926E+02 -0.70042792533E+02  0.21028680808E+02  0.79673233445E+02  0.47000000000E+01 0. -1.
          5    1    3    3  503    0 -0.75454987905E+01  0.13606589670E+02  0.77943884241E+02  0.79620430324E+02  0.47000000000E+01 0.  1.
         -5    1    3    3    0  503 -0.69128757401E+01  0.63993196651E+02 -0.36206185627E+02  0.73999290174E+02  0.47000000000E+01 0.  1.
<mgrwt>
<rscale>  0 0.14783950E+03</rscale>
<asrwt>0</asrwt>
<pdfrwt beam="2">  1        5 0.24918882E-01 0.14784107E+03</pdfrwt>
<pdfrwt beam="1">  1       -5 0.22955138E-01 0.14784107E+03</pdfrwt>
<totfact> 0.20357012E+02</totfact>
</mgrwt>
</event>
<event>
 8    1  0.3682083E-007  0.1686538E+03  0.7546771E-02  0.1179259E+00
         -5   -1    0    0    0  501 -0.00000000000E+00  0.00000000000E+00  0.47399108976E+03  0.47401439131E+03  0.47000000000E+01 0. -1.
          5   -1    0    0  501    0  0.00000000000E+00 -0.00000000000E+00 -0.73512835881E+02  0.73662928527E+02  0.47000000000E+01 0. -1.
         25    2    1    2    0    0 -0.11242200193E+03  0.13411779937E+02  0.31795719824E+03  0.35991728234E+03  0.12500035142E+03 0.  0.
         25    2    1    2    0    0  0.11242200193E+03 -0.13411779937E+02  0.82521055634E+02  0.18776003749E+03  0.12500209877E+03 0.  0.
          5    1    4    4  502    0  0.42934557827E+02  0.50828454719E+01 -0.30924452878E+02  0.53363127341E+02  0.47000000000E+01 0. -1.
         -5    1    4    4    0  502  0.69487444105E+02 -0.18494625409E+02  0.11344550851E+03  0.13439691015E+03  0.47000000000E+01 0. -1.
          5    1    3    3  503    0 -0.95981679994E+02  0.63467205264E+02  0.20344990158E+03  0.23378306503E+03  0.47000000000E+01 0. -1.
         -5    1    3    3    0  503 -0.16440321937E+02 -0.50055425327E+02  0.11450729666E+03  0.12613421732E+03  0.47000000000E+01 0. -1.
<mgrwt>
<rscale>  0 0.16865348E+03</rscale>
<asrwt>0</asrwt>
<pdfrwt beam="2">  1        5 0.11323006E-01 0.16865381E+03</pdfrwt>
<pdfrwt beam="1">  1       -5 0.72935041E-01 0.16865381E+03</pdfrwt>
<totfact> 0.82810452E+01</totfact>
</mgrwt>
</event>
<event>
 8    1  0.3682083E-007  0.1401540E+03  0.7546771E-02  0.1213124E+00
          5   -1    0    0  501    0  0.00000000000E+00  0.00000000000E+00  0.25681785260E+03  0.25686085613E+03  0.47000000000E+01 0. -1.
         -5   -1    0    0    0  501 -0.00000000000E+00 -0.00000000000E+00 -0.80234963906E+02  0.80372504211E+02  0.47000000000E+01 0. -1.
         25    2    1    2    0    0  0.63327879607E+02 -0.28326259891E+01  0.51289990676E+02  0.14924410495E+03  0.12499878244E+03 0.  0.
         25    2    1    2    0    0 -0.63327879607E+02  0.28326259891E+01  0.12529289801E+03  0.18798925539E+03  0.12499282278E+03 0.  0.
          5    1    4    4  502    0 -0.87813495289E+02 -0.27290663269E+02  0.54179232471E+02  0.10683384055E+03  0.47000000000E+01 0.  1.
         -5    1    4    4    0  502  0.24485615681E+02  0.30123289258E+02  0.71113665543E+02  0.81155414840E+02  0.47000000000E+01 0.  1.
          5    1    3    3  503    0 -0.86193138541E+00  0.46138334044E+02  0.50218977949E+02  0.68363181175E+02  0.47000000000E+01 0.  1.
         -5    1    3    3    0  503  0.64189810993E+02 -0.48970960033E+02  0.10710127269E+01  0.80880923771E+02  0.47000000000E+01 0.  1.
<mgrwt>
<rscale>  0 0.14015266E+03</rscale>
<asrwt>0</asrwt>
<pdfrwt beam="1">  1        5 0.39524327E-01 0.14015399E+03</pdfrwt>
<pdfrwt beam="2">  1       -5 0.12357729E-01 0.14015399E+03</pdfrwt>
<totfact> 0.25022796E+02</totfact>
</mgrwt>
</event>
<event>
 8    1  0.3682083E-007  0.1770288E+03  0.7546771E-02  0.1170710E+00
         -5   -1    0    0    0  501 -0.00000000000E+00  0.00000000000E+00  0.21446515312E+03  0.21451664715E+03  0.47000000000E+01 0.  1.
          5   -1    0    0  501    0  0.00000000000E+00 -0.00000000000E+00 -0.14801060678E+03  0.14808521100E+03  0.47000000000E+01 0.  1.
         25    2    1    2    0    0 -0.71965425880E+02  0.10263762618E+03  0.54250792563E+02  0.18515494811E+03  0.12500280591E+03 0.  0.
         25    2    1    2    0    0  0.71965425880E+02 -0.10263762618E+03  0.12203753781E+02  0.17744691004E+03  0.12499987778E+03 0.  0.
          5    1    3    3  502    0 -0.10398577056E+03  0.84948068972E+02  0.21967053381E+02  0.13613910656E+03  0.47000000000E+01 0. -1.
         -5    1    3    3    0  502  0.32020344678E+02  0.17689557213E+02  0.32283739181E+02  0.49015841554E+02  0.47000000000E+01 0. -1.
          5    1    4    4  503    0  0.17090174829E+02 -0.99578517902E+02  0.47725306837E+02  0.11183805352E+03  0.47000000000E+01 0.  1.
         -5    1    4    4    0  503  0.54875251051E+02 -0.30591082825E+01 -0.35521553056E+02  0.65608856513E+02  0.47000000000E+01 0.  1.
<mgrwt>
<rscale>  0 0.17702831E+03</rscale>
<asrwt>0</asrwt>
<pdfrwt beam="2">  1        5 0.22780563E-01 0.17702883E+03</pdfrwt>
<pdfrwt beam="1">  1       -5 0.33004339E-01 0.17702883E+03</pdfrwt>
<totfact> 0.12608093E+02</totfact>
</mgrwt>
</event>
<event>
 8    1  0.3682083E-007  0.1694369E+03  0.7546771E-02  0.1178439E+00
          5   -1    0    0  501    0  0.00000000000E+00  0.00000000000E+00  0.17317328780E+03  0.17323705611E+03  0.47000000000E+01 0. -1.
         -5   -1    0    0    0  501 -0.00000000000E+00 -0.00000000000E+00 -0.21649001651E+03  0.21654102902E+03  0.47000000000E+01 0. -1.
         25    2    1    2    0    0  0.11422302722E+03 -0.62562447061E+01 -0.11608147497E+03  0.20538691295E+03  0.12499133824E+03 0.  0.
         25    2    1    2    0    0 -0.11422302722E+03  0.62562447061E+01  0.72764746263E+02  0.18439117218E+03  0.12497742009E+03 0.  0.
          5    1    4    4  502    0 -0.47473172600E+02 -0.44519697627E+02 -0.10529569443E+02  0.66095895684E+02  0.47000000000E+01 0.  1.
         -5    1    4    4    0  502 -0.66749854624E+02  0.50775942334E+02  0.83294315705E+02  0.11829527649E+03  0.47000000000E+01 0.  1.
          5    1    3    3  503    0  0.15477000625E+02 -0.51530902949E+02 -0.12985678624E+02  0.55548981597E+02  0.47000000000E+01 0.  1.
         -5    1    3    3    0  503  0.98746026599E+02  0.45274658243E+02 -0.10309579635E+03  0.14983793135E+03  0.47000000000E+01 0.  1.
<mgrwt>
<rscale>  0 0.16943437E+03</rscale>
<asrwt>0</asrwt>
<pdfrwt beam="1">  1        5 0.26650873E-01 0.16943694E+03</pdfrwt>
<pdfrwt beam="2">  1       -5 0.33314986E-01 0.16943694E+03</pdfrwt>
<totfact> 0.90372677E+01</totfact>
</mgrwt>
</event>
<event>
 8    1  0.3682083E-007  0.1337253E+03  0.7546771E-02  0.1222032E+00
         -5   -1    0    0    0  501 -0.00000000000E+00  0.00000000000E+00  0.67947696119E+03  0.67949321615E+03  0.47000000000E+01 0.  1.
          5   -1    0    0  501    0  0.00000000000E+00 -0.00000000000E+00 -0.31021498461E+02  0.31375521777E+02  0.47000000000E+01 0.  1.
         25    2    1    2    0    0 -0.38471066495E+02 -0.27889619041E+02  0.46502943259E+03  0.48387481163E+03  0.12499842538E+03 0.  0.
         25    2    1    2    0    0  0.38471066495E+02  0.27889619041E+02  0.18342603014E+03  0.22699392630E+03  0.12499312075E+03 0.  0.
          5    1    3    3  502    0 -0.82668256863E+02 -0.53571041657E+01  0.31717491489E+03  0.32784867835E+03  0.47000000000E+01 0.  1.
         -5    1    3    3    0  502  0.44197190368E+02 -0.22532514876E+02  0.14785451770E+03  0.15602613328E+03  0.47000000000E+01 0.  1.
          5    1    4    4  503    0 -0.30399325163E+02  0.14715923059E+02  0.14064593218E+03  0.14472057767E+03  0.47000000000E+01 0. -1.
         -5    1    4    4    0  503  0.68870391657E+02  0.13173695982E+02  0.42780097961E+02  0.82273348628E+02  0.47000000000E+01 0. -1.
<mgrwt>
<rscale>  0 0.13372408E+03</rscale>
<asrwt>0</asrwt>
<pdfrwt beam="2">  1        5 0.48010217E-02 0.13372532E+03</pdfrwt>
<pdfrwt beam="1">  1       -5 0.10456339E+00 0.13372532E+03</pdfrwt>
<totfact> 0.14245783E+02</totfact>
</mgrwt>
</event>
<event>
 8    1  0.3682083E-007  0.1334453E+03  0.7546771E-02  0.1222434E+00
         -5   -1    0    0    0  501 -0.00000000000E+00  0.00000000000E+00  0.36453901553E+02  0.36755638186E+02  0.47000000000E+01 0. -1.
          5   -1    0    0  501    0  0.00000000000E+00 -0.00000000000E+00 -0.69508925609E+03  0.69510514596E+03  0.47000000000E+01 0.  1.
         25    2    1    2    0    0  0.45769949735E+02 -0.92891187007E+01 -0.12872705777E+03  0.18540818188E+03  0.12499744990E+03 0.  0.
         25    2    1    2    0    0 -0.45769949735E+02  0.92891187007E+01 -0.52990829677E+03  0.54645260226E+03  0.12500586989E+03 0.  0.
          5    1    3    3  502    0 -0.27433711378E+02  0.65774612688E+01  0.77719486872E+01  0.29637218208E+02  0.47000000000E+01 0.  1.
         -5    1    3    3    0  502  0.73203661112E+02 -0.15866579970E+02 -0.13649900646E+03  0.15577096368E+03  0.47000000000E+01 0.  1.
          5    1    4    4  503    0 -0.67031753112E+02 -0.38918131221E+01 -0.50922702898E+03  0.51365616825E+03  0.47000000000E+01 0.  1.
         -5    1    4    4    0  503  0.21261803378E+02  0.13180931823E+02 -0.20681267788E+02  0.32796434012E+02  0.47000000000E+01 0.  1.
<mgrwt>
<rscale>  0 0.13344331E+03</rscale>
<asrwt>0</asrwt>
<pdfrwt beam="2">  1        5 0.10696123E+00 0.13344528E+03</pdfrwt>
<pdfrwt beam="1">  1       -5 0.56327259E-02 0.13344528E+03</pdfrwt>
<totfact> 0.10318616E+02</totfact>
</mgrwt>
</event>
<event>
 8    1  0.3682083E-007  0.1604661E+03  0.7546771E-02  0.1188176E+00
         -5   -1    0    0    0  501 -0.00000000000E+00  0.00000000000E+00  0.12559389717E+04  0.12559477659E+04  0.47000000000E+01 0.  1.
          5   -1    0    0  501    0  0.00000000000E+00 -0.00000000000E+00 -0.33040038651E+02  0.33372655784E+02  0.47000000000E+01 0.  1.
         25    2    1    2    0    0  0.75719819151E+01  0.10034103539E+03  0.10103322895E+04  0.10229959412E+04  0.12499480852E+03 0.  0.
         25    2    1    2    0    0 -0.75719819151E+01 -0.10034103539E+03  0.21256664354E+03  0.26632448049E+03  0.12497396796E+03 0.  0.
          5    1    3    3  502    0  0.30720272885E+02  0.30360163832E+02  0.92482016414E+02  0.10217870656E+03  0.47000000000E+01 0. -1.
         -5    1    3    3    0  502 -0.23148290970E+02  0.69980871555E+02  0.91785027307E+03  0.92081723460E+03  0.47000000000E+01 0. -1.
          5    1    4    4  503    0  0.30462558087E+02 -0.78676610974E+02  0.50620429409E+02  0.98501240769E+02  0.47000000000E+01 0.  1.
         -5    1    4    4    0  503 -0.38034540002E+02 -0.21664424413E+02  0.16194621413E+03  0.16782323972E+03  0.47000000000E+01 0.  1.
<mgrwt>
<rscale>  0 0.16046201E+03</rscale>
<asrwt>0</asrwt>
<pdfrwt beam="2">  1        5 0.51093448E-02 0.16046607E+03</pdfrwt>
<pdfrwt beam="1">  1       -5 0.19324766E+00 0.16046607E+03</pdfrwt>
<totfact> 0.25676974E+01</totfact>
</mgrwt>
</event>
<event>
 8    1  0.3682083E-007  0.1265592E+03  0.7546771E-02  0.1232659E+00
         -5   -1    0    0    0  501 -0.00000000000E+00  0.00000000000E+00  0.96110818760E+01  0.10698733328E+02  0.47000000000E+01 0. -1.
          5   -1    0    0  501    0  0.00000000000E+00 -0.00000000000E+00 -0.15838620065E+04  0.15838689799E+04  0.47000000000E+01 0. -1.
         25    2    1    2    0    0 -0.12608224598E+01  0.19653662949E+02 -0.73094942594E+03  0.74182497021E+03  0.12501746679E+03 0.  0.
         25    2    1    2    0    0  0.12608224598E+01 -0.19653662949E+02 -0.84330149866E+03  0.85274274304E+03  0.12499964811E+03 0.  0.
          5    1    3    3  502    0  0.34203565503E+02 -0.12208971313E+02 -0.61866433414E+03  0.61974719944E+03  0.47000000000E+01 0. -1.
         -5    1    3    3    0  502 -0.35464387963E+02  0.31862634263E+02 -0.11228509180E+03  0.12207777077E+03  0.47000000000E+01 0. -1.
          5    1    4    4  503    0  0.31033095239E+02  0.43434596800E+02 -0.46058145307E+03  0.46368845372E+03  0.47000000000E+01 0. -1.
         -5    1    4    4    0  503 -0.29772272779E+02 -0.63088259750E+02 -0.38272004559E+03  0.38905428932E+03  0.47000000000E+01 0. -1.
<mgrwt>
<rscale>  0 0.12655477E+03</rscale>
<asrwt>0</asrwt>
<pdfrwt beam="2">  1        5 0.24375508E+00 0.12655917E+03</pdfrwt>
<pdfrwt beam="1">  1       -5 0.15628312E-02 0.12655917E+03</pdfrwt>
<totfact> 0.75770536E+01</totfact>
</mgrwt>
</event>
<event>
 8    1  0.3682083E-007  0.1835198E+03  0.7546771E-02  0.1164440E+00
          5   -1    0    0  501    0  0.00000000000E+00  0.00000000000E+00  0.75963275683E+02  0.76108536003E+02  0.47000000000E+01 0. -1.
         -5   -1    0    0    0  501 -0.00000000000E+00 -0.00000000000E+00 -0.73164742299E+03  0.73166251890E+03  0.47000000000E+01 0. -1.
         25    2    1    2    0    0 -0.13251843299E+03  0.22220126908E+02 -0.58159213498E+03  0.60985909559E+03  0.12499534343E+03 0.  0.
         25    2    1    2    0    0  0.13251843299E+03 -0.22220126908E+02 -0.74092012320E+02  0.19791195931E+03  0.12499859290E+03 0.  0.
          5    1    4    4  502    0  0.11077348948E+03  0.33396971848E+02 -0.20619031383E+02  0.11761529728E+03  0.47000000000E+01 0.  1.
         -5    1    4    4    0  502  0.21744943514E+02 -0.55617098756E+02 -0.53472980937E+02  0.80296662028E+02  0.47000000000E+01 0.  1.
          5    1    3    3  503    0 -0.97556162553E+02  0.13826872023E+02 -0.55787780731E+03  0.56653166295E+03  0.47000000000E+01 0.  1.
         -5    1    3    3    0  503 -0.34962270440E+02  0.83932548852E+01 -0.23714327674E+02  0.43327432637E+02  0.47000000000E+01 0.  1.
<mgrwt>
<rscale>  0 0.18351925E+03</rscale>
<asrwt>0</asrwt>
<pdfrwt beam="1">  1        5 0.11698993E-01 0.18351980E+03</pdfrwt>
<pdfrwt beam="2">  1       -5 0.11257347E+00 0.18351980E+03</pdfrwt>
<totfact> 0.28300701E+01</totfact>
</mgrwt>
</event>
<event>
 8    1  0.3682083E-007  0.1334565E+03  0.7546771E-02  0.1222419E+00
          5   -1    0    0  501    0  0.00000000000E+00  0.00000000000E+00  0.12468619591E+03  0.12477474685E+03  0.47000000000E+01 0. -1.
         -5   -1    0    0    0  501 -0.00000000000E+00 -0.00000000000E+00 -0.14272249295E+03  0.14279985992E+03  0.47000000000E+01 0. -1.
         25    2    1    2    0    0 -0.15774517242E+02 -0.44002444460E+02 -0.11932783317E+02  0.13397863229E+03  0.12499132802E+03 0.  0.
         25    2    1    2    0    0  0.15774517242E+02  0.44002444460E+02 -0.61035137170E+01  0.13359597448E+03  0.12500232400E+03 0.  0.
          5    1    3    3  502    0  0.27216093564E+02 -0.21221556761E+02  0.46307642231E+02  0.57944438467E+02  0.47000000000E+01 0.  1.
         -5    1    3    3    0  502 -0.42990610806E+02 -0.22780887699E+02 -0.58240425548E+02  0.76034193820E+02  0.47000000000E+01 0.  1.
          5    1    4    4  503    0  0.15966598866E+02 -0.31488449632E+02  0.32906830941E+02  0.48491280269E+02  0.47000000000E+01 0.  1.
         -5    1    4    4    0  503 -0.19208162411E+00  0.75490894092E+02 -0.39010344658E+02  0.85104694209E+02  0.47000000000E+01 0.  1.
<mgrwt>
<rscale>  0 0.13345390E+03</rscale>
<asrwt>0</asrwt>
<pdfrwt beam="1">  1        5 0.19195254E-01 0.13345648E+03</pdfrwt>
<pdfrwt beam="2">  1       -5 0.21970070E-01 0.13345648E+03</pdfrwt>
<totfact> 0.34953955E+02</totfact>
</mgrwt>
</event>
<event>
 8    1  0.3682083E-007  0.1647142E+03  0.7546771E-02  0.1183476E+00
          5   -1    0    0  501    0  0.00000000000E+00  0.00000000000E+00  0.47367494468E+03  0.47369826178E+03  0.47000000000E+01 0. -1.
         -5   -1    0    0    0  501 -0.00000000000E+00 -0.00000000000E+00 -0.63928958157E+02  0.64101495233E+02  0.47000000000E+01 0. -1.
         25    2    1    2    0    0 -0.86496258750E+02  0.63430757969E+02  0.11748158765E+03  0.20231825751E+03  0.12500276018E+03 0.  0.
         25    2    1    2    0    0  0.86496258750E+02 -0.63430757969E+02  0.29226439887E+03  0.33548149950E+03  0.12499717527E+03 0.  0.
          5    1    3    3  502    0  0.23200159967E+02  0.47644252703E+02  0.30234136400E+02  0.61191627221E+02  0.47000000000E+01 0.  1.
         -5    1    3    3    0  502 -0.10969641872E+03  0.15786505267E+02  0.87247451251E+02  0.14112663029E+03  0.47000000000E+01 0.  1.
          5    1    4    4  503    0  0.11255119007E+03 -0.33948296076E+02  0.16836512927E+03  0.20540000961E+03  0.47000000000E+01 0. -1.
         -5    1    4    4    0  503 -0.26054931322E+02 -0.29482461894E+02  0.12389926960E+03  0.13008148989E+03  0.47000000000E+01 0. -1.
<mgrwt>
<rscale>  0 0.16471310E+03</rscale>
<asrwt>0</asrwt>
<pdfrwt beam="1">  1        5 0.72888134E-01 0.16471416E+03</pdfrwt>
<pdfrwt beam="2">  1       -5 0.98502900E-02 0.16471416E+03</pdfrwt>
<totfact> 0.10523856E+02</totfact>
</mgrwt>
</event>
<event>
 8    1  0.3682083E-007  0.1402756E+03  0.7546771E-02  0.1212959E+00
          5   -1    0    0  501    0  0.00000000000E+00  0.00000000000E+00  0.18040939471E+03  0.18047060619E+03  0.47000000000E+01 0. -1.
         -5   -1    0    0    0  501 -0.00000000000E+00 -0.00000000000E+00 -0.13395607147E+03  0.13403849852E+03  0.47000000000E+01 0. -1.
         25    2    1    2    0    0 -0.62701622100E+02 -0.10958277325E+02 -0.44692744040E+02  0.14722238730E+03  0.12500165078E+03 0.  0.
         25    2    1    2    0    0  0.62701622100E+02  0.10958277325E+02  0.91146067273E+02  0.16728671740E+03  0.12500265191E+03 0.  0.
          5    1    4    4  502    0  0.92229659126E+02  0.14855705802E+02  0.98927608798E+02  0.13614611195E+03  0.47000000000E+01 0.  1.
         -5    1    4    4    0  502 -0.29528037025E+02 -0.38974284772E+01 -0.77815415252E+01  0.31140605450E+02  0.47000000000E+01 0.  1.
          5    1    3    3  503    0 -0.35557261207E+02 -0.35714500942E+02 -0.80898660136E+02  0.95428128002E+02  0.47000000000E+01 0. -1.
         -5    1    3    3    0  503 -0.27144360893E+02  0.24756223617E+02  0.36205916097E+02  0.51794259301E+02  0.47000000000E+01 0. -1.
<mgrwt>
<rscale>  0 0.14027536E+03</rscale>
<asrwt>0</asrwt>
<pdfrwt beam="1">  1        5 0.27766340E-01 0.14027559E+03</pdfrwt>
<pdfrwt beam="2">  1       -5 0.20619676E-01 0.14027559E+03</pdfrwt>
<totfact> 0.19875867E+02</totfact>
</mgrwt>
</event>
<event>
 8    1  0.3682083E-007  0.1556813E+03  0.7546771E-02  0.1193661E+00
         -5   -1    0    0    0  501 -0.00000000000E+00  0.00000000000E+00  0.21825374355E+03  0.21830434392E+03  0.47000000000E+01 0.  1.
          5   -1    0    0  501    0  0.00000000000E+00 -0.00000000000E+00 -0.19298526489E+03  0.19304248876E+03  0.47000000000E+01 0.  1.
         25    2    1    2    0    0 -0.84624743610E+02  0.38082492400E+02  0.14669815849E+03  0.21390863741E+03  0.12499972799E+03 0.  0.
         25    2    1    2    0    0  0.84624743610E+02 -0.38082492400E+02 -0.12142967983E+03  0.19743819526E+03  0.12500020138E+03 0.  0.
          5    1    3    3  502    0 -0.42177017133E+02  0.53710390956E+02  0.91795545742E+01  0.69065628884E+02  0.47000000000E+01 0.  1.
         -5    1    3    3    0  502 -0.42447726477E+02 -0.15627898557E+02  0.13751860392E+03  0.14484300853E+03  0.47000000000E+01 0.  1.
          5    1    4    4  503    0  0.11501382258E+03 -0.18312914356E+02 -0.76085162852E+02  0.13919261554E+03  0.47000000000E+01 0.  1.
         -5    1    4    4    0  503 -0.30389078966E+02 -0.19769578044E+02 -0.45344516981E+02  0.58245579718E+02  0.47000000000E+01 0.  1.
<mgrwt>
<rscale>  0 0.15568123E+03</rscale>
<asrwt>0</asrwt>
<pdfrwt beam="2">  1        5 0.29698335E-01 0.15568132E+03</pdfrwt>
<pdfrwt beam="1">  1       -5 0.33585793E-01 0.15568132E+03</pdfrwt>
<totfact> 0.70196704E+01</totfact>
</mgrwt>
</event>
<event>
 8    1  0.3682083E-007  0.1327826E+03  0.7546771E-02  0.1223385E+00
          5   -1    0    0  501    0  0.00000000000E+00  0.00000000000E+00  0.74117920012E+02  0.74266789798E+02  0.47000000000E+01 0. -1.
         -5   -1    0    0    0  501 -0.00000000000E+00 -0.00000000000E+00 -0.24160084927E+03  0.24164656085E+03  0.47000000000E+01 0. -1.
         25    2    1    2    0    0 -0.35351005917E+02  0.27493906239E+02 -0.10440224658E+03  0.16891139714E+03  0.12500248996E+03 0.  0.
         25    2    1    2    0    0  0.35351005917E+02 -0.27493906239E+02 -0.63080682685E+02  0.14700195350E+03  0.12499917322E+03 0.  0.
          5    1    3    3  502    0 -0.13529636191E+02  0.76411782907E+02 -0.72996917472E+02  0.10664169721E+03  0.47000000000E+01 0.  1.
         -5    1    3    3    0  502 -0.21821369726E+02 -0.48917876668E+02 -0.31405329103E+02  0.62269699939E+02  0.47000000000E+01 0.  1.
          5    1    4    4  503    0 -0.32080252832E+02 -0.35599093854E+02 -0.62529533115E+02  0.78920660265E+02  0.47000000000E+01 0. -1.
         -5    1    4    4    0  503  0.67431258749E+02  0.81051876153E+01 -0.55114957004E+00  0.68081293235E+02  0.47000000000E+01 0. -1.
<mgrwt>
<rscale>  0 0.13278187E+03</rscale>
<asrwt>0</asrwt>
<pdfrwt beam="1">  1        5 0.11417725E-01 0.13278265E+03</pdfrwt>
<pdfrwt beam="2">  1       -5 0.37184329E-01 0.13278265E+03</pdfrwt>
<totfact> 0.31988208E+02</totfact>
</mgrwt>
</event>
<event>
 8    1  0.3682083E-007  0.1316602E+03  0.7546771E-02  0.1225013E+00
         -5   -1    0    0    0  501 -0.00000000000E+00  0.00000000000E+00  0.24290552299E+02  0.24741077805E+02  0.47000000000E+01 0. -1.
          5   -1    0    0  501    0  0.00000000000E+00 -0.00000000000E+00 -0.75909024621E+03  0.75910479638E+03  0.47000000000E+01 0. -1.
         25    2    1    2    0    0 -0.41297681050E+02  0.18652787691E+01 -0.26437634576E+03  0.29534557587E+03  0.12500071706E+03 0.  0.
         25    2    1    2    0    0  0.41297681050E+02 -0.18652787691E+01 -0.47042334815E+03  0.48850029831E+03  0.12500174896E+03 0.  0.
          5    1    4    4  502    0 -0.24267441247E+02  0.12385414237E+02 -0.34564013542E+03  0.34674414257E+03  0.47000000000E+01 0.  1.
         -5    1    4    4    0  502  0.65565122297E+02 -0.14250693006E+02 -0.12478321273E+03  0.14175615575E+03  0.47000000000E+01 0.  1.
          5    1    3    3  503    0 -0.79603005610E+02 -0.22658514727E+02 -0.19889501583E+03  0.21547938211E+03  0.47000000000E+01 0. -1.
         -5    1    3    3    0  503  0.38305324560E+02  0.24523793497E+02 -0.65481329928E+02  0.79866193764E+02  0.47000000000E+01 0. -1.
<mgrwt>
<rscale>  0 0.13165998E+03</rscale>
<asrwt>0</asrwt>
<pdfrwt beam="2">  1        5 0.11681887E+00 0.13166023E+03</pdfrwt>
<pdfrwt beam="1">  1       -5 0.37727837E-02 0.13166023E+03</pdfrwt>
<totfact> 0.15989869E+02</totfact>
</mgrwt>
</event>
<event>
 8    1  0.3682083E-007  0.3198224E+03  0.7546771E-02  0.1075732E+00
          5   -1    0    0  501    0  0.00000000000E+00  0.00000000000E+00  0.13533447334E+03  0.13541606136E+03  0.47000000000E+01 0.  1.
         -5   -1    0    0    0  501 -0.00000000000E+00 -0.00000000000E+00 -0.77087639966E+03  0.77089072737E+03  0.47000000000E+01 0.  1.
         25    2    1    2    0    0 -0.64752182168E+02  0.28716043906E+03 -0.38181516506E+03  0.49806217808E+03  0.12501659931E+03 0.  0.
         25    2    1    2    0    0  0.64752182168E+02 -0.28716043906E+03 -0.25372676126E+03  0.40824461066E+03  0.12502971606E+03 0.  0.
          5    1    3    3  502    0  0.14760155655E+02 -0.19462498381E+01 -0.48102043588E+01  0.16336405644E+02  0.47000000000E+01 0.  1.
         -5    1    3    3    0  502 -0.79512337823E+02  0.28910668890E+03 -0.37700496070E+03  0.48172577243E+03  0.47000000000E+01 0.  1.
          5    1    4    4  503    0  0.82664798547E+01 -0.18832068966E+03 -0.90421496557E+02  0.20911995095E+03  0.47000000000E+01 0.  1.
         -5    1    4    4    0  503  0.56485702313E+02 -0.98839749401E+02 -0.16330526470E+03  0.19912465972E+03  0.47000000000E+01 0.  1.
<mgrwt>
<rscale>  0 0.31982116E+03</rscale>
<asrwt>0</asrwt>
<pdfrwt beam="1">  1        5 0.20828067E-01 0.31982244E+03</pdfrwt>
<pdfrwt beam="2">  1       -5 0.11860375E+00 0.31982244E+03</pdfrwt>
<totfact> 0.96927577E+00</totfact>
</mgrwt>
</event>
<event>
 8    1  0.3682083E-007  0.1294989E+03  0.7546771E-02  0.1228202E+00
          5   -1    0    0  501    0  0.00000000000E+00  0.00000000000E+00  0.22427119337E+03  0.22432043637E+03  0.47000000000E+01 0.  1.
         -5   -1    0    0    0  501 -0.00000000000E+00 -0.00000000000E+00 -0.11568445151E+03  0.11577988738E+03  0.47000000000E+01 0.  1.
         25    2    1    2    0    0 -0.85379874011E+01  0.32738277005E+02 -0.46918068324E+02  0.13773622580E+03  0.12500108300E+03 0.  0.
         25    2    1    2    0    0  0.85379874011E+01 -0.32738277005E+02  0.15550481018E+03  0.20236409795E+03  0.12499916056E+03 0.  0.
          5    1    4    4  502    0 -0.47852216061E+01  0.47026722581E+02  0.45740031446E+02  0.65944305738E+02  0.47000000000E+01 0. -1.
         -5    1    4    4    0  502  0.13323209007E+02 -0.79764999587E+02  0.10976477874E+03  0.13641979222E+03  0.47000000000E+01 0. -1.
          5    1    3    3  503    0  0.24255340077E+02  0.53926330030E+02 -0.70303230721E+02  0.91983720530E+02  0.47000000000E+01 0. -1.
         -5    1    3    3    0  503 -0.32793327478E+02 -0.21188053024E+02  0.23385162396E+02  0.45752505268E+02  0.47000000000E+01 0. -1.
<mgrwt>
<rscale>  0 0.12949843E+03</rscale>
<asrwt>0</asrwt>
<pdfrwt beam="1">  1        5 0.34514390E-01 0.12949889E+03</pdfrwt>
<pdfrwt beam="2">  1       -5 0.17808737E-01 0.12949889E+03</pdfrwt>
<totfact> 0.16540871E+02</totfact>
</mgrwt>
</event>
<event>
 8    1  0.3682083E-007  0.1310062E+03  0.7546771E-02  0.1225979E+00
         -5   -1    0    0    0  501 -0.00000000000E+00  0.00000000000E+00  0.39390257129E+03  0.39393061022E+03  0.47000000000E+01 0.  1.
          5   -1    0    0  501    0  0.00000000000E+00 -0.00000000000E+00 -0.44352738043E+02  0.44601069179E+02  0.47000000000E+01 0.  1.
         25    2    1    2    0    0  0.20891678888E+02  0.33085519805E+02  0.20672058531E+03  0.24473663571E+03  0.12502602369E+03 0.  0.
         25    2    1    2    0    0 -0.20891678888E+02 -0.33085519805E+02  0.14282924794E+03  0.19379504369E+03  0.12500084410E+03 0.  0.
          5    1    4    4  502    0 -0.64534829464E+02  0.14137712380E+02  0.78661271981E+02  0.10283143894E+03  0.47000000000E+01 0. -1.
         -5    1    4    4    0  502  0.43643150576E+02 -0.47223232185E+02  0.64167975955E+02  0.90963604746E+02  0.47000000000E+01 0. -1.
          5    1    3    3  503    0  0.35753924884E+02  0.73613830963E+02  0.16633379524E+03  0.18543559716E+03  0.47000000000E+01 0.  1.
         -5    1    3    3    0  503 -0.14862245996E+02 -0.40528311159E+02  0.40386790066E+02  0.59301038551E+02  0.47000000000E+01 0.  1.
<mgrwt>
<rscale>  0 0.13100018E+03</rscale>
<asrwt>0</asrwt>
<pdfrwt beam="2">  1        5 0.68447573E-02 0.13100618E+03</pdfrwt>
<pdfrwt beam="1">  1       -5 0.60621655E-01 0.13100618E+03</pdfrwt>
<totfact> 0.27580752E+02</totfact>
</mgrwt>
</event>
<event>
 8    1  0.3682083E-007  0.1493170E+03  0.7546771E-02  0.1201315E+00
          5   -1    0    0  501    0  0.00000000000E+00  0.00000000000E+00  0.23520364280E+03  0.23525059742E+03  0.47000000000E+01 0.  1.
         -5   -1    0    0    0  501 -0.00000000000E+00 -0.00000000000E+00 -0.14962866562E+03  0.14970246349E+03  0.47000000000E+01 0.  1.
         25    2    1    2    0    0 -0.11697674218E+02  0.80827605358E+02 -0.73800608682E+02  0.16655958256E+03  0.12500250929E+03 0.  0.
         25    2    1    2    0    0  0.11697674218E+02 -0.80827605358E+02  0.15937558586E+03  0.21839347835E+03  0.12500078658E+03 0.  0.
          5    1    3    3  502    0  0.11733263403E+02  0.10619781448E+03 -0.76667126379E+02  0.13158869077E+03  0.47000000000E+01 0.  1.
         -5    1    3    3    0  502 -0.23430937620E+02 -0.25370209124E+02  0.28665176974E+01  0.34970891788E+02  0.47000000000E+01 0.  1.
          5    1    4    4  503    0 -0.87945171905E+01 -0.44890179929E+02  0.16943148397E+03  0.17556078591E+03  0.47000000000E+01 0.  1.
         -5    1    4    4    0  503  0.20492191408E+02 -0.35937425429E+02 -0.10055898108E+02  0.42832692443E+02  0.47000000000E+01 0.  1.
<mgrwt>
<rscale>  0 0.14931663E+03</rscale>
<asrwt>0</asrwt>
<pdfrwt beam="1">  1        5 0.36194464E-01 0.14931699E+03</pdfrwt>
<pdfrwt beam="2">  1       -5 0.23029083E-01 0.14931699E+03</pdfrwt>
<totfact> 0.97438022E+01</totfact>
</mgrwt>
</event>
<event>
 8    1  0.3682083E-007  0.1302824E+03  0.7546771E-02  0.1227046E+00
          5   -1    0    0  501    0  0.00000000000E+00  0.00000000000E+00  0.10183825069E+02  0.11216072978E+02  0.47000000000E+01 0.  1.
         -5   -1    0    0    0  501 -0.00000000000E+00 -0.00000000000E+00 -0.16187243959E+04  0.16187312191E+04  0.47000000000E+01 0.  1.
         25    2    1    2    0    0  0.40196639808E+01  0.36420791895E+02 -0.92194694883E+03  0.93110669049E+03  0.12502344117E+03 0.  0.
         25    2    1    2    0    0 -0.40196639808E+01 -0.36420791895E+02 -0.68659362198E+03  0.69884060162E+03  0.12499901181E+03 0.  0.
          5    1    3    3  502    0 -0.72372536635E+01  0.74148122149E+02 -0.35440304485E+03  0.36217941694E+03  0.47000000000E+01 0. -1.
         -5    1    3    3    0  502  0.11256917644E+02 -0.37727330253E+02 -0.56754390398E+03  0.56892727355E+03  0.47000000000E+01 0. -1.
          5    1    4    4  503    0 -0.15083635422E+02  0.17720205074E+02 -0.56153156056E+03  0.56203318873E+03  0.47000000000E+01 0. -1.
         -5    1    4    4    0  503  0.11063971441E+02 -0.54140996970E+02 -0.12506206142E+03  0.13680741289E+03  0.47000000000E+01 0. -1.
<mgrwt>
<rscale>  0 0.13027650E+03</rscale>
<asrwt>0</asrwt>
<pdfrwt beam="1">  1        5 0.16466722E-02 0.13028236E+03</pdfrwt>
<pdfrwt beam="2">  1       -5 0.24911426E+00 0.13028236E+03</pdfrwt>
<totfact> 0.65118180E+01</totfact>
</mgrwt>
</event>
<event>
 8    1  0.3682083E-007  0.1342187E+03  0.7546771E-02  0.1221337E+00
         -5   -1    0    0    0  501 -0.00000000000E+00  0.00000000000E+00  0.53926223396E+02  0.54130652774E+02  0.47000000000E+01 0. -1.
          5   -1    0    0  501    0  0.00000000000E+00 -0.00000000000E+00 -0.36047966898E+03  0.36051030741E+03  0.47000000000E+01 0. -1.
         25    2    1    2    0    0  0.12652495699E+02  0.47128070752E+02 -0.96179147953E+02  0.16509736452E+03  0.12500228226E+03 0.  0.
         25    2    1    2    0    0 -0.12652495699E+02 -0.47128070752E+02 -0.21037429763E+03  0.24954359566E+03  0.12503407668E+03 0.  0.
          5    1    3    3  502    0  0.93971834598E+01  0.31347824072E+02 -0.12633275436E+03  0.13058731928E+03  0.47000000000E+01 0.  1.
         -5    1    3    3    0  502  0.32553122397E+01  0.15780246680E+02  0.30153606412E+02  0.34510045243E+02  0.47000000000E+01 0.  1.
          5    1    4    4  503    0  0.29092060086E+02  0.23925327636E+02 -0.12564797861E+03  0.13125651904E+03  0.47000000000E+01 0.  1.
         -5    1    4    4    0  503 -0.41744555785E+02 -0.71053398388E+02 -0.84726319024E+02  0.11828707662E+03  0.47000000000E+01 0.  1.
<mgrwt>
<rscale>  0 0.13421130E+03</rscale>
<asrwt>0</asrwt>
<pdfrwt beam="2">  1        5 0.55476491E-01 0.13421871E+03</pdfrwt>
<pdfrwt beam="1">  1       -5 0.83144244E-02 0.13421871E+03</pdfrwt>
<totfact> 0.24202687E+02</totfact>
</mgrwt>
</event>
<event>
 8    1  0.3682083E-007  0.1327450E+03  0.7546771E-02  0.1223442E+00
          5   -1    0    0  501    0  0.00000000000E+00  0.00000000000E+00  0.19974527241E+03  0.19980056019E+03  0.47000000000E+01 0.  1.
         -5   -1    0    0    0  501 -0.00000000000E+00 -0.00000000000E+00 -0.92278461215E+02  0.92398075760E+02  0.47000000000E+01 0.  1.
         25    2    1    2    0    0 -0.42094026787E+02 -0.14985873775E+02  0.22604105068E+02  0.13464576514E+03  0.12498821144E+03 0.  0.
         25    2    1    2    0    0  0.42094026787E+02  0.14985873775E+02  0.84862706133E+02  0.15755287081E+03  0.12499897881E+03 0.  0.
          5    1    3    3  502    0 -0.20307067875E+02 -0.70062402899E+02  0.85917933819E+01  0.73600449857E+02  0.47000000000E+01 0.  1.
         -5    1    3    3    0  502 -0.21786958912E+02  0.55076529124E+02  0.14012311686E+02  0.61045315282E+02  0.47000000000E+01 0.  1.
          5    1    4    4  503    0  0.72195307959E+02  0.26659456819E+02  0.95953245304E+02  0.12309347836E+03  0.47000000000E+01 0.  1.
         -5    1    4    4    0  503 -0.30101281172E+02 -0.11673583044E+02 -0.11090539171E+02  0.34459392455E+02  0.47000000000E+01 0.  1.
<mgrwt>
<rscale>  0 0.13274244E+03</rscale>
<asrwt>0</asrwt>
<pdfrwt beam="1">  1        5 0.30743496E-01 0.13274497E+03</pdfrwt>
<pdfrwt beam="2">  1       -5 0.14210140E-01 0.13274497E+03</pdfrwt>
<totfact> 0.31652145E+02</totfact>
</mgrwt>
</event>
<event>
 8    1  0.3682083E-007  0.1395860E+03  0.7546771E-02  0.1213889E+00
         -5   -1    0    0    0  501 -0.00000000000E+00  0.00000000000E+00  0.56749769910E+02  0.56944063649E+02  0.47000000000E+01 0. -1.
          5   -1    0    0  501    0  0.00000000000E+00 -0.00000000000E+00 -0.34285814753E+03  0.34289036050E+03  0.47000000000E+01 0. -1.
         25    2    1    2    0    0 -0.62043520700E+02  0.30938717689E+01 -0.13685228311E+03  0.19547777412E+03  0.12499616905E+03 0.  0.
         25    2    1    2    0    0  0.62043520700E+02 -0.30938717689E+01 -0.14925609451E+03  0.20435665004E+03  0.12500115265E+03 0.  0.
          5    1    3    3  502    0 -0.29116193562E+02  0.63222323854E+02 -0.81201502511E+02  0.10705414037E+03  0.47000000000E+01 0.  1.
         -5    1    3    3    0  502 -0.32927327138E+02 -0.60128452085E+02 -0.55650780602E+02  0.88423633742E+02  0.47000000000E+01 0.  1.
          5    1    4    4  503    0 -0.90625952567E+01 -0.45437420505E+02 -0.93504112873E+02  0.10445955648E+03  0.47000000000E+01 0. -1.
         -5    1    4    4    0  503  0.71106115957E+02  0.42343548736E+02 -0.55751981632E+02  0.99897093561E+02  0.47000000000E+01 0. -1.
<mgrwt>
<rscale>  0 0.13958491E+03</rscale>
<asrwt>0</asrwt>
<pdfrwt beam="2">  1        5 0.52764830E-01 0.13958603E+03</pdfrwt>
<pdfrwt beam="1">  1       -5 0.87481576E-02 0.13958603E+03</pdfrwt>
<totfact> 0.25022120E+02</totfact>
</mgrwt>
</event>
<event>
 8    1  0.3682083E-007  0.1260305E+03  0.7546771E-02  0.1233472E+00
         -5   -1    0    0    0  501 -0.00000000000E+00  0.00000000000E+00  0.20752857823E+03  0.20758179299E+03  0.47000000000E+01 0.  1.
          5   -1    0    0  501    0  0.00000000000E+00 -0.00000000000E+00 -0.76530906986E+02  0.76675091941E+02  0.47000000000E+01 0.  1.
         25    2    1    2    0    0 -0.11473569523E+02  0.11161311036E+02  0.71493487567E+02  0.14489652988E+03  0.12500987139E+03 0.  0.
         25    2    1    2    0    0  0.11473569523E+02 -0.11161311036E+02  0.59504183674E+02  0.13936035505E+03  0.12499737207E+03 0.  0.
          5    1    4    4  502    0 -0.66815039929E+01 -0.54029373558E+02  0.72511375599E+02  0.90795403485E+02  0.47000000000E+01 0. -1.
         -5    1    4    4    0  502  0.18155073516E+02  0.42868062522E+02 -0.13007191925E+02  0.48564951565E+02  0.47000000000E+01 0. -1.
          5    1    3    3  503    0  0.55690955848E+02  0.15994363803E+02  0.27375212909E+02  0.64255696390E+02  0.47000000000E+01 0. -1.
         -5    1    3    3    0  503 -0.67164525371E+02 -0.48330527670E+01  0.44118274657E+02  0.80640833490E+02  0.47000000000E+01 0. -1.
<mgrwt>
<rscale>  0 0.12602740E+03</rscale>
<asrwt>0</asrwt>
<pdfrwt beam="2">  1        5 0.11789170E-01 0.12603049E+03</pdfrwt>
<pdfrwt beam="1">  1       -5 0.31942658E-01 0.12603049E+03</pdfrwt>
<totfact> 0.40177521E+02</totfact>
</mgrwt>
</event>
<event>
 8    1  0.3682083E-007  0.1314453E+03  0.7546771E-02  0.1225327E+00
          5   -1    0    0  501    0  0.00000000000E+00  0.00000000000E+00  0.49780363724E+03  0.49782582421E+03  0.47000000000E+01 0.  1.
         -5   -1    0    0    0  501 -0.00000000000E+00 -0.00000000000E+00 -0.39987604760E+02  0.40262867936E+02  0.47000000000E+01 0.  1.
         25    2    1    2    0    0 -0.68352287452E+01  0.40081384715E+02  0.12986782909E+03  0.18477878636E+03  0.12499723637E+03 0.  0.
         25    2    1    2    0    0  0.68352287452E+01 -0.40081384715E+02  0.32794820338E+03  0.35330990579E+03  0.12499851068E+03 0.  0.
          5    1    3    3  502    0 -0.53389373023E+02 -0.15881363501E+02  0.74803175704E+02  0.93382267877E+02  0.47000000000E+01 0. -1.
         -5    1    3    3    0  502  0.46554144278E+02  0.55962748216E+02  0.55064653391E+02  0.91396518480E+02  0.47000000000E+01 0. -1.
          5    1    4    4  503    0  0.20652829569E+02 -0.38702881846E+02  0.33439643705E+03  0.33729441078E+03  0.47000000000E+01 0. -1.
         -5    1    4    4    0  503 -0.13817600823E+02 -0.13785028683E+01 -0.64482336700E+01  0.16015495001E+02  0.47000000000E+01 0. -1.
<mgrwt>
<rscale>  0 0.13144499E+03</rscale>
<asrwt>0</asrwt>
<pdfrwt beam="1">  1        5 0.76608047E-01 0.13144529E+03</pdfrwt>
<pdfrwt beam="2">  1       -5 0.61748207E-02 0.13144529E+03</pdfrwt>
<totfact> 0.19454321E+02</totfact>
</mgrwt>
</event>
<event>
 8    1  0.3682083E-007  0.1273806E+03  0.7546771E-02  0.1231396E+00
          5   -1    0    0  501    0  0.00000000000E+00  0.00000000000E+00  0.43534702665E+03  0.43537239648E+03  0.47000000000E+01 0.  1.
         -5   -1    0    0    0  501 -0.00000000000E+00 -0.00000000000E+00 -0.40631502460E+02  0.40902432594E+02  0.47000000000E+01 0.  1.
         25    2    1    2    0    0 -0.24422745048E+02 -0.18638228575E+01  0.12737556143E+03  0.18013978159E+03  0.12500345175E+03 0.  0.
         25    2    1    2    0    0  0.24422745048E+02  0.18638228575E+01  0.26733996276E+03  0.29613504748E+03  0.12500146538E+03 0.  0.
          5    1    3    3  502    0  0.13036121708E+02  0.51184599386E+02  0.91616309795E+02  0.10585575990E+03  0.47000000000E+01 0. -1.
         -5    1    3    3    0  502 -0.37458866756E+02 -0.53048422244E+02  0.35759251639E+02  0.74284021693E+02  0.47000000000E+01 0. -1.
          5    1    4    4  503    0  0.13751360045E+02  0.35785190842E+02  0.25543930050E+03  0.25834280719E+03  0.47000000000E+01 0. -1.
         -5    1    4    4    0  503  0.10671385003E+02 -0.33921367985E+02  0.11900662258E+02  0.37792240289E+02  0.47000000000E+01 0. -1.
<mgrwt>
<rscale>  0 0.12738007E+03</rscale>
<asrwt>0</asrwt>
<pdfrwt beam="1">  1        5 0.66999258E-01 0.12738056E+03</pdfrwt>
<pdfrwt beam="2">  1       -5 0.62737927E-02 0.12738056E+03</pdfrwt>
<totfact> 0.25356248E+02</totfact>
</mgrwt>
</event>
<event>
 8    1  0.3682083E-007  0.2007129E+03  0.7546771E-02  0.1149139E+00
          5   -1    0    0  501    0  0.00000000000E+00  0.00000000000E+00  0.70464378065E+02  0.70620949980E+02  0.47000000000E+01 0. -1.
         -5   -1    0    0    0  501 -0.00000000000E+00 -0.00000000000E+00 -0.63079917725E+03  0.63081668654E+03  0.47000000000E+01 0. -1.
         25    2    1    2    0    0  0.12425509089E+03 -0.96031514810E+02 -0.38821567342E+03  0.43703136283E+03  0.12499449412E+03 0.  0.
         25    2    1    2    0    0 -0.12425509089E+03  0.96031514810E+02 -0.17211912577E+03  0.26440627369E+03  0.12499721862E+03 0.  0.
          5    1    4    4  502    0 -0.58324383300E+02  0.11399609821E+03 -0.13643660962E+03  0.18717340233E+03  0.47000000000E+01 0. -1.
         -5    1    4    4    0  502 -0.65930707589E+02 -0.17964583400E+02 -0.35682516141E+02  0.77232871357E+02  0.47000000000E+01 0. -1.
          5    1    3    3  503    0  0.11867894062E+03 -0.67741002574E+02 -0.17628499483E+03  0.22309644502E+03  0.47000000000E+01 0.  1.
         -5    1    3    3    0  503  0.55761502717E+01 -0.28290512237E+02 -0.21193067859E+03  0.21393491782E+03  0.47000000000E+01 0.  1.
<mgrwt>
<rscale>  0 0.20071252E+03</rscale>
<asrwt>0</asrwt>
<pdfrwt beam="1">  1        5 0.10854065E-01 0.20071294E+03</pdfrwt>
<pdfrwt beam="2">  1       -5 0.97059414E-01 0.20071294E+03</pdfrwt>
<totfact> 0.47783019E+01</totfact>
</mgrwt>
</event>
<event>
 8    1  0.3682083E-007  0.1305722E+03  0.7546771E-02  0.1226609E+00
         -5   -1    0    0    0  501 -0.00000000000E+00  0.00000000000E+00  0.26653300576E+03  0.26657444206E+03  0.47000000000E+01 0.  1.
          5   -1    0    0  501    0  0.00000000000E+00 -0.00000000000E+00 -0.91625292112E+02  0.91745758238E+02  0.47000000000E+01 0.  1.
         25    2    1    2    0    0  0.34470521140E+02  0.15353626991E+02  0.18602491092E+03  0.22727599866E+03  0.12500064558E+03 0.  0.
         25    2    1    2    0    0 -0.34470521140E+02 -0.15353626991E+02 -0.11117197267E+02  0.13104420164E+03  0.12500016007E+03 0.  0.
          5    1    3    3  502    0 -0.40599636500E+02 -0.12362228301E+02  0.31045313104E+02  0.52792581280E+02  0.47000000000E+01 0.  1.
         -5    1    3    3    0  502  0.75070157641E+02  0.27715855292E+02  0.15497959781E+03  0.17448341738E+03  0.47000000000E+01 0.  1.
          5    1    4    4  503    0 -0.15719173015E+02  0.39936331545E+02  0.35729793320E+02  0.56042047680E+02  0.47000000000E+01 0.  1.
         -5    1    4    4    0  503 -0.18751348126E+02 -0.55289958535E+02 -0.46846990587E+02  0.75002153958E+02  0.47000000000E+01 0.  1.
<mgrwt>
<rscale>  0 0.13057213E+03</rscale>
<asrwt>0</asrwt>
<pdfrwt beam="2">  1        5 0.14108653E-01 0.13057225E+03</pdfrwt>
<pdfrwt beam="1">  1       -5 0.41017530E-01 0.13057225E+03</pdfrwt>
<totfact> 0.17865743E+02</totfact>
</mgrwt>
</event>
<event>
 8    1  0.3682083E-007  0.2526889E+03  0.7546771E-02  0.1111617E+00
         -5   -1    0    0    0  501 -0.00000000000E+00  0.00000000000E+00  0.73760079047E+02  0.73909669604E+02  0.47000000000E+01 0.  1.
          5   -1    0    0  501    0  0.00000000000E+00 -0.00000000000E+00 -0.86535535665E+03  0.86536812010E+03  0.47000000000E+01 0.  1.
         25    2    1    2    0    0  0.13962948569E+03 -0.16949854701E+03 -0.40938283669E+03  0.48108834229E+03  0.12500214156E+03 0.  0.
         25    2    1    2    0    0 -0.13962948569E+03  0.16949854701E+03 -0.38221244091E+03  0.45818944741E+03  0.12500027608E+03 0.  0.
          5    1    4    4  502    0 -0.95895923756E+02  0.13800914015E+03 -0.16961501085E+03  0.23881769797E+03  0.47000000000E+01 0. -1.
         -5    1    4    4    0  502 -0.43733561932E+02  0.31489406859E+02 -0.21259743006E+03  0.21937174944E+03  0.47000000000E+01 0. -1.
          5    1    3    3  503    0  0.10094050266E+03 -0.11497367346E+03 -0.15428659990E+03  0.21733470863E+03  0.47000000000E+01 0. -1.
         -5    1    3    3    0  503  0.38688983027E+02 -0.54524873552E+02 -0.25509623679E+03  0.26375363366E+03  0.47000000000E+01 0. -1.
<mgrwt>
<rscale>  0 0.25268868E+03</rscale>
<asrwt>0</asrwt>
<pdfrwt beam="2">  1        5 0.13314408E+00 0.25268891E+03</pdfrwt>
<pdfrwt beam="1">  1       -5 0.11360194E-01 0.25268891E+03</pdfrwt>
<totfact> 0.20815652E+01</totfact>
</mgrwt>
</event>
<event>
 8    1  0.3682083E-007  0.1276003E+03  0.7546771E-02  0.1231063E+00
          5   -1    0    0  501    0  0.00000000000E+00  0.00000000000E+00  0.62234180120E+03  0.62235954843E+03  0.47000000000E+01 0. -1.
         -5   -1    0    0    0  501 -0.00000000000E+00 -0.00000000000E+00 -0.29224349018E+02  0.29599874586E+02  0.47000000000E+01 0. -1.
         25    2    1    2    0    0 -0.23981166308E+02 -0.89565804175E+01  0.18791493132E+03  0.22714283793E+03  0.12500612281E+03 0.  0.
         25    2    1    2    0    0  0.23981166308E+02  0.89565804175E+01  0.40520252086E+03  0.42481658509E+03  0.12499892552E+03 0.  0.
          5    1    4    4  502    0  0.64374896326E+02 -0.70080365929E+01  0.34121778817E+03  0.34733975991E+03  0.47000000000E+01 0. -1.
         -5    1    4    4    0  502 -0.40393730019E+02  0.15964617010E+02  0.63984732696E+02  0.77476825176E+02  0.47000000000E+01 0. -1.
          5    1    3    3  503    0 -0.48271332503E+02  0.10640147762E+02  0.18914855070E+03  0.19555714898E+03  0.47000000000E+01 0.  1.
         -5    1    3    3    0  503  0.24290166196E+02 -0.19596728179E+02 -0.12336193852E+01  0.31585688942E+02  0.47000000000E+01 0.  1.
<mgrwt>
<rscale>  0 0.12759858E+03</rscale>
<asrwt>0</asrwt>
<pdfrwt beam="1">  1        5 0.95775139E-01 0.12760034E+03</pdfrwt>
<pdfrwt beam="2">  1       -5 0.45263057E-02 0.12760034E+03</pdfrwt>
<totfact> 0.19130826E+02</totfact>
</mgrwt>
</event>
<event>
 8    1  0.3682083E-007  0.1290737E+03  0.7546771E-02  0.1228839E+00
          5   -1    0    0  501    0  0.00000000000E+00  0.00000000000E+00  0.18483466929E+03  0.18489441574E+03  0.47000000000E+01 0. -1.
         -5   -1    0    0    0  501 -0.00000000000E+00 -0.00000000000E+00 -0.91601233219E+02  0.91721730944E+02  0.47000000000E+01 0. -1.
         25    2    1    2    0    0 -0.69197234836E+01 -0.31425984533E+02  0.28324941558E+02  0.13214507257E+03  0.12499817124E+03 0.  0.
         25    2    1    2    0    0  0.69197234836E+01  0.31425984533E+02  0.64908494516E+02  0.14447107412E+03  0.12499321390E+03 0.  0.
          5    1    4    4  502    0  0.20697330381E+02 -0.28644800797E+02  0.73862659975E+02  0.82016380292E+02  0.47000000000E+01 0. -1.
         -5    1    4    4    0  502 -0.13777606897E+02  0.60070785330E+02 -0.89541654592E+01  0.62454693828E+02  0.47000000000E+01 0. -1.
          5    1    3    3  503    0 -0.50569967762E+02 -0.14672032370E+02  0.56483643333E+02  0.77363312607E+02  0.47000000000E+01 0.  1.
         -5    1    3    3    0  503  0.43650244278E+02 -0.16753952163E+02 -0.28158701775E+02  0.54781759960E+02  0.47000000000E+01 0.  1.
<mgrwt>
<rscale>  0 0.12907249E+03</rscale>
<asrwt>0</asrwt>
<pdfrwt beam="1">  1        5 0.28449968E-01 0.12907369E+03</pdfrwt>
<pdfrwt beam="2">  1       -5 0.14106362E-01 0.12907369E+03</pdfrwt>
<totfact> 0.36946019E+02</totfact>
</mgrwt>
</event>
<event>
 8    1  0.3682083E-007  0.1437255E+03  0.7546771E-02  0.1208415E+00
         -5   -1    0    0    0  501 -0.00000000000E+00  0.00000000000E+00  0.31173681585E+02  0.31525995996E+02  0.47000000000E+01 0.  1.
          5   -1    0    0  501    0  0.00000000000E+00 -0.00000000000E+00 -0.65980543401E+03  0.65982217358E+03  0.47000000000E+01 0.  1.
         25    2    1    2    0    0 -0.23688905685E+02 -0.66768652101E+02 -0.29818787288E+03  0.33100088325E+03  0.12500543997E+03 0.  0.
         25    2    1    2    0    0  0.23688905685E+02  0.66768652101E+02 -0.33044387954E+03  0.36034728633E+03  0.12505115785E+03 0.  0.
          5    1    3    3  502    0  0.30958490608E+02 -0.70953624744E+02 -0.10762748661E+03  0.13265975607E+03  0.47000000000E+01 0.  1.
         -5    1    3    3    0  502 -0.54647396293E+02  0.41849726432E+01 -0.19056038627E+03  0.19834112718E+03  0.47000000000E+01 0.  1.
          5    1    4    4  503    0  0.55535839852E+02  0.37213591702E+02 -0.29923128091E+03  0.30664397987E+03  0.47000000000E+01 0.  1.
         -5    1    4    4    0  503 -0.31846934167E+02  0.29555060400E+02 -0.31212598637E+02  0.53703306460E+02  0.47000000000E+01 0.  1.
<mgrwt>
<rscale>  0 0.14371552E+03</rscale>
<asrwt>0</asrwt>
<pdfrwt beam="2">  1        5 0.10153691E+00 0.14372546E+03</pdfrwt>
<pdfrwt beam="1">  1       -5 0.48243403E-02 0.14372546E+03</pdfrwt>
<totfact> 0.15547394E+02</totfact>
</mgrwt>
</event>
<event>
 8    1  0.3682083E-007  0.2187310E+03  0.7546771E-02  0.1134835E+00
         -5   -1    0    0    0  501 -0.00000000000E+00  0.00000000000E+00  0.81657750039E+02  0.81792897867E+02  0.47000000000E+01 0.  1.
          5   -1    0    0  501    0  0.00000000000E+00 -0.00000000000E+00 -0.59910043038E+03  0.59911886608E+03  0.47000000000E+01 0.  1.
         25    2    1    2    0    0  0.11522350233E+03  0.13761086432E+03 -0.20694606418E+03  0.30110735459E+03  0.12500304011E+03 0.  0.
         25    2    1    2    0    0 -0.11522350233E+03 -0.13761086432E+03 -0.31049661616E+03  0.37980440936E+03  0.12502013938E+03 0.  0.
          5    1    4    4  502    0  0.20234595961E+02 -0.40746806220E+00 -0.10805599620E+02  0.23419135063E+02  0.47000000000E+01 0. -1.
         -5    1    4    4    0  502 -0.13545809829E+03 -0.13720339626E+03 -0.29969101654E+03  0.35638527429E+03  0.47000000000E+01 0. -1.
          5    1    3    3  503    0 -0.12874337832E+02  0.74654057665E+02 -0.73155619833E+02  0.10541732122E+03  0.47000000000E+01 0. -1.
         -5    1    3    3    0  503  0.12809784016E+03  0.62956806658E+02 -0.13379044435E+03  0.19569003336E+03  0.47000000000E+01 0. -1.
<mgrwt>
<rscale>  0 0.21872853E+03</rscale>
<asrwt>0</asrwt>
<pdfrwt beam="2">  1        5 0.92181108E-01 0.21873098E+03</pdfrwt>
<pdfrwt beam="1">  1       -5 0.12574545E-01 0.21873098E+03</pdfrwt>
<totfact> 0.42564673E+01</totfact>
</mgrwt>
</event>
<event>
 8    1  0.3682083E-007  0.1451931E+03  0.7546771E-02  0.1206508E+00
          5   -1    0    0  501    0  0.00000000000E+00  0.00000000000E+00  0.20172744527E+03  0.20178218994E+03  0.47000000000E+01 0.  1.
         -5   -1    0    0    0  501 -0.00000000000E+00 -0.00000000000E+00 -0.28724462545E+03  0.28728307443E+03  0.47000000000E+01 0.  1.
         25    2    1    2    0    0  0.69438258970E+02  0.25183474967E+02 -0.23782395570E+03  0.27864182523E+03  0.12500061455E+03 0.  0.
         25    2    1    2    0    0 -0.69438258970E+02 -0.25183474967E+02  0.15230677552E+03  0.21042343914E+03  0.12499916258E+03 0.  0.
          5    1    3    3  502    0  0.15559378409E+02  0.70798736090E+02 -0.98565550565E+02  0.12244105948E+03  0.47000000000E+01 0.  1.
         -5    1    3    3    0  502  0.53878880562E+02 -0.45615261123E+02 -0.13925840514E+03  0.15620076575E+03  0.47000000000E+01 0.  1.
          5    1    4    4  503    0  0.25027851790E+02 -0.88715717917E+00  0.92422095197E+02  0.95870298287E+02  0.47000000000E+01 0.  1.
         -5    1    4    4    0  503 -0.94466110761E+02 -0.24296317788E+02  0.59884680327E+02  0.11455314085E+03  0.47000000000E+01 0.  1.
<mgrwt>
<rscale>  0 0.14519278E+03</rscale>
<asrwt>0</asrwt>
<pdfrwt beam="1">  1        5 0.31042160E-01 0.14519309E+03</pdfrwt>
<pdfrwt beam="2">  1       -5 0.44198650E-01 0.14519309E+03</pdfrwt>
<totfact> 0.35999575E+01</totfact>
</mgrwt>
</event>
<event>
 8    1  0.3682083E-007  0.1457633E+03  0.7546771E-02  0.1205779E+00
         -5   -1    0    0    0  501 -0.00000000000E+00  0.00000000000E+00  0.57638146150E+02  0.57829455225E+02  0.47000000000E+01 0.  1.
          5   -1    0    0  501    0  0.00000000000E+00 -0.00000000000E+00 -0.40930205434E+03  0.40932903841E+03  0.47000000000E+01 0.  1.
         25    2    1    2    0    0 -0.38068818736E+02  0.64592037144E+02 -0.10147289663E+03  0.17760281256E+03  0.12499857621E+03 0.  0.
         25    2    1    2    0    0  0.38068818736E+02 -0.64592037144E+02 -0.25019101155E+03  0.28955568107E+03  0.12500233581E+03 0.  0.
          5    1    4    4  502    0  0.20269393261E+02 -0.86950499806E+02 -0.90335563827E+02  0.12709776478E+03  0.47000000000E+01 0. -1.
         -5    1    4    4    0  502  0.17799425475E+02  0.22358462662E+02 -0.15985544773E+03  0.16245791630E+03  0.47000000000E+01 0. -1.
          5    1    3    3  503    0 -0.48195502368E+02 -0.84989898821E+00  0.84742402494E+01  0.49167382731E+02  0.47000000000E+01 0.  1.
         -5    1    3    3    0  503  0.10126683632E+02  0.65441936132E+02 -0.10994713688E+03  0.12843542983E+03  0.47000000000E+01 0.  1.
<mgrwt>
<rscale>  0 0.14576253E+03</rscale>
<asrwt>0</asrwt>
<pdfrwt beam="2">  1        5 0.62986337E-01 0.14576334E+03</pdfrwt>
<pdfrwt beam="1">  1       -5 0.88841992E-02 0.14576334E+03</pdfrwt>
<totfact> 0.16817769E+02</totfact>
</mgrwt>
</event>
<event>
 8    1  0.3682083E-007  0.1620999E+03  0.7546771E-02  0.1186346E+00
          5   -1    0    0  501    0  0.00000000000E+00  0.00000000000E+00  0.71490552087E+03  0.71492097030E+03  0.47000000000E+01 0. -1.
         -5   -1    0    0    0  501 -0.00000000000E+00 -0.00000000000E+00 -0.38929590706E+02  0.39212281654E+02  0.47000000000E+01 0. -1.
         25    2    1    2    0    0 -0.96764777750E+02  0.35888036906E+02  0.24588903165E+03  0.29451261069E+03  0.12499955426E+03 0.  0.
         25    2    1    2    0    0  0.96764777750E+02 -0.35888036906E+02  0.43008689852E+03  0.45962064126E+03  0.12500008077E+03 0.  0.
          5    1    4    4  502    0  0.25283987903E+02 -0.53727221453E+02  0.32955634369E+03  0.33489605557E+03  0.47000000000E+01 0.  1.
         -5    1    4    4    0  502  0.71480789847E+02  0.17839184547E+02  0.10053055483E+03  0.12472458569E+03  0.47000000000E+01 0.  1.
          5    1    3    3  503    0 -0.68719955467E+02  0.14136739449E+02  0.24884575142E+03  0.25858959314E+03  0.47000000000E+01 0.  1.
         -5    1    3    3    0  503 -0.28044822283E+02  0.21751297457E+02 -0.29567197716E+01  0.35923017548E+02  0.47000000000E+01 0.  1.
<mgrwt>
<rscale>  0 0.16209985E+03</rscale>
<asrwt>0</asrwt>
<pdfrwt beam="1">  1        5 0.11000840E+00 0.16209995E+03</pdfrwt>
<pdfrwt beam="2">  1       -5 0.60121015E-02 0.16209995E+03</pdfrwt>
<totfact> 0.91612950E+01</totfact>
</mgrwt>
</event>
<event>
 8    1  0.3682083E-007  0.1309231E+03  0.7546771E-02  0.1226094E+00
          5   -1    0    0  501    0  0.00000000000E+00  0.00000000000E+00  0.37677529098E+03  0.37680460439E+03  0.47000000000E+01 0.  1.
         -5   -1    0    0    0  501 -0.00000000000E+00 -0.00000000000E+00 -0.46908752220E+02  0.47143621359E+02  0.47000000000E+01 0.  1.
         25    2    1    2    0    0  0.13845152254E+02 -0.36394673437E+02  0.12626444634E+03  0.18188486613E+03  0.12499253427E+03 0.  0.
         25    2    1    2    0    0 -0.13845152254E+02  0.36394673437E+02  0.20360209241E+03  0.24206335962E+03  0.12499839014E+03 0.  0.
          5    1    4    4  502    0 -0.33778000809E+02  0.69926596182E+01  0.20327090997E+03  0.20623046202E+03  0.47000000000E+01 0.  1.
         -5    1    4    4    0  502  0.19932848554E+02  0.29402013819E+02  0.33118244463E+00  0.35832897593E+02  0.47000000000E+01 0.  1.
          5    1    3    3  503    0  0.63063638948E+02 -0.46842895273E+02  0.90743163464E+02  0.12011532421E+03  0.47000000000E+01 0.  1.
         -5    1    3    3    0  503 -0.49218486694E+02  0.10448221836E+02  0.35521282880E+02  0.61769541923E+02  0.47000000000E+01 0.  1.
<mgrwt>
<rscale>  0 0.13092170E+03</rscale>
<asrwt>0</asrwt>
<pdfrwt beam="1">  1        5 0.57985753E-01 0.13092310E+03</pdfrwt>
<pdfrwt beam="2">  1       -5 0.72370527E-02 0.13092310E+03</pdfrwt>
<totfact> 0.27640223E+02</totfact>
</mgrwt>
</event>
<event>
 8    1  0.3682083E-007  0.1422902E+03  0.7546771E-02  0.1210282E+00
          5   -1    0    0  501    0  0.00000000000E+00  0.00000000000E+00  0.30195809392E+03  0.30199466963E+03  0.47000000000E+01 0.  1.
         -5   -1    0    0    0  501 -0.00000000000E+00 -0.00000000000E+00 -0.69017308554E+02  0.69177155767E+02  0.47000000000E+01 0.  1.
         25    2    1    2    0    0  0.60883637435E+02  0.30205148131E+02  0.14873871491E+03  0.20583433851E+03  0.12500160526E+03 0.  0.
         25    2    1    2    0    0 -0.60883637435E+02 -0.30205148131E+02  0.84202070455E+02  0.16533748688E+03  0.12500931013E+03 0.  0.
          5    1    4    4  502    0  0.58204593368E+01  0.12007445934E+02  0.85085792989E+02  0.86253919757E+02  0.47000000000E+01 0.  1.
         -5    1    4    4    0  502 -0.66704096772E+02 -0.42212594065E+02 -0.88372253398E+00  0.79083567126E+02  0.47000000000E+01 0.  1.
          5    1    3    3  503    0 -0.35993207512E+02  0.17406842553E+01  0.65438456763E+02  0.74852004597E+02  0.47000000000E+01 0.  1.
         -5    1    3    3    0  503  0.96876844947E+02  0.28464463876E+02  0.83300258146E+02  0.13098233391E+03  0.47000000000E+01 0.  1.
<mgrwt>
<rscale>  0 0.14228849E+03</rscale>
<asrwt>0</asrwt>
<pdfrwt beam="1">  1        5 0.46470200E-01 0.14229018E+03</pdfrwt>
<pdfrwt beam="2">  1       -5 0.10633157E-01 0.14229018E+03</pdfrwt>
<totfact> 0.23463934E+02</totfact>
</mgrwt>
</event>
<event>
 8    1  0.3682083E-007  0.2140991E+03  0.7546771E-02  0.1138361E+00
          5   -1    0    0  501    0  0.00000000000E+00  0.00000000000E+00  0.85343762555E+02  0.85473082354E+02  0.47000000000E+01 0.  1.
         -5   -1    0    0    0  501 -0.00000000000E+00 -0.00000000000E+00 -0.61181777089E+03  0.61183582339E+03  0.47000000000E+01 0.  1.
         25    2    1    2    0    0 -0.11564574643E+03  0.12976745011E+03 -0.38550827887E+03  0.44096974833E+03  0.12499662434E+03 0.  0.
         25    2    1    2    0    0  0.11564574643E+03 -0.12976745011E+03 -0.14096572947E+03  0.25633915741E+03  0.12499958785E+03 0.  0.
          5    1    4    4  502    0  0.16727120952E+02 -0.85448994221E+02 -0.11580906865E+03  0.14496605661E+03  0.47000000000E+01 0. -1.
         -5    1    4    4    0  502  0.98918625473E+02 -0.44318455884E+02 -0.25156660827E+02  0.11137310080E+03  0.47000000000E+01 0. -1.
          5    1    3    3  503    0 -0.46803413544E+02  0.74990016304E+02 -0.31767904233E+03  0.32978193704E+03  0.47000000000E+01 0.  1.
         -5    1    3    3    0  503 -0.68842332881E+02  0.54777433802E+02 -0.67829236538E+02  0.11118781129E+03  0.47000000000E+01 0.  1.
<mgrwt>
<rscale>  0 0.21409867E+03</rscale>
<asrwt>0</asrwt>
<pdfrwt beam="1">  1        5 0.13141146E-01 0.21409910E+03</pdfrwt>
<pdfrwt beam="2">  1       -5 0.94137144E-01 0.21409910E+03</pdfrwt>
<totfact> 0.37181037E+01</totfact>
</mgrwt>
</event>
<event>
 8    1  0.3682083E-007  0.1562972E+03  0.7546771E-02  0.1192942E+00
          5   -1    0    0  501    0  0.00000000000E+00  0.00000000000E+00  0.61500147220E+03  0.61501943124E+03  0.47000000000E+01 0. -1.
         -5   -1    0    0    0  501 -0.00000000000E+00 -0.00000000000E+00 -0.44530475096E+02  0.44777820539E+02  0.47000000000E+01 0. -1.
         25    2    1    2    0    0 -0.93634863297E+02 -0.59374193610E+01  0.17540168267E+03  0.23493423389E+03  0.12500241357E+03 0.  0.
         25    2    1    2    0    0  0.93634863297E+02  0.59374193610E+01  0.39506931444E+03  0.42486301789E+03  0.12500432069E+03 0.  0.
          5    1    4    4  502    0  0.10462490710E+01 -0.42201903213E+01 -0.85090091518E+01  0.10648844079E+02  0.47000000000E+01 0.  1.
         -5    1    4    4    0  502  0.92588614226E+02  0.10157609682E+02  0.40357832359E+03  0.41421417381E+03  0.47000000000E+01 0.  1.
          5    1    3    3  503    0 -0.21318930307E+02 -0.14376429918E+02 -0.15622161006E+02  0.30451936575E+02  0.47000000000E+01 0. -1.
         -5    1    3    3    0  503 -0.72315932989E+02  0.84390105572E+01  0.19102384367E+03  0.20448229731E+03  0.47000000000E+01 0. -1.
<mgrwt>
<rscale>  0 0.15629684E+03</rscale>
<asrwt>0</asrwt>
<pdfrwt beam="1">  1        5 0.94636015E-01 0.15629722E+03</pdfrwt>
<pdfrwt beam="2">  1       -5 0.68712507E-02 0.15629722E+03</pdfrwt>
<totfact> 0.10458732E+02</totfact>
</mgrwt>
</event>
<event>
 8    1  0.3682083E-007  0.1335018E+03  0.7546771E-02  0.1222370E+00
          5   -1    0    0  501    0  0.00000000000E+00  0.00000000000E+00  0.31239955434E+02  0.31591530756E+02  0.47000000000E+01 0.  1.
         -5   -1    0    0    0  501 -0.00000000000E+00 -0.00000000000E+00 -0.75461203560E+03  0.75462667212E+03  0.47000000000E+01 0.  1.
         25    2    1    2    0    0 -0.96353843590E+01 -0.45875864689E+02 -0.55773869089E+03  0.57348089422E+03  0.12494179898E+03 0.  0.
         25    2    1    2    0    0  0.96353843590E+01  0.45875864689E+02 -0.16563338928E+03  0.21273730865E+03  0.12500122902E+03 0.  0.
          5    1    3    3  502    0  0.54981642293E+02 -0.21916300269E+02 -0.18184364934E+03  0.19129168307E+03  0.47000000000E+01 0.  1.
         -5    1    3    3    0  502 -0.64617026652E+02 -0.23959564420E+02 -0.37589504155E+03  0.38218921115E+03  0.47000000000E+01 0.  1.
          5    1    4    4  503    0  0.58324294685E+02  0.58016288497E+02 -0.91980377564E+02  0.12349126665E+03  0.47000000000E+01 0.  1.
         -5    1    4    4    0  503 -0.48688910326E+02 -0.12140423807E+02 -0.73653011713E+02  0.89246042004E+02  0.47000000000E+01 0.  1.
<mgrwt>
<rscale>  0 0.13348793E+03</rscale>
<asrwt>0</asrwt>
<pdfrwt beam="1">  1        5 0.48343177E-02 0.13350185E+03</pdfrwt>
<pdfrwt beam="2">  1       -5 0.11612232E+00 0.13350185E+03</pdfrwt>
<totfact> 0.10846030E+02</totfact>
</mgrwt>
</event>
<event>
 8    1  0.3682083E-007  0.1297626E+03  0.7546771E-02  0.1227809E+00
         -5   -1    0    0    0  501 -0.00000000000E+00  0.00000000000E+00  0.13445060175E+03  0.13453272579E+03  0.47000000000E+01 0. -1.
          5   -1    0    0  501    0  0.00000000000E+00 -0.00000000000E+00 -0.12731808603E+03  0.12740480772E+03  0.47000000000E+01 0. -1.
         25    2    1    2    0    0  0.34825435627E+01  0.34664156681E+02  0.20945805877E+02  0.13144175101E+03  0.12499790101E+03 0.  0.
         25    2    1    2    0    0 -0.34825435627E+01 -0.34664156681E+02 -0.13813290157E+02  0.13049578250E+03  0.12499844158E+03 0.  0.
          5    1    3    3  502    0 -0.41437878950E+02 -0.10304001870E+02 -0.27830282283E+02  0.51184811012E+02  0.47000000000E+01 0. -1.
         -5    1    3    3    0  502  0.44920422513E+02  0.44968158551E+02  0.48776088160E+02  0.80256940001E+02  0.47000000000E+01 0. -1.
          5    1    4    4  503    0  0.38272211182E+02 -0.64195621531E+02 -0.22965744430E+02  0.78328509431E+02  0.47000000000E+01 0. -1.
         -5    1    4    4    0  503 -0.41754754744E+02  0.29531464850E+02  0.91524542722E+01  0.52167273066E+02  0.47000000000E+01 0. -1.
<mgrwt>
<rscale>  0 0.12976251E+03</rscale>
<asrwt>0</asrwt>
<pdfrwt beam="2">  1        5 0.19600386E-01 0.12976264E+03</pdfrwt>
<pdfrwt beam="1">  1       -5 0.20697696E-01 0.12976264E+03</pdfrwt>
<totfact> 0.37229626E+02</totfact>
</mgrwt>
</event>
<event>
 8    1  0.3682083E-007  0.1374323E+03  0.7546771E-02  0.1216828E+00
          5   -1    0    0  501    0  0.00000000000E+00  0.00000000000E+00  0.29318139377E+03  0.29321906427E+03  0.47000000000E+01 0. -1.
         -5   -1    0    0    0  501 -0.00000000000E+00 -0.00000000000E+00 -0.72068245943E+02  0.72221340843E+02  0.47000000000E+01 0. -1.
         25    2    1    2    0    0 -0.24820007857E+02 -0.51433787919E+02  0.50625442403E+02  0.14646012544E+03  0.12500466230E+03 0.  0.
         25    2    1    2    0    0  0.24820007857E+02  0.51433787919E+02  0.17048770542E+03  0.21898027967E+03  0.12499935142E+03 0.  0.
          5    1    3    3  502    0  0.20317997807E+02 -0.51179909447E+02  0.76381190355E+02  0.94278207482E+02  0.47000000000E+01 0.  1.
         -5    1    3    3    0  502 -0.45138005664E+02 -0.25387847131E+00 -0.25755747952E+02  0.52181917962E+02  0.47000000000E+01 0.  1.
          5    1    4    4  503    0  0.30542444038E+02  0.40566334893E+02  0.18928806344E+03  0.19603706123E+03  0.47000000000E+01 0.  1.
         -5    1    4    4    0  503 -0.57224361811E+01  0.10867453026E+02 -0.18800358015E+02  0.22943218445E+02  0.47000000000E+01 0.  1.
<mgrwt>
<rscale>  0 0.13743108E+03</rscale>
<asrwt>0</asrwt>
<pdfrwt beam="1">  1        5 0.45119503E-01 0.13743228E+03</pdfrwt>
<pdfrwt beam="2">  1       -5 0.11102097E-01 0.13743228E+03</pdfrwt>
<totfact> 0.22864274E+02</totfact>
</mgrwt>
</event>
<event>
 8    1  0.3682083E-007  0.1576733E+03  0.7546771E-02  0.1191351E+00
         -5   -1    0    0    0  501 -0.00000000000E+00  0.00000000000E+00  0.13690473185E+02  0.14474773091E+02  0.47000000000E+01 0.  1.
          5   -1    0    0  501    0  0.00000000000E+00 -0.00000000000E+00 -0.17659404017E+04  0.17659466562E+04  0.47000000000E+01 0.  1.
         25    2    1    2    0    0  0.75720595010E+02 -0.59164068317E+02 -0.85060343421E+03  0.86509237972E+03  0.12499851069E+03 0.  0.
         25    2    1    2    0    0 -0.75720595010E+02  0.59164068317E+02 -0.90164649435E+03  0.91532904956E+03  0.12500749060E+03 0.  0.
          5    1    3    3  502    0  0.39526486633E+02 -0.31277616099E+02 -0.91255681636E+02  0.10435670484E+03  0.47000000000E+01 0. -1.
         -5    1    3    3    0  502  0.36194108377E+02 -0.27886452218E+02 -0.75934775257E+03  0.76073567488E+03  0.47000000000E+01 0. -1.
          5    1    4    4  503    0 -0.63604755709E+02 -0.38376149899E+00 -0.73715120808E+03  0.73990520054E+03  0.47000000000E+01 0. -1.
         -5    1    4    4    0  503 -0.12115839302E+02  0.59547829816E+02 -0.16449528627E+03  0.17542384902E+03  0.47000000000E+01 0. -1.
<mgrwt>
<rscale>  0 0.15767152E+03</rscale>
<asrwt>0</asrwt>
<pdfrwt beam="2">  1        5 0.27174378E+00 0.15767330E+03</pdfrwt>
<pdfrwt beam="1">  1       -5 0.21670399E-02 0.15767330E+03</pdfrwt>
<totfact> 0.31894294E+01</totfact>
</mgrwt>
</event>
<event>
 8    1  0.3682083E-007  0.1260506E+03  0.7546771E-02  0.1233437E+00
          5   -1    0    0  501    0  0.00000000000E+00  0.00000000000E+00  0.19685992090E+02  0.20239275791E+02  0.47000000000E+01 0.  1.
         -5   -1    0    0    0  501 -0.00000000000E+00 -0.00000000000E+00 -0.80145404126E+03  0.80146782234E+03  0.47000000000E+01 0.  1.
         25    2    1    2    0    0 -0.11961635537E+02  0.10964436636E+02 -0.42671050790E+03  0.44493887554E+03  0.12500178328E+03 0.  0.
         25    2    1    2    0    0  0.11961635537E+02 -0.10964436636E+02 -0.35505754127E+03  0.37676822259E+03  0.12500054538E+03 0.  0.
          5    1    4    4  502    0  0.10582402474E+02 -0.51952204802E+02 -0.31423999559E+03  0.31871599216E+03  0.47000000000E+01 0. -1.
         -5    1    4    4    0  502  0.13792330627E+01  0.40987768165E+02 -0.40817545675E+02  0.58052230430E+02  0.47000000000E+01 0. -1.
          5    1    3    3  503    0 -0.53223715589E+02 -0.21087156078E+02 -0.11184418177E+03  0.12573242640E+03  0.47000000000E+01 0. -1.
         -5    1    3    3    0  503  0.41262080053E+02  0.32051592714E+02 -0.31486632613E+03  0.31920644914E+03  0.47000000000E+01 0. -1.
<mgrwt>
<rscale>  0 0.12605026E+03</rscale>
<asrwt>0</asrwt>
<pdfrwt beam="1">  1        5 0.30722352E-02 0.12605057E+03</pdfrwt>
<pdfrwt beam="2">  1       -5 0.12334422E+00 0.12605057E+03</pdfrwt>
<totfact> 0.19147133E+02</totfact>
</mgrwt>
</event>
<event>
 8    1  0.3682083E-007  0.1587823E+03  0.7546771E-02  0.1190079E+00
          5   -1    0    0  501    0  0.00000000000E+00  0.00000000000E+00  0.19584747349E+03  0.19590386130E+03  0.47000000000E+01 0.  1.
         -5   -1    0    0    0  501 -0.00000000000E+00 -0.00000000000E+00 -0.15346175315E+03  0.15353370862E+03  0.47000000000E+01 0.  1.
         25    2    1    2    0    0 -0.82972947618E+02 -0.51980806108E+02 -0.49080921641E+02  0.16619467941E+03  0.12500088141E+03 0.  0.
         25    2    1    2    0    0  0.82972947618E+02  0.51980806108E+02  0.91466641974E+02  0.18324289051E+03  0.12500118435E+03 0.  0.
          5    1    4    4  502    0  0.82015046218E+02  0.53663608053E+02  0.11957305977E+03  0.15468050057E+03  0.47000000000E+01 0.  1.
         -5    1    4    4    0  502  0.95790139981E+00 -0.16828019454E+01 -0.28106417795E+02  0.28562389934E+02  0.47000000000E+01 0.  1.
          5    1    3    3  503    0 -0.18536296236E+02 -0.57304059344E+02  0.27060556635E+02  0.66194510504E+02  0.47000000000E+01 0.  1.
         -5    1    3    3    0  503 -0.64436651382E+02  0.53232532366E+01 -0.76141478275E+02  0.10000016890E+03  0.47000000000E+01 0.  1.
<mgrwt>
<rscale>  0 0.15878221E+03</rscale>
<asrwt>0</asrwt>
<pdfrwt beam="1">  1        5 0.30140253E-01 0.15878227E+03</pdfrwt>
<pdfrwt beam="2">  1       -5 0.23619373E-01 0.15878227E+03</pdfrwt>
<totfact> 0.13636673E+02</totfact>
</mgrwt>
</event>
<event>
 8    1  0.3682083E-007  0.1280008E+03  0.7546771E-02  0.1230453E+00
         -5   -1    0    0    0  501 -0.00000000000E+00  0.00000000000E+00  0.20010992785E+02  0.20555530454E+02  0.47000000000E+01 0.  1.
          5   -1    0    0  501    0  0.00000000000E+00 -0.00000000000E+00 -0.81855945642E+03  0.81857294953E+03  0.47000000000E+01 0.  1.
         25    2    1    2    0    0 -0.27233095019E+02 -0.41775084047E+01 -0.44867097632E+03  0.46657244438E+03  0.12500043128E+03 0.  0.
         25    2    1    2    0    0  0.27233095019E+02  0.41775084047E+01 -0.34987748732E+03  0.37255603561E+03  0.12499860196E+03 0.  0.
          5    1    3    3  502    0  0.11957953202E+01  0.48424704265E+02 -0.84643099996E+02  0.97636705631E+02  0.47000000000E+01 0. -1.
         -5    1    3    3    0  502 -0.28428890339E+02 -0.52602212670E+02 -0.36402787632E+03  0.36893573874E+03  0.47000000000E+01 0. -1.
          5    1    4    4  503    0 -0.13058552334E+02 -0.50772449442E+02 -0.21527376955E+03  0.22161510163E+03  0.47000000000E+01 0. -1.
         -5    1    4    4    0  503  0.40291647353E+02  0.54949957846E+02 -0.13460371777E+03  0.15094093398E+03  0.47000000000E+01 0. -1.
<mgrwt>
<rscale>  0 0.12800034E+03</rscale>
<asrwt>0</asrwt>
<pdfrwt beam="2">  1        5 0.12597512E+00 0.12800078E+03</pdfrwt>
<pdfrwt beam="1">  1       -5 0.31215404E-02 0.12800078E+03</pdfrwt>
<totfact> 0.17769455E+02</totfact>
</mgrwt>
</event>
<event>
 8    1  0.3682083E-007  0.1449343E+03  0.7546771E-02  0.1206845E+00
         -5   -1    0    0    0  501 -0.00000000000E+00  0.00000000000E+00  0.12753506433E+03  0.12762163858E+03  0.47000000000E+01 0.  1.
          5   -1    0    0  501    0  0.00000000000E+00 -0.00000000000E+00 -0.17414783071E+03  0.17421124229E+03  0.47000000000E+01 0.  1.
         25    2    1    2    0    0 -0.44882110754E+02 -0.57977734090E+02  0.12181638637E+02  0.14542724581E+03  0.12499947996E+03 0.  0.
         25    2    1    2    0    0  0.44882110754E+02  0.57977734090E+02 -0.58794405011E+02  0.15640563506E+03  0.12502047473E+03 0.  0.
          5    1    3    3  502    0 -0.43950186893E+02 -0.60886034614E+02 -0.45200582703E+02  0.87771924985E+02  0.47000000000E+01 0.  1.
         -5    1    3    3    0  502 -0.93192386105E+00  0.29083005240E+01  0.57382221340E+02  0.57655320829E+02  0.47000000000E+01 0.  1.
          5    1    4    4  503    0  0.67249225291E+02 -0.51677250972E+01 -0.58259168794E+02  0.89249002423E+02  0.47000000000E+01 0. -1.
         -5    1    4    4    0  503 -0.22367114537E+02  0.63145459187E+02 -0.53523621704E+00  0.67156632632E+02  0.47000000000E+01 0. -1.
<mgrwt>
<rscale>  0 0.14492974E+03</rscale>
<asrwt>0</asrwt>
<pdfrwt beam="2">  1        5 0.26803511E-01 0.14493426E+03</pdfrwt>
<pdfrwt beam="1">  1       -5 0.19632317E-01 0.14493426E+03</pdfrwt>
<totfact> 0.23583777E+02</totfact>
</mgrwt>
</event>
<event>
 8    1  0.3682083E-007  0.1263147E+03  0.7546771E-02  0.1233033E+00
         -5   -1    0    0    0  501 -0.00000000000E+00  0.00000000000E+00  0.36125216626E+02  0.36429675764E+02  0.47000000000E+01 0. -1.
          5   -1    0    0  501    0  0.00000000000E+00 -0.00000000000E+00 -0.57204599628E+03  0.57206530384E+03  0.47000000000E+01 0. -1.
         25    2    1    2    0    0  0.21660815874E+01 -0.17941420932E+02 -0.12152006881E+03  0.17527061857E+03  0.12500430439E+03 0.  0.
         25    2    1    2    0    0 -0.21660815874E+01  0.17941420932E+02 -0.41440071084E+03  0.43322436103E+03  0.12501524448E+03 0.  0.
          5    1    3    3  502    0 -0.34618849072E+02 -0.16600867091E+02  0.88859928061E+01  0.39687584549E+02  0.47000000000E+01 0. -1.
         -5    1    3    3    0  502  0.36784930659E+02 -0.13405538413E+01 -0.13040606162E+03  0.13558303402E+03  0.47000000000E+01 0. -1.
          5    1    4    4  503    0 -0.27316027829E+02 -0.43392025971E+02 -0.10728554385E+03  0.11900130762E+03  0.47000000000E+01 0. -1.
         -5    1    4    4    0  503  0.25149946241E+02  0.61333446903E+02 -0.30711516699E+03  0.31422305341E+03  0.47000000000E+01 0. -1.
<mgrwt>
<rscale>  0 0.12631197E+03</rscale>
<asrwt>0</asrwt>
<pdfrwt beam="2">  1        5 0.88031975E-01 0.12631468E+03</pdfrwt>
<pdfrwt beam="1">  1       -5 0.55826312E-02 0.12631468E+03</pdfrwt>
<totfact> 0.16447501E+02</totfact>
</mgrwt>
</event>
<event>
 8    1  0.3682083E-007  0.1530217E+03  0.7546771E-02  0.1196810E+00
          5   -1    0    0  501    0  0.00000000000E+00  0.00000000000E+00  0.54091613349E+03  0.54093655216E+03  0.47000000000E+01 0.  1.
         -5   -1    0    0    0  501 -0.00000000000E+00 -0.00000000000E+00 -0.61337581465E+02  0.61517386973E+02  0.47000000000E+01 0.  1.
         25    2    1    2    0    0  0.46504397363E+01  0.88137781268E+02  0.76026231811E+02  0.17086372631E+03  0.12499811986E+03 0.  0.
         25    2    1    2    0    0 -0.46504397363E+01 -0.88137781268E+02  0.40355232021E+03  0.43159021282E+03  0.12500296629E+03 0.  0.
          5    1    4    4  502    0 -0.38854791929E+02 -0.84297040416E+02  0.37581475031E+03  0.38713628405E+03  0.47000000000E+01 0.  1.
         -5    1    4    4    0  502  0.34204352192E+02 -0.38407408523E+01  0.27737569897E+02  0.44453928769E+02  0.47000000000E+01 0.  1.
          5    1    3    3  503    0  0.52198883697E+02  0.89277475362E+02  0.39878183481E+02  0.11093940050E+03  0.47000000000E+01 0. -1.
         -5    1    3    3    0  503 -0.47548443961E+02 -0.11396940939E+01  0.36148048330E+02  0.59924325810E+02  0.47000000000E+01 0. -1.
<mgrwt>
<rscale>  0 0.15302070E+03</rscale>
<asrwt>0</asrwt>
<pdfrwt beam="1">  1        5 0.83233271E-01 0.15302169E+03</pdfrwt>
<pdfrwt beam="2">  1       -5 0.94519525E-02 0.15302169E+03</pdfrwt>
<totfact> 0.81417568E+01</totfact>
</mgrwt>
</event>
<event>
 8    1  0.3682083E-007  0.1477507E+03  0.7546771E-02  0.1203265E+00
          5   -1    0    0  501    0  0.00000000000E+00  0.00000000000E+00  0.92656612073E+02  0.92775739075E+02  0.47000000000E+01 0.  1.
         -5   -1    0    0    0  501 -0.00000000000E+00 -0.00000000000E+00 -0.40146796970E+03  0.40149548029E+03  0.47000000000E+01 0.  1.
         25    2    1    2    0    0 -0.53191041674E+02 -0.58112747445E+02 -0.31336576906E+03  0.34645036961E+03  0.12499350005E+03 0.  0.
         25    2    1    2    0    0  0.53191041674E+02  0.58112747445E+02  0.45544114371E+01  0.14782084975E+03  0.12499553043E+03 0.  0.
          5    1    4    4  502    0 -0.10250690435E+02  0.79757621264E+02  0.29309076096E+01  0.80604187382E+02  0.47000000000E+01 0.  1.
         -5    1    4    4    0  502  0.63441732108E+02 -0.21644873820E+02  0.16235038275E+01  0.67216662371E+02  0.47000000000E+01 0.  1.
          5    1    3    3  503    0  0.28036910982E+02  0.17508300221E+02 -0.45237440053E+02  0.56223882262E+02  0.47000000000E+01 0. -1.
         -5    1    3    3    0  503 -0.81227952655E+02 -0.75621047666E+02 -0.26812832901E+03  0.29022648735E+03  0.47000000000E+01 0. -1.
<mgrwt>
<rscale>  0 0.14775024E+03</rscale>
<asrwt>0</asrwt>
<pdfrwt beam="1">  1        5 0.14266143E-01 0.14775067E+03</pdfrwt>
<pdfrwt beam="2">  1       -5 0.61775582E-01 0.14775067E+03</pdfrwt>
<totfact> 0.76403337E+01</totfact>
</mgrwt>
</event>
<event>
 8    1  0.3682083E-007  0.1315344E+03  0.7546771E-02  0.1225224E+00
          5   -1    0    0  501    0  0.00000000000E+00  0.00000000000E+00  0.10703791193E+02  0.11690215819E+02  0.47000000000E+01 0. -1.
         -5   -1    0    0    0  501 -0.00000000000E+00 -0.00000000000E+00 -0.15889191387E+04  0.15889260900E+04  0.47000000000E+01 0. -1.
         25    2    1    2    0    0 -0.11305139817E+02  0.39094247523E+02 -0.92490356682E+03  0.93420977681E+03  0.12508050526E+03 0.  0.
         25    2    1    2    0    0  0.11305139817E+02 -0.39094247523E+02 -0.65331178072E+03  0.66640652899E+03  0.12500085072E+03 0.  0.
          5    1    4    4  502    0 -0.30653838939E+02  0.34635747621E+02 -0.23375729778E+03  0.23833559767E+03  0.47000000000E+01 0.  1.
         -5    1    4    4    0  502  0.41958978756E+02 -0.73729995144E+02 -0.41955448294E+03  0.42807093132E+03  0.47000000000E+01 0.  1.
          5    1    3    3  503    0 -0.25984547229E+02  0.71877182180E+02 -0.35542483247E+03  0.36358001533E+03  0.47000000000E+01 0.  1.
         -5    1    3    3    0  503  0.14679407412E+02 -0.32782934657E+02 -0.56947873436E+03  0.57062976148E+03  0.47000000000E+01 0.  1.
<mgrwt>
<rscale>  0 0.13151546E+03</rscale>
<asrwt>0</asrwt>
<pdfrwt beam="1">  1        5 0.17231519E-02 0.13153440E+03</pdfrwt>
<pdfrwt beam="2">  1       -5 0.24452533E+00 0.13153440E+03</pdfrwt>
<totfact> 0.65004113E+01</totfact>
</mgrwt>
</event>
<event>
 8    1  0.3682083E-007  0.1282106E+03  0.7546771E-02  0.1230136E+00
         -5   -1    0    0    0  501 -0.00000000000E+00  0.00000000000E+00  0.75862916358E+02  0.76008368476E+02  0.47000000000E+01 0. -1.
          5   -1    0    0  501    0  0.00000000000E+00 -0.00000000000E+00 -0.21684601822E+03  0.21689694700E+03  0.47000000000E+01 0. -1.
         25    2    1    2    0    0  0.25293336998E+02  0.13143387294E+02 -0.63132458274E+02  0.14291143111E+03  0.12500187329E+03 0.  0.
         25    2    1    2    0    0 -0.25293336998E+02 -0.13143387294E+02 -0.77850643586E+02  0.14999388437E+03  0.12499976446E+03 0.  0.
          5    1    4    4  502    0  0.91868028082E+00 -0.57444551131E+02 -0.79594342427E+02  0.98275479009E+02  0.47000000000E+01 0.  1.
         -5    1    4    4    0  502 -0.26212017279E+02  0.44301163838E+02  0.17436988405E+01  0.51718405359E+02  0.47000000000E+01 0.  1.
          5    1    3    3  503    0  0.56300597650E+02 -0.31072452589E+02 -0.60846436055E+02  0.88654573408E+02  0.47000000000E+01 0.  1.
         -5    1    3    3    0  503 -0.31007260651E+02  0.44215839883E+02 -0.22860222194E+01  0.54256857698E+02  0.47000000000E+01 0.  1.
<mgrwt>
<rscale>  0 0.12821013E+03</rscale>
<asrwt>0</asrwt>
<pdfrwt beam="2">  1        5 0.33376032E-01 0.12821065E+03</pdfrwt>
<pdfrwt beam="1">  1       -5 0.11686324E-01 0.12821065E+03</pdfrwt>
<totfact> 0.37642257E+02</totfact>
</mgrwt>
</event>
<event>
 8    1  0.3682083E-007  0.1355727E+03  0.7546771E-02  0.1219423E+00
         -5   -1    0    0    0  501 -0.00000000000E+00  0.00000000000E+00  0.28859125580E+03  0.28862952538E+03  0.47000000000E+01 0. -1.
          5   -1    0    0  501    0  0.00000000000E+00 -0.00000000000E+00 -0.63866243303E+02  0.64038949348E+02  0.47000000000E+01 0. -1.
         25    2    1    2    0    0 -0.42512730168E+02 -0.30669873298E+02  0.99911256410E+02  0.16841082482E+03  0.12502789051E+03 0.  0.
         25    2    1    2    0    0  0.42512730168E+02  0.30669873298E+02  0.12481375609E+03  0.18425764991E+03  0.12499773793E+03 0.  0.
          5    1    4    4  502    0 -0.36077902442E+02 -0.12727716275E+01  0.80683480425E+02  0.88516377048E+02  0.47000000000E+01 0.  1.
         -5    1    4    4    0  502  0.78590632610E+02  0.31942644926E+02  0.44130275662E+02  0.95741272860E+02  0.47000000000E+01 0.  1.
          5    1    3    3  503    0 -0.75300683453E+02 -0.38633209737E+01  0.10058307796E+03  0.12579413241E+03  0.47000000000E+01 0.  1.
         -5    1    3    3    0  503  0.32787953284E+02 -0.26806552325E+02 -0.67182154810E+00  0.42616692414E+02  0.47000000000E+01 0.  1.
<mgrwt>
<rscale>  0 0.13556571E+03</rscale>
<asrwt>0</asrwt>
<pdfrwt beam="2">  1        5 0.98418047E-02 0.13557266E+03</pdfrwt>
<pdfrwt beam="1">  1       -5 0.44414884E-01 0.13557266E+03</pdfrwt>
<totfact> 0.29041671E+02</totfact>
</mgrwt>
</event>
<event>
 8    1  0.3682083E-007  0.1277795E+03  0.7546771E-02  0.1230797E+00
         -5   -1    0    0    0  501 -0.00000000000E+00  0.00000000000E+00  0.18178197518E+03  0.18184272463E+03  0.47000000000E+01 0.  1.
          5   -1    0    0  501    0  0.00000000000E+00 -0.00000000000E+00 -0.89666861393E+02  0.89789955073E+02  0.47000000000E+01 0.  1.
         25    2    1    2    0    0 -0.17611856770E+02 -0.19818296890E+02  0.45854395310E+02  0.13575797054E+03  0.12499863441E+03 0.  0.
         25    2    1    2    0    0  0.17611856770E+02  0.19818296890E+02  0.46260718478E+02  0.13587470916E+03  0.12497575815E+03 0.  0.
          5    1    3    3  502    0 -0.25065276793E+02  0.35372648862E+02  0.63604122186E+02  0.77117227305E+02  0.47000000000E+01 0. -1.
         -5    1    3    3    0  502  0.74534200236E+01 -0.55190945752E+02 -0.17749726876E+02  0.58640743235E+02  0.47000000000E+01 0. -1.
          5    1    4    4  503    0  0.28525193357E+02 -0.21235274929E+02 -0.31111649655E+02  0.47483137024E+02  0.47000000000E+01 0.  1.
         -5    1    4    4    0  503 -0.10913336588E+02  0.41053571819E+02  0.77372368133E+02  0.88391572138E+02  0.47000000000E+01 0.  1.
<mgrwt>
<rscale>  0 0.12777391E+03</rscale>
<asrwt>0</asrwt>
<pdfrwt beam="2">  1        5 0.13809044E-01 0.12777950E+03</pdfrwt>
<pdfrwt beam="1">  1       -5 0.27980599E-01 0.12777950E+03</pdfrwt>
<totfact> 0.39500766E+02</totfact>
</mgrwt>
</event>
<event>
 8    1  0.3682083E-007  0.1619728E+03  0.7546771E-02  0.1186490E+00
          5   -1    0    0  501    0  0.00000000000E+00  0.00000000000E+00  0.67023476537E+02  0.67188067445E+02  0.47000000000E+01 0. -1.
         -5   -1    0    0    0  501 -0.00000000000E+00 -0.00000000000E+00 -0.39220541452E+03  0.39223357477E+03  0.47000000000E+01 0. -1.
         25    2    1    2    0    0  0.10196177562E+03  0.14482205351E+02 -0.17660219257E+03  0.23963206467E+03  0.12501701500E+03 0.  0.
         25    2    1    2    0    0 -0.10196177562E+03 -0.14482205351E+02 -0.14857974541E+03  0.21978957754E+03  0.12500231875E+03 0.  0.
          5    1    4    4  502    0 -0.53033485259E+02 -0.52472309450E+02 -0.20616584958E+02  0.77543712789E+02  0.47000000000E+01 0. -1.
         -5    1    4    4    0  502 -0.48928290359E+02  0.37990104099E+02 -0.12796316045E+03  0.14224586476E+03  0.47000000000E+01 0. -1.
          5    1    3    3  503    0  0.73840729281E+02  0.66671710308E+02 -0.13167390718E+03  0.16509899481E+03  0.47000000000E+01 0. -1.
         -5    1    3    3    0  503  0.28121046336E+02 -0.52189504957E+02 -0.44928285395E+02  0.74533069863E+02  0.47000000000E+01 0. -1.
<mgrwt>
<rscale>  0 0.16196998E+03</rscale>
<asrwt>0</asrwt>
<pdfrwt beam="1">  1        5 0.10326131E-01 0.16197281E+03</pdfrwt>
<pdfrwt beam="2">  1       -5 0.60354120E-01 0.16197281E+03</pdfrwt>
<totfact> 0.14705603E+02</totfact>
</mgrwt>
</event>
<event>
 8    1  0.3682083E-007  0.1795649E+03  0.7546771E-02  0.1168226E+00
          5   -1    0    0  501    0  0.00000000000E+00  0.00000000000E+00  0.13693806148E+03  0.13701869464E+03  0.47000000000E+01 0. -1.
         -5   -1    0    0    0  501 -0.00000000000E+00 -0.00000000000E+00 -0.24877759386E+03  0.24882198698E+03  0.47000000000E+01 0. -1.
         25    2    1    2    0    0  0.71352268899E+02  0.10736678059E+03 -0.10084484795E+03  0.20594470870E+03  0.12499907133E+03 0.  0.
         25    2    1    2    0    0 -0.71352268899E+02 -0.10736678059E+03 -0.10994684434E+02  0.17989597293E+03  0.12499162428E+03 0.  0.
          5    1    3    3  502    0  0.56548538596E+01 -0.69255168611E+01  0.22929060357E+02  0.25055377962E+02  0.47000000000E+01 0.  1.
         -5    1    3    3    0  502  0.65697415039E+02  0.11429229745E+03 -0.12377390830E+03  0.18088933074E+03  0.47000000000E+01 0.  1.
          5    1    4    4  503    0 -0.25107793131E+02  0.10469479275E+02  0.35490475974E+02  0.44963042124E+02  0.47000000000E+01 0.  1.
         -5    1    4    4    0  503 -0.46244475768E+02 -0.11783625986E+03 -0.46485160408E+02  0.13493293080E+03  0.47000000000E+01 0.  1.
<mgrwt>
<rscale>  0 0.17956357E+03</rscale>
<asrwt>0</asrwt>
<pdfrwt beam="1">  1        5 0.21077012E-01 0.17956486E+03</pdfrwt>
<pdfrwt beam="2">  1       -5 0.38283093E-01 0.17956486E+03</pdfrwt>
<totfact> 0.10872636E+02</totfact>
</mgrwt>
</event>
<event>
 8    1  0.3682083E-007  0.1282383E+03  0.7546771E-02  0.1230096E+00
         -5   -1    0    0    0  501 -0.00000000000E+00  0.00000000000E+00  0.27307481027E+02  0.27708997096E+02  0.47000000000E+01 0.  1.
          5   -1    0    0  501    0  0.00000000000E+00 -0.00000000000E+00 -0.61332868144E+03  0.61334668947E+03  0.47000000000E+01 0.  1.
         25    2    1    2    0    0 -0.16728545649E+02  0.23246178010E+02 -0.34466572893E+03  0.36774719282E+03  0.12499321620E+03 0.  0.
         25    2    1    2    0    0  0.16728545649E+02 -0.23246178010E+02 -0.24135547149E+03  0.27330849374E+03  0.12499936042E+03 0.  0.
          5    1    4    4  502    0  0.86751175458E+01 -0.61678143891E+02 -0.56352161945E+02  0.84125544599E+02  0.47000000000E+01 0. -1.
         -5    1    4    4    0  502  0.80534281037E+01  0.38431965881E+02 -0.18500330954E+03  0.18918294914E+03  0.47000000000E+01 0. -1.
          5    1    3    3  503    0 -0.10836678766E+01  0.11867186307E+02 -0.34741415509E+03  0.34765024034E+03  0.47000000000E+01 0. -1.
         -5    1    3    3    0  503 -0.15644877773E+02  0.11378991703E+02  0.27484261638E+01  0.20096952483E+02  0.47000000000E+01 0. -1.
<mgrwt>
<rscale>  0 0.12823683E+03</rscale>
<asrwt>0</asrwt>
<pdfrwt beam="2">  1        5 0.94390519E-01 0.12823833E+03</pdfrwt>
<pdfrwt beam="1">  1       -5 0.42334225E-02 0.12823833E+03</pdfrwt>
<totfact> 0.22155460E+02</totfact>
</mgrwt>
</event>
<event>
 8    1  0.3682083E-007  0.1273272E+03  0.7546771E-02  0.1231479E+00
         -5   -1    0    0    0  501 -0.00000000000E+00  0.00000000000E+00  0.80490402548E+02  0.80627507107E+02  0.47000000000E+01 0.  1.
          5   -1    0    0  501    0  0.00000000000E+00 -0.00000000000E+00 -0.20448234553E+03  0.20453635284E+03  0.47000000000E+01 0.  1.
         25    2    1    2    0    0  0.74736102856E+00  0.24195332888E+02 -0.43594921943E+02  0.13458356109E+03  0.12500497996E+03 0.  0.
         25    2    1    2    0    0 -0.74736102856E+00 -0.24195332888E+02 -0.80397021040E+02  0.15058029886E+03  0.12499909092E+03 0.  0.
          5    1    4    4  502    0 -0.22611448573E+02 -0.67369435020E+01  0.28933576670E+02  0.37628524729E+02  0.47000000000E+01 0.  1.
         -5    1    4    4    0  502  0.21864087545E+02 -0.17458389386E+02 -0.10933059771E+03  0.11295177413E+03  0.47000000000E+01 0.  1.
          5    1    3    3  503    0 -0.51589376500E+02  0.14379411290E+02 -0.58136770583E+02  0.79184628120E+02  0.47000000000E+01 0. -1.
         -5    1    3    3    0  503  0.52336737529E+02  0.98159215982E+01  0.14541848640E+02  0.55398932967E+02  0.47000000000E+01 0. -1.
<mgrwt>
<rscale>  0 0.12732576E+03</rscale>
<asrwt>0</asrwt>
<pdfrwt beam="2">  1        5 0.31473523E-01 0.12732721E+03</pdfrwt>
<pdfrwt beam="1">  1       -5 0.12397840E-01 0.12732721E+03</pdfrwt>
<totfact> 0.37983981E+02</totfact>
</mgrwt>
</event>
<event>
 8    1  0.3682083E-007  0.1473059E+03  0.7546771E-02  0.1203824E+00
         -5   -1    0    0    0  501 -0.00000000000E+00  0.00000000000E+00  0.82899471764E+02  0.83032598531E+02  0.47000000000E+01 0. -1.
          5   -1    0    0  501    0  0.00000000000E+00 -0.00000000000E+00 -0.41127607678E+03  0.41130293135E+03  0.47000000000E+01 0. -1.
         25    2    1    2    0    0  0.23062289956E+01  0.77900671221E+02 -0.15003285325E+02  0.14806800534E+03  0.12500080946E+03 0.  0.
         25    2    1    2    0    0 -0.23062289956E+01 -0.77900671221E+02 -0.31337331970E+03  0.34626752454E+03  0.12499811113E+03 0.  0.
          5    1    4    4  502    0  0.70923845986E+01  0.17567079724E+02 -0.18456170314E+03  0.18559099245E+03  0.47000000000E+01 0. -1.
         -5    1    4    4    0  502 -0.93986135942E+01 -0.95467750945E+02 -0.12881161655E+03  0.16067653210E+03  0.47000000000E+01 0. -1.
          5    1    3    3  503    0  0.37783279848E+02  0.75342876865E+02  0.30822459461E+02  0.89867899372E+02  0.47000000000E+01 0. -1.
         -5    1    3    3    0  503 -0.35477050852E+02  0.25577943562E+01 -0.45825744786E+02  0.58200105965E+02  0.47000000000E+01 0. -1.
<mgrwt>
<rscale>  0 0.14730535E+03</rscale>
<asrwt>0</asrwt>
<pdfrwt beam="2">  1        5 0.63285548E-01 0.14730593E+03</pdfrwt>
<pdfrwt beam="1">  1       -5 0.12766071E-01 0.14730593E+03</pdfrwt>
<totfact> 0.88331904E+01</totfact>
</mgrwt>
</event>
<event>
 8    1  0.3682083E-007  0.1509105E+03  0.7546771E-02  0.1199359E+00
          5   -1    0    0  501    0  0.00000000000E+00  0.00000000000E+00  0.97279284992E+02  0.97392757886E+02  0.47000000000E+01 0.  1.
         -5   -1    0    0    0  501 -0.00000000000E+00 -0.00000000000E+00 -0.35758069952E+03  0.35761158632E+03  0.47000000000E+01 0.  1.
         25    2    1    2    0    0 -0.27889269470E+02  0.79817112927E+02 -0.26395729312E+03  0.30405171059E+03  0.12500162900E+03 0.  0.
         25    2    1    2    0    0  0.27889269470E+02 -0.79817112927E+02  0.36558785876E+01  0.15095263362E+03  0.12499899712E+03 0.  0.
          5    1    3    3  502    0 -0.70147392701E+02  0.16097436786E+02 -0.10236249992E+03  0.12521962931E+03  0.47000000000E+01 0. -1.
         -5    1    3    3    0  502  0.42258123231E+02  0.63719676141E+02 -0.16159479320E+03  0.17883208128E+03  0.47000000000E+01 0. -1.
          5    1    4    4  503    0  0.77137475323E+02 -0.43610770351E+02  0.10098971443E+02  0.89309398240E+02  0.47000000000E+01 0. -1.
         -5    1    4    4    0  503 -0.49248205853E+02 -0.36206342577E+02 -0.64430928555E+01  0.61643235379E+02  0.47000000000E+01 0. -1.
<mgrwt>
<rscale>  0 0.15090999E+03</rscale>
<asrwt>0</asrwt>
<pdfrwt beam="1">  1        5 0.14977149E-01 0.15091054E+03</pdfrwt>
<pdfrwt beam="2">  1       -5 0.55023519E-01 0.15091054E+03</pdfrwt>
<totfact> 0.90657870E+01</totfact>
</mgrwt>
</event>
<event>
 8    1  0.3682083E-007  0.1536719E+03  0.7546771E-02  0.1196034E+00
          5   -1    0    0  501    0  0.00000000000E+00  0.00000000000E+00  0.63428949033E+03  0.63430690328E+03  0.47000000000E+01 0. -1.
         -5   -1    0    0    0  501 -0.00000000000E+00 -0.00000000000E+00 -0.41632471818E+02  0.41896929597E+02  0.47000000000E+01 0. -1.
         25    2    1    2    0    0 -0.70407978270E+02 -0.55062371159E+02  0.18470744381E+03  0.24027044776E+03  0.12499560051E+03 0.  0.
         25    2    1    2    0    0  0.70407978270E+02  0.55062371159E+02  0.40794957471E+03  0.43593338512E+03  0.12500365047E+03 0.  0.
          5    1    4    4  502    0  0.15956683032E+02 -0.31719787847E+02  0.20960005353E+03  0.21263826823E+03  0.47000000000E+01 0.  1.
         -5    1    4    4    0  502  0.54451295238E+02  0.86782159007E+02  0.19834952118E+03  0.22329511689E+03  0.47000000000E+01 0.  1.
          5    1    3    3  503    0 -0.68143612895E+02  0.25238071753E+02  0.96162868060E+02  0.12062296397E+03  0.47000000000E+01 0. -1.
         -5    1    3    3    0  503 -0.22643653753E+01 -0.80300442912E+02  0.88544575747E+02  0.11964748379E+03  0.47000000000E+01 0. -1.
<mgrwt>
<rscale>  0 0.15367029E+03</rscale>
<asrwt>0</asrwt>
<pdfrwt beam="1">  1        5 0.97604685E-01 0.15367193E+03</pdfrwt>
<pdfrwt beam="2">  1       -5 0.64266778E-02 0.15367193E+03</pdfrwt>
<totfact> 0.10816025E+02</totfact>
</mgrwt>
</event>
<event>
 8    1  0.3682083E-007  0.1574276E+03  0.7546771E-02  0.1191632E+00
         -5   -1    0    0    0  501 -0.00000000000E+00  0.00000000000E+00  0.34939952844E+03  0.34943113839E+03  0.47000000000E+01 0.  1.
          5   -1    0    0  501    0  0.00000000000E+00 -0.00000000000E+00 -0.70834464586E+02  0.70990220265E+02  0.47000000000E+01 0.  1.
         25    2    1    2    0    0 -0.73496281632E+02 -0.61291002544E+02  0.13608438464E+03  0.20809094857E+03  0.12499837090E+03 0.  0.
         25    2    1    2    0    0  0.73496281632E+02  0.61291002544E+02  0.14248067922E+03  0.21233041008E+03  0.12500067475E+03 0.  0.
          5    1    3    3  502    0 -0.60933411668E+02 -0.96940473166E+02  0.77969634026E+02  0.13860624021E+03  0.47000000000E+01 0.  1.
         -5    1    3    3    0  502 -0.12562869964E+02  0.35649470623E+02  0.58114750612E+02  0.69484708362E+02  0.47000000000E+01 0.  1.
          5    1    4    4  503    0  0.44013422867E+02 -0.30058069420E+02  0.84729853067E+02  0.10020931559E+03  0.47000000000E+01 0.  1.
         -5    1    4    4    0  503  0.29482858765E+02  0.91349071964E+02  0.57750826152E+02  0.11212109450E+03  0.47000000000E+01 0.  1.
<mgrwt>
<rscale>  0 0.15742717E+03</rscale>
<asrwt>0</asrwt>
<pdfrwt beam="2">  1        5 0.10912023E-01 0.15742763E+03</pdfrwt>
<pdfrwt beam="1">  1       -5 0.53768186E-01 0.15742763E+03</pdfrwt>
<totfact> 0.17004914E+02</totfact>
</mgrwt>
</event>
<event>
 8    1  0.3682083E-007  0.1383482E+03  0.7546771E-02  0.1215571E+00
         -5   -1    0    0    0  501 -0.00000000000E+00  0.00000000000E+00  0.40512318764E+03  0.40515045004E+03  0.47000000000E+01 0. -1.
          5   -1    0    0  501    0  0.00000000000E+00 -0.00000000000E+00 -0.54086836221E+02  0.54290660821E+02  0.47000000000E+01 0. -1.
         25    2    1    2    0    0  0.39169477417E+02 -0.44514031535E+02  0.25791576605E+03  0.29267861473E+03  0.12499792869E+03 0.  0.
         25    2    1    2    0    0 -0.39169477417E+02  0.44514031535E+02  0.93120585368E+02  0.16676249613E+03  0.12499015854E+03 0.  0.
          5    1    4    4  502    0 -0.18323231840E+02 -0.28125326011E+02  0.83897155909E+02  0.90485344437E+02  0.47000000000E+01 0. -1.
         -5    1    4    4    0  502 -0.20846245576E+02  0.72639357546E+02  0.92234294588E+01  0.76277151692E+02  0.47000000000E+01 0. -1.
          5    1    3    3  503    0  0.61963409271E+02  0.23384939857E+02  0.13131071552E+03  0.14714249390E+03  0.47000000000E+01 0. -1.
         -5    1    3    3    0  503 -0.22793931854E+02 -0.67898971391E+02  0.12660505054E+03  0.14553612083E+03  0.47000000000E+01 0. -1.
<mgrwt>
<rscale>  0 0.13834646E+03</rscale>
<asrwt>0</asrwt>
<pdfrwt beam="2">  1        5 0.83388273E-02 0.13834822E+03</pdfrwt>
<pdfrwt beam="1">  1       -5 0.62344423E-01 0.13834822E+03</pdfrwt>
<totfact> 0.18861817E+02</totfact>
</mgrwt>
</event>
<event>
 8    1  0.3682083E-007  0.1450646E+03  0.7546771E-02  0.1206678E+00
         -5   -1    0    0    0  501 -0.00000000000E+00  0.00000000000E+00  0.16176176120E+03  0.16183002622E+03  0.47000000000E+01 0. -1.
          5   -1    0    0  501    0  0.00000000000E+00 -0.00000000000E+00 -0.13975037110E+03  0.13982938254E+03  0.47000000000E+01 0. -1.
         25    2    1    2    0    0  0.16549503899E+02 -0.71690472415E+02  0.50954527950E+02  0.15373565470E+03  0.12499951077E+03 0.  0.
         25    2    1    2    0    0 -0.16549503899E+02  0.71690472415E+02 -0.28943137845E+02  0.14792375406E+03  0.12502128568E+03 0.  0.
          5    1    4    4  502    0  0.45152564979E+01 -0.14467308530E+02  0.35034886057E+02  0.38460678600E+02  0.47000000000E+01 0. -1.
         -5    1    4    4    0  502 -0.21064760397E+02  0.86157780945E+02 -0.63978023901E+02  0.10946307547E+03  0.47000000000E+01 0. -1.
          5    1    3    3  503    0  0.57061624860E+02 -0.79433526952E+02  0.54516495790E+02  0.11207074796E+03  0.47000000000E+01 0. -1.
         -5    1    3    3    0  503 -0.40512120961E+02  0.77430545371E+01 -0.35619678402E+01  0.41664906735E+02  0.47000000000E+01 0. -1.
<mgrwt>
<rscale>  0 0.14505989E+03</rscale>
<asrwt>0</asrwt>
<pdfrwt beam="2">  1        5 0.21511386E-01 0.14506458E+03</pdfrwt>
<pdfrwt beam="1">  1       -5 0.24897754E-01 0.14506458E+03</pdfrwt>
<totfact> 0.22910595E+02</totfact>
</mgrwt>
</event>
<event>
 8    1  0.3682083E-007  0.1263068E+03  0.7546771E-02  0.1233041E+00
          5   -1    0    0  501    0  0.00000000000E+00  0.00000000000E+00  0.53490221199E+03  0.53492286023E+03  0.47000000000E+01 0. -1.
         -5   -1    0    0    0  501 -0.00000000000E+00 -0.00000000000E+00 -0.30638928429E+02  0.30997321421E+02  0.47000000000E+01 0. -1.
         25    2    1    2    0    0 -0.16151250709E+02 -0.81839079529E+01  0.20080555525E+03  0.23722621834E+03  0.12500227357E+03 0.  0.
         25    2    1    2    0    0  0.16151250709E+02  0.81839079529E+01  0.30345772831E+03  0.32869396331E+03  0.12500115759E+03 0.  0.
          5    1    3    3  502    0  0.24761503385E+01 -0.41192042490E+02  0.19404583332E+03  0.19844090080E+03  0.47000000000E+01 0.  1.
         -5    1    3    3    0  502 -0.18627401047E+02  0.33008134537E+02  0.67597219393E+01  0.38785317533E+02  0.47000000000E+01 0.  1.
          5    1    4    4  503    0  0.60786934660E+02  0.30364804022E+02  0.22942870842E+03  0.23932550009E+03  0.47000000000E+01 0. -1.
         -5    1    4    4    0  503 -0.44635683951E+02 -0.22180896069E+02  0.74029019895E+02  0.89368463223E+02  0.47000000000E+01 0. -1.
<mgrwt>
<rscale>  0 0.12630652E+03</rscale>
<asrwt>0</asrwt>
<pdfrwt beam="1">  1        5 0.82321789E-01 0.12630680E+03</pdfrwt>
<pdfrwt beam="2">  1       -5 0.47428392E-02 0.12630680E+03</pdfrwt>
<totfact> 0.25226149E+02</totfact>
</mgrwt>
</event>
<event>
 8    1  0.3682083E-007  0.1297916E+03  0.7546771E-02  0.1227779E+00
         -5   -1    0    0    0  501 -0.00000000000E+00  0.00000000000E+00  0.88059365926E+02  0.88184703477E+02  0.47000000000E+01 0.  1.
          5   -1    0    0  501    0  0.00000000000E+00 -0.00000000000E+00 -0.19109114363E+03  0.19114893453E+03  0.47000000000E+01 0.  1.
         25    2    1    2    0    0 -0.31220815231E+02  0.15540717579E+02 -0.55198359437E+02  0.14100835708E+03  0.12498097726E+03 0.  0.
         25    2    1    2    0    0  0.31220815231E+02 -0.15540717579E+02 -0.47833418266E+02  0.13832528093E+03  0.12501837558E+03 0.  0.
          5    1    4    4  502    0  0.33635682748E+01  0.54167047499E+02 -0.17390469063E+02  0.57183048542E+02  0.47000000000E+01 0.  1.
         -5    1    4    4    0  502  0.27857246957E+02 -0.69707765078E+02 -0.30442949204E+02  0.81142232385E+02  0.47000000000E+01 0.  1.
          5    1    3    3  503    0 -0.20234953101E+02 -0.52187864421E+02 -0.60880083323E+01  0.56499383761E+02  0.47000000000E+01 0. -1.
         -5    1    3    3    0  503 -0.10985862130E+02  0.67728582001E+02 -0.49110351105E+02  0.84508973324E+02  0.47000000000E+01 0. -1.
<mgrwt>
<rscale>  0 0.12978255E+03</rscale>
<asrwt>0</asrwt>
<pdfrwt beam="2">  1        5 0.29412724E-01 0.12979155E+03</pdfrwt>
<pdfrwt beam="1">  1       -5 0.13561682E-01 0.12979155E+03</pdfrwt>
<totfact> 0.37234510E+02</totfact>
</mgrwt>
</event>
<event>
 8    1  0.3682083E-007  0.1330884E+03  0.7546771E-02  0.1222946E+00
          5   -1    0    0  501    0  0.00000000000E+00  0.00000000000E+00  0.34177824062E+03  0.34181055537E+03  0.47000000000E+01 0. -1.
         -5   -1    0    0    0  501 -0.00000000000E+00 -0.00000000000E+00 -0.62394552520E+02  0.62571320781E+02  0.47000000000E+01 0. -1.
         25    2    1    2    0    0 -0.37422690971E+02 -0.26202588889E+02  0.56063297781E+02  0.14441470433E+03  0.12500192001E+03 0.  0.
         25    2    1    2    0    0  0.37422690971E+02  0.26202588889E+02  0.22332039032E+03  0.25996717181E+03  0.12499560082E+03 0.  0.
          5    1    3    3  502    0 -0.42833624079E+02 -0.69836295429E+02  0.57454290096E+02  0.10017441271E+03  0.47000000000E+01 0. -1.
         -5    1    3    3    0  502  0.54109331085E+01  0.43633706541E+02 -0.13909923142E+01  0.44240291627E+02  0.47000000000E+01 0. -1.
          5    1    4    4  503    0 -0.31791396476E+02  0.10734310638E+02  0.16377739938E+03  0.16724546290E+03  0.47000000000E+01 0. -1.
         -5    1    4    4    0  503  0.69214087447E+02  0.15468278250E+02  0.59542990939E+02  0.92721708909E+02  0.47000000000E+01 0. -1.
<mgrwt>
<rscale>  0 0.13308688E+03</rscale>
<asrwt>0</asrwt>
<pdfrwt beam="1">  1        5 0.52597352E-01 0.13308837E+03</pdfrwt>
<pdfrwt beam="2">  1       -5 0.96152451E-02 0.13308837E+03</pdfrwt>
<totfact> 0.21046539E+02</totfact>
</mgrwt>
</event>
<event>
 8    1  0.3682083E-007  0.1528502E+03  0.7546771E-02  0.1197016E+00
          5   -1    0    0  501    0  0.00000000000E+00  0.00000000000E+00  0.21266068037E+03  0.21271261123E+03  0.47000000000E+01 0.  1.
         -5   -1    0    0    0  501 -0.00000000000E+00 -0.00000000000E+00 -0.11756636930E+03  0.11766027873E+03  0.47000000000E+01 0.  1.
         25    2    1    2    0    0  0.55493246988E+02  0.68254655020E+02  0.49528586070E+01  0.15292240023E+03  0.12499012478E+03 0.  0.
         25    2    1    2    0    0 -0.55493246988E+02 -0.68254655020E+02  0.90141452464E+02  0.17745048972E+03  0.12499998583E+03 0.  0.
          5    1    3    3  502    0 -0.22100169808E+02 -0.18865485181E+02  0.19429153708E+02  0.35269052305E+02  0.47000000000E+01 0. -1.
         -5    1    3    3    0  502  0.77593416797E+02  0.87120140201E+02 -0.14476295101E+02  0.11765334793E+03  0.47000000000E+01 0. -1.
          5    1    4    4  503    0 -0.32424398867E+02  0.32845329276E+02  0.13181617418E+02  0.48228646413E+02  0.47000000000E+01 0.  1.
         -5    1    4    4    0  503 -0.23068848121E+02 -0.10109998430E+03  0.76959835046E+02  0.12922184331E+03  0.47000000000E+01 0.  1.
<mgrwt>
<rscale>  0 0.15284822E+03</rscale>
<asrwt>0</asrwt>
<pdfrwt beam="1">  1        5 0.32728246E-01 0.15285024E+03</pdfrwt>
<pdfrwt beam="2">  1       -5 0.18098352E-01 0.15285024E+03</pdfrwt>
<totfact> 0.18866458E+02</totfact>
</mgrwt>
</event>
<event>
 8    1  0.3682083E-007  0.1461791E+03  0.7546771E-02  0.1205249E+00
         -5   -1    0    0    0  501 -0.00000000000E+00  0.00000000000E+00  0.28368887161E+03  0.28372780243E+03  0.47000000000E+01 0. -1.
          5   -1    0    0  501    0  0.00000000000E+00 -0.00000000000E+00 -0.11381934136E+03  0.11391633978E+03  0.47000000000E+01 0. -1.
         25    2    1    2    0    0  0.70047429267E+02  0.28944729898E+02  0.20066015603E+03  0.24825746371E+03  0.12499132105E+03 0.  0.
         25    2    1    2    0    0 -0.70047429267E+02 -0.28944729898E+02 -0.30790625780E+02  0.14938667850E+03  0.12499550929E+03 0.  0.
          5    1    3    3  502    0  0.89446621202E+02  0.57255094739E+02  0.11907902582E+03  0.15962690346E+03  0.47000000000E+01 0. -1.
         -5    1    3    3    0  502 -0.19399191935E+02 -0.28310364842E+02  0.81581130205E+02  0.88630560253E+02  0.47000000000E+01 0. -1.
          5    1    4    4  503    0 -0.21990121306E+02  0.43623642574E+02 -0.37789064605E+02  0.61941028650E+02  0.47000000000E+01 0. -1.
         -5    1    4    4    0  503 -0.48057307960E+02 -0.72568372472E+02  0.69984388248E+01  0.87445649849E+02  0.47000000000E+01 0. -1.
<mgrwt>
<rscale>  0 0.14617816E+03</rscale>
<asrwt>0</asrwt>
<pdfrwt beam="2">  1        5 0.17521124E-01 0.14617906E+03</pdfrwt>
<pdfrwt beam="1">  1       -5 0.43654898E-01 0.14617906E+03</pdfrwt>
<totfact> 0.10996273E+02</totfact>
</mgrwt>
</event>
<event>
 8    1  0.3682083E-007  0.1291248E+03  0.7546771E-02  0.1228765E+00
          5   -1    0    0  501    0  0.00000000000E+00  0.00000000000E+00  0.13980777005E+03  0.13988674907E+03  0.47000000000E+01 0. -1.
         -5   -1    0    0    0  501 -0.00000000000E+00 -0.00000000000E+00 -0.12440264459E+03  0.12449139722E+03  0.47000000000E+01 0. -1.
         25    2    1    2    0    0  0.28656797568E+02 -0.14962032111E+02 -0.19600369701E+02  0.13060391598E+03  0.12501253508E+03 0.  0.
         25    2    1    2    0    0 -0.28656797568E+02  0.14962032111E+02  0.35005495162E+02  0.13377423031E+03  0.12500034221E+03 0.  0.
          5    1    3    3  502    0 -0.46759791281E+02 -0.13130002419E+02  0.93158284172E+01  0.49676450188E+02  0.47000000000E+01 0. -1.
         -5    1    3    3    0  502  0.75416588849E+02 -0.18320296928E+01 -0.28916198119E+02  0.80927465796E+02  0.47000000000E+01 0. -1.
          5    1    4    4  503    0  0.31442976370E+02  0.46501271973E+02 -0.19223456376E+01  0.56363236874E+02  0.47000000000E+01 0.  1.
         -5    1    4    4    0  503 -0.60099773938E+02 -0.31539239861E+02  0.36927840800E+02  0.77410993435E+02  0.47000000000E+01 0.  1.
<mgrwt>
<rscale>  0 0.12912183E+03</rscale>
<asrwt>0</asrwt>
<pdfrwt beam="1">  1        5 0.21521790E-01 0.12912478E+03</pdfrwt>
<pdfrwt beam="2">  1       -5 0.19151771E-01 0.12912478E+03</pdfrwt>
<totfact> 0.36055866E+02</totfact>
</mgrwt>
</event>
<event>
 8    1  0.3682083E-007  0.1310783E+03  0.7546771E-02  0.1225871E+00
          5   -1    0    0  501    0  0.00000000000E+00  0.00000000000E+00  0.24103893893E+03  0.24108475704E+03  0.47000000000E+01 0.  1.
         -5   -1    0    0    0  501 -0.00000000000E+00 -0.00000000000E+00 -0.73137647605E+02  0.73288508630E+02  0.47000000000E+01 0.  1.
         25    2    1    2    0    0 -0.28436010412E+02 -0.27290995403E+02  0.10988200394E+03  0.17102840562E+03  0.12499302229E+03 0.  0.
         25    2    1    2    0    0  0.28436010412E+02  0.27290995403E+02  0.58019287380E+02  0.14334486005E+03  0.12501242369E+03 0.  0.
          5    1    4    4  502    0  0.37405553636E+02  0.48211119660E+02  0.86890740134E+02  0.10628065780E+03  0.47000000000E+01 0.  1.
         -5    1    4    4    0  502 -0.89695432238E+01 -0.20920124256E+02 -0.28871452754E+02  0.37064202253E+02  0.47000000000E+01 0.  1.
          5    1    3    3  503    0 -0.62693264827E+02  0.21773841442E+02  0.79768172680E+02  0.10387298493E+03  0.47000000000E+01 0.  1.
         -5    1    3    3    0  503  0.34257254415E+02 -0.49064836845E+02  0.30113831262E+02  0.67155420689E+02  0.47000000000E+01 0.  1.
<mgrwt>
<rscale>  0 0.13107364E+03</rscale>
<asrwt>0</asrwt>
<pdfrwt beam="1">  1        5 0.37098042E-01 0.13107826E+03</pdfrwt>
<pdfrwt beam="2">  1       -5 0.11267075E-01 0.13107826E+03</pdfrwt>
<totfact> 0.32746372E+02</totfact>
</mgrwt>
</event>
<event>
 8    1  0.3682083E-007  0.1325643E+03  0.7546771E-02  0.1223701E+00
         -5   -1    0    0    0  501 -0.00000000000E+00  0.00000000000E+00  0.49909264824E+03  0.49911477791E+03  0.47000000000E+01 0. -1.
          5   -1    0    0  501    0  0.00000000000E+00 -0.00000000000E+00 -0.38409912754E+02  0.38696400321E+02  0.47000000000E+01 0. -1.
         25    2    1    2    0    0  0.43259422187E+02  0.87739929759E+01  0.30977555621E+03  0.33694740032E+03  0.12499717915E+03 0.  0.
         25    2    1    2    0    0 -0.43259422187E+02 -0.87739929759E+01  0.15090717928E+03  0.20086377791E+03  0.12499967983E+03 0.  0.
          5    1    4    4  502    0 -0.64280025040E+02  0.41005480164E+02  0.10473106058E+03  0.12963045967E+03  0.47000000000E+01 0.  1.
         -5    1    4    4    0  502  0.21020602853E+02 -0.49779473140E+02  0.46176118695E+02  0.71233318245E+02  0.47000000000E+01 0.  1.
          5    1    3    3  503    0  0.84222063535E+02 -0.61178808620E+01  0.16119907070E+03  0.18203849826E+03  0.47000000000E+01 0. -1.
         -5    1    3    3    0  503 -0.40962641348E+02  0.14891873838E+02  0.14857648550E+03  0.15490890206E+03  0.47000000000E+01 0. -1.
<mgrwt>
<rscale>  0 0.13256366E+03</rscale>
<asrwt>0</asrwt>
<pdfrwt beam="2">  1        5 0.59329574E-02 0.13256425E+03</pdfrwt>
<pdfrwt beam="1">  1       -5 0.76807220E-01 0.13256425E+03</pdfrwt>
<totfact> 0.20743485E+02</totfact>
</mgrwt>
</event>
<event>
 8    1  0.3682083E-007  0.1536854E+03  0.7546771E-02  0.1196016E+00
         -5   -1    0    0    0  501 -0.00000000000E+00  0.00000000000E+00  0.17831375742E+03  0.17837568804E+03  0.47000000000E+01 0. -1.
          5   -1    0    0  501    0  0.00000000000E+00 -0.00000000000E+00 -0.15923236215E+03  0.15930171109E+03  0.47000000000E+01 0. -1.
         25    2    1    2    0    0 -0.63617803984E+02  0.62830759842E+02  0.78907350268E+02  0.17275872452E+03  0.12499711039E+03 0.  0.
         25    2    1    2    0    0  0.63617803984E+02 -0.62830759842E+02 -0.59825955007E+02  0.16491867461E+03  0.12499637986E+03 0.  0.
          5    1    4    4  502    0 -0.37697258294E+01 -0.62896161965E+02  0.14141243289E+02  0.64747222215E+02  0.47000000000E+01 0. -1.
         -5    1    4    4    0  502  0.67387529813E+02  0.65402123343E-01 -0.73967198296E+02  0.10017145240E+03  0.47000000000E+01 0. -1.
          5    1    3    3  503    0 -0.97343673267E+02  0.53127637470E+02  0.35065277680E+02  0.11640446850E+03  0.47000000000E+01 0.  1.
         -5    1    3    3    0  503  0.33725869283E+02  0.97031223721E+01  0.43842072588E+02  0.56354256020E+02  0.47000000000E+01 0.  1.
<mgrwt>
<rscale>  0 0.15368527E+03</rscale>
<asrwt>0</asrwt>
<pdfrwt beam="2">  1        5 0.24507385E-01 0.15368542E+03</pdfrwt>
<pdfrwt beam="1">  1       -5 0.27442984E-01 0.15368542E+03</pdfrwt>
<totfact> 0.15106194E+02</totfact>
</mgrwt>
</event>
<event>
 8    1  0.3682083E-007  0.2040131E+03  0.7546771E-02  0.1146397E+00
          5   -1    0    0  501    0  0.00000000000E+00  0.00000000000E+00  0.89865133583E+02  0.89987956049E+02  0.47000000000E+01 0.  1.
         -5   -1    0    0    0  501 -0.00000000000E+00 -0.00000000000E+00 -0.46880832704E+03  0.46883188618E+03  0.47000000000E+01 0.  1.
         25    2    1    2    0    0  0.63306373517E+02  0.14828594971E+03 -0.15756617910E+03  0.25777599059E+03  0.12499976287E+03 0.  0.
         25    2    1    2    0    0 -0.63306373517E+02 -0.14828594971E+03 -0.22137701436E+03  0.30104385165E+03  0.12499279306E+03 0.  0.
          5    1    3    3  502    0  0.49405534273E+02  0.14802647450E+03 -0.73718452419E+02  0.17265353803E+03  0.47000000000E+01 0. -1.
         -5    1    3    3    0  502  0.13900839244E+02  0.25947521590E+00 -0.83847726680E+02  0.85122452552E+02  0.47000000000E+01 0. -1.
          5    1    4    4  503    0  0.73626222223E+01 -0.61416495941E+01  0.13687572079E+02  0.17359945136E+02  0.47000000000E+01 0. -1.
         -5    1    4    4    0  503 -0.70668995739E+02 -0.14214430012E+03 -0.23506458644E+03  0.28368390651E+03  0.47000000000E+01 0. -1.
<mgrwt>
<rscale>  0 0.20401207E+03</rscale>
<asrwt>0</asrwt>
<pdfrwt beam="1">  1        5 0.13836666E-01 0.20401314E+03</pdfrwt>
<pdfrwt beam="2">  1       -5 0.72135616E-01 0.20401314E+03</pdfrwt>
<totfact> 0.62543996E+01</totfact>
</mgrwt>
</event>
<event>
 8    1  0.3682083E-007  0.1278268E+03  0.7546771E-02  0.1230738E+00
          5   -1    0    0  501    0  0.00000000000E+00  0.00000000000E+00  0.22044868810E+03  0.22049878477E+03  0.47000000000E+01 0. -1.
         -5   -1    0    0    0  501 -0.00000000000E+00 -0.00000000000E+00 -0.74252350342E+02  0.74400951145E+02  0.47000000000E+01 0. -1.
         25    2    1    2    0    0 -0.26237621546E+02  0.51310409691E+01  0.82420884387E+02  0.15204664560E+03  0.12494094561E+03 0.  0.
         25    2    1    2    0    0  0.26237621546E+02 -0.51310409691E+01  0.63775453373E+02  0.14285309032E+03  0.12499982638E+03 0.  0.
          5    1    4    4  502    0  0.58924284611E+02  0.13033535413E+02 -0.87101470616E+01  0.61154730186E+02  0.47000000000E+01 0.  1.
         -5    1    4    4    0  502 -0.32686663065E+02 -0.18164576383E+02  0.72485600434E+02  0.81698360129E+02  0.47000000000E+01 0.  1.
          5    1    3    3  503    0 -0.52423002930E+02 -0.10658551046E+02  0.10211396782E+03  0.11537386347E+03  0.47000000000E+01 0. -1.
         -5    1    3    3    0  503  0.26185381385E+02  0.15789592015E+02 -0.19693083436E+02  0.36672782134E+02  0.47000000000E+01 0. -1.
<mgrwt>
<rscale>  0 0.12781243E+03</rscale>
<asrwt>0</asrwt>
<pdfrwt beam="1">  1        5 0.33930468E-01 0.12782682E+03</pdfrwt>
<pdfrwt beam="2">  1       -5 0.11438723E-01 0.12782682E+03</pdfrwt>
<totfact> 0.37788384E+02</totfact>
</mgrwt>
</event>
<event>
 8    1  0.3682083E-007  0.1551895E+03  0.7546771E-02  0.1194239E+00
         -5   -1    0    0    0  501 -0.00000000000E+00  0.00000000000E+00  0.40020845247E+03  0.40023604963E+03  0.47000000000E+01 0.  1.
          5   -1    0    0  501    0  0.00000000000E+00 -0.00000000000E+00 -0.64912989003E+02  0.65082917430E+02  0.47000000000E+01 0.  1.
         25    2    1    2    0    0 -0.91575308524E+02 -0.84703145205E+01  0.23119988524E+03  0.27845088642E+03  0.12499490331E+03 0.  0.
         25    2    1    2    0    0  0.91575308524E+02  0.84703145205E+01  0.10409557823E+03  0.18686808065E+03  0.12500402713E+03 0.  0.
          5    1    4    4  502    0  0.84362423409E+02 -0.42182738421E+02  0.96339347834E+02  0.13490649297E+03  0.47000000000E+01 0. -1.
         -5    1    4    4    0  502  0.72128851152E+01  0.50653052942E+02  0.77562303932E+01  0.51961587677E+02  0.47000000000E+01 0. -1.
          5    1    3    3  503    0 -0.35779554609E+02 -0.58158319166E+02  0.57813608337E+02  0.89593916787E+02  0.47000000000E+01 0.  1.
         -5    1    3    3    0  503 -0.55795753916E+02  0.49688004646E+02  0.17338627690E+03  0.18885696963E+03  0.47000000000E+01 0.  1.
<mgrwt>
<rscale>  0 0.15518769E+03</rscale>
<asrwt>0</asrwt>
<pdfrwt beam="2">  1        5 0.10001808E-01 0.15518953E+03</pdfrwt>
<pdfrwt beam="1">  1       -5 0.61585726E-01 0.15518953E+03</pdfrwt>
<totfact> 0.14675992E+02</totfact>
</mgrwt>
</event>
<event>
 8    1  0.3682083E-007  0.1561682E+03  0.7546771E-02  0.1193093E+00
         -5   -1    0    0    0  501 -0.00000000000E+00  0.00000000000E+00  0.29506400123E+03  0.29510143141E+03  0.47000000000E+01 0. -1.
          5   -1    0    0  501    0  0.00000000000E+00 -0.00000000000E+00 -0.82700714977E+02  0.82834161176E+02  0.47000000000E+01 0. -1.
         25    2    1    2    0    0 -0.91091854017E+02  0.21595450166E+02  0.11442776567E+03  0.19360324596E+03  0.12499765580E+03 0.  0.
         25    2    1    2    0    0  0.91091854017E+02 -0.21595450166E+02  0.97935520579E+02  0.18433234662E+03  0.12499183367E+03 0.  0.
          5    1    4    4  502    0 -0.16647226526E+02  0.26725279369E+02  0.16113179715E+01  0.31875649859E+02  0.47000000000E+01 0. -1.
         -5    1    4    4    0  502  0.10773908054E+03 -0.48320729534E+02  0.96324202608E+02  0.15245669676E+03  0.47000000000E+01 0. -1.
          5    1    3    3  503    0 -0.13015530707E+02 -0.47286479146E+02  0.54121542591E+02  0.73189114778E+02  0.47000000000E+01 0. -1.
         -5    1    3    3    0  503 -0.78076323310E+02  0.68881929312E+02  0.60306223078E+02  0.12041413119E+03  0.47000000000E+01 0. -1.
<mgrwt>
<rscale>  0 0.15616702E+03</rscale>
<asrwt>0</asrwt>
<pdfrwt beam="2">  1        5 0.12736331E-01 0.15616819E+03</pdfrwt>
<pdfrwt beam="1">  1       -5 0.45407606E-01 0.15616819E+03</pdfrwt>
<totfact> 0.18450964E+02</totfact>
</mgrwt>
</event>
<event>
 8    1  0.3682083E-007  0.1513606E+03  0.7546771E-02  0.1198812E+00
         -5   -1    0    0    0  501 -0.00000000000E+00  0.00000000000E+00  0.12109034038E+04  0.12109125251E+04  0.47000000000E+01 0.  1.
          5   -1    0    0  501    0  0.00000000000E+00 -0.00000000000E+00 -0.21119736937E+02  0.21636388060E+02  0.47000000000E+01 0.  1.
         25    2    1    2    0    0  0.84111433816E+02 -0.14459079973E+02  0.80422577391E+03  0.81834495689E+03  0.12500229899E+03 0.  0.
         25    2    1    2    0    0 -0.84111433816E+02  0.14459079973E+02  0.38555789298E+03  0.41420395626E+03  0.12500492088E+03 0.  0.
          5    1    3    3  502    0  0.20217494764E+02 -0.65378479764E+02  0.41218880863E+03  0.41785738796E+03  0.47000000000E+01 0.  1.
         -5    1    3    3    0  502  0.63893939053E+02  0.50919399791E+02  0.39203696528E+03  0.40048756893E+03  0.47000000000E+01 0.  1.
          5    1    4    4  503    0 -0.35064983301E+02 -0.40567819815E+02  0.61026683538E+02  0.81373504054E+02  0.47000000000E+01 0. -1.
         -5    1    4    4    0  503 -0.49046450516E+02  0.55026899789E+02  0.32453120945E+03  0.33283045220E+03  0.47000000000E+01 0. -1.
<mgrwt>
<rscale>  0 0.15136005E+03</rscale>
<asrwt>0</asrwt>
<pdfrwt beam="2">  1        5 0.32896340E-02 0.15136059E+03</pdfrwt>
<pdfrwt beam="1">  1       -5 0.18633329E+00 0.15136059E+03</pdfrwt>
<totfact> 0.58254687E+01</totfact>
</mgrwt>
</event>
<event>
 8    1  0.3682083E-007  0.1338505E+03  0.7546771E-02  0.1221853E+00
         -5   -1    0    0    0  501 -0.00000000000E+00  0.00000000000E+00  0.28088037121E+03  0.28091969125E+03  0.47000000000E+01 0. -1.
          5   -1    0    0  501    0  0.00000000000E+00 -0.00000000000E+00 -0.72396054787E+02  0.72548457935E+02  0.47000000000E+01 0. -1.
         25    2    1    2    0    0 -0.45924248864E+01  0.47634431736E+02  0.16557258793E+03  0.21290727230E+03  0.12500038108E+03 0.  0.
         25    2    1    2    0    0  0.45924248864E+01 -0.47634431736E+02  0.42911728492E+02  0.14056087688E+03  0.12500325682E+03 0.  0.
          5    1    4    4  502    0 -0.24741992373E+02  0.26220471056E+01  0.71286527770E+02  0.75649853662E+02  0.47000000000E+01 0.  1.
         -5    1    4    4    0  502  0.29334417259E+02 -0.50256478842E+02 -0.28374799277E+02  0.64911023220E+02  0.47000000000E+01 0.  1.
          5    1    3    3  503    0  0.25351301078E+02 -0.43871400843E+01 -0.94575368740E+01  0.27811337045E+02  0.47000000000E+01 0.  1.
         -5    1    3    3    0  503 -0.29943725965E+02  0.52021571820E+02  0.17503012480E+03  0.18509593525E+03  0.47000000000E+01 0.  1.
<mgrwt>
<rscale>  0 0.13384978E+03</rscale>
<asrwt>0</asrwt>
<pdfrwt beam="2">  1        5 0.11152603E-01 0.13385045E+03</pdfrwt>
<pdfrwt beam="1">  1       -5 0.43227113E-01 0.13385045E+03</pdfrwt>
<totfact> 0.24572246E+02</totfact>
</mgrwt>
</event>
<event>
 8    1  0.3682083E-007  0.1319293E+03  0.7546771E-02  0.1224623E+00
          5   -1    0    0  501    0  0.00000000000E+00  0.00000000000E+00  0.95778604440E+02  0.95893853132E+02  0.47000000000E+01 0. -1.
         -5   -1    0    0    0  501 -0.00000000000E+00 -0.00000000000E+00 -0.20049637837E+03  0.20055145908E+03  0.47000000000E+01 0. -1.
         25    2    1    2    0    0  0.31994501270E+02  0.27515176475E+02 -0.98011580131E+02  0.16435212055E+03  0.12499846655E+03 0.  0.
         25    2    1    2    0    0 -0.31994501270E+02 -0.27515176475E+02 -0.67061938012E+01  0.13209319167E+03  0.12499162053E+03 0.  0.
          5    1    4    4  502    0  0.25620217061E+02 -0.58476104059E+02 -0.15677727339E+02  0.65906990545E+02  0.47000000000E+01 0.  1.
         -5    1    4    4    0  502 -0.57614718331E+02  0.30960927583E+02  0.89715335380E+01  0.66186201124E+02  0.47000000000E+01 0.  1.
          5    1    3    3  503    0  0.50094578316E+02 -0.36068723732E+02 -0.66859465280E+02  0.91119140173E+02  0.47000000000E+01 0. -1.
         -5    1    3    3    0  503 -0.18100077046E+02  0.63583900208E+02 -0.31152114851E+02  0.73232980373E+02  0.47000000000E+01 0. -1.
<mgrwt>
<rscale>  0 0.13192771E+03</rscale>
<asrwt>0</asrwt>
<pdfrwt beam="1">  1        5 0.14748272E-01 0.13192934E+03</pdfrwt>
<pdfrwt beam="2">  1       -5 0.30858699E-01 0.13192934E+03</pdfrwt>
<totfact> 0.29318595E+02</totfact>
</mgrwt>
</event>
<event>
 8    1  0.3682083E-007  0.1627463E+03  0.7546771E-02  0.1185633E+00
         -5   -1    0    0    0  501 -0.00000000000E+00  0.00000000000E+00  0.11025277504E+03  0.11035290846E+03  0.47000000000E+01 0.  1.
          5   -1    0    0  501    0  0.00000000000E+00 -0.00000000000E+00 -0.24051938407E+03  0.24056530114E+03  0.47000000000E+01 0.  1.
         25    2    1    2    0    0 -0.13529972647E+02 -0.10332089079E+03 -0.56888452313E+02  0.17239446472E+03  0.12500115530E+03 0.  0.
         25    2    1    2    0    0  0.13529972647E+02  0.10332089079E+03 -0.73378156716E+02  0.17852374488E+03  0.12501242727E+03 0.  0.
          5    1    3    3  502    0 -0.40374520317E+01 -0.11784311479E+03 -0.57018604246E+01  0.11814356494E+03  0.47000000000E+01 0.  1.
         -5    1    3    3    0  502 -0.94925206158E+01  0.14522224008E+02 -0.51186591888E+02  0.54250899780E+02  0.47000000000E+01 0.  1.
          5    1    4    4  503    0  0.13289944100E+02  0.94891040046E+02 -0.10690330412E+03  0.14363613239E+03  0.47000000000E+01 0.  1.
         -5    1    4    4    0  503  0.24002854784E+00  0.84298507406E+01  0.33525147405E+02  0.34887612497E+02  0.47000000000E+01 0.  1.
<mgrwt>
<rscale>  0 0.16274418E+03</rscale>
<asrwt>0</asrwt>
<pdfrwt beam="2">  1        5 0.37014217E-01 0.16274635E+03</pdfrwt>
<pdfrwt beam="1">  1       -5 0.16973200E-01 0.16274635E+03</pdfrwt>
<totfact> 0.16922579E+02</totfact>
</mgrwt>
</event>
<event>
 8    1  0.3682083E-007  0.1351177E+03  0.7546771E-02  0.1220055E+00
          5   -1    0    0  501    0  0.00000000000E+00  0.00000000000E+00  0.57391730192E+02  0.57583857933E+02  0.47000000000E+01 0.  1.
         -5   -1    0    0    0  501 -0.00000000000E+00 -0.00000000000E+00 -0.40286766514E+03  0.40289508016E+03  0.47000000000E+01 0.  1.
         25    2    1    2    0    0  0.51268909681E+02  0.16482697721E+01 -0.27877959685E+03  0.30979654565E+03  0.12499847273E+03 0.  0.
         25    2    1    2    0    0 -0.51268909681E+02 -0.16482697721E+01 -0.66696338100E+02  0.15068239244E+03  0.12500225591E+03 0.  0.
          5    1    3    3  502    0  0.71939343999E+02  0.29063002469E+02 -0.25785205014E+03  0.26931338082E+03  0.47000000000E+01 0.  1.
         -5    1    3    3    0  502 -0.20670434317E+02 -0.27414732697E+02 -0.20927546713E+02  0.40483164837E+02  0.47000000000E+01 0.  1.
          5    1    4    4  503    0  0.89993774703E+01  0.54638430380E+01  0.32397194365E+02  0.34387651538E+02  0.47000000000E+01 0.  1.
         -5    1    4    4    0  503 -0.60268287152E+02 -0.71121128101E+01 -0.99093532465E+02  0.11629474090E+03  0.47000000000E+01 0.  1.
<mgrwt>
<rscale>  0 0.13511678E+03</rscale>
<asrwt>0</asrwt>
<pdfrwt beam="1">  1        5 0.88463851E-02 0.13511766E+03</pdfrwt>
<pdfrwt beam="2">  1       -5 0.61996527E-01 0.13511766E+03</pdfrwt>
<totfact> 0.17112130E+02</totfact>
</mgrwt>
</event>
<event>
 8    1  0.3682083E-007  0.1446692E+03  0.7546771E-02  0.1207183E+00
          5   -1    0    0  501    0  0.00000000000E+00  0.00000000000E+00  0.48136115738E+03  0.48138410218E+03  0.47000000000E+01 0.  1.
         -5   -1    0    0    0  501 -0.00000000000E+00 -0.00000000000E+00 -0.45859954773E+02  0.46100167589E+02  0.47000000000E+01 0.  1.
         25    2    1    2    0    0 -0.58097599070E+02 -0.43917231420E+02  0.15593157043E+03  0.21270124423E+03  0.12499244140E+03 0.  0.
         25    2    1    2    0    0  0.58097599070E+02  0.43917231420E+02  0.27956963218E+03  0.31478302554E+03  0.12500047879E+03 0.  0.
          5    1    3    3  502    0 -0.94926997235E+02 -0.15763599035E+02  0.11983419649E+03  0.15375939161E+03  0.47000000000E+01 0. -1.
         -5    1    3    3    0  502  0.36829398165E+02 -0.28153632386E+02  0.36097373935E+02  0.58941852623E+02  0.47000000000E+01 0. -1.
          5    1    4    4  503    0  0.77793284470E+02  0.71883056886E+02  0.23931722871E+03  0.26175139911E+03  0.47000000000E+01 0. -1.
         -5    1    4    4    0  503 -0.19695685400E+02 -0.27965825465E+02  0.40252403466E+02  0.53031626433E+02  0.47000000000E+01 0. -1.
<mgrwt>
<rscale>  0 0.14466745E+03</rscale>
<asrwt>0</asrwt>
<pdfrwt beam="1">  1        5 0.74075806E-01 0.14466919E+03</pdfrwt>
<pdfrwt beam="2">  1       -5 0.70756205E-02 0.14466919E+03</pdfrwt>
<totfact> 0.17224902E+02</totfact>
</mgrwt>
</event>
<event>
 8    1  0.3682083E-007  0.1250283E+03  0.7546771E-02  0.1235028E+00
          5   -1    0    0  501    0  0.00000000000E+00  0.00000000000E+00  0.72656816757E+02  0.72808674080E+02  0.47000000000E+01 0.  1.
         -5   -1    0    0    0  501 -0.00000000000E+00 -0.00000000000E+00 -0.21479134684E+03  0.21484276268E+03  0.47000000000E+01 0.  1.
         25    2    1    2    0    0 -0.13700855037E+01  0.14418507031E+01 -0.73405012575E+02  0.14498401015E+03  0.12501244442E+03 0.  0.
         25    2    1    2    0    0  0.13700855037E+01 -0.14418507031E+01 -0.68729517506E+02  0.14266742661E+03  0.12500516778E+03 0.  0.
          5    1    3    3  502    0  0.30213237122E+02 -0.53369399999E+02 -0.38831426798E+02  0.72739963299E+02  0.47000000000E+01 0. -1.
         -5    1    3    3    0  502 -0.31583322625E+02  0.54811250702E+02 -0.34573585777E+02  0.72244046848E+02  0.47000000000E+01 0. -1.
          5    1    4    4  503    0 -0.48187161300E+02 -0.39215816420E+02 -0.38605834989E+02  0.73296543348E+02  0.47000000000E+01 0.  1.
         -5    1    4    4    0  503  0.49557246803E+02  0.37773965717E+02 -0.30123682517E+02  0.69370883266E+02  0.47000000000E+01 0.  1.
<mgrwt>
<rscale>  0 0.12502645E+03</rscale>
<asrwt>0</asrwt>
<pdfrwt beam="1">  1        5 0.11193608E-01 0.12502827E+03</pdfrwt>
<pdfrwt beam="2">  1       -5 0.33060459E-01 0.12502827E+03</pdfrwt>
<totfact> 0.41000796E+02</totfact>
</mgrwt>
</event>
<event>
 8    1  0.3682083E-007  0.1795905E+03  0.7546771E-02  0.1168202E+00
         -5   -1    0    0    0  501 -0.00000000000E+00  0.00000000000E+00  0.13897032082E+02  0.14670293136E+02  0.47000000000E+01 0.  1.
          5   -1    0    0  501    0  0.00000000000E+00 -0.00000000000E+00 -0.22701926402E+04  0.22701975055E+04  0.47000000000E+01 0.  1.
         25    2    1    2    0    0  0.10819922002E+03  0.70119990020E+02 -0.10415141013E+04  0.10568829203E+04  0.12500399929E+03 0.  0.
         25    2    1    2    0    0 -0.10819922002E+03 -0.70119990020E+02 -0.12147815068E+04  0.12279848783E+04  0.12501546971E+03 0.  0.
          5    1    3    3  502    0  0.10719789435E+03  0.71276393538E+02 -0.10435984957E+04  0.10515187222E+04  0.47000000000E+01 0.  1.
         -5    1    3    3    0  502  0.10013256679E+01 -0.11564035174E+01  0.20843943761E+01  0.53641981790E+01  0.47000000000E+01 0.  1.
          5    1    4    4  503    0 -0.97718987963E+00 -0.50241052060E+02 -0.69693960666E+03  0.69876464103E+03  0.47000000000E+01 0. -1.
         -5    1    4    4    0  503 -0.10722203014E+03 -0.19878937960E+02 -0.51784190018E+03  0.52922023724E+03  0.47000000000E+01 0. -1.
<mgrwt>
<rscale>  0 0.17958852E+03</rscale>
<asrwt>0</asrwt>
<pdfrwt beam="2">  1        5 0.34931998E+00 0.17959051E+03</pdfrwt>
<pdfrwt beam="1">  1       -5 0.21978626E-02 0.17959051E+03</pdfrwt>
<totfact> 0.10156411E+01</totfact>
</mgrwt>
</event>
<event>
 8    1  0.3682083E-007  0.1325119E+03  0.7546771E-02  0.1223779E+00
          5   -1    0    0  501    0  0.00000000000E+00  0.00000000000E+00  0.23855265007E+02  0.24313857542E+02  0.47000000000E+01 0.  1.
         -5   -1    0    0    0  501 -0.00000000000E+00 -0.00000000000E+00 -0.11983936912E+04  0.11984029077E+04  0.47000000000E+01 0.  1.
         25    2    1    2    0    0  0.26487767244E+02 -0.35113876907E+02 -0.97000820494E+03  0.97901752860E+03  0.12499926990E+03 0.  0.
         25    2    1    2    0    0 -0.26487767244E+02  0.35113876907E+02 -0.20453022127E+03  0.24369923663E+03  0.12498848090E+03 0.  0.
          5    1    4    4  502    0  0.25074712893E+02 -0.22886698380E+02 -0.12422319787E+02  0.36454714624E+02  0.47000000000E+01 0.  1.
         -5    1    4    4    0  502 -0.51562480137E+02  0.58000575287E+02 -0.19210790148E+03  0.20724452201E+03  0.47000000000E+01 0.  1.
          5    1    3    3  503    0  0.62784505995E+02 -0.36299663462E+02 -0.32750211528E+03  0.33546875455E+03  0.47000000000E+01 0. -1.
         -5    1    3    3    0  503 -0.36296738750E+02  0.11857865548E+01 -0.64250608966E+03  0.64354877405E+03  0.47000000000E+01 0. -1.
<mgrwt>
<rscale>  0 0.13250936E+03</rscale>
<asrwt>0</asrwt>
<pdfrwt beam="1">  1        5 0.37060270E-02 0.13251190E+03</pdfrwt>
<pdfrwt beam="2">  1       -5 0.18440420E+00 0.13251190E+03</pdfrwt>
<totfact> 0.47651001E+01</totfact>
</mgrwt>
</event>
<event>
 8    1  0.3682083E-007  0.2445919E+03  0.7546771E-02  0.1116772E+00
          5   -1    0    0  501    0  0.00000000000E+00  0.00000000000E+00  0.50092572654E+03  0.50094777523E+03  0.47000000000E+01 0. -1.
         -5   -1    0    0    0  501 -0.00000000000E+00 -0.00000000000E+00 -0.14106717333E+03  0.14114544765E+03  0.47000000000E+01 0. -1.
         25    2    1    2    0    0  0.21013930590E+03  0.64048849220E+01  0.54025878920E+02  0.25048755842E+03  0.12500268355E+03 0.  0.
         25    2    1    2    0    0 -0.21013930590E+03 -0.64048849220E+01  0.30583267428E+03  0.39160566446E+03  0.12498728473E+03 0.  0.
          5    1    4    4  502    0 -0.28777631913E+02  0.14974493738E+01 -0.68737183402E+01  0.29995540618E+02  0.47000000000E+01 0. -1.
         -5    1    4    4    0  502 -0.18136167399E+03 -0.79023342958E+01  0.31270639262E+03  0.36161012384E+03  0.47000000000E+01 0. -1.
          5    1    3    3  503    0  0.18480472608E+03  0.43502527593E+02  0.70254986878E+02  0.20249224644E+03  0.47000000000E+01 0. -1.
         -5    1    3    3    0  503  0.25334579819E+02 -0.37097642671E+02 -0.16229107957E+02  0.47995311973E+02  0.47000000000E+01 0. -1.
<mgrwt>
<rscale>  0 0.24458998E+03</rscale>
<asrwt>0</asrwt>
<pdfrwt beam="1">  1        5 0.77073214E-01 0.24459195E+03</pdfrwt>
<pdfrwt beam="2">  1       -5 0.21710359E-01 0.24459195E+03</pdfrwt>
<totfact> 0.24353674E+01</totfact>
</mgrwt>
</event>
<event>
 8    1  0.3682083E-007  0.1733415E+03  0.7546771E-02  0.1174411E+00
         -5   -1    0    0    0  501 -0.00000000000E+00  0.00000000000E+00  0.19485611831E+04  0.19485668514E+04  0.47000000000E+01 0.  1.
          5   -1    0    0  501    0  0.00000000000E+00 -0.00000000000E+00 -0.15364726350E+02  0.16067508078E+02  0.47000000000E+01 0.  1.
         25    2    1    2    0    0  0.12005004317E+03 -0.25074488189E+01  0.11029419703E+04  0.11164803062E+04  0.12501593594E+03 0.  0.
         25    2    1    2    0    0 -0.12005004317E+03  0.25074488189E+01  0.83025448650E+03  0.84815405325E+03  0.12499794209E+03 0.  0.
          5    1    4    4  502    0 -0.34083153443E+02 -0.49150000732E+02  0.16928057951E+03  0.17959785221E+03  0.47000000000E+01 0. -1.
         -5    1    4    4    0  502 -0.85966889726E+02  0.51657449551E+02  0.66097390699E+03  0.66855620104E+03  0.47000000000E+01 0. -1.
          5    1    3    3  503    0  0.13754477083E+03  0.88902126803E+01  0.72925474266E+03  0.74218068525E+03  0.47000000000E+01 0. -1.
         -5    1    3    3    0  503 -0.17494727661E+02 -0.11397661499E+02  0.37368722763E+03  0.37429962100E+03  0.47000000000E+01 0. -1.
<mgrwt>
<rscale>  0 0.17333828E+03</rscale>
<asrwt>0</asrwt>
<pdfrwt beam="2">  1        5 0.24183013E-02 0.17334153E+03</pdfrwt>
<pdfrwt beam="1">  1       -5 0.29983300E+00 0.17334153E+03</pdfrwt>
<totfact> 0.18133216E+01</totfact>
</mgrwt>
</event>
<event>
 8    1  0.3682083E-007  0.1364240E+03  0.7546771E-02  0.1218227E+00
          5   -1    0    0  501    0  0.00000000000E+00  0.00000000000E+00  0.52089074645E+03  0.52091195008E+03  0.47000000000E+01 0. -1.
         -5   -1    0    0    0  501 -0.00000000000E+00 -0.00000000000E+00 -0.45722036036E+02  0.45962969652E+02  0.47000000000E+01 0. -1.
         25    2    1    2    0    0  0.54432522108E+02 -0.46262860722E+01  0.10432465372E+03  0.17173340626E+03  0.12499770984E+03 0.  0.
         25    2    1    2    0    0 -0.54432522108E+02  0.46262860722E+01  0.37084405670E+03  0.39514151348E+03  0.12500879689E+03 0.  0.
          5    1    4    4  502    0 -0.72627965502E+02  0.44852351285E+02  0.29620273256E+03  0.30829321037E+03  0.47000000000E+01 0.  1.
         -5    1    4    4    0  502  0.18195443394E+02 -0.40226065213E+02  0.74641324141E+02  0.86848303106E+02  0.47000000000E+01 0.  1.
          5    1    3    3  503    0 -0.27668399134E+02  0.35162260510E+02  0.31863809658E+02  0.55130003090E+02  0.47000000000E+01 0.  1.
         -5    1    3    3    0  503  0.82100921241E+02 -0.39788546583E+02  0.72460844062E+02  0.11660340317E+03  0.47000000000E+01 0.  1.
<mgrwt>
<rscale>  0 0.13642144E+03</rscale>
<asrwt>0</asrwt>
<pdfrwt beam="1">  1        5 0.80157200E-01 0.13642398E+03</pdfrwt>
<pdfrwt beam="2">  1       -5 0.70543240E-02 0.13642398E+03</pdfrwt>
<totfact> 0.14169687E+02</totfact>
</mgrwt>
</event>
<event>
 8    1  0.3682083E-007  0.1391967E+03  0.7546771E-02  0.1214415E+00
         -5   -1    0    0    0  501 -0.00000000000E+00  0.00000000000E+00  0.34250140080E+03  0.34253364733E+03  0.47000000000E+01 0. -1.
          5   -1    0    0  501    0  0.00000000000E+00 -0.00000000000E+00 -0.56522505021E+02  0.56717577292E+02  0.47000000000E+01 0. -1.
         25    2    1    2    0    0  0.42495381466E+02 -0.44096277429E+02  0.13528625290E+03  0.19410841935E+03  0.12500147644E+03 0.  0.
         25    2    1    2    0    0 -0.42495381466E+02  0.44096277429E+02  0.15069264288E+03  0.20514280526E+03  0.12499983521E+03 0.  0.
          5    1    4    4  502    0 -0.51805325260E+02  0.35737897793E+02  0.10098061755E+02  0.63914395211E+02  0.47000000000E+01 0.  1.
         -5    1    4    4    0  502  0.93099437944E+01  0.83583796357E+01  0.14059458113E+03  0.14122841005E+03  0.47000000000E+01 0.  1.
          5    1    3    3  503    0 -0.72817300730E+01  0.24870345222E+02  0.97367048511E+02  0.10086619751E+03  0.47000000000E+01 0.  1.
         -5    1    3    3    0  503  0.49777111539E+02 -0.68966622651E+02  0.37919204384E+02  0.93242221843E+02  0.47000000000E+01 0.  1.
<mgrwt>
<rscale>  0 0.13919628E+03</rscale>
<asrwt>0</asrwt>
<pdfrwt beam="2">  1        5 0.87132560E-02 0.13919665E+03</pdfrwt>
<pdfrwt beam="1">  1       -5 0.52710010E-01 0.13919665E+03</pdfrwt>
<totfact> 0.25227704E+02</totfact>
</mgrwt>
</event>
<event>
 8    1  0.3682083E-007  0.1449156E+03  0.7546771E-02  0.1206865E+00
         -5   -1    0    0    0  501 -0.00000000000E+00  0.00000000000E+00  0.97633426630E+02  0.97746488405E+02  0.47000000000E+01 0.  1.
          5   -1    0    0  501    0  0.00000000000E+00 -0.00000000000E+00 -0.22543384480E+03  0.22548283389E+03  0.47000000000E+01 0.  1.
         25    2    1    2    0    0 -0.73260127386E+02  0.29137934584E+01 -0.28855844171E+02  0.14775692346E+03  0.12499564885E+03 0.  0.
         25    2    1    2    0    0  0.73260127386E+02 -0.29137934584E+01 -0.98944573999E+02  0.17547239884E+03  0.12499999029E+03 0.  0.
          5    1    4    4  502    0  0.77050309351E+02 -0.97750628413E+01 -0.12534637254E+03  0.14753340345E+03  0.47000000000E+01 0.  1.
         -5    1    4    4    0  502 -0.37901819644E+01  0.68612693829E+01  0.26401798542E+02  0.27938995385E+02  0.47000000000E+01 0.  1.
          5    1    3    3  503    0 -0.79088763338E+02 -0.23898013030E+02  0.25578925958E+02  0.86617082416E+02  0.47000000000E+01 0.  1.
         -5    1    3    3    0  503  0.58286359513E+01  0.26811806489E+02 -0.54434770130E+02  0.61139841048E+02  0.47000000000E+01 0.  1.
<mgrwt>
<rscale>  0 0.14491467E+03</rscale>
<asrwt>0</asrwt>
<pdfrwt beam="2">  1        5 0.34694595E-01 0.14491561E+03</pdfrwt>
<pdfrwt beam="1">  1       -5 0.15032993E-01 0.14491561E+03</pdfrwt>
<totfact> 0.23170879E+02</totfact>
</mgrwt>
</event>
<event>
 8    1  0.3682083E-007  0.1294157E+03  0.7546771E-02  0.1228326E+00
         -5   -1    0    0    0  501 -0.00000000000E+00  0.00000000000E+00  0.14252369292E+03  0.14260116775E+03  0.47000000000E+01 0. -1.
          5   -1    0    0  501    0  0.00000000000E+00 -0.00000000000E+00 -0.11827826532E+03  0.11837160997E+03  0.47000000000E+01 0. -1.
         25    2    1    2    0    0  0.30009638034E+02  0.14937914047E+02  0.23636207518E+02  0.13155642297E+03  0.12499880987E+03 0.  0.
         25    2    1    2    0    0 -0.30009638034E+02 -0.14937914047E+02  0.60922007965E+00  0.12941635475E+03  0.12499800829E+03 0.  0.
          5    1    4    4  502    0  0.25768665131E+02 -0.36164824214E+02 -0.37617165404E+02  0.58387153948E+02  0.47000000000E+01 0. -1.
         -5    1    4    4    0  502 -0.55778303166E+02  0.21226910167E+02  0.38226385484E+02  0.71029200801E+02  0.47000000000E+01 0. -1.
          5    1    3    3  503    0 -0.27008971410E+02  0.32702876676E+02  0.50317658445E+02  0.65976658228E+02  0.47000000000E+01 0.  1.
         -5    1    3    3    0  503  0.57018609444E+02 -0.17764962629E+02 -0.26681450927E+02  0.65579764743E+02  0.47000000000E+01 0.  1.
<mgrwt>
<rscale>  0 0.12941550E+03</rscale>
<asrwt>0</asrwt>
<pdfrwt beam="2">  1        5 0.18209796E-01 0.12941570E+03</pdfrwt>
<pdfrwt beam="1">  1       -5 0.21939862E-01 0.12941570E+03</pdfrwt>
<totfact> 0.38205760E+02</totfact>
</mgrwt>
</event>
<event>
 8    1  0.3682083E-007  0.1291801E+03  0.7546771E-02  0.1228691E+00
          5   -1    0    0  501    0  0.00000000000E+00  0.00000000000E+00  0.58225915880E+03  0.58227812771E+03  0.47000000000E+01 0. -1.
         -5   -1    0    0    0  501 -0.00000000000E+00 -0.00000000000E+00 -0.43102342533E+02  0.43357835875E+02  0.47000000000E+01 0. -1.
         25    2    1    2    0    0 -0.18104115346E+01  0.32385837699E+02  0.87813380124E+02  0.15616989760E+03  0.12500290842E+03 0.  0.
         25    2    1    2    0    0  0.18104115346E+01 -0.32385837699E+02  0.45134343615E+03  0.46946606599E+03  0.12504147186E+03 0.  0.
          5    1    4    4  502    0  0.27954534435E+02 -0.73939570305E+02  0.30088315540E+03  0.31112903956E+03  0.47000000000E+01 0.  1.
         -5    1    4    4    0  502 -0.26144122900E+02  0.41553732606E+02  0.15046028074E+03  0.15833702643E+03  0.47000000000E+01 0.  1.
          5    1    3    3  503    0 -0.13961131375E+02  0.93678877268E+01  0.11612263830E+03  0.11742754207E+03  0.47000000000E+01 0. -1.
         -5    1    3    3    0  503  0.12150719840E+02  0.23017949973E+02 -0.28309258179E+02  0.38742355533E+02  0.47000000000E+01 0. -1.
<mgrwt>
<rscale>  0 0.12917073E+03</rscale>
<asrwt>0</asrwt>
<pdfrwt beam="1">  1        5 0.89599450E-01 0.12918007E+03</pdfrwt>
<pdfrwt beam="2">  1       -5 0.66522417E-02 0.12918007E+03</pdfrwt>
<totfact> 0.11843740E+02</totfact>
</mgrwt>
</event>
<event>
 8    1  0.3682083E-007  0.1252433E+03  0.7546771E-02  0.1234695E+00
         -5   -1    0    0    0  501 -0.00000000000E+00  0.00000000000E+00  0.33631126906E+03  0.33634410906E+03  0.47000000000E+01 0.  1.
          5   -1    0    0  501    0  0.00000000000E+00 -0.00000000000E+00 -0.64577387714E+02  0.64748196917E+02  0.47000000000E+01 0.  1.
         25    2    1    2    0    0 -0.30758836273E+01 -0.72437674626E+01  0.24182568044E+03  0.27232741721E+03  0.12498251565E+03 0.  0.
         25    2    1    2    0    0  0.30758836273E+01  0.72437674626E+01  0.29908200909E+02  0.12876488876E+03  0.12499585141E+03 0.  0.
          5    1    3    3  502    0 -0.20702906421E+01 -0.39160654693E+02  0.23630376473E+03  0.23958172344E+03  0.47000000000E+01 0.  1.
         -5    1    3    3    0  502 -0.10055929852E+01  0.31916887230E+02  0.55219157088E+01  0.32745693775E+02  0.47000000000E+01 0.  1.
          5    1    4    4  503    0 -0.36068917621E+02  0.49529291647E+02 -0.42781379495E+01  0.61599594266E+02  0.47000000000E+01 0. -1.
         -5    1    4    4    0  503  0.39144801248E+02 -0.42285524184E+02  0.34186338859E+02  0.67165294497E+02  0.47000000000E+01 0. -1.
<mgrwt>
<rscale>  0 0.12524002E+03</rscale>
<asrwt>0</asrwt>
<pdfrwt beam="2">  1        5 0.99506482E-02 0.12524335E+03</pdfrwt>
<pdfrwt beam="1">  1       -5 0.51755860E-01 0.12524335E+03</pdfrwt>
<totfact> 0.20082757E+02</totfact>
</mgrwt>
</event>
<event>
 8    1  0.3682083E-007  0.1773589E+03  0.7546771E-02  0.1170385E+00
          5   -1    0    0  501    0  0.00000000000E+00  0.00000000000E+00  0.12777281808E+04  0.12777368250E+04  0.47000000000E+01 0.  1.
         -5   -1    0    0    0  501 -0.00000000000E+00 -0.00000000000E+00 -0.24885681995E+02  0.25325622764E+02  0.47000000000E+01 0.  1.
         25    2    1    2    0    0  0.29236978184E+02 -0.12237369320E+03  0.53486026827E+03  0.56349951401E+03  0.12500429607E+03 0.  0.
         25    2    1    2    0    0 -0.29236978184E+02  0.12237369320E+03  0.71798223049E+03  0.73956293372E+03  0.12499891185E+03 0.  0.
          5    1    3    3  502    0  0.63216035733E+02 -0.34495781205E+02  0.33234441839E+03  0.34008988301E+03  0.47000000000E+01 0. -1.
         -5    1    3    3    0  502 -0.33979057549E+02 -0.87877911995E+02  0.20251584989E+03  0.22340963100E+03  0.47000000000E+01 0. -1.
          5    1    4    4  503    0  0.42155490580E+02  0.78401894095E+02  0.44948579551E+03  0.45823958008E+03  0.47000000000E+01 0. -1.
         -5    1    4    4    0  503 -0.71392468764E+02  0.43971799105E+02  0.26849643497E+03  0.28132335365E+03  0.47000000000E+01 0. -1.
<mgrwt>
<rscale>  0 0.17735800E+03</rscale>
<asrwt>0</asrwt>
<pdfrwt beam="1">  1        5 0.19660806E+00 0.17735895E+03</pdfrwt>
<pdfrwt beam="2">  1       -5 0.38630732E-02 0.17735895E+03</pdfrwt>
<totfact> 0.39648892E+01</totfact>
</mgrwt>
</event>
<event>
 8    1  0.3682083E-007  0.1854816E+03  0.7546771E-02  0.1162602E+00
         -5   -1    0    0    0  501 -0.00000000000E+00  0.00000000000E+00  0.15175803587E+03  0.15183079875E+03  0.47000000000E+01 0. -1.
          5   -1    0    0  501    0  0.00000000000E+00 -0.00000000000E+00 -0.23650077158E+03  0.23654746872E+03  0.47000000000E+01 0. -1.
         25    2    1    2    0    0  0.71800778519E+02 -0.11670879478E+03 -0.25303849103E+01  0.18549336011E+03  0.12500035689E+03 0.  0.
         25    2    1    2    0    0 -0.71800778519E+02  0.11670879478E+03 -0.82212350801E+02  0.20288490737E+03  0.12500848147E+03 0.  0.
          5    1    4    4  502    0  0.22287695913E+02 -0.76656814129E+01 -0.29818448987E+02  0.38297962879E+02  0.47000000000E+01 0. -1.
         -5    1    4    4    0  502 -0.94088474433E+02  0.12437447619E+03 -0.52393901814E+02  0.16458694449E+03  0.47000000000E+01 0. -1.
          5    1    3    3  503    0  0.55959159661E+02 -0.69834271147E+02 -0.61264039075E+02  0.10855240882E+03  0.47000000000E+01 0.  1.
         -5    1    3    3    0  503  0.15841618858E+02 -0.46874523629E+02  0.58733654165E+02  0.76940951288E+02  0.47000000000E+01 0.  1.
<mgrwt>
<rscale>  0 0.18548021E+03</rscale>
<asrwt>0</asrwt>
<pdfrwt beam="2">  1        5 0.36393923E-01 0.18548158E+03</pdfrwt>
<pdfrwt beam="1">  1       -5 0.23356579E-01 0.18548158E+03</pdfrwt>
<totfact> 0.10010829E+02</totfact>
</mgrwt>
</event>
<event>
 8    1  0.3682083E-007  0.1867852E+03  0.7546771E-02  0.1161393E+00
         -5   -1    0    0    0  501 -0.00000000000E+00  0.00000000000E+00  0.92167909478E+02  0.92287667310E+02  0.47000000000E+01 0.  1.
          5   -1    0    0  501    0  0.00000000000E+00 -0.00000000000E+00 -0.39053346097E+03  0.39056174177E+03  0.47000000000E+01 0.  1.
         25    2    1    2    0    0  0.13008926554E+03  0.48379854994E+02 -0.10620326350E+03  0.21486610974E+03  0.12499793821E+03 0.  0.
         25    2    1    2    0    0 -0.13008926554E+03 -0.48379854994E+02 -0.19216228799E+03  0.26798329934E+03  0.12499950569E+03 0.  0.
          5    1    4    4  502    0 -0.25170140430E+02  0.12294603830E+02  0.11738873532E+02  0.30734091891E+02  0.47000000000E+01 0.  1.
         -5    1    4    4    0  502 -0.10491912511E+03 -0.60674458824E+02 -0.20390116152E+03  0.23724920745E+03  0.47000000000E+01 0.  1.
          5    1    3    3  503    0  0.13974011220E+02  0.64174989386E+02 -0.59107465100E+02  0.88484375359E+02  0.47000000000E+01 0.  1.
         -5    1    3    3    0  503  0.11611525432E+03 -0.15795134391E+02 -0.47095798403E+02  0.12638173438E+03  0.47000000000E+01 0.  1.
<mgrwt>
<rscale>  0 0.18678492E+03</rscale>
<asrwt>0</asrwt>
<pdfrwt beam="2">  1        5 0.60093458E-01 0.18678518E+03</pdfrwt>
<pdfrwt beam="1">  1       -5 0.14191066E-01 0.18678518E+03</pdfrwt>
<totfact> 0.87860164E+01</totfact>
</mgrwt>
</event>
<event>
 8    1  0.3682083E-007  0.1521796E+03  0.7546771E-02  0.1197824E+00
          5   -1    0    0  501    0  0.00000000000E+00  0.00000000000E+00  0.22813487550E+02  0.23292599988E+02  0.47000000000E+01 0. -1.
         -5   -1    0    0    0  501 -0.00000000000E+00 -0.00000000000E+00 -0.20156776424E+04  0.20156831219E+04  0.47000000000E+01 0. -1.
         25    2    1    2    0    0 -0.15485657610E+02  0.85393638749E+02 -0.17185789047E+04  0.17253022859E+04  0.12499058721E+03 0.  0.
         25    2    1    2    0    0  0.15485657610E+02 -0.85393638749E+02 -0.27428525013E+03  0.31367343602E+03  0.12500698738E+03 0.  0.
          5    1    3    3  502    0  0.17488366389E+02  0.32757314831E+02 -0.12444844484E+03  0.12995533870E+03  0.47000000000E+01 0. -1.
         -5    1    3    3    0  502 -0.32974023999E+02  0.52636323918E+02 -0.15941304599E+04  0.15953469472E+04  0.47000000000E+01 0. -1.
          5    1    4    4  503    0  0.31416718252E+02  0.18701979250E+02 -0.29697089425E+02  0.47336891890E+02  0.47000000000E+01 0.  1.
         -5    1    4    4    0  503 -0.15931060641E+02 -0.10409561800E+03 -0.24458816071E+03  0.26633654413E+03  0.47000000000E+01 0.  1.
<mgrwt>
<rscale>  0 0.15217622E+03</rscale>
<asrwt>0</asrwt>
<pdfrwt beam="1">  1        5 0.35470452E-02 0.15217958E+03</pdfrwt>
<pdfrwt beam="2">  1       -5 0.31014139E+00 0.15217958E+03</pdfrwt>
<totfact> 0.81635009E+00</totfact>
</mgrwt>
</event>
<event>
 8    1  0.3682083E-007  0.1472361E+03  0.7546771E-02  0.1203912E+00
         -5   -1    0    0    0  501 -0.00000000000E+00  0.00000000000E+00  0.40815051151E+03  0.40817757171E+03  0.47000000000E+01 0. -1.
          5   -1    0    0  501    0  0.00000000000E+00 -0.00000000000E+00 -0.62997603142E+02  0.63172683983E+02  0.47000000000E+01 0. -1.
         25    2    1    2    0    0  0.70826579569E+02  0.32178917826E+02  0.26639048906E+03  0.30437124933E+03  0.12500431043E+03 0.  0.
         25    2    1    2    0    0 -0.70826579569E+02 -0.32178917826E+02  0.78762419303E+02  0.16697900636E+03  0.12500633082E+03 0.  0.
          5    1    3    3  502    0  0.51462873813E+02 -0.26108327009E+02  0.21935637542E+03  0.22686864384E+03  0.47000000000E+01 0. -1.
         -5    1    3    3    0  502  0.19363705755E+02  0.58287244835E+02  0.47034113647E+02  0.77502605489E+02  0.47000000000E+01 0. -1.
          5    1    4    4  503    0 -0.98348012479E+02 -0.47899118041E+02  0.78863164734E+02  0.13493756267E+03  0.47000000000E+01 0.  1.
         -5    1    4    4    0  503  0.27521432910E+02  0.15720200216E+02 -0.10074543127E+00  0.32041443692E+02  0.47000000000E+01 0.  1.
<mgrwt>
<rscale>  0 0.14723567E+03</rscale>
<asrwt>0</asrwt>
<pdfrwt beam="2">  1        5 0.97074880E-02 0.14723610E+03</pdfrwt>
<pdfrwt beam="1">  1       -5 0.62807938E-01 0.14723610E+03</pdfrwt>
<totfact> 0.14556755E+02</totfact>
</mgrwt>
</event>
<event>
 8    1  0.3682083E-007  0.1956714E+03  0.7546771E-02  0.1153448E+00
         -5   -1    0    0    0  501 -0.00000000000E+00  0.00000000000E+00  0.32690469355E+03  0.32693847841E+03  0.47000000000E+01 0. -1.
          5   -1    0    0  501    0  0.00000000000E+00 -0.00000000000E+00 -0.16462791881E+03  0.16469499583E+03  0.47000000000E+01 0. -1.
         25    2    1    2    0    0 -0.39891876151E+02  0.14513424430E+03  0.21328271426E+03  0.28944223234E+03  0.12502791292E+03 0.  0.
         25    2    1    2    0    0  0.39891876151E+02 -0.14513424430E+03 -0.51005939517E+02  0.20219124190E+03  0.12499752710E+03 0.  0.
          5    1    4    4  502    0  0.68355487024E+01 -0.15630505759E+03 -0.25204423689E+02  0.15854131552E+03  0.47000000000E+01 0. -1.
         -5    1    4    4    0  502  0.33056327449E+02  0.11170813282E+02 -0.25801515828E+02  0.43649926378E+02  0.47000000000E+01 0. -1.
          5    1    3    3  503    0 -0.55722369939E+02  0.13213120303E+02  0.97356631225E+02  0.11304854136E+03  0.47000000000E+01 0. -1.
         -5    1    3    3    0  503  0.15830493788E+02  0.13192112400E+03  0.11592608303E+03  0.17639369098E+03  0.47000000000E+01 0. -1.
<mgrwt>
<rscale>  0 0.19566653E+03</rscale>
<asrwt>0</asrwt>
<pdfrwt beam="2">  1        5 0.25335131E-01 0.19567138E+03</pdfrwt>
<pdfrwt beam="1">  1       -5 0.50300788E-01 0.19567138E+03</pdfrwt>
<totfact> 0.44336039E+01</totfact>
</mgrwt>
</event>
<event>
 8    1  0.3682083E-007  0.1339907E+03  0.7546771E-02  0.1221670E+00
         -5   -1    0    0    0  501 -0.00000000000E+00  0.00000000000E+00  0.20425037034E+02  0.20958820049E+02  0.47000000000E+01 0. -1.
          5   -1    0    0  501    0  0.00000000000E+00 -0.00000000000E+00 -0.12175077011E+04  0.12175167728E+04  0.47000000000E+01 0. -1.
         25    2    1    2    0    0  0.91691027480E+01  0.47384019598E+02 -0.26634064336E+03  0.29814566194E+03  0.12499671862E+03 0.  0.
         25    2    1    2    0    0 -0.91691027480E+01 -0.47384019598E+02 -0.93074202066E+03  0.94032993095E+03  0.12494139527E+03 0.  0.
          5    1    3    3  502    0 -0.37838659433E+02 -0.24542714831E+02 -0.65695987828E+02  0.79825821735E+02  0.47000000000E+01 0.  1.
         -5    1    3    3    0  502  0.47007762181E+02  0.71926734429E+02 -0.20064465554E+03  0.21831984020E+03  0.47000000000E+01 0.  1.
          5    1    4    4  503    0  0.40314505100E+02  0.19974677560E+02 -0.45843529116E+03  0.46066175578E+03  0.47000000000E+01 0. -1.
         -5    1    4    4    0  503 -0.49483607848E+02 -0.67358697158E+02 -0.47230672951E+03  0.47966817516E+03  0.47000000000E+01 0. -1.
<mgrwt>
<rscale>  0 0.13397776E+03</rscale>
<asrwt>0</asrwt>
<pdfrwt beam="2">  1        5 0.18735058E+00 0.13399066E+03</pdfrwt>
<pdfrwt beam="1">  1       -5 0.31840724E-02 0.13399066E+03</pdfrwt>
<totfact> 0.58352026E+01</totfact>
</mgrwt>
</event>
<event>
 8    1  0.3682083E-007  0.1258436E+03  0.7546771E-02  0.1233758E+00
          5   -1    0    0  501    0  0.00000000000E+00  0.00000000000E+00  0.71327751111E+03  0.71329299580E+03  0.47000000000E+01 0.  1.
         -5   -1    0    0    0  501 -0.00000000000E+00 -0.00000000000E+00 -0.25357491296E+02  0.25789384732E+02  0.47000000000E+01 0.  1.
         25    2    1    2    0    0 -0.58797735428E+01 -0.13293714277E+02  0.20951484766E+03  0.24440352775E+03  0.12500127364E+03 0.  0.
         25    2    1    2    0    0  0.58797735428E+01  0.13293714277E+02  0.47840517216E+03  0.49467885279E+03  0.12499745625E+03 0.  0.
          5    1    3    3  502    0 -0.27125392002E+02  0.22977021613E+02  0.57760772374E+01  0.36320565548E+02  0.47000000000E+01 0. -1.
         -5    1    3    3    0  502  0.21245618459E+02 -0.36270735890E+02  0.20373877042E+03  0.20808296220E+03  0.47000000000E+01 0. -1.
          5    1    4    4  503    0  0.51098974499E+02  0.37401942343E+02  0.15995882656E+03  0.17210150110E+03  0.47000000000E+01 0. -1.
         -5    1    4    4    0  503 -0.45219200956E+02 -0.24108228066E+02  0.31844634560E+03  0.32257735169E+03  0.47000000000E+01 0. -1.
<mgrwt>
<rscale>  0 0.12584266E+03</rscale>
<asrwt>0</asrwt>
<pdfrwt beam="1">  1        5 0.10976941E+00 0.12584361E+03</pdfrwt>
<pdfrwt beam="2">  1       -5 0.39355664E-02 0.12584361E+03</pdfrwt>
<totfact> 0.17161612E+02</totfact>
</mgrwt>
</event>
<event>
 8    1  0.3682083E-007  0.1252483E+03  0.7546771E-02  0.1234684E+00
         -5   -1    0    0    0  501 -0.00000000000E+00  0.00000000000E+00  0.77529200135E+02  0.77671531938E+02  0.47000000000E+01 0.  1.
          5   -1    0    0  501    0  0.00000000000E+00 -0.00000000000E+00 -0.20203984371E+03  0.20209450375E+03  0.47000000000E+01 0.  1.
         25    2    1    2    0    0  0.74584494482E+01  0.22337698246E+01 -0.59726965860E+02  0.13876037847E+03  0.12500605580E+03 0.  0.
         25    2    1    2    0    0 -0.74584494482E+01 -0.22337698246E+01 -0.64783677711E+02  0.14100565722E+03  0.12500020909E+03 0.  0.
          5    1    4    4  502    0 -0.41638266324E+01  0.55722644560E+02 -0.30836869890E+01  0.56160036453E+02  0.47000000000E+01 0.  1.
         -5    1    4    4    0  502 -0.32946228159E+01 -0.57956414384E+02 -0.61699990721E+02  0.84845620764E+02  0.47000000000E+01 0.  1.
          5    1    3    3  503    0 -0.31804888912E+02 -0.49777146322E+02 -0.35498648589E+02  0.69076474333E+02  0.47000000000E+01 0.  1.
         -5    1    3    3    0  503  0.39263338360E+02  0.52010916147E+02 -0.24228317271E+02  0.69683904134E+02  0.47000000000E+01 0.  1.
<mgrwt>
<rscale>  0 0.12524682E+03</rscale>
<asrwt>0</asrwt>
<pdfrwt beam="2">  1        5 0.31098206E-01 0.12524828E+03</pdfrwt>
<pdfrwt beam="1">  1       -5 0.11942723E-01 0.12524828E+03</pdfrwt>
<totfact> 0.41303743E+02</totfact>
</mgrwt>
</event>
<event>
 8    1  0.3682083E-007  0.1285339E+03  0.7546771E-02  0.1229649E+00
          5   -1    0    0  501    0  0.00000000000E+00  0.00000000000E+00  0.12003181143E+04  0.12003273160E+04  0.47000000000E+01 0. -1.
         -5   -1    0    0    0  501 -0.00000000000E+00 -0.00000000000E+00 -0.19025576680E+02  0.19597514332E+02  0.47000000000E+01 0. -1.
         25    2    1    2    0    0 -0.78729661333E+01 -0.28883386453E+02  0.26350114492E+03  0.29317675517E+03  0.12499409101E+03 0.  0.
         25    2    1    2    0    0  0.78729661333E+01  0.28883386453E+02  0.91779139267E+03  0.92674807513E+03  0.12499888272E+03 0.  0.
          5    1    4    4  502    0  0.25617725688E+02 -0.13906045038E+02  0.52720377802E+02  0.60424946782E+02  0.47000000000E+01 0. -1.
         -5    1    4    4    0  502 -0.17744759555E+02  0.42789431491E+02  0.86507101487E+03  0.86632312834E+03  0.47000000000E+01 0. -1.
          5    1    3    3  503    0 -0.39092825770E+02 -0.32935616938E+01  0.16440253477E+02  0.42795659940E+02  0.47000000000E+01 0. -1.
         -5    1    3    3    0  503  0.31219859636E+02 -0.25589824759E+02  0.24706089145E+03  0.25038109523E+03  0.47000000000E+01 0. -1.
<mgrwt>
<rscale>  0 0.12853270E+03</rscale>
<asrwt>0</asrwt>
<pdfrwt beam="1">  1        5 0.18470907E+00 0.12853386E+03</pdfrwt>
<pdfrwt beam="2">  1       -5 0.29717142E-02 0.12853386E+03</pdfrwt>
<totfact> 0.67202503E+01</totfact>
</mgrwt>
</event>
<event>
 8    1  0.3682083E-007  0.1289213E+03  0.7546771E-02  0.1229077E+00
          5   -1    0    0  501    0  0.00000000000E+00  0.00000000000E+00  0.32419005564E+03  0.32422412337E+03  0.47000000000E+01 0.  1.
         -5   -1    0    0    0  501 -0.00000000000E+00 -0.00000000000E+00 -0.53447324177E+02  0.53653578275E+02  0.47000000000E+01 0.  1.
         25    2    1    2    0    0  0.17668547659E+02 -0.26105649048E+02  0.95977553166E+02  0.16072461649E+03  0.12500811632E+03 0.  0.
         25    2    1    2    0    0 -0.17668547659E+02  0.26105649048E+02  0.17476517830E+03  0.21715308515E+03  0.12497564706E+03 0.  0.
          5    1    4    4  502    0 -0.41580657946E+02  0.63589202029E+02  0.70698424661E+02  0.10388885878E+03  0.47000000000E+01 0.  1.
         -5    1    4    4    0  502  0.23912110287E+02 -0.37483552981E+02  0.10406675364E+03  0.11326422637E+03  0.47000000000E+01 0.  1.
          5    1    3    3  503    0 -0.25067972780E+02 -0.46598983728E+02 -0.50716849515E+00  0.53124530715E+02  0.47000000000E+01 0.  1.
         -5    1    3    3    0  503  0.42736520439E+02  0.20493334680E+02  0.96484721661E+02  0.10760008578E+03  0.47000000000E+01 0.  1.
<mgrwt>
<rscale>  0 0.12891347E+03</rscale>
<asrwt>0</asrwt>
<pdfrwt beam="1">  1        5 0.49893880E-01 0.12892134E+03</pdfrwt>
<pdfrwt beam="2">  1       -5 0.82411515E-02 0.12892134E+03</pdfrwt>
<totfact> 0.30384360E+02</totfact>
</mgrwt>
</event>
<event>
 8    1  0.3682083E-007  0.1456184E+03  0.7546771E-02  0.1205964E+00
         -5   -1    0    0    0  501 -0.00000000000E+00  0.00000000000E+00  0.14560264649E+03  0.14567848387E+03  0.47000000000E+01 0. -1.
          5   -1    0    0  501    0  0.00000000000E+00 -0.00000000000E+00 -0.21056480529E+03  0.21061725292E+03  0.47000000000E+01 0. -1.
         25    2    1    2    0    0 -0.72498813201E+02 -0.17942065630E+02  0.66531655907E+02  0.16009343201E+03  0.12500180039E+03 0.  0.
         25    2    1    2    0    0  0.72498813201E+02  0.17942065630E+02 -0.13149381471E+03  0.19620230478E+03  0.12500690164E+03 0.  0.
          5    1    3    3  502    0 -0.79951693490E+02 -0.56815468877E+02  0.22577660755E+02  0.10075768735E+03  0.47000000000E+01 0. -1.
         -5    1    3    3    0  502  0.74528802890E+01  0.38873403247E+02  0.43953995153E+02  0.59335744661E+02  0.47000000000E+01 0. -1.
          5    1    4    4  503    0 -0.29397958653E+00 -0.46890224624E+02 -0.53322219947E+02  0.71162691977E+02  0.47000000000E+01 0.  1.
         -5    1    4    4    0  503  0.72792792788E+02  0.64832290254E+02 -0.78171594763E+02  0.12503961280E+03  0.47000000000E+01 0.  1.
<mgrwt>
<rscale>  0 0.14561731E+03</rscale>
<asrwt>0</asrwt>
<pdfrwt beam="2">  1        5 0.32404453E-01 0.14561841E+03</pdfrwt>
<pdfrwt beam="1">  1       -5 0.22410275E-01 0.14561841E+03</pdfrwt>
<totfact> 0.12700112E+02</totfact>
</mgrwt>
</event>
<event>
 8    1  0.3682083E-007  0.1346800E+03  0.7546771E-02  0.1220680E+00
         -5   -1    0    0    0  501 -0.00000000000E+00  0.00000000000E+00  0.61301014066E+03  0.61302815804E+03  0.47000000000E+01 0. -1.
          5   -1    0    0  501    0  0.00000000000E+00 -0.00000000000E+00 -0.34658768139E+02  0.34975994753E+02  0.47000000000E+01 0. -1.
         25    2    1    2    0    0 -0.38818185505E+02  0.31728171503E+02  0.41495300060E+03  0.43625494185E+03  0.12497541034E+03 0.  0.
         25    2    1    2    0    0  0.38818185505E+02 -0.31728171503E+02  0.16339837192E+03  0.21174921094E+03  0.12500068798E+03 0.  0.
          5    1    4    4  502    0  0.45303525888E+02 -0.66884584947E+02  0.55862821378E+02  0.98329557986E+02  0.47000000000E+01 0.  1.
         -5    1    4    4    0  502 -0.64853403830E+01  0.35156413444E+02  0.10753555054E+03  0.11341965296E+03  0.47000000000E+01 0.  1.
          5    1    3    3  503    0 -0.26213019956E+02 -0.43427657554E+02  0.24033423850E+03  0.24567401175E+03  0.47000000000E+01 0. -1.
         -5    1    3    3    0  503 -0.12605165549E+02  0.75155829057E+02  0.17461876210E+03  0.19058093010E+03  0.47000000000E+01 0. -1.
<mgrwt>
<rscale>  0 0.13467413E+03</rscale>
<asrwt>0</asrwt>
<pdfrwt beam="2">  1        5 0.53579066E-02 0.13467999E+03</pdfrwt>
<pdfrwt beam="1">  1       -5 0.94335033E-01 0.13467999E+03</pdfrwt>
<totfact> 0.15278604E+02</totfact>
</mgrwt>
</event>
<event>
 8    1  0.3682083E-007  0.1255382E+03  0.7546771E-02  0.1234232E+00
          5   -1    0    0  501    0  0.00000000000E+00  0.00000000000E+00  0.27089137225E+03  0.27093214199E+03  0.47000000000E+01 0. -1.
         -5   -1    0    0    0  501 -0.00000000000E+00 -0.00000000000E+00 -0.61989608451E+02  0.62167528147E+02  0.47000000000E+01 0. -1.
         25    2    1    2    0    0 -0.27659341824E+01  0.11318888814E+02  0.14643734393E+03  0.19288270756E+03  0.12499630212E+03 0.  0.
         25    2    1    2    0    0  0.27659341824E+01 -0.11318888814E+02  0.62464419875E+02  0.14021696257E+03  0.12499290062E+03 0.  0.
          5    1    3    3  502    0 -0.26631340591E+02  0.11834043209E+02  0.16156124256E+03  0.16423579993E+03  0.47000000000E+01 0.  1.
         -5    1    3    3    0  502  0.23865406408E+02 -0.51515439491E+00 -0.15123898635E+02  0.28646907634E+02  0.47000000000E+01 0.  1.
          5    1    4    4  503    0  0.10855965900E+01 -0.44632412289E+02  0.87434557137E+02  0.98285922330E+02  0.47000000000E+01 0. -1.
         -5    1    4    4    0  503  0.16803375924E+01  0.33313523475E+02 -0.24970137262E+02  0.41931040240E+02  0.47000000000E+01 0. -1.
<mgrwt>
<rscale>  0 0.12553737E+03</rscale>
<asrwt>0</asrwt>
<pdfrwt beam="1">  1        5 0.41692418E-01 0.12553821E+03</pdfrwt>
<pdfrwt beam="2">  1       -5 0.95536851E-02 0.12553821E+03</pdfrwt>
<totfact> 0.33903445E+02</totfact>
</mgrwt>
</event>
<event>
 8    1  0.3682083E-007  0.1359058E+03  0.7546771E-02  0.1218947E+00
         -5   -1    0    0    0  501 -0.00000000000E+00  0.00000000000E+00  0.77871564052E+02  0.78013271229E+02  0.47000000000E+01 0. -1.
          5   -1    0    0  501    0  0.00000000000E+00 -0.00000000000E+00 -0.25708454665E+03  0.25712750558E+03  0.47000000000E+01 0. -1.
         25    2    1    2    0    0  0.46588002612E+02  0.25979232524E+02 -0.42560160109E+02  0.14241198482E+03  0.12499777471E+03 0.  0.
         25    2    1    2    0    0 -0.46588002612E+02 -0.25979232524E+02 -0.13665282249E+03  0.19272879199E+03  0.12500012342E+03 0.  0.
          5    1    4    4  502    0 -0.17952752424E+02 -0.89440866635E+01 -0.15365384331E+03  0.15502867983E+03  0.47000000000E+01 0. -1.
         -5    1    4    4    0  502 -0.28635250189E+02 -0.17035145861E+02  0.17001020818E+02  0.37700112158E+02  0.47000000000E+01 0. -1.
          5    1    3    3  503    0  0.13219451024E+02 -0.31399202815E+02 -0.63870444876E+02  0.72540937073E+02  0.47000000000E+01 0. -1.
         -5    1    3    3    0  503  0.33368551589E+02  0.57378435339E+02  0.21310284767E+02  0.69871047752E+02  0.47000000000E+01 0. -1.
<mgrwt>
<rscale>  0 0.13590529E+03</rscale>
<asrwt>0</asrwt>
<pdfrwt beam="2">  1        5 0.39565674E-01 0.13590583E+03</pdfrwt>
<pdfrwt beam="1">  1       -5 0.11994446E-01 0.13590583E+03</pdfrwt>
<totfact> 0.26054045E+02</totfact>
</mgrwt>
</event>
<event>
 8    1  0.3682083E-007  0.1268779E+03  0.7546771E-02  0.1232163E+00
          5   -1    0    0  501    0  0.00000000000E+00  0.00000000000E+00  0.80440632934E+03  0.80442005985E+03  0.47000000000E+01 0.  1.
         -5   -1    0    0    0  501 -0.00000000000E+00 -0.00000000000E+00 -0.23031748566E+02  0.23506412785E+02  0.47000000000E+01 0.  1.
         25    2    1    2    0    0  0.19309516142E+02 -0.99702989038E+01  0.23553156730E+03  0.26753151101E+03  0.12500290361E+03 0.  0.
         25    2    1    2    0    0 -0.19309516142E+02  0.99702989038E+01  0.54584301347E+03  0.56039496163E+03  0.12500261352E+03 0.  0.
          5    1    4    4  502    0 -0.70604749711E+02 -0.50901645996E+01  0.36166219142E+03  0.36855470579E+03  0.47000000000E+01 0.  1.
         -5    1    4    4    0  502  0.51295233569E+02  0.15060463503E+02  0.18418082206E+03  0.19184025584E+03  0.47000000000E+01 0.  1.
          5    1    3    3  503    0  0.46839837227E+02  0.36252467440E+02  0.18215261038E+03  0.19159821298E+03  0.47000000000E+01 0. -1.
         -5    1    3    3    0  503 -0.27530321084E+02 -0.46222766344E+02  0.53378956923E+02  0.75933298030E+02  0.47000000000E+01 0. -1.
<mgrwt>
<rscale>  0 0.12687778E+03</rscale>
<asrwt>0</asrwt>
<pdfrwt beam="1">  1        5 0.12379237E+00 0.12687786E+03</pdfrwt>
<pdfrwt beam="2">  1       -5 0.35809153E-02 0.12687786E+03</pdfrwt>
<totfact> 0.14831691E+02</totfact>
</mgrwt>
</event>
<event>
 8    1  0.3682083E-007  0.1541097E+03  0.7546771E-02  0.1195514E+00
         -5   -1    0    0    0  501 -0.00000000000E+00  0.00000000000E+00  0.47057710756E+03  0.47060057815E+03  0.47000000000E+01 0. -1.
          5   -1    0    0  501    0  0.00000000000E+00 -0.00000000000E+00 -0.50363853200E+02  0.50582681909E+02  0.47000000000E+01 0. -1.
         25    2    1    2    0    0 -0.50760643634E+02 -0.74486725751E+02  0.20371418836E+03  0.25543592781E+03  0.12499250946E+03 0.  0.
         25    2    1    2    0    0  0.50760643634E+02  0.74486725751E+02  0.21649906600E+03  0.26574733226E+03  0.12499953506E+03 0.  0.
          5    1    3    3  502    0 -0.28940529778E+02 -0.39147104929E+02  0.20776275437E+03  0.21344203474E+03  0.47000000000E+01 0. -1.
         -5    1    3    3    0  502 -0.21820113857E+02 -0.35339620822E+02 -0.40485660149E+01  0.41993893072E+02  0.47000000000E+01 0. -1.
          5    1    4    4  503    0  0.85677676116E+02  0.74996355753E+02  0.19039680343E+03  0.22189671092E+03  0.47000000000E+01 0.  1.
         -5    1    4    4    0  503 -0.34917032481E+02 -0.50963000190E+00  0.26102262572E+02  0.43850621334E+02  0.47000000000E+01 0.  1.
<mgrwt>
<rscale>  0 0.15410827E+03</rscale>
<asrwt>0</asrwt>
<pdfrwt beam="2">  1        5 0.77669234E-02 0.15410970E+03</pdfrwt>
<pdfrwt beam="1">  1       -5 0.72415118E-01 0.15410970E+03</pdfrwt>
<totfact> 0.15788147E+02</totfact>
</mgrwt>
</event>
<event>
 8    1  0.3682083E-007  0.1263713E+03  0.7546771E-02  0.1232942E+00
         -5   -1    0    0    0  501 -0.00000000000E+00  0.00000000000E+00  0.20988882814E+02  0.21508677360E+02  0.47000000000E+01 0. -1.
          5   -1    0    0  501    0  0.00000000000E+00 -0.00000000000E+00 -0.76649830900E+03  0.76651271855E+03  0.47000000000E+01 0. -1.
         25    2    1    2    0    0  0.18504268625E+02 -0.13095784277E+01 -0.31678219539E+03  0.34105747153E+03  0.12500046645E+03 0.  0.
         25    2    1    2    0    0 -0.18504268625E+02  0.13095784277E+01 -0.42872723079E+03  0.44696392439E+03  0.12500235327E+03 0.  0.
          5    1    3    3  502    0 -0.67087475931E+01 -0.53212975187E+02 -0.74278596318E+02  0.91738911556E+02  0.47000000000E+01 0. -1.
         -5    1    3    3    0  502  0.25213016218E+02  0.51903396759E+02 -0.24250359907E+03  0.24931855997E+03  0.47000000000E+01 0. -1.
          5    1    4    4  503    0 -0.64800720914E+02  0.45403184672E+01 -0.34523594955E+03  0.35132563070E+03  0.47000000000E+01 0.  1.
         -5    1    4    4    0  503  0.46296452289E+02 -0.32307400395E+01 -0.83491281241E+02  0.95638293685E+02  0.47000000000E+01 0.  1.
<mgrwt>
<rscale>  0 0.12637086E+03</rscale>
<asrwt>0</asrwt>
<pdfrwt beam="2">  1        5 0.11796389E+00 0.12637132E+03</pdfrwt>
<pdfrwt beam="1">  1       -5 0.32701521E-02 0.12637132E+03</pdfrwt>
<totfact> 0.19409861E+02</totfact>
</mgrwt>
</event>
<event>
 8    1  0.3682083E-007  0.1601051E+03  0.7546771E-02  0.1188580E+00
          5   -1    0    0  501    0  0.00000000000E+00  0.00000000000E+00  0.61081801546E+02  0.61262357774E+02  0.47000000000E+01 0. -1.
         -5   -1    0    0    0  501 -0.00000000000E+00 -0.00000000000E+00 -0.43748525977E+03  0.43751050560E+03  0.47000000000E+01 0. -1.
         25    2    1    2    0    0 -0.94960365012E+02  0.31467857204E+02 -0.23967806223E+03  0.28823192460E+03  0.12499748752E+03 0.  0.
         25    2    1    2    0    0  0.94960365012E+02 -0.31467857204E+02 -0.13672539600E+03  0.21054093878E+03  0.12500382407E+03 0.  0.
          5    1    3    3  502    0 -0.62142908110E+02  0.34416367353E+02 -0.24445235882E+03  0.25460807745E+03  0.47000000000E+01 0. -1.
         -5    1    3    3    0  502 -0.32817456901E+02 -0.29485101492E+01  0.47742965897E+01  0.33623847155E+02  0.47000000000E+01 0. -1.
          5    1    4    4  503    0 -0.56226216453E+01  0.70338394374E+01 -0.94052846609E+02  0.94599771283E+02  0.47000000000E+01 0. -1.
         -5    1    4    4    0  503  0.10058298666E+03 -0.38501696641E+02 -0.42672549388E+02  0.11594116750E+03  0.47000000000E+01 0. -1.
<mgrwt>
<rscale>  0 0.16010389E+03</rscale>
<asrwt>0</asrwt>
<pdfrwt beam="1">  1        5 0.94130314E-02 0.16010513E+03</pdfrwt>
<pdfrwt beam="2">  1       -5 0.67321254E-01 0.16010513E+03</pdfrwt>
<totfact> 0.13518303E+02</totfact>
</mgrwt>
</event>
<event>
 8    1  0.3682083E-007  0.1352179E+03  0.7546771E-02  0.1219913E+00
         -5   -1    0    0    0  501 -0.00000000000E+00  0.00000000000E+00  0.15906665075E+03  0.15913607191E+03  0.47000000000E+01 0. -1.
          5   -1    0    0  501    0  0.00000000000E+00 -0.00000000000E+00 -0.11496822789E+03  0.11506425781E+03  0.47000000000E+01 0. -1.
         25    2    1    2    0    0 -0.11265921347E+02 -0.50317937804E+02  0.16825432294E+02  0.13626072775E+03  0.12500029962E+03 0.  0.
         25    2    1    2    0    0  0.11265921347E+02  0.50317937804E+02  0.27272990567E+02  0.13793960197E+03  0.12499880770E+03 0.  0.
          5    1    3    3  502    0 -0.58664346955E+02 -0.17519801093E+02  0.40728982923E+02  0.73684388333E+02  0.47000000000E+01 0. -1.
         -5    1    3    3    0  502  0.47398425608E+02 -0.32798136711E+02 -0.23903550629E+02  0.62576339414E+02  0.47000000000E+01 0. -1.
          5    1    4    4  503    0  0.54426527316E+02  0.15301092155E+02  0.51971795652E+02  0.76938467883E+02  0.47000000000E+01 0. -1.
         -5    1    4    4    0  503 -0.43160605969E+02  0.35016845649E+02 -0.24698805084E+02  0.61001134083E+02  0.47000000000E+01 0. -1.
<mgrwt>
<rscale>  0 0.13521759E+03</rscale>
<asrwt>0</asrwt>
<pdfrwt beam="2">  1        5 0.17700147E-01 0.13521794E+03</pdfrwt>
<pdfrwt beam="1">  1       -5 0.24484519E-01 0.13521794E+03</pdfrwt>
<totfact> 0.33208730E+02</totfact>
</mgrwt>
</event>
<event>
 8    1  0.3682083E-007  0.1332073E+03  0.7546771E-02  0.1222778E+00
         -5   -1    0    0    0  501 -0.00000000000E+00  0.00000000000E+00  0.34243400111E+02  0.34564439112E+02  0.47000000000E+01 0.  1.
          5   -1    0    0  501    0  0.00000000000E+00 -0.00000000000E+00 -0.70573957174E+03  0.70575522182E+03  0.47000000000E+01 0.  1.
         25    2    1    2    0    0 -0.45089299998E+02 -0.92084685855E+01 -0.14355888014E+03  0.19584008541E+03  0.12500538435E+03 0.  0.
         25    2    1    2    0    0  0.45089299998E+02  0.92084685855E+01 -0.52793729149E+03  0.54447957552E+03  0.12498953376E+03 0.  0.
          5    1    4    4  502    0 -0.18880037464E+02  0.24128284637E+02 -0.33358736359E+02  0.45535977266E+02  0.47000000000E+01 0.  1.
         -5    1    4    4    0  502  0.63969337461E+02 -0.14919816052E+02 -0.49457855513E+03  0.49894359826E+03  0.47000000000E+01 0.  1.
          5    1    3    3  503    0 -0.85010424743E+02  0.74570566417E+01 -0.70442962440E+02  0.11075504939E+03  0.47000000000E+01 0.  1.
         -5    1    3    3    0  503  0.39921124745E+02 -0.16665525227E+02 -0.73115917703E+02  0.85085036014E+02  0.47000000000E+01 0.  1.
<mgrwt>
<rscale>  0 0.13320359E+03</rscale>
<asrwt>0</asrwt>
<pdfrwt beam="2">  1        5 0.10860121E+00 0.13320731E+03</pdfrwt>
<pdfrwt beam="1">  1       -5 0.52941151E-02 0.13320731E+03</pdfrwt>
<totfact> 0.11014204E+02</totfact>
</mgrwt>
</event>
<event>
 8    1  0.3682083E-007  0.1415547E+03  0.7546771E-02  0.1211253E+00
         -5   -1    0    0    0  501 -0.00000000000E+00  0.00000000000E+00  0.17599241832E+02  0.18216018035E+02  0.47000000000E+01 0.  1.
          5   -1    0    0  501    0  0.00000000000E+00 -0.00000000000E+00 -0.11200585389E+04  0.11200683999E+04  0.47000000000E+01 0.  1.
         25    2    1    2    0    0  0.17414571280E+02 -0.64102616915E+02 -0.52868056772E+03  0.54730327714E+03  0.12500128678E+03 0.  0.
         25    2    1    2    0    0 -0.17414571280E+02  0.64102616915E+02 -0.57377872933E+03  0.59098114083E+03  0.12499706313E+03 0.  0.
          5    1    4    4  502    0 -0.16556369255E+02 -0.27599422322E+02 -0.30948871569E+03  0.31119318215E+03  0.47000000000E+01 0.  1.
         -5    1    4    4    0  502 -0.85820202484E+00  0.91702039237E+02 -0.26429001364E+03  0.27978795868E+03  0.47000000000E+01 0.  1.
          5    1    3    3  503    0  0.57183621015E+02 -0.71530084192E+02 -0.44357366454E+03  0.45295276280E+03  0.47000000000E+01 0. -1.
         -5    1    3    3    0  503 -0.39769049735E+02  0.74274672772E+01 -0.85106903180E+02  0.94350514338E+02  0.47000000000E+01 0. -1.
<mgrwt>
<rscale>  0 0.14155377E+03</rscale>
<asrwt>0</asrwt>
<pdfrwt beam="2">  1        5 0.17236485E+00 0.14155470E+03</pdfrwt>
<pdfrwt beam="1">  1       -5 0.27557794E-02 0.14155470E+03</pdfrwt>
<totfact> 0.95706507E+01</totfact>
</mgrwt>
</event>
<event>
 8    1  0.3682083E-007  0.1452133E+03  0.7546771E-02  0.1206483E+00
          5   -1    0    0  501    0  0.00000000000E+00  0.00000000000E+00  0.91971442274E+02  0.92091455597E+02  0.47000000000E+01 0. -1.
         -5   -1    0    0    0  501 -0.00000000000E+00 -0.00000000000E+00 -0.22898569706E+03  0.22903392643E+03  0.47000000000E+01 0. -1.
         25    2    1    2    0    0  0.14454992085E+02 -0.72469884512E+02 -0.67315003451E+02  0.16005694352E+03  0.12500433802E+03 0.  0.
         25    2    1    2    0    0 -0.14454992085E+02  0.72469884512E+02 -0.69699251335E+02  0.16106843851E+03  0.12499690112E+03 0.  0.
          5    1    4    4  502    0  0.22524665074E+02  0.76080594991E+02 -0.88675044228E+02  0.11908388195E+03  0.47000000000E+01 0. -1.
         -5    1    4    4    0  502 -0.36979657159E+02 -0.36107104791E+01  0.18975792894E+02  0.41984556562E+02  0.47000000000E+01 0. -1.
          5    1    3    3  503    0  0.68614356593E+02 -0.55058546197E+02 -0.39227749409E+02  0.96437958106E+02  0.47000000000E+01 0.  1.
         -5    1    3    3    0  503 -0.54159364508E+02 -0.17411338315E+02 -0.28087254042E+02  0.63618985416E+02  0.47000000000E+01 0.  1.
<mgrwt>
<rscale>  0 0.14521174E+03</rscale>
<asrwt>0</asrwt>
<pdfrwt beam="1">  1        5 0.14162394E-01 0.14521334E+03</pdfrwt>
<pdfrwt beam="2">  1       -5 0.35241510E-01 0.14521334E+03</pdfrwt>
<totfact> 0.25028439E+02</totfact>
</mgrwt>
</event>
<event>
 8    1  0.3682083E-007  0.1675203E+03  0.7546771E-02  0.1180461E+00
          5   -1    0    0  501    0  0.00000000000E+00  0.00000000000E+00  0.52760521714E+02  0.52969450173E+02  0.47000000000E+01 0.  1.
         -5   -1    0    0    0  501 -0.00000000000E+00 -0.00000000000E+00 -0.65134509833E+03  0.65136205532E+03  0.47000000000E+01 0.  1.
         25    2    1    2    0    0 -0.88289468962E+02 -0.68121991993E+02 -0.45089541859E+03  0.48100906797E+03  0.12500963501E+03 0.  0.
         25    2    1    2    0    0  0.88289468962E+02  0.68121991993E+02 -0.14768915803E+03  0.22332243752E+03  0.12500075032E+03 0.  0.
          5    1    3    3  502    0  0.37442111669E+01 -0.46136139982E+02 -0.46933672029E+02  0.66086474409E+02  0.47000000000E+01 0. -1.
         -5    1    3    3    0  502 -0.92033680129E+02 -0.21985852010E+02 -0.40396174656E+03  0.41492259356E+03  0.47000000000E+01 0. -1.
          5    1    4    4  503    0  0.91662077253E+02  0.42928638366E+02 -0.16398608434E+03  0.19276496117E+03  0.47000000000E+01 0.  1.
         -5    1    4    4    0  503 -0.33726082910E+01  0.25193353627E+02  0.16296926315E+02  0.30557476351E+02  0.47000000000E+01 0.  1.
<mgrwt>
<rscale>  0 0.16751862E+03</rscale>
<asrwt>0</asrwt>
<pdfrwt beam="1">  1        5 0.81343796E-02 0.16752028E+03</pdfrwt>
<pdfrwt beam="2">  1       -5 0.10022431E+00 0.16752028E+03</pdfrwt>
<totfact> 0.69586567E+01</totfact>
</mgrwt>
</event>
<event>
 8    1  0.3682083E-007  0.1758524E+03  0.7546771E-02  0.1171886E+00
         -5   -1    0    0    0  501 -0.00000000000E+00  0.00000000000E+00  0.76040211646E+03  0.76041664153E+03  0.47000000000E+01 0. -1.
          5   -1    0    0  501    0  0.00000000000E+00 -0.00000000000E+00 -0.49604748229E+02  0.49826910870E+02  0.47000000000E+01 0. -1.
         25    2    1    2    0    0  0.55077670730E+02 -0.11075850595E+03  0.52842847724E+03  0.55692074875E+03  0.12499227327E+03 0.  0.
         25    2    1    2    0    0 -0.55077670730E+02  0.11075850595E+03  0.18236889099E+03  0.25332280365E+03  0.12495212681E+03 0.  0.
          5    1    4    4  502    0 -0.75437268937E+01 -0.16531497782E+02  0.82550503905E+02  0.84657391463E+02  0.47000000000E+01 0.  1.
         -5    1    4    4    0  502 -0.47533943836E+02  0.12729000373E+03  0.99818387084E+02  0.16866541218E+03  0.47000000000E+01 0.  1.
          5    1    3    3  503    0  0.74542265621E+01  0.14579743453E+01  0.28012245005E+03  0.28026481799E+03  0.47000000000E+01 0.  1.
         -5    1    3    3    0  503  0.47623444168E+02 -0.11221648030E+03  0.24830602719E+03  0.27665593076E+03  0.47000000000E+01 0.  1.
<mgrwt>
<rscale>  0 0.17584526E+03</rscale>
<asrwt>0</asrwt>
<pdfrwt beam="2">  1        5 0.76497065E-02 0.17585240E+03</pdfrwt>
<pdfrwt beam="1">  1       -5 0.11700315E+00 0.17585240E+03</pdfrwt>
<totfact> 0.53292096E+01</totfact>
</mgrwt>
</event>
<event>
 8    1  0.3682083E-007  0.2163099E+03  0.7546771E-02  0.1136665E+00
          5   -1    0    0  501    0  0.00000000000E+00  0.00000000000E+00  0.25047041743E+03  0.25051451058E+03  0.47000000000E+01 0. -1.
         -5   -1    0    0    0  501 -0.00000000000E+00 -0.00000000000E+00 -0.20367522543E+03  0.20372944671E+03  0.47000000000E+01 0. -1.
         25    2    1    2    0    0 -0.14232233495E+03  0.10443898588E+03 -0.42125574514E+02  0.22037033997E+03  0.12500149565E+03 0.  0.
         25    2    1    2    0    0  0.14232233495E+03 -0.10443898588E+03  0.88920766512E+02  0.23387361731E+03  0.12500726923E+03 0.  0.
          5    1    3    3  502    0  0.16187428914E+02  0.40428092104E+02  0.16947907881E+01  0.43834071244E+02  0.47000000000E+01 0. -1.
         -5    1    3    3    0  502 -0.15850976386E+03  0.64010893775E+02 -0.43820365302E+02  0.17653626873E+03  0.47000000000E+01 0. -1.
          5    1    4    4  503    0  0.15482839661E+03 -0.11445430837E+03  0.62250235958E+02  0.20240751709E+03  0.47000000000E+01 0. -1.
         -5    1    4    4    0  503 -0.12506061657E+02  0.10015322488E+02  0.26670530554E+02  0.31466100215E+02  0.47000000000E+01 0. -1.
<mgrwt>
<rscale>  0 0.21630905E+03</rscale>
<asrwt>0</asrwt>
<pdfrwt beam="1">  1        5 0.38541473E-01 0.21630988E+03</pdfrwt>
<pdfrwt beam="2">  1       -5 0.31342213E-01 0.21630988E+03</pdfrwt>
<totfact> 0.52328239E+01</totfact>
</mgrwt>
</event>
<event>
 8    1  0.3682083E-007  0.1582268E+03  0.7546771E-02  0.1190714E+00
          5   -1    0    0  501    0  0.00000000000E+00  0.00000000000E+00  0.32959004648E+02  0.33292431383E+02  0.47000000000E+01 0. -1.
         -5   -1    0    0    0  501 -0.00000000000E+00 -0.00000000000E+00 -0.79416209664E+03  0.79417600426E+03  0.47000000000E+01 0. -1.
         25    2    1    2    0    0 -0.84044118737E+02 -0.48449727161E+02 -0.28924640042E+03  0.32969455841E+03  0.12499692691E+03 0.  0.
         25    2    1    2    0    0  0.84044118737E+02  0.48449727161E+02 -0.47195669158E+03  0.49777387723E+03  0.12499969669E+03 0.  0.
          5    1    3    3  502    0 -0.45907881793E+02 -0.76325197525E+02 -0.97424233015E+02  0.13208573188E+03  0.47000000000E+01 0.  1.
         -5    1    3    3    0  502 -0.38136236944E+02  0.27875470364E+02 -0.19182216740E+03  0.19760882653E+03  0.47000000000E+01 0.  1.
          5    1    4    4  503    0  0.11137266972E+03  0.14082702540E+02 -0.30366410043E+03  0.32378414099E+03  0.47000000000E+01 0.  1.
         -5    1    4    4    0  503 -0.27328550980E+02  0.34367024622E+02 -0.16829259115E+03  0.17398973624E+03  0.47000000000E+01 0.  1.
<mgrwt>
<rscale>  0 0.15822623E+03</rscale>
<asrwt>0</asrwt>
<pdfrwt beam="1">  1        5 0.50973347E-02 0.15822678E+03</pdfrwt>
<pdfrwt beam="2">  1       -5 0.12220549E+00 0.15822678E+03</pdfrwt>
<totfact> 0.91941614E+01</totfact>
</mgrwt>
</event>
<event>
 8    1  0.3682083E-007  0.1611292E+03  0.7546771E-02  0.1187432E+00
          5   -1    0    0  501    0  0.00000000000E+00  0.00000000000E+00  0.18177253964E+03  0.18183329224E+03  0.47000000000E+01 0.  1.
         -5   -1    0    0    0  501 -0.00000000000E+00 -0.00000000000E+00 -0.20195744264E+03  0.20201212498E+03  0.47000000000E+01 0.  1.
         25    2    1    2    0    0  0.73772358728E+02 -0.69939719547E+02 -0.11402722648E+03  0.19739511085E+03  0.12501478363E+03 0.  0.
         25    2    1    2    0    0 -0.73772358728E+02  0.69939719547E+02  0.93842323475E+02  0.18645030637E+03  0.12499363898E+03 0.  0.
          5    1    3    3  502    0  0.69372294999E+02 -0.10269574262E+03 -0.10579057724E+03  0.16301124837E+03  0.47000000000E+01 0.  1.
         -5    1    3    3    0  502  0.44000637293E+01  0.32756023068E+02 -0.82366492436E+01  0.34383862477E+02  0.47000000000E+01 0.  1.
          5    1    4    4  503    0 -0.93934720915E+02  0.25509762860E+02  0.96784307305E+02  0.13734544745E+03  0.47000000000E+01 0. -1.
         -5    1    4    4    0  503  0.20162362187E+02  0.44429956688E+02 -0.29419838300E+01  0.49104858915E+02  0.47000000000E+01 0. -1.
<mgrwt>
<rscale>  0 0.16112511E+03</rscale>
<asrwt>0</asrwt>
<pdfrwt beam="1">  1        5 0.27973886E-01 0.16112921E+03</pdfrwt>
<pdfrwt beam="2">  1       -5 0.31079256E-01 0.16112921E+03</pdfrwt>
<totfact> 0.93044016E+01</totfact>
</mgrwt>
</event>
<event>
 8    1  0.3682083E-007  0.1265681E+03  0.7546771E-02  0.1232640E+00
          5   -1    0    0  501    0  0.00000000000E+00  0.00000000000E+00  0.38773573422E+03  0.38776421907E+03  0.47000000000E+01 0.  1.
         -5   -1    0    0    0  501 -0.00000000000E+00 -0.00000000000E+00 -0.41694077501E+02  0.41958146987E+02  0.47000000000E+01 0.  1.
         25    2    1    2    0    0 -0.19171748577E+02 -0.50933302233E+01  0.14856696666E+03  0.19516804734E+03  0.12499970065E+03 0.  0.
         25    2    1    2    0    0  0.19171748577E+02  0.50933302233E+01  0.19747469006E+03  0.23455431872E+03  0.12500390898E+03 0.  0.
          5    1    4    4  502    0 -0.11759037263E+02  0.30403715280E+01  0.20239838051E+03  0.20281694517E+03  0.47000000000E+01 0.  1.
         -5    1    4    4    0  502  0.30930785840E+02  0.20529586953E+01 -0.49236904483E+01  0.31737373548E+02  0.47000000000E+01 0.  1.
          5    1    3    3  503    0 -0.13084227629E+02 -0.11351782614E+02 -0.19676320633E+02  0.26632828892E+02  0.47000000000E+01 0.  1.
         -5    1    3    3    0  503 -0.60875209479E+01  0.62584523907E+01  0.16824328730E+03  0.16853521845E+03  0.47000000000E+01 0.  1.
<mgrwt>
<rscale>  0 0.12656703E+03</rscale>
<asrwt>0</asrwt>
<pdfrwt beam="1">  1        5 0.59674158E-01 0.12656807E+03</pdfrwt>
<pdfrwt beam="2">  1       -5 0.64369774E-02 0.12656807E+03</pdfrwt>
<totfact> 0.31276787E+02</totfact>
</mgrwt>
</event>
<event>
 8    1  0.3682083E-007  0.1348043E+03  0.7546771E-02  0.1220497E+00
         -5   -1    0    0    0  501 -0.00000000000E+00  0.00000000000E+00  0.62356526703E+03  0.62358297944E+03  0.47000000000E+01 0.  1.
          5   -1    0    0  501    0  0.00000000000E+00 -0.00000000000E+00 -0.31890458298E+02  0.32234939592E+02  0.47000000000E+01 0.  1.
         25    2    1    2    0    0 -0.40680367867E+02  0.29863165592E+02  0.39508120834E+03  0.41744582471E+03  0.12500061758E+03 0.  0.
         25    2    1    2    0    0  0.40680367867E+02 -0.29863165592E+02  0.19659360039E+03  0.23837209432E+03  0.12500204257E+03 0.  0.
          5    1    4    4  502    0  0.41147002803E+02 -0.68543602220E+02  0.71527486765E+02  0.10737584741E+03  0.47000000000E+01 0.  1.
         -5    1    4    4    0  502 -0.46663493596E+00  0.38680436628E+02  0.12506611363E+03  0.13099624691E+03  0.47000000000E+01 0.  1.
          5    1    3    3  503    0 -0.71119921051E+02  0.39598519395E+02  0.36253435581E+03  0.37159027846E+03  0.47000000000E+01 0. -1.
         -5    1    3    3    0  503  0.30439553184E+02 -0.97353538030E+01  0.32546852534E+02  0.45855546247E+02  0.47000000000E+01 0. -1.
<mgrwt>
<rscale>  0 0.13480402E+03</rscale>
<asrwt>0</asrwt>
<pdfrwt beam="2">  1        5 0.49340859E-02 0.13480435E+03</pdfrwt>
<pdfrwt beam="1">  1       -5 0.95960970E-01 0.13480435E+03</pdfrwt>
<totfact> 0.16823863E+02</totfact>
</mgrwt>
</event>
<event>
 8    1  0.3682083E-007  0.1506098E+03  0.7546771E-02  0.1199737E+00
          5   -1    0    0  501    0  0.00000000000E+00  0.00000000000E+00  0.15587574380E+03  0.15594658543E+03  0.47000000000E+01 0. -1.
         -5   -1    0    0    0  501 -0.00000000000E+00 -0.00000000000E+00 -0.14933974474E+03  0.14941368532E+03  0.47000000000E+01 0. -1.
         25    2    1    2    0    0 -0.77755500070E+02  0.31643042772E+02  0.28228071369E+02  0.15319632297E+03  0.12500035764E+03 0.  0.
         25    2    1    2    0    0  0.77755500070E+02 -0.31643042772E+02 -0.21692072309E+02  0.15216394778E+03  0.12504447631E+03 0.  0.
          5    1    4    4  502    0  0.20915218945E+02 -0.14435228968E+02  0.51602402445E+02  0.57712391711E+02  0.47000000000E+01 0. -1.
         -5    1    4    4    0  502  0.56840281125E+02 -0.17207813804E+02 -0.73294474754E+02  0.94451556068E+02  0.47000000000E+01 0. -1.
          5    1    3    3  503    0 -0.37440777209E+02  0.34883826711E+02 -0.45717776699E+02  0.68781525648E+02  0.47000000000E+01 0. -1.
         -5    1    3    3    0  503 -0.40314722860E+02 -0.32407839391E+01  0.73945848068E+02  0.84414797319E+02  0.47000000000E+01 0. -1.
<mgrwt>
<rscale>  0 0.15060067E+03</rscale>
<asrwt>0</asrwt>
<pdfrwt beam="1">  1        5 0.23992021E-01 0.15060983E+03</pdfrwt>
<pdfrwt beam="2">  1       -5 0.22986482E-01 0.15060983E+03</pdfrwt>
<totfact> 0.21966343E+02</totfact>
</mgrwt>
</event>
<event>
 8    1  0.3682083E-007  0.1383733E+03  0.7546771E-02  0.1215549E+00
          5   -1    0    0  501    0  0.00000000000E+00  0.00000000000E+00  0.59836191507E+03  0.59838037352E+03  0.47000000000E+01 0.  1.
         -5   -1    0    0    0  501 -0.00000000000E+00 -0.00000000000E+00 -0.60753245607E+02  0.60934775390E+02  0.47000000000E+01 0.  1.
         25    2    1    2    0    0 -0.56881331860E+02 -0.16565385881E+02  0.41725454852E+02  0.14448767688E+03  0.12500310902E+03 0.  0.
         25    2    1    2    0    0  0.56881331860E+02  0.16565385881E+02  0.49588321461E+03  0.51482747202E+03  0.12504905234E+03 0.  0.
          5    1    3    3  502    0  0.33668013066E+02 -0.13245172357E+02 -0.12762802881E+02  0.38651634273E+02  0.47000000000E+01 0. -1.
         -5    1    3    3    0  502 -0.90549344926E+02 -0.33202135235E+01  0.54488257733E+02  0.10583604261E+03  0.47000000000E+01 0. -1.
          5    1    4    4  503    0  0.42053353579E+02  0.14996067763E+02  0.49712150689E+03  0.49914451736E+03  0.47000000000E+01 0. -1.
         -5    1    4    4    0  503  0.14827978281E+02  0.15693181176E+01 -0.12382922775E+01  0.15682954665E+02  0.47000000000E+01 0. -1.
<mgrwt>
<rscale>  0 0.13836289E+03</rscale>
<asrwt>0</asrwt>
<pdfrwt beam="1">  1        5 0.92071065E-01 0.13837328E+03</pdfrwt>
<pdfrwt beam="2">  1       -5 0.93620367E-02 0.13837328E+03</pdfrwt>
<totfact> 0.63236953E+01</totfact>
</mgrwt>
</event>
<event>
 8    1  0.3682083E-007  0.2166910E+03  0.7546771E-02  0.1136378E+00
          5   -1    0    0  501    0  0.00000000000E+00  0.00000000000E+00  0.16951237172E+03  0.16957751669E+03  0.47000000000E+01 0. -1.
         -5   -1    0    0    0  501 -0.00000000000E+00 -0.00000000000E+00 -0.27811306118E+03  0.27815277241E+03  0.47000000000E+01 0. -1.
         25    2    1    2    0    0 -0.45022535409E+02  0.17119286464E+03 -0.69447782266E+02  0.22753052556E+03  0.12495247098E+03 0.  0.
         25    2    1    2    0    0  0.45022535409E+02 -0.17119286464E+03 -0.39152907191E+02  0.22019976353E+03  0.12498383944E+03 0.  0.
          5    1    3    3  502    0  0.34200333309E+02  0.87426527001E+01 -0.15634992339E+02  0.38892669748E+02  0.47000000000E+01 0. -1.
         -5    1    3    3    0  502 -0.79222868719E+02  0.16245021194E+03 -0.53812789927E+02  0.18863785581E+03  0.47000000000E+01 0. -1.
          5    1    4    4  503    0  0.62966278559E+02 -0.11459082477E+03  0.24406766995E+02  0.13309241012E+03  0.47000000000E+01 0.  1.
         -5    1    4    4    0  503 -0.17943743150E+02 -0.56602039868E+02 -0.63559674187E+02  0.87107353410E+02  0.47000000000E+01 0.  1.
<mgrwt>
<rscale>  0 0.21668647E+03</rscale>
<asrwt>0</asrwt>
<pdfrwt beam="1">  1        5 0.26086892E-01 0.21669099E+03</pdfrwt>
<pdfrwt beam="2">  1       -5 0.42794691E-01 0.21669099E+03</pdfrwt>
<totfact> 0.60484502E+01</totfact>
</mgrwt>
</event>
<event>
 8    1  0.3682083E-007  0.2036121E+03  0.7546771E-02  0.1146728E+00
         -5   -1    0    0    0  501 -0.00000000000E+00  0.00000000000E+00  0.21891612778E+04  0.21891663231E+04  0.47000000000E+01 0. -1.
          5   -1    0    0  501    0  0.00000000000E+00 -0.00000000000E+00 -0.18695704393E+02  0.19277431435E+02  0.47000000000E+01 0. -1.
         25    2    1    2    0    0  0.65340939110E+02  0.14684315261E+03  0.11443581386E+04  0.11623298154E+04  0.12499080156E+03 0.  0.
         25    2    1    2    0    0 -0.65340939110E+02 -0.14684315261E+03  0.10261074348E+04  0.10461139392E+04  0.12500222485E+03 0.  0.
          5    1    4    4  502    0 -0.79141750342E+02 -0.13889742810E+03  0.10112954310E+04  0.10238634924E+04  0.47000000000E+01 0. -1.
         -5    1    4    4    0  502  0.13800811232E+02 -0.79457245089E+01  0.14812003815E+02  0.22250446864E+02  0.47000000000E+01 0. -1.
          5    1    3    3  503    0  0.45900798917E+02  0.16397045156E+03  0.10694014649E+04  0.10828826232E+04  0.47000000000E+01 0.  1.
         -5    1    3    3    0  503  0.19440140193E+02 -0.17127298958E+02  0.74956673668E+02  0.79447192195E+02  0.47000000000E+01 0.  1.
<mgrwt>
<rscale>  0 0.20361039E+03</rscale>
<asrwt>0</asrwt>
<pdfrwt beam="2">  1        5 0.29213997E-02 0.20361215E+03</pdfrwt>
<pdfrwt beam="1">  1       -5 0.33683905E+00 0.20361215E+03</pdfrwt>
<totfact> 0.79369374E+00</totfact>
</mgrwt>
</event>
<event>
 8    1  0.3682083E-007  0.1351719E+03  0.7546771E-02  0.1219978E+00
         -5   -1    0    0    0  501 -0.00000000000E+00  0.00000000000E+00  0.27993701019E+03  0.27997646272E+03  0.47000000000E+01 0. -1.
          5   -1    0    0  501    0  0.00000000000E+00 -0.00000000000E+00 -0.65144451107E+02  0.65313777337E+02  0.47000000000E+01 0. -1.
         25    2    1    2    0    0  0.26996782209E+02  0.43799744426E+02  0.10872171606E+03  0.17347006973E+03  0.12499683872E+03 0.  0.
         25    2    1    2    0    0 -0.26996782209E+02 -0.43799744426E+02  0.10607084303E+03  0.17182017032E+03  0.12499561323E+03 0.  0.
          5    1    3    3  502    0 -0.43470558252E+02  0.12605180276E+02  0.78146605027E+02  0.90429872729E+02  0.47000000000E+01 0. -1.
         -5    1    3    3    0  502  0.70467340461E+02  0.31194564150E+02  0.30575111030E+02  0.83040197005E+02  0.47000000000E+01 0. -1.
          5    1    4    4  503    0 -0.62877322810E+02  0.20351235992E+01  0.92335381111E+02  0.11182849394E+03  0.47000000000E+01 0.  1.
         -5    1    4    4    0  503  0.35880540601E+02 -0.45834868026E+02  0.13735461916E+02  0.59991676379E+02  0.47000000000E+01 0.  1.
<mgrwt>
<rscale>  0 0.13517166E+03</rscale>
<asrwt>0</asrwt>
<pdfrwt beam="2">  1        5 0.10038283E-01 0.13517194E+03</pdfrwt>
<pdfrwt beam="1">  1       -5 0.43083292E-01 0.13517194E+03</pdfrwt>
<totfact> 0.29855157E+02</totfact>
</mgrwt>
</event>
<event>
 8    1  0.3682083E-007  0.1537508E+03  0.7546771E-02  0.1195941E+00
          5   -1    0    0  501    0  0.00000000000E+00  0.00000000000E+00  0.13833187427E+04  0.13833267271E+04  0.47000000000E+01 0.  1.
         -5   -1    0    0    0  501 -0.00000000000E+00 -0.00000000000E+00 -0.17085513831E+02  0.17720180103E+02  0.47000000000E+01 0.  1.
         25    2    1    2    0    0 -0.12738327585E+02 -0.88604940272E+02  0.58771322815E+03  0.60749169293E+03  0.12500487193E+03 0.  0.
         25    2    1    2    0    0  0.12738327585E+02  0.88604940272E+02  0.77852000069E+03  0.79355521425E+03  0.12499354442E+03 0.  0.
          5    1    4    4  502    0  0.71031231325E+01 -0.30342267833E+02  0.23636509748E+03  0.23845682394E+03  0.47000000000E+01 0.  1.
         -5    1    4    4    0  502  0.56352044529E+01  0.11894720810E+03  0.54215490321E+03  0.55509839030E+03  0.47000000000E+01 0.  1.
          5    1    3    3  503    0 -0.23332991714E+02  0.22561633010E+02  0.24066937677E+03  0.24289358720E+03  0.47000000000E+01 0. -1.
         -5    1    3    3    0  503  0.10594664128E+02 -0.11116657328E+03  0.34704385138E+03  0.36459810573E+03  0.47000000000E+01 0. -1.
<mgrwt>
<rscale>  0 0.15374853E+03</rscale>
<asrwt>0</asrwt>
<pdfrwt beam="1">  1        5 0.21286787E+00 0.15375083E+03</pdfrwt>
<pdfrwt beam="2">  1       -5 0.26779732E-02 0.15375083E+03</pdfrwt>
<totfact> 0.53881155E+01</totfact>
</mgrwt>
</event>
<event>
 8    1  0.3682083E-007  0.1335239E+03  0.7546771E-02  0.1222321E+00
          5   -1    0    0  501    0  0.00000000000E+00  0.00000000000E+00  0.13758430489E+03  0.13766455953E+03  0.47000000000E+01 0. -1.
         -5   -1    0    0    0  501 -0.00000000000E+00 -0.00000000000E+00 -0.13056876632E+03  0.13065333038E+03  0.47000000000E+01 0. -1.
         25    2    1    2    0    0  0.29327012173E+02  0.36609250229E+02 -0.90923610848E+01  0.13383311506E+03  0.12501328254E+03 0.  0.
         25    2    1    2    0    0 -0.29327012173E+02 -0.36609250229E+02  0.16107899649E+02  0.13448477485E+03  0.12500551744E+03 0.  0.
          5    1    3    3  502    0  0.56360242545E+02 -0.12962599931E+01 -0.47049979525E+02  0.73579533860E+02  0.47000000000E+01 0.  1.
         -5    1    3    3    0  502 -0.27033230372E+02  0.37905510222E+02  0.37957618440E+02  0.60253581198E+02  0.47000000000E+01 0.  1.
          5    1    4    4  503    0 -0.31609440195E+00 -0.80270632202E+02  0.15276594004E+02  0.81847044138E+02  0.47000000000E+01 0.  1.
         -5    1    4    4    0  503 -0.29010917771E+02  0.43661381973E+02  0.83130564542E+00  0.52637730715E+02  0.47000000000E+01 0.  1.
<mgrwt>
<rscale>  0 0.13352208E+03</rscale>
<asrwt>0</asrwt>
<pdfrwt beam="1">  1        5 0.21179495E-01 0.13352390E+03</pdfrwt>
<pdfrwt beam="2">  1       -5 0.20100181E-01 0.13352390E+03</pdfrwt>
<totfact> 0.34377509E+02</totfact>
</mgrwt>
</event>
<event>
 8    1  0.3682083E-007  0.1996866E+03  0.7546771E-02  0.1150005E+00
          5   -1    0    0  501    0  0.00000000000E+00  0.00000000000E+00  0.33217937625E+03  0.33221262470E+03  0.47000000000E+01 0. -1.
         -5   -1    0    0    0  501 -0.00000000000E+00 -0.00000000000E+00 -0.17878083484E+03  0.17884260373E+03  0.47000000000E+01 0. -1.
         25    2    1    2    0    0  0.12925058062E+03  0.86838730477E+02 -0.69836814322E+02  0.21154648516E+03  0.12501222759E+03 0.  0.
         25    2    1    2    0    0 -0.12925058062E+03 -0.86838730477E+02  0.22323535573E+03  0.29950874326E+03  0.12499914216E+03 0.  0.
          5    1    3    3  502    0  0.45466790035E+02  0.99574062182E+02 -0.63022971005E+02  0.12639702421E+03  0.47000000000E+01 0.  1.
         -5    1    3    3    0  502  0.83783790587E+02 -0.12735331705E+02 -0.68138433167E+01  0.85149460947E+02  0.47000000000E+01 0.  1.
          5    1    4    4  503    0 -0.54918801127E+02 -0.39231649355E+02  0.19548245304E+03  0.20685907395E+03  0.47000000000E+01 0.  1.
         -5    1    4    4    0  503 -0.74331779495E+02 -0.47607081122E+02  0.27752902686E+02  0.92649669311E+02  0.47000000000E+01 0.  1.
<mgrwt>
<rscale>  0 0.19968454E+03</rscale>
<asrwt>0</asrwt>
<pdfrwt beam="1">  1        5 0.51111828E-01 0.19968659E+03</pdfrwt>
<pdfrwt beam="2">  1       -5 0.27512053E-01 0.19968659E+03</pdfrwt>
<totfact> 0.36697002E+01</totfact>
</mgrwt>
</event>
<event>
 8    1  0.3682083E-007  0.1409121E+03  0.7546771E-02  0.1212107E+00
         -5   -1    0    0    0  501 -0.00000000000E+00  0.00000000000E+00  0.27711736120E+03  0.27715721510E+03  0.47000000000E+01 0. -1.
          5   -1    0    0  501    0  0.00000000000E+00 -0.00000000000E+00 -0.75285315794E+02  0.75431881683E+02  0.47000000000E+01 0. -1.
         25    2    1    2    0    0  0.37982478357E+02 -0.52808013929E+02  0.14023965609E+03  0.19880486952E+03  0.12499944002E+03 0.  0.
         25    2    1    2    0    0 -0.37982478357E+02  0.52808013929E+02  0.61592389318E+02  0.15378422726E+03  0.12499844453E+03 0.  0.
          5    1    3    3  502    0  0.76133306520E+02 -0.65176105314E+02  0.95104862521E+02  0.13824337214E+03  0.47000000000E+01 0. -1.
         -5    1    3    3    0  502 -0.38150828163E+02  0.12368091385E+02  0.45134793571E+02  0.60561497379E+02  0.47000000000E+01 0. -1.
          5    1    4    4  503    0 -0.24617852310E+02  0.82910095906E+02  0.33145031345E+01  0.86678708958E+02  0.47000000000E+01 0. -1.
         -5    1    4    4    0  503 -0.13364626046E+02 -0.30102081977E+02  0.58277886184E+02  0.67105518303E+02  0.47000000000E+01 0. -1.
<mgrwt>
<rscale>  0 0.14091186E+03</rscale>
<asrwt>0</asrwt>
<pdfrwt beam="2">  1        5 0.11596696E-01 0.14091208E+03</pdfrwt>
<pdfrwt beam="1">  1       -5 0.42647780E-01 0.14091208E+03</pdfrwt>
<totfact> 0.23999322E+02</totfact>
</mgrwt>
</event>
<event>
 8    1  0.3682083E-007  0.1582336E+03  0.7546771E-02  0.1190706E+00
         -5   -1    0    0    0  501 -0.00000000000E+00  0.00000000000E+00  0.26447359060E+03  0.26451534951E+03  0.47000000000E+01 0. -1.
          5   -1    0    0  501    0  0.00000000000E+00 -0.00000000000E+00 -0.11778047373E+03  0.11787421259E+03  0.47000000000E+01 0. -1.
         25    2    1    2    0    0 -0.95782498507E+02  0.15433735966E+02  0.15818400318E+03  0.22373928620E+03  0.12499840838E+03 0.  0.
         25    2    1    2    0    0  0.95782498507E+02 -0.15433735966E+02 -0.11490886317E+02  0.15865027590E+03  0.12500152938E+03 0.  0.
          5    1    3    3  502    0  0.54394696292E+01 -0.40878970087E+02  0.32179166369E+02  0.52519203854E+02  0.47000000000E+01 0.  1.
         -5    1    3    3    0  502 -0.10122196814E+03  0.56312706053E+02  0.12600483682E+03  0.17122008234E+03  0.47000000000E+01 0.  1.
          5    1    4    4  503    0 -0.21712681221E+02  0.24542233350E+02  0.45697470420E+01  0.33417575191E+02  0.47000000000E+01 0. -1.
         -5    1    4    4    0  503  0.11749517973E+03 -0.39975969315E+02 -0.16060633359E+02  0.12523270071E+03  0.47000000000E+01 0. -1.
<mgrwt>
<rscale>  0 0.15823298E+03</rscale>
<asrwt>0</asrwt>
<pdfrwt beam="2">  1        5 0.18130496E-01 0.15823359E+03</pdfrwt>
<pdfrwt beam="1">  1       -5 0.40698667E-01 0.15823359E+03</pdfrwt>
<totfact> 0.12238304E+02</totfact>
</mgrwt>
</event>
<event>
 8    1  0.3682083E-007  0.1329954E+03  0.7546771E-02  0.1223079E+00
          5   -1    0    0  501    0  0.00000000000E+00  0.00000000000E+00  0.25949474204E+03  0.25953730204E+03  0.47000000000E+01 0.  1.
         -5   -1    0    0    0  501 -0.00000000000E+00 -0.00000000000E+00 -0.68427230287E+02  0.68588452707E+02  0.47000000000E+01 0.  1.
         25    2    1    2    0    0  0.39274977453E+02  0.22813628254E+02  0.83064922518E+02  0.15680420165E+03  0.12499916325E+03 0.  0.
         25    2    1    2    0    0 -0.39274977453E+02 -0.22813628254E+02  0.10800258924E+03  0.17132155309E+03  0.12499411900E+03 0.  0.
          5    1    3    3  502    0  0.10248456835E+02  0.39209790012E+02  0.10764626762E+03  0.11511840615E+03  0.47000000000E+01 0.  1.
         -5    1    3    3    0  502  0.29026520619E+02 -0.16396161758E+02 -0.24581345106E+02  0.41685795504E+02  0.47000000000E+01 0.  1.
          5    1    4    4  503    0 -0.68519789137E+01 -0.56516220955E+02  0.11035213319E+03  0.12426067820E+03  0.47000000000E+01 0.  1.
         -5    1    4    4    0  503 -0.32422998539E+02  0.33702592700E+02 -0.23495439542E+01  0.47060874894E+02  0.47000000000E+01 0.  1.
<mgrwt>
<rscale>  0 0.13299421E+03</rscale>
<asrwt>0</asrwt>
<pdfrwt beam="1">  1        5 0.39937943E-01 0.13299540E+03</pdfrwt>
<pdfrwt beam="2">  1       -5 0.10542942E-01 0.13299540E+03</pdfrwt>
<totfact> 0.31844180E+02</totfact>
</mgrwt>
</event>
<event>
 8    1  0.3682083E-007  0.1645360E+03  0.7546771E-02  0.1183671E+00
         -5   -1    0    0    0  501 -0.00000000000E+00  0.00000000000E+00  0.30026290589E+02  0.30391908899E+02  0.47000000000E+01 0. -1.
          5   -1    0    0  501    0  0.00000000000E+00 -0.00000000000E+00 -0.90624586499E+03  0.90625805255E+03  0.47000000000E+01 0. -1.
         25    2    1    2    0    0 -0.10469408466E+03  0.21902516735E+02 -0.38768451052E+03  0.42115156912E+03  0.12501517056E+03 0.  0.
         25    2    1    2    0    0  0.10469408466E+03 -0.21902516735E+02 -0.48853506388E+03  0.51549839233E+03  0.12502604630E+03 0.  0.
          5    1    4    4  502    0 -0.24348307125E+02 -0.85915915977E+01 -0.34969146113E+02  0.43721695826E+02  0.47000000000E+01 0.  1.
         -5    1    4    4    0  502  0.12904239178E+03 -0.13310925138E+02 -0.45356591777E+03  0.47177669651E+03  0.47000000000E+01 0.  1.
          5    1    3    3  503    0 -0.17540377855E+02 -0.43218219799E+02 -0.61892977842E+02  0.77642192679E+02  0.47000000000E+01 0.  1.
         -5    1    3    3    0  503 -0.87153706803E+02  0.65120736534E+02 -0.32579153268E+03  0.34350937644E+03  0.47000000000E+01 0.  1.
<mgrwt>
<rscale>  0 0.16453390E+03</rscale>
<asrwt>0</asrwt>
<pdfrwt beam="2">  1        5 0.13945148E+00 0.16453597E+03</pdfrwt>
<pdfrwt beam="1">  1       -5 0.46484920E-02 0.16453597E+03</pdfrwt>
<totfact> 0.76700669E+01</totfact>
</mgrwt>
</event>
<event>
 8    1  0.3682083E-007  0.1315479E+03  0.7546771E-02  0.1225177E+00
          5   -1    0    0  501    0  0.00000000000E+00  0.00000000000E+00  0.18504731319E+04  0.18504791006E+04  0.47000000000E+01 0.  1.
         -5   -1    0    0    0  501 -0.00000000000E+00 -0.00000000000E+00 -0.91480900226E+01  0.10284821392E+02  0.47000000000E+01 0.  1.
         25    2    1    2    0    0 -0.26744661826E+01 -0.40903445840E+02  0.73894606852E+03  0.75056383070E+03  0.12499810847E+03 0.  0.
         25    2    1    2    0    0  0.26744661826E+01  0.40903445840E+02  0.11023789734E+04  0.11102000913E+04  0.12499838891E+03 0.  0.
          5    1    4    4  502    0 -0.45774013691E+02  0.62807776719E+02  0.61607477648E+03  0.62097527919E+03  0.47000000000E+01 0.  1.
         -5    1    4    4    0  502  0.48448479874E+02 -0.21904330880E+02  0.48630419690E+03  0.48922481216E+03  0.47000000000E+01 0.  1.
          5    1    3    3  503    0  0.45200773798E+02  0.17023481688E+02  0.17466593094E+03  0.18128206285E+03  0.47000000000E+01 0. -1.
         -5    1    3    3    0  503 -0.47875239980E+02 -0.57926927527E+02  0.56428013758E+03  0.56928176784E+03  0.47000000000E+01 0. -1.
<mgrwt>
<rscale>  0 0.13154780E+03</rscale>
<asrwt>0</asrwt>
<pdfrwt beam="1">  1        5 0.28477599E+00 0.13154787E+03</pdfrwt>
<pdfrwt beam="2">  1       -5 0.14952989E-02 0.13154787E+03</pdfrwt>
<totfact> 0.45336370E+01</totfact>
</mgrwt>
</event>
<event>
 8    1  0.3682083E-007  0.1498781E+03  0.7546771E-02  0.1200627E+00
          5   -1    0    0  501    0  0.00000000000E+00  0.00000000000E+00  0.96781077311E+03  0.96782218539E+03  0.47000000000E+01 0.  1.
         -5   -1    0    0    0  501 -0.00000000000E+00 -0.00000000000E+00 -0.26309987891E+02  0.26726493650E+02  0.47000000000E+01 0.  1.
         25    2    1    2    0    0  0.76527527194E+02 -0.31359090529E+02  0.29481750485E+03  0.33072770562E+03  0.12499439635E+03 0.  0.
         25    2    1    2    0    0 -0.76527527194E+02  0.31359090529E+02  0.64668328037E+03  0.66382097343E+03  0.12497665654E+03 0.  0.
          5    1    4    4  502    0 -0.66259951103E+02  0.39452245326E+02  0.64524495465E+03  0.64985383148E+03  0.47000000000E+01 0. -1.
         -5    1    4    4    0  502 -0.10267576091E+02 -0.80931547972E+01  0.14383257118E+01  0.13967141949E+02  0.47000000000E+01 0. -1.
          5    1    3    3  503    0  0.79873426975E+02 -0.54143324071E+02  0.11868634516E+03  0.15303529790E+03  0.47000000000E+01 0.  1.
         -5    1    3    3    0  503 -0.33458997817E+01  0.22784233541E+02  0.17613115969E+03  0.17769240771E+03  0.47000000000E+01 0.  1.
<mgrwt>
<rscale>  0 0.14987443E+03</rscale>
<asrwt>0</asrwt>
<pdfrwt beam="1">  1        5 0.14892691E+00 0.14987813E+03</pdfrwt>
<pdfrwt beam="2">  1       -5 0.40806065E-02 0.14987813E+03</pdfrwt>
<totfact> 0.77485766E+01</totfact>
</mgrwt>
</event>
<event>
 8    1  0.3682083E-007  0.1309949E+03  0.7546771E-02  0.1225991E+00
          5   -1    0    0  501    0  0.00000000000E+00  0.00000000000E+00  0.85041839538E+02  0.85171617761E+02  0.47000000000E+01 0. -1.
         -5   -1    0    0    0  501 -0.00000000000E+00 -0.00000000000E+00 -0.20678341621E+03  0.20683682269E+03  0.47000000000E+01 0. -1.
         25    2    1    2    0    0 -0.17516099958E+01  0.39130398180E+02 -0.84311675294E+02  0.15578231733E+03  0.12500166240E+03 0.  0.
         25    2    1    2    0    0  0.17516099958E+01 -0.39130398180E+02 -0.37429901377E+02  0.13622612312E+03  0.12498921115E+03 0.  0.
          5    1    3    3  502    0 -0.23412414315E+02 -0.40414870908E+02 -0.42041419189E+02  0.63016457072E+02  0.47000000000E+01 0.  1.
         -5    1    3    3    0  502  0.21660804319E+02  0.79545269088E+02 -0.42270256105E+02  0.92765860257E+02  0.47000000000E+01 0.  1.
          5    1    4    4  503    0  0.38829100040E+02 -0.35101807768E+02 -0.69279208039E+02  0.86957084731E+02  0.47000000000E+01 0. -1.
         -5    1    4    4    0  503 -0.37077490044E+02 -0.40285904116E+01  0.31849306662E+02  0.49269038386E+02  0.47000000000E+01 0. -1.
<mgrwt>
<rscale>  0 0.13099196E+03</rscale>
<asrwt>0</asrwt>
<pdfrwt beam="1">  1        5 0.13097451E-01 0.13099493E+03</pdfrwt>
<pdfrwt beam="2">  1       -5 0.31826924E-01 0.13099493E+03</pdfrwt>
<totfact> 0.34050724E+02</totfact>
</mgrwt>
</event>
<event>
 8    1  0.3682083E-007  0.1310515E+03  0.7546771E-02  0.1225906E+00
         -5   -1    0    0    0  501 -0.00000000000E+00  0.00000000000E+00  0.19957327680E+03  0.19962861221E+03  0.47000000000E+01 0.  1.
          5   -1    0    0  501    0  0.00000000000E+00 -0.00000000000E+00 -0.10031158955E+03  0.10042163611E+03  0.47000000000E+01 0.  1.
         25    2    1    2    0    0 -0.37023843052E+02  0.13356290535E+02  0.10640384534E+03  0.16880428709E+03  0.12499581427E+03 0.  0.
         25    2    1    2    0    0  0.37023843052E+02 -0.13356290535E+02 -0.71421580972E+01  0.13124596123E+03  0.12500134585E+03 0.  0.
          5    1    4    4  502    0 -0.19231009756E+02 -0.13435118895E+02  0.47182164422E+02  0.52901614299E+02  0.47000000000E+01 0.  1.
         -5    1    4    4    0  502  0.56254852809E+02  0.78828360323E-01 -0.54324322519E+02  0.78344346928E+02  0.47000000000E+01 0.  1.
          5    1    3    3  503    0 -0.60994602676E+01 -0.40349476517E+02  0.97780074845E+02  0.10605808176E+03  0.47000000000E+01 0. -1.
         -5    1    3    3    0  503 -0.30924382785E+02  0.53705767051E+02  0.86237704947E+01  0.62746205325E+02  0.47000000000E+01 0. -1.
<mgrwt>
<rscale>  0 0.13105017E+03</rscale>
<asrwt>0</asrwt>
<pdfrwt beam="2">  1        5 0.15445274E-01 0.13105149E+03</pdfrwt>
<pdfrwt beam="1">  1       -5 0.30716303E-01 0.13105149E+03</pdfrwt>
<totfact> 0.27148689E+02</totfact>
</mgrwt>
</event>
<event>
 8    1  0.3682083E-007  0.4174963E+03  0.7546771E-02  0.1037885E+00
          5   -1    0    0  501    0  0.00000000000E+00  0.00000000000E+00  0.85815468801E+03  0.85816755856E+03  0.47000000000E+01 0.  1.
         -5   -1    0    0    0  501 -0.00000000000E+00 -0.00000000000E+00 -0.21710729668E+03  0.21715816419E+03  0.47000000000E+01 0.  1.
         25    2    1    2    0    0 -0.13498596707E+03  0.37477341072E+03  0.18383473745E+03  0.45617796358E+03  0.12500721208E+03 0.  0.
         25    2    1    2    0    0  0.13498596707E+03 -0.37477341072E+03  0.45721265388E+03  0.61914775917E+03  0.12499686446E+03 0.  0.
          5    1    4    4  502    0  0.77597661067E+01 -0.74004220001E+02  0.16434012647E+03  0.18046220024E+03  0.47000000000E+01 0.  1.
         -5    1    4    4    0  502  0.12722620096E+03 -0.30076919072E+03  0.29287252741E+03  0.43868555892E+03  0.47000000000E+01 0.  1.
          5    1    3    3  503    0 -0.87408154586E+02  0.34178233393E+03  0.12717882633E+03  0.37503585581E+03  0.47000000000E+01 0.  1.
         -5    1    3    3    0  503 -0.47577812481E+02  0.32991076795E+02  0.56655911127E+02  0.81142107775E+02  0.47000000000E+01 0.  1.
<mgrwt>
<rscale>  0 0.41749548E+03</rscale>
<asrwt>0</asrwt>
<pdfrwt beam="1">  1        5 0.13202870E+00 0.41749626E+03</pdfrwt>
<pdfrwt beam="2">  1       -5 0.33406025E-01 0.41749626E+03</pdfrwt>
<totfact> 0.30140094E+00</totfact>
</mgrwt>
</event>
<event>
 8    1  0.3682083E-007  0.1323719E+03  0.7546771E-02  0.1223979E+00
         -5   -1    0    0    0  501 -0.00000000000E+00  0.00000000000E+00  0.10999176652E+03  0.11009213733E+03  0.47000000000E+01 0. -1.
          5   -1    0    0  501    0  0.00000000000E+00 -0.00000000000E+00 -0.17246042527E+03  0.17252445706E+03  0.47000000000E+01 0. -1.
         25    2    1    2    0    0  0.22863827554E+02 -0.37070963935E+02  0.80868013661E+01  0.13261530264E+03  0.12499764462E+03 0.  0.
         25    2    1    2    0    0 -0.22863827554E+02  0.37070963935E+02 -0.70555460120E+02  0.15000129176E+03  0.12500121439E+03 0.  0.
          5    1    4    4  502    0  0.21890826392E+02  0.45339856646E+02  0.15201225383E+02  0.52802255008E+02  0.47000000000E+01 0.  1.
         -5    1    4    4    0  502 -0.44754653946E+02 -0.82688927107E+01 -0.85756685503E+02  0.97199036749E+02  0.47000000000E+01 0.  1.
          5    1    3    3  503    0 -0.12279804582E+02 -0.39960622173E+02 -0.49478440014E+02  0.64944984035E+02  0.47000000000E+01 0.  1.
         -5    1    3    3    0  503  0.35143632136E+02  0.28896582377E+01  0.57565241381E+02  0.67670318602E+02  0.47000000000E+01 0.  1.
<mgrwt>
<rscale>  0 0.13237104E+03</rscale>
<asrwt>0</asrwt>
<pdfrwt beam="2">  1        5 0.26545019E-01 0.13237188E+03</pdfrwt>
<pdfrwt beam="1">  1       -5 0.16934457E-01 0.13237188E+03</pdfrwt>
<totfact> 0.30615548E+02</totfact>
</mgrwt>
</event>
<event>
 8    1  0.3682083E-007  0.1380900E+03  0.7546771E-02  0.1215930E+00
         -5   -1    0    0    0  501 -0.00000000000E+00  0.00000000000E+00  0.29774214300E+02  0.30142890326E+02  0.47000000000E+01 0. -1.
          5   -1    0    0  501    0  0.00000000000E+00 -0.00000000000E+00 -0.72496735164E+03  0.72498258665E+03  0.47000000000E+01 0. -1.
         25    2    1    2    0    0  0.58304710749E+02 -0.66733947633E+01 -0.21540847455E+03  0.25587038745E+03  0.12499948309E+03 0.  0.
         25    2    1    2    0    0 -0.58304710749E+02  0.66733947633E+01 -0.47978466280E+03  0.49925508953E+03  0.12497339027E+03 0.  0.
          5    1    4    4  502    0 -0.13558420560E+02  0.63590794916E+02 -0.24418969946E+03  0.25274160577E+03  0.47000000000E+01 0.  1.
         -5    1    4    4    0  502 -0.44746290190E+02 -0.56917400153E+02 -0.23559496333E+03  0.24651348376E+03  0.47000000000E+01 0.  1.
          5    1    3    3  503    0  0.38076257033E+02  0.44847376980E+02 -0.18134978516E+03  0.19071162300E+03  0.47000000000E+01 0. -1.
         -5    1    3    3    0  503  0.20228453716E+02 -0.51520771743E+02 -0.34058689387E+02  0.65158764442E+02  0.47000000000E+01 0. -1.
<mgrwt>
<rscale>  0 0.13808408E+03</rscale>
<asrwt>0</asrwt>
<pdfrwt beam="2">  1        5 0.11156296E+00 0.13808999E+03</pdfrwt>
<pdfrwt beam="1">  1       -5 0.46101805E-02 0.13808999E+03</pdfrwt>
<totfact> 0.13109453E+02</totfact>
</mgrwt>
</event>
<event>
 8    1  0.3682083E-007  0.1450216E+03  0.7546771E-02  0.1206730E+00
          5   -1    0    0  501    0  0.00000000000E+00  0.00000000000E+00  0.61830401655E+02  0.62008778159E+02  0.47000000000E+01 0.  1.
         -5   -1    0    0    0  501 -0.00000000000E+00 -0.00000000000E+00 -0.37630435985E+03  0.37633370995E+03  0.47000000000E+01 0.  1.
         25    2    1    2    0    0  0.55095434165E+01  0.73305726469E+02 -0.22581741992E+03  0.26837432072E+03  0.12500873681E+03 0.  0.
         25    2    1    2    0    0 -0.55095434165E+01 -0.73305726469E+02 -0.88656538278E+02  0.16996816739E+03  0.12500044618E+03 0.  0.
          5    1    4    4  502    0  0.26308334722E+01  0.30549446821E+02  0.29573134058E+01  0.31161285089E+02  0.47000000000E+01 0. -1.
         -5    1    4    4    0  502 -0.81403768887E+01 -0.10385517329E+03 -0.91613851684E+02  0.13880688230E+03  0.47000000000E+01 0. -1.
          5    1    3    3  503    0 -0.33563892095E+01 -0.33297272867E+02 -0.85002397949E+02  0.91473883628E+02  0.47000000000E+01 0.  1.
         -5    1    3    3    0  503  0.88659326260E+01  0.10660299934E+03 -0.14081502197E+03  0.17690043709E+03  0.47000000000E+01 0.  1.
<mgrwt>
<rscale>  0 0.14501983E+03</rscale>
<asrwt>0</asrwt>
<pdfrwt beam="1">  1        5 0.95283487E-02 0.14502162E+03</pdfrwt>
<pdfrwt beam="2">  1       -5 0.57908956E-01 0.14502162E+03</pdfrwt>
<totfact> 0.17879612E+02</totfact>
</mgrwt>
</event>
<event>
 8    1  0.3682083E-007  0.1456822E+03  0.7546771E-02  0.1205887E+00
          5   -1    0    0  501    0  0.00000000000E+00  0.00000000000E+00  0.79073842747E+03  0.79075239530E+03  0.47000000000E+01 0.  1.
         -5   -1    0    0    0  501 -0.00000000000E+00 -0.00000000000E+00 -0.27508132022E+02  0.27906761319E+02  0.47000000000E+01 0.  1.
         25    2    1    2    0    0  0.61356575437E+02 -0.42732231879E+02  0.30849041105E+03  0.34115925602E+03  0.12503052135E+03 0.  0.
         25    2    1    2    0    0 -0.61356575437E+02  0.42732231879E+02  0.45473988440E+03  0.47749990060E+03  0.12500847819E+03 0.  0.
          5    1    4    4  502    0 -0.89156354749E+02  0.60042891343E+02  0.39290959182E+03  0.40737457179E+03  0.47000000000E+01 0.  1.
         -5    1    4    4    0  502  0.27799779312E+02 -0.17310659464E+02  0.61830292579E+02  0.70125328814E+02  0.47000000000E+01 0.  1.
          5    1    3    3  503    0  0.33441915526E+02  0.30827263975E+02  0.38108024117E+02  0.59523049488E+02  0.47000000000E+01 0. -1.
         -5    1    3    3    0  503  0.27914659910E+02 -0.73559495854E+02  0.27038238693E+03  0.28163620653E+03  0.47000000000E+01 0. -1.
<mgrwt>
<rscale>  0 0.14567747E+03</rscale>
<asrwt>0</asrwt>
<pdfrwt beam="1">  1        5 0.12168382E+00 0.14568220E+03</pdfrwt>
<pdfrwt beam="2">  1       -5 0.42637579E-02 0.14568220E+03</pdfrwt>
<totfact> 0.12182630E+02</totfact>
</mgrwt>
</event>
<event>
 8    1  0.3682083E-007  0.1501154E+03  0.7546771E-02  0.1200331E+00
         -5   -1    0    0    0  501 -0.00000000000E+00  0.00000000000E+00  0.46965523767E+03  0.46967875433E+03  0.47000000000E+01 0. -1.
          5   -1    0    0  501    0  0.00000000000E+00 -0.00000000000E+00 -0.68522846780E+02  0.68683844759E+02  0.47000000000E+01 0.  1.
         25    2    1    2    0    0 -0.79926831990E+02  0.22877397906E+02  0.34821410814E+03  0.37919349950E+03  0.12499188433E+03 0.  0.
         25    2    1    2    0    0  0.79926831990E+02 -0.22877397906E+02  0.52918282752E+02  0.15916909959E+03  0.12499113492E+03 0.  0.
          5    1    4    4  502    0  0.56107022365E+02 -0.18254598717E+02  0.94084187366E+02  0.11115373428E+03  0.47000000000E+01 0.  1.
         -5    1    4    4    0  502  0.23819809625E+02 -0.46227991887E+01 -0.41165904614E+02  0.48015365308E+02  0.47000000000E+01 0.  1.
          5    1    3    3  503    0 -0.51553798410E+00  0.28691534224E+02  0.25439283793E+03  0.25604936224E+03  0.47000000000E+01 0. -1.
         -5    1    3    3    0  503 -0.79411294006E+02 -0.58141363174E+01  0.93821270210E+02  0.12314413726E+03  0.47000000000E+01 0. -1.
<mgrwt>
<rscale>  0 0.15011528E+03</rscale>
<asrwt>0</asrwt>
<pdfrwt beam="2">  1        5 0.10556170E-01 0.15011544E+03</pdfrwt>
<pdfrwt beam="1">  1       -5 0.72268847E-01 0.15011544E+03</pdfrwt>
<totfact> 0.92380001E+01</totfact>
</mgrwt>
</event>
<event>
 8    1  0.3682083E-007  0.1430578E+03  0.7546771E-02  0.1209275E+00
          5   -1    0    0  501    0  0.00000000000E+00  0.00000000000E+00  0.20468891216E+02  0.21001559647E+02  0.47000000000E+01 0.  1.
         -5   -1    0    0    0  501 -0.00000000000E+00 -0.00000000000E+00 -0.12143471323E+04  0.12143562277E+04  0.47000000000E+01 0.  1.
         25    2    1    2    0    0  0.15249257966E+02  0.67884862475E+02 -0.86447585828E+03  0.87623181560E+03  0.12499116245E+03 0.  0.
         25    2    1    2    0    0 -0.15249257966E+02 -0.67884862475E+02 -0.32940238278E+03  0.35912597172E+03  0.12499855743E+03 0.  0.
          5    1    4    4  502    0 -0.31873502690E+02 -0.88254809259E+02 -0.14485248169E+03  0.17265330285E+03  0.47000000000E+01 0. -1.
         -5    1    4    4    0  502  0.16624244724E+02  0.20369946784E+02 -0.18454990109E+03  0.18647266888E+03  0.47000000000E+01 0. -1.
          5    1    3    3  503    0  0.45323556827E+02 -0.14240939552E+02 -0.45475639901E+03  0.45725540085E+03  0.47000000000E+01 0.  1.
         -5    1    3    3    0  503 -0.30074298862E+02  0.82125802027E+02 -0.40971945927E+03  0.41897641475E+03  0.47000000000E+01 0.  1.
<mgrwt>
<rscale>  0 0.14305618E+03</rscale>
<asrwt>0</asrwt>
<pdfrwt beam="1">  1        5 0.31907353E-02 0.14305780E+03</pdfrwt>
<pdfrwt beam="2">  1       -5 0.18686425E+00 0.14305780E+03</pdfrwt>
<totfact> 0.59726334E+01</totfact>
</mgrwt>
</event>
<event>
 8    1  0.3682083E-007  0.1594181E+03  0.7546771E-02  0.1189358E+00
         -5   -1    0    0    0  501 -0.00000000000E+00  0.00000000000E+00  0.56700382558E+03  0.56702330483E+03  0.47000000000E+01 0. -1.
          5   -1    0    0  501    0  0.00000000000E+00 -0.00000000000E+00 -0.54203812951E+02  0.54407199325E+02  0.47000000000E+01 0. -1.
         25    2    1    2    0    0  0.75090980891E+02 -0.64411864274E+02  0.38637437281E+03  0.41796660376E+03  0.12499352873E+03 0.  0.
         25    2    1    2    0    0 -0.75090980891E+02  0.64411864274E+02  0.12642563982E+03  0.20346390040E+03  0.12500629060E+03 0.  0.
          5    1    4    4  502    0 -0.10021527950E+03  0.20355363006E+02  0.10923778072E+03  0.14970780135E+03  0.47000000000E+01 0. -1.
         -5    1    4    4    0  502  0.25124298607E+02  0.44056501268E+02  0.17187859098E+02  0.53756099048E+02  0.47000000000E+01 0. -1.
          5    1    3    3  503    0  0.19947069807E+02 -0.40336059358E+02  0.33690520216E+03  0.33992953464E+03  0.47000000000E+01 0. -1.
         -5    1    3    3    0  503  0.55143911085E+02 -0.24075804915E+02  0.49469170653E+02  0.78037069122E+02  0.47000000000E+01 0. -1.
<mgrwt>
<rscale>  0 0.15941555E+03</rscale>
<asrwt>0</asrwt>
<pdfrwt beam="2">  1        5 0.83561910E-02 0.15941806E+03</pdfrwt>
<pdfrwt beam="1">  1       -5 0.87248508E-01 0.15941806E+03</pdfrwt>
<totfact> 0.91374375E+01</totfact>
</mgrwt>
</event>
<event>
 8    1  0.3682083E-007  0.1446598E+03  0.7546771E-02  0.1207193E+00
         -5   -1    0    0    0  501 -0.00000000000E+00  0.00000000000E+00  0.15257753116E+03  0.15264990343E+03  0.47000000000E+01 0.  1.
          5   -1    0    0  501    0  0.00000000000E+00 -0.00000000000E+00 -0.16682272906E+03  0.16688892393E+03  0.47000000000E+01 0.  1.
         25    2    1    2    0    0  0.59791020933E+02 -0.41545669017E+02  0.60392562530E+02  0.15675902642E+03  0.12500048783E+03 0.  0.
         25    2    1    2    0    0 -0.59791020933E+02  0.41545669017E+02 -0.74637760422E+02  0.16277980093E+03  0.12500183804E+03 0.  0.
          5    1    3    3  502    0  0.19815513740E+02 -0.80224216424E+02  0.57653654204E+02  0.10086928833E+03  0.47000000000E+01 0.  1.
         -5    1    3    3    0  502  0.39975507193E+02  0.38678547406E+02  0.27389083262E+01  0.55889738089E+02  0.47000000000E+01 0.  1.
          5    1    4    4  503    0 -0.21375686084E+02 -0.23751926852E+02 -0.80411311696E+02  0.86655311628E+02  0.47000000000E+01 0.  1.
         -5    1    4    4    0  503 -0.38415334849E+02  0.65297595869E+02  0.57735512736E+01  0.76124489306E+02  0.47000000000E+01 0.  1.
<mgrwt>
<rscale>  0 0.14465954E+03</rscale>
<asrwt>0</asrwt>
<pdfrwt beam="2">  1        5 0.25675694E-01 0.14465984E+03</pdfrwt>
<pdfrwt beam="1">  1       -5 0.23484125E-01 0.14465984E+03</pdfrwt>
<totfact> 0.18273492E+02</totfact>
</mgrwt>
</event>
<event>
 8    1  0.3682083E-007  0.1252884E+03  0.7546771E-02  0.1234626E+00
          5   -1    0    0  501    0  0.00000000000E+00  0.00000000000E+00  0.65001890599E+01  0.80213750576E+01  0.47000000000E+01 0. -1.
         -5   -1    0    0    0  501 -0.00000000000E+00 -0.00000000000E+00 -0.26718461354E+04  0.26718502692E+04  0.47000000000E+01 0. -1.
         25    2    1    2    0    0 -0.64356028827E+01 -0.50785405698E+01 -0.19190079337E+04  0.19230935066E+04  0.12501990736E+03 0.  0.
         25    2    1    2    0    0  0.64356028827E+01  0.50785405698E+01 -0.74633801268E+03  0.75677813767E+03  0.12500204768E+03 0.  0.
          5    1    3    3  502    0  0.30327355002E+02  0.42987939310E+02 -0.49870167809E+03  0.50149094221E+03  0.47000000000E+01 0. -1.
         -5    1    3    3    0  502 -0.36762957885E+02 -0.48066479880E+02 -0.14203062556E+04  0.14216025644E+04  0.47000000000E+01 0. -1.
          5    1    4    4  503    0 -0.41467279739E+01 -0.57518407429E+02 -0.44823458620E+03  0.45195342328E+03  0.47000000000E+01 0.  1.
         -5    1    4    4    0  503  0.10582330857E+02  0.62596947999E+02 -0.29810342648E+03  0.30482471440E+03  0.47000000000E+01 0.  1.
<mgrwt>
<rscale>  0 0.12528395E+03</rscale>
<asrwt>0</asrwt>
<pdfrwt beam="1">  1        5 0.11173635E-02 0.12528841E+03</pdfrwt>
<pdfrwt beam="2">  1       -5 0.41116980E+00 0.12528841E+03</pdfrwt>
<totfact> 0.10336335E+01</totfact>
</mgrwt>
</event>
<event>
 8    1  0.3682083E-007  0.1451872E+03  0.7546771E-02  0.1206518E+00
         -5   -1    0    0    0  501 -0.00000000000E+00  0.00000000000E+00  0.14691494760E+04  0.14691569939E+04  0.47000000000E+01 0. -1.
          5   -1    0    0  501    0  0.00000000000E+00 -0.00000000000E+00 -0.14079616690E+02  0.14843369097E+02  0.47000000000E+01 0. -1.
         25    2    1    2    0    0 -0.50281312391E+02 -0.54093190318E+02  0.79571355092E+03  0.80885066028E+03  0.12500020761E+03 0.  0.
         25    2    1    2    0    0  0.50281312391E+02  0.54093190318E+02  0.65935630839E+03  0.67514970275E+03  0.12498838386E+03 0.  0.
          5    1    3    3  502    0  0.21269529816E+02  0.33031047155E+01  0.27837048480E+02  0.35500629113E+02  0.47000000000E+01 0. -1.
         -5    1    3    3    0  502 -0.71550842207E+02 -0.57396295034E+02  0.76787650244E+03  0.77335003116E+03  0.47000000000E+01 0. -1.
          5    1    4    4  503    0  0.11204911320E+02  0.58162532785E+02  0.60503381065E+03  0.60794443191E+03  0.47000000000E+01 0. -1.
         -5    1    4    4    0  503  0.39076401070E+02 -0.40693424667E+01  0.54322497733E+02  0.67205270840E+02  0.47000000000E+01 0. -1.
<mgrwt>
<rscale>  0 0.14518470E+03</rscale>
<asrwt>0</asrwt>
<pdfrwt beam="2">  1        5 0.22254220E-02 0.14518724E+03</pdfrwt>
<pdfrwt beam="1">  1       -5 0.22608247E+00 0.14518724E+03</pdfrwt>
<totfact> 0.58466367E+01</totfact>
</mgrwt>
</event>
<event>
 8    1  0.3682083E-007  0.1683230E+03  0.7546771E-02  0.1179608E+00
          5   -1    0    0  501    0  0.00000000000E+00  0.00000000000E+00  0.52464839354E+03  0.52466944532E+03  0.47000000000E+01 0.  1.
         -5   -1    0    0    0  501 -0.00000000000E+00 -0.00000000000E+00 -0.59289253781E+02  0.59475252113E+02  0.47000000000E+01 0.  1.
         25    2    1    2    0    0 -0.83526539476E+02 -0.75695119183E+02  0.14460280147E+03  0.22190546383E+03  0.12500252326E+03 0.  0.
         25    2    1    2    0    0  0.83526539476E+02  0.75695119183E+02  0.32075633829E+03  0.36223923359E+03  0.12500479965E+03 0.  0.
          5    1    3    3  502    0 -0.47859205284E+02 -0.65835503959E+01  0.13492780710E+03  0.14339264205E+03  0.47000000000E+01 0. -1.
         -5    1    3    3    0  502 -0.35667334192E+02 -0.69111568787E+02  0.96749943759E+01  0.78512821786E+02  0.47000000000E+01 0. -1.
          5    1    4    4  503    0  0.26044183607E+02  0.65640128652E+02  0.53699285602E+02  0.88840470864E+02  0.47000000000E+01 0.  1.
         -5    1    4    4    0  503  0.57482355869E+02  0.10054990531E+02  0.26705705269E+03  0.27339876273E+03  0.47000000000E+01 0.  1.
<mgrwt>
<rscale>  0 0.16832258E+03</rscale>
<asrwt>0</asrwt>
<pdfrwt beam="1">  1        5 0.80731063E-01 0.16832300E+03</pdfrwt>
<pdfrwt beam="2">  1       -5 0.91373508E-02 0.16832300E+03</pdfrwt>
<totfact> 0.95411218E+01</totfact>
</mgrwt>
</event>
<event>
 8    1  0.3682083E-007  0.1861043E+03  0.7546771E-02  0.1162023E+00
         -5   -1    0    0    0  501 -0.00000000000E+00  0.00000000000E+00  0.30466769414E+02  0.30827163972E+02  0.47000000000E+01 0.  1.
          5   -1    0    0  501    0  0.00000000000E+00 -0.00000000000E+00 -0.12156632033E+04  0.12156722889E+04  0.47000000000E+01 0.  1.
         25    2    1    2    0    0  0.39014285358E+02  0.13223976953E+03 -0.42693698905E+03  0.46573559445E+03  0.12499992082E+03 0.  0.
         25    2    1    2    0    0 -0.39014285358E+02 -0.13223976953E+03 -0.75825944484E+03  0.78076385838E+03  0.12500138300E+03 0.  0.
          5    1    3    3  502    0 -0.59742617894E+00  0.14241076937E+03 -0.29658548743E+03  0.32903833440E+03  0.47000000000E+01 0. -1.
         -5    1    3    3    0  502  0.39611711537E+02 -0.10170999839E+02 -0.13035150163E+03  0.13669726005E+03  0.47000000000E+01 0. -1.
          5    1    4    4  503    0 -0.58343769944E+02 -0.14892346233E+03 -0.66207684495E+03  0.68113877569E+03  0.47000000000E+01 0.  1.
         -5    1    4    4    0  503  0.19329484586E+02  0.16683692798E+02 -0.96182599888E+02  0.99625082690E+02  0.47000000000E+01 0.  1.
<mgrwt>
<rscale>  0 0.18610407E+03</rscale>
<asrwt>0</asrwt>
<pdfrwt beam="2">  1        5 0.18705349E+00 0.18610432E+03</pdfrwt>
<pdfrwt beam="1">  1       -5 0.47156178E-02 0.18610432E+03</pdfrwt>
<totfact> 0.33622289E+01</totfact>
</mgrwt>
</event>
<event>
 8    1  0.3682083E-007  0.1389952E+03  0.7546771E-02  0.1214695E+00
         -5   -1    0    0    0  501 -0.00000000000E+00  0.00000000000E+00  0.44496169251E+02  0.44743704340E+02  0.47000000000E+01 0.  1.
          5   -1    0    0  501    0  0.00000000000E+00 -0.00000000000E+00 -0.51799349646E+03  0.51801481868E+03  0.47000000000E+01 0.  1.
         25    2    1    2    0    0  0.40027176181E+01 -0.60634935090E+02 -0.12255002289E+03  0.18528843341E+03  0.12498271218E+03 0.  0.
         25    2    1    2    0    0 -0.40027176181E+01  0.60634935090E+02 -0.35094730432E+03  0.37747008961E+03  0.12500816389E+03 0.  0.
          5    1    3    3  502    0  0.22205527165E+02  0.32871782195E+02 -0.56813135988E+02  0.69451147738E+02  0.47000000000E+01 0.  1.
         -5    1    3    3    0  502 -0.18202809547E+02 -0.93506717285E+02 -0.65736886898E+02  0.11583728567E+03  0.47000000000E+01 0.  1.
          5    1    4    4  503    0 -0.63860576494E+01  0.36173317960E+02 -0.13992595698E+02  0.39587540956E+02  0.47000000000E+01 0. -1.
         -5    1    4    4    0  503  0.23833400313E+01  0.24461617130E+02 -0.33695470863E+03  0.33788254866E+03  0.47000000000E+01 0. -1.
<mgrwt>
<rscale>  0 0.13898945E+03</rscale>
<asrwt>0</asrwt>
<pdfrwt beam="2">  1        5 0.79711984E-01 0.13899517E+03</pdfrwt>
<pdfrwt beam="1">  1       -5 0.68662462E-02 0.13899517E+03</pdfrwt>
<totfact> 0.15118983E+02</totfact>
</mgrwt>
</event>
<event>
 8    1  0.3682083E-007  0.1314947E+03  0.7546771E-02  0.1225260E+00
         -5   -1    0    0    0  501 -0.00000000000E+00  0.00000000000E+00  0.10105218491E+03  0.10116142583E+03  0.47000000000E+01 0. -1.
          5   -1    0    0  501    0  0.00000000000E+00 -0.00000000000E+00 -0.17122468636E+03  0.17128918010E+03  0.47000000000E+01 0. -1.
         25    2    1    2    0    0  0.29621795403E+02 -0.28059395274E+02 -0.41400308749E+02  0.13784492640E+03  0.12498983056E+03 0.  0.
         25    2    1    2    0    0 -0.29621795403E+02  0.28059395274E+02 -0.28772192701E+02  0.13460567953E+03  0.12500427778E+03 0.  0.
          5    1    4    4  502    0 -0.11339326182E+02 -0.26024396726E+02 -0.62022084581E+02  0.68371620714E+02  0.47000000000E+01 0. -1.
         -5    1    4    4    0  502 -0.18282469221E+02  0.54083792000E+02  0.33249891880E+02  0.66234058821E+02  0.47000000000E+01 0. -1.
          5    1    3    3  503    0  0.52523480873E+02 -0.51934816122E+02 -0.63717116430E+02  0.97662183545E+02  0.47000000000E+01 0.  1.
         -5    1    3    3    0  503 -0.22901685470E+02  0.23875420848E+02  0.22316807681E+02  0.40182742852E+02  0.47000000000E+01 0.  1.
<mgrwt>
<rscale>  0 0.13149124E+03</rscale>
<asrwt>0</asrwt>
<pdfrwt beam="2">  1        5 0.26355624E-01 0.13149468E+03</pdfrwt>
<pdfrwt beam="1">  1       -5 0.15559854E-01 0.13149468E+03</pdfrwt>
<totfact> 0.36133879E+02</totfact>
</mgrwt>
</event>
<event>
 8    1  0.3682083E-007  0.1262143E+03  0.7546771E-02  0.1233188E+00
         -5   -1    0    0    0  501 -0.00000000000E+00  0.00000000000E+00  0.25620269344E+02  0.26047806074E+02  0.47000000000E+01 0. -1.
          5   -1    0    0  501    0  0.00000000000E+00 -0.00000000000E+00 -0.88320403632E+03  0.88321654184E+03  0.47000000000E+01 0. -1.
         25    2    1    2    0    0  0.13371976948E+02  0.11180546469E+02 -0.17886929792E+03  0.21891612804E+03  0.12500492387E+03 0.  0.
         25    2    1    2    0    0 -0.13371976948E+02 -0.11180546469E+02 -0.67871446906E+03  0.69034821987E+03  0.12499407899E+03 0.  0.
          5    1    4    4  502    0 -0.34943324766E+02  0.40645928243E+02 -0.16494157708E+03  0.17349622843E+03  0.47000000000E+01 0.  1.
         -5    1    4    4    0  502  0.21571347818E+02 -0.51826474712E+02 -0.51377289198E+03  0.51685199145E+03  0.47000000000E+01 0.  1.
          5    1    3    3  503    0  0.43978875190E+02 -0.41484258792E+02 -0.11803058017E+03  0.13269662033E+03  0.47000000000E+01 0. -1.
         -5    1    3    3    0  503 -0.30606898243E+02  0.52664805261E+02 -0.60838717742E+02  0.86219507709E+02  0.47000000000E+01 0. -1.
<mgrwt>
<rscale>  0 0.12621160E+03</rscale>
<asrwt>0</asrwt>
<pdfrwt beam="2">  1        5 0.13591137E+00 0.12621428E+03</pdfrwt>
<pdfrwt beam="1">  1       -5 0.39754300E-02 0.12621428E+03</pdfrwt>
<totfact> 0.97973388E+01</totfact>
</mgrwt>
</event>
<event>
 8    1  0.3682083E-007  0.1342052E+03  0.7546771E-02  0.1221346E+00
         -5   -1    0    0    0  501 -0.00000000000E+00  0.00000000000E+00  0.23664775273E+02  0.24126988804E+02  0.47000000000E+01 0.  1.
          5   -1    0    0  501    0  0.00000000000E+00 -0.00000000000E+00 -0.79986197372E+03  0.79987578223E+03  0.47000000000E+01 0.  1.
         25    2    1    2    0    0  0.15398702772E+02 -0.46358821742E+02 -0.28867904630E+03  0.31834974282E+03  0.12499882630E+03 0.  0.
         25    2    1    2    0    0 -0.15398702772E+02  0.46358821742E+02 -0.48751815214E+03  0.50565302822E+03  0.12499910351E+03 0.  0.
          5    1    4    4  502    0 -0.18988452423E+02  0.51728423783E+02 -0.75658952049E+02  0.93716370916E+02  0.47000000000E+01 0.  1.
         -5    1    4    4    0  502  0.35897496517E+01 -0.53696020413E+01 -0.41185920009E+03  0.41193665730E+03  0.47000000000E+01 0.  1.
          5    1    3    3  503    0  0.15555289175E+02  0.32572285179E+02 -0.27947179156E+02  0.45891781464E+02  0.47000000000E+01 0.  1.
         -5    1    3    3    0  503 -0.15658640300E+00 -0.78931106921E+02 -0.26073186715E+03  0.27245796135E+03  0.47000000000E+01 0.  1.
<mgrwt>
<rscale>  0 0.13420514E+03</rscale>
<asrwt>0</asrwt>
<pdfrwt beam="2">  1        5 0.12309229E+00 0.13420520E+03</pdfrwt>
<pdfrwt beam="1">  1       -5 0.36773523E-02 0.13420520E+03</pdfrwt>
<totfact> 0.14686682E+02</totfact>
</mgrwt>
</event>
<event>
 8    1  0.3682083E-007  0.1375129E+03  0.7546771E-02  0.1216722E+00
         -5   -1    0    0    0  501 -0.00000000000E+00  0.00000000000E+00  0.15667390386E+04  0.15667460882E+04  0.47000000000E+01 0.  1.
          5   -1    0    0  501    0  0.00000000000E+00 -0.00000000000E+00 -0.12052935331E+02  0.12936894917E+02  0.47000000000E+01 0.  1.
         25    2    1    2    0    0  0.70331110990E+01 -0.56864554969E+02  0.92446575537E+03  0.93463455011E+03  0.12498706792E+03 0.  0.
         25    2    1    2    0    0 -0.70331110990E+01  0.56864554969E+02  0.63022034785E+03  0.64504843302E+03  0.12500700712E+03 0.  0.
          5    1    3    3  502    0 -0.15098600387E+02 -0.45935208919E+01  0.76712501627E+03  0.76730173254E+03  0.47000000000E+01 0. -1.
         -5    1    3    3    0  502  0.22131711486E+02 -0.52271034077E+02  0.15734073910E+03  0.16733281757E+03  0.47000000000E+01 0. -1.
          5    1    4    4  503    0  0.54903456703E+02  0.51029946591E+02  0.34989823625E+03  0.35786772800E+03  0.47000000000E+01 0.  1.
         -5    1    4    4    0  503 -0.61936567802E+02  0.58346083781E+01  0.28032211160E+03  0.28718070502E+03  0.47000000000E+01 0.  1.
<mgrwt>
<rscale>  0 0.13750836E+03</rscale>
<asrwt>0</asrwt>
<pdfrwt beam="2">  1        5 0.19228380E-02 0.13751289E+03</pdfrwt>
<pdfrwt beam="1">  1       -5 0.24110518E+00 0.13751289E+03</pdfrwt>
<totfact> 0.58189848E+01</totfact>
</mgrwt>
</event>
<event>
 8    1  0.3682083E-007  0.1265773E+03  0.7546771E-02  0.1232625E+00
          5   -1    0    0  501    0  0.00000000000E+00  0.00000000000E+00  0.37076380361E+03  0.37079359227E+03  0.47000000000E+01 0. -1.
         -5   -1    0    0    0  501 -0.00000000000E+00 -0.00000000000E+00 -0.59598168585E+02  0.59783205825E+02  0.47000000000E+01 0. -1.
         25    2    1    2    0    0 -0.16275241110E+02 -0.11486079474E+02  0.42388525264E+02  0.13348598114E+03  0.12499962636E+03 0.  0.
         25    2    1    2    0    0  0.16275241110E+02  0.11486079474E+02  0.26877710976E+03  0.29709081695E+03  0.12500002117E+03 0.  0.
          5    1    3    3  502    0  0.52899001255E+02 -0.10997559930E+02  0.43666311677E+01  0.54409632658E+02  0.47000000000E+01 0.  1.
         -5    1    3    3    0  502 -0.69174242365E+02 -0.48851954349E+00  0.38021894097E+02  0.79076348479E+02  0.47000000000E+01 0.  1.
          5    1    4    4  503    0  0.62845707773E+02 -0.23837875805E+02  0.15752690051E+03  0.17133196343E+03  0.47000000000E+01 0.  1.
         -5    1    4    4    0  503 -0.46570466663E+02  0.35323955279E+02  0.11125020925E+03  0.12575885352E+03  0.47000000000E+01 0.  1.
<mgrwt>
<rscale>  0 0.12657723E+03</rscale>
<asrwt>0</asrwt>
<pdfrwt beam="1">  1        5 0.57057110E-01 0.12657732E+03</pdfrwt>
<pdfrwt beam="2">  1       -5 0.91854741E-02 0.12657732E+03</pdfrwt>
<totfact> 0.18789185E+02</totfact>
</mgrwt>
</event>
<event>
 8    1  0.3682083E-007  0.1294186E+03  0.7546771E-02  0.1228325E+00
          5   -1    0    0  501    0  0.00000000000E+00  0.00000000000E+00  0.83006652746E+02  0.83139607890E+02  0.47000000000E+01 0.  1.
         -5   -1    0    0    0  501 -0.00000000000E+00 -0.00000000000E+00 -0.20246663608E+03  0.20252118093E+03  0.47000000000E+01 0.  1.
         25    2    1    2    0    0  0.31844455710E+02  0.10394551688E+02 -0.69879368708E+02  0.14706994005E+03  0.12499730009E+03 0.  0.
         25    2    1    2    0    0 -0.31844455710E+02 -0.10394551688E+02 -0.49580614625E+02  0.13859084877E+03  0.12500827954E+03 0.  0.
          5    1    4    4  502    0 -0.59695277842E+02 -0.51492657655E+02 -0.23981622625E+02  0.82536223640E+02  0.47000000000E+01 0. -1.
         -5    1    4    4    0  502  0.27850822132E+02  0.41098105967E+02 -0.25598992001E+02  0.56054625135E+02  0.47000000000E+01 0. -1.
          5    1    3    3  503    0 -0.45788730713E+02 -0.65275750651E+01 -0.10224202739E+02  0.47600855226E+02  0.47000000000E+01 0.  1.
         -5    1    3    3    0  503  0.77633186424E+02  0.16922126753E+02 -0.59655165969E+02  0.99469084820E+02  0.47000000000E+01 0.  1.
<mgrwt>
<rscale>  0 0.12941599E+03</rscale>
<asrwt>0</asrwt>
<pdfrwt beam="1">  1        5 0.12784677E-01 0.12941865E+03</pdfrwt>
<pdfrwt beam="2">  1       -5 0.31163136E-01 0.12941865E+03</pdfrwt>
<totfact> 0.36895635E+02</totfact>
</mgrwt>
</event>
<event>
 8    1  0.3682083E-007  0.1371527E+03  0.7546771E-02  0.1217215E+00
          5   -1    0    0  501    0  0.00000000000E+00  0.00000000000E+00  0.71863534168E+02  0.72017064249E+02  0.47000000000E+01 0.  1.
         -5   -1    0    0    0  501 -0.00000000000E+00 -0.00000000000E+00 -0.28285114922E+03  0.28289019533E+03  0.47000000000E+01 0.  1.
         25    2    1    2    0    0 -0.32694895664E+02  0.46003481425E+02 -0.15447336589E+03  0.20657414332E+03  0.12500231763E+03 0.  0.
         25    2    1    2    0    0  0.32694895664E+02 -0.46003481425E+02 -0.56514249157E+02  0.14833311625E+03  0.12499430593E+03 0.  0.
          5    1    4    4  502    0  0.22229889246E+02  0.42134573033E+02 -0.14474785825E+02  0.50010995244E+02  0.47000000000E+01 0. -1.
         -5    1    4    4    0  502  0.10465006418E+02 -0.88138054458E+02 -0.42039463332E+02  0.98322121011E+02  0.47000000000E+01 0. -1.
          5    1    3    3  503    0 -0.68965858863E+02  0.29523031356E+02 -0.39729967975E+02  0.85020347121E+02  0.47000000000E+01 0.  1.
         -5    1    3    3    0  503  0.36270963199E+02  0.16480450069E+02 -0.11474339791E+03  0.12155379620E+03  0.47000000000E+01 0.  1.
<mgrwt>
<rscale>  0 0.13715085E+03</rscale>
<asrwt>0</asrwt>
<pdfrwt beam="1">  1        5 0.11070742E-01 0.13715267E+03</pdfrwt>
<pdfrwt beam="2">  1       -5 0.43530374E-01 0.13715267E+03</pdfrwt>
<totfact> 0.24738941E+02</totfact>
</mgrwt>
</event>
<event>
 8    1  0.3682083E-007  0.1274060E+03  0.7546771E-02  0.1231362E+00
          5   -1    0    0  501    0  0.00000000000E+00  0.00000000000E+00  0.71474355239E+02  0.71628719497E+02  0.47000000000E+01 0. -1.
         -5   -1    0    0    0  501 -0.00000000000E+00 -0.00000000000E+00 -0.24570403671E+03  0.24574898505E+03  0.47000000000E+01 0. -1.
         25    2    1    2    0    0  0.24556232070E+02  0.13736949446E+01 -0.13128443095E+03  0.18294233590E+03  0.12500960317E+03 0.  0.
         25    2    1    2    0    0 -0.24556232070E+02 -0.13736949446E+01 -0.42945250522E+02  0.13443536865E+03  0.12499471281E+03 0.  0.
          5    1    4    4  502    0  0.31158658804E+01 -0.35566096332E+02  0.31496612948E+02  0.47841221302E+02  0.47000000000E+01 0.  1.
         -5    1    4    4    0  502 -0.27672097951E+02  0.34192401388E+02 -0.74441863471E+02  0.86594147346E+02  0.47000000000E+01 0.  1.
          5    1    3    3  503    0  0.49860196125E+02 -0.32686224729E+01 -0.11445978773E+01  0.50200828228E+02  0.47000000000E+01 0.  1.
         -5    1    3    3    0  503 -0.25303964055E+02  0.46423174174E+01 -0.13013983307E+03  0.13274150767E+03  0.47000000000E+01 0.  1.
<mgrwt>
<rscale>  0 0.12740238E+03</rscale>
<asrwt>0</asrwt>
<pdfrwt beam="1">  1        5 0.11011386E-01 0.12740603E+03</pdfrwt>
<pdfrwt beam="2">  1       -5 0.37815952E-01 0.12740603E+03</pdfrwt>
<totfact> 0.32460217E+02</totfact>
</mgrwt>
</event>
<event>
 8    1  0.3682083E-007  0.1316195E+03  0.7546771E-02  0.1225077E+00
          5   -1    0    0  501    0  0.00000000000E+00  0.00000000000E+00  0.76834756834E+02  0.76978372662E+02  0.47000000000E+01 0.  1.
         -5   -1    0    0    0  501 -0.00000000000E+00 -0.00000000000E+00 -0.25171643839E+03  0.25176031330E+03  0.47000000000E+01 0.  1.
         25    2    1    2    0    0 -0.38610762948E+02 -0.14365678122E+02 -0.14090775731E+03  0.19281772724E+03  0.12500606443E+03 0.  0.
         25    2    1    2    0    0  0.38610762948E+02  0.14365678122E+02 -0.33973924238E+02  0.13592095872E+03  0.12499246284E+03 0.  0.
          5    1    3    3  502    0  0.18802725152E+02  0.40930823480E+02 -0.24031787773E+02  0.51268817106E+02  0.47000000000E+01 0. -1.
         -5    1    3    3    0  502 -0.57413488100E+02 -0.55296501603E+02 -0.11687596954E+03  0.14154891014E+03  0.47000000000E+01 0. -1.
          5    1    4    4  503    0 -0.15629235269E+02 -0.40471131375E+02  0.12946690146E+02  0.45518043188E+02  0.47000000000E+01 0.  1.
         -5    1    4    4    0  503  0.54239998217E+02  0.54836809498E+02 -0.46920614384E+02  0.90402915532E+02  0.47000000000E+01 0.  1.
<mgrwt>
<rscale>  0 0.13161622E+03</rscale>
<asrwt>0</asrwt>
<pdfrwt beam="1">  1        5 0.11835154E-01 0.13161945E+03</pdfrwt>
<pdfrwt beam="2">  1       -5 0.38740028E-01 0.13161945E+03</pdfrwt>
<totfact> 0.27541990E+02</totfact>
</mgrwt>
</event>
<event>
 8    1  0.3682083E-007  0.1474259E+03  0.7546771E-02  0.1203681E+00
          5   -1    0    0  501    0  0.00000000000E+00  0.00000000000E+00  0.91673406002E+02  0.91793808985E+02  0.47000000000E+01 0. -1.
         -5   -1    0    0    0  501 -0.00000000000E+00 -0.00000000000E+00 -0.24351861817E+03  0.24356396982E+03  0.47000000000E+01 0. -1.
         25    2    1    2    0    0  0.64503063996E+02  0.44136564265E+02 -0.10389940313E+03  0.18035932322E+03  0.12500287169E+03 0.  0.
         25    2    1    2    0    0 -0.64503063996E+02 -0.44136564265E+02 -0.47945809030E+02  0.15499845558E+03  0.12496815218E+03 0.  0.
          5    1    4    4  502    0 -0.28794351172E+02 -0.29766901586E+02  0.40691458956E+02  0.58250046536E+02  0.47000000000E+01 0.  1.
         -5    1    4    4    0  502 -0.35708712824E+02 -0.14369662679E+02 -0.88637267986E+02  0.96748409047E+02  0.47000000000E+01 0.  1.
          5    1    3    3  503    0  0.42964065103E+02 -0.26512333147E+02  0.24840052646E+01  0.50764899106E+02  0.47000000000E+01 0. -1.
         -5    1    3    3    0  503  0.21538998893E+02  0.70648897412E+02 -0.10638340840E+03  0.12959442411E+03  0.47000000000E+01 0. -1.
<mgrwt>
<rscale>  0 0.14741855E+03</rscale>
<asrwt>0</asrwt>
<pdfrwt beam="1">  1        5 0.14116351E-01 0.14742591E+03</pdfrwt>
<pdfrwt beam="2">  1       -5 0.37477153E-01 0.14742591E+03</pdfrwt>
<totfact> 0.22349664E+02</totfact>
</mgrwt>
</event>
<event>
 8    1  0.3682083E-007  0.1282754E+03  0.7546771E-02  0.1230053E+00
         -5   -1    0    0    0  501 -0.00000000000E+00  0.00000000000E+00  0.36518906363E+02  0.36820110293E+02  0.47000000000E+01 0.  1.
          5   -1    0    0  501    0  0.00000000000E+00 -0.00000000000E+00 -0.46321255471E+03  0.46323639844E+03  0.47000000000E+01 0.  1.
         25    2    1    2    0    0  0.23263249420E+02 -0.16734387112E+02 -0.16841341459E+03  0.21167608311E+03  0.12498986943E+03 0.  0.
         25    2    1    2    0    0 -0.23263249420E+02  0.16734387112E+02 -0.25828023375E+03  0.28838042562E+03  0.12503348452E+03 0.  0.
          5    1    4    4  502    0 -0.71446521968E+02  0.30651189796E+02 -0.15913656724E+03  0.17717403300E+03  0.47000000000E+01 0.  1.
         -5    1    4    4    0  502  0.48183272548E+02 -0.13916802684E+02 -0.99143666511E+02  0.11120639262E+03  0.47000000000E+01 0.  1.
          5    1    3    3  503    0 -0.63341329186E+01  0.27245602390E+02  0.62840213426E+01  0.29052074172E+02  0.47000000000E+01 0. -1.
         -5    1    3    3    0  503  0.29597382339E+02 -0.43979989502E+02 -0.17469743594E+03  0.18262400894E+03  0.47000000000E+01 0. -1.
<mgrwt>
<rscale>  0 0.12826482E+03</rscale>
<asrwt>0</asrwt>
<pdfrwt beam="2">  1        5 0.71288470E-01 0.12827545E+03</pdfrwt>
<pdfrwt beam="1">  1       -5 0.56432973E-02 0.12827545E+03</pdfrwt>
<totfact> 0.26415606E+02</totfact>
</mgrwt>
</event>
<event>
 8    1  0.3682083E-007  0.1351935E+03  0.7546771E-02  0.1219949E+00
          5   -1    0    0  501    0  0.00000000000E+00  0.00000000000E+00  0.16070190718E+03  0.16077062223E+03  0.47000000000E+01 0.  1.
         -5   -1    0    0    0  501 -0.00000000000E+00 -0.00000000000E+00 -0.12235712479E+03  0.12244736007E+03  0.47000000000E+01 0.  1.
         25    2    1    2    0    0  0.51477840888E+02  0.12923655812E+01 -0.18711580967E+02  0.13648227963E+03  0.12500260429E+03 0.  0.
         25    2    1    2    0    0 -0.51477840888E+02 -0.12923655812E+01  0.57056363356E+02  0.14673570267E+03  0.12499719807E+03 0.  0.
          5    1    4    4  502    0  0.28947657283E+02 -0.33738158395E+02  0.38160880197E+01  0.44865161560E+02  0.47000000000E+01 0. -1.
         -5    1    4    4    0  502 -0.80425498171E+02  0.32445792813E+02  0.53240275336E+02  0.10187054111E+03  0.47000000000E+01 0. -1.
          5    1    3    3  503    0  0.14444127815E+02 -0.38979168723E+02 -0.56150565480E+02  0.70021314086E+02  0.47000000000E+01 0. -1.
         -5    1    3    3    0  503  0.37033713073E+02  0.40271534304E+02  0.37438984513E+02  0.66460965540E+02  0.47000000000E+01 0. -1.
<mgrwt>
<rscale>  0 0.13519228E+03</rscale>
<asrwt>0</asrwt>
<pdfrwt beam="1">  1        5 0.24735597E-01 0.13519353E+03</pdfrwt>
<pdfrwt beam="2">  1       -5 0.18836400E-01 0.13519353E+03</pdfrwt>
<totfact> 0.29030797E+02</totfact>
</mgrwt>
</event>
<event>
 8    1  0.3682083E-007  0.1284594E+03  0.7546771E-02  0.1229765E+00
          5   -1    0    0  501    0  0.00000000000E+00  0.00000000000E+00  0.27416815224E+03  0.27420843478E+03  0.47000000000E+01 0.  1.
         -5   -1    0    0    0  501 -0.00000000000E+00 -0.00000000000E+00 -0.60675827801E+02  0.60857588510E+02  0.47000000000E+01 0.  1.
         25    2    1    2    0    0  0.18516573443E+02 -0.23064953647E+02  0.89708846876E+02  0.15668278124E+03  0.12500784435E+03 0.  0.
         25    2    1    2    0    0 -0.18516573443E+02  0.23064953647E+02  0.12378347756E+03  0.17838324205E+03  0.12499350442E+03 0.  0.
          5    1    4    4  502    0  0.31662121851E+02  0.56456288836E+02  0.83415310239E+02  0.10568825144E+03  0.47000000000E+01 0.  1.
         -5    1    4    4    0  502 -0.50178695295E+02 -0.33391335189E+02  0.40368167326E+02  0.72694990614E+02  0.47000000000E+01 0.  1.
          5    1    3    3  503    0 -0.47239016603E+02 -0.27248730424E+02  0.67693575767E+02  0.87054742544E+02  0.47000000000E+01 0. -1.
         -5    1    3    3    0  503  0.65755590046E+02  0.41837767765E+01  0.22015271109E+02  0.69628038694E+02  0.47000000000E+01 0. -1.
<mgrwt>
<rscale>  0 0.12845591E+03</rscale>
<asrwt>0</asrwt>
<pdfrwt beam="1">  1        5 0.42196795E-01 0.12845940E+03</pdfrwt>
<pdfrwt beam="2">  1       -5 0.93518231E-02 0.12845940E+03</pdfrwt>
<totfact> 0.34614918E+02</totfact>
</mgrwt>
</event>
<event>
 8    1  0.3682083E-007  0.1346756E+03  0.7546771E-02  0.1220679E+00
          5   -1    0    0  501    0  0.00000000000E+00  0.00000000000E+00  0.58054251149E+02  0.58244193500E+02  0.47000000000E+01 0.  1.
         -5   -1    0    0    0  501 -0.00000000000E+00 -0.00000000000E+00 -0.31213659237E+03  0.31217197551E+03  0.47000000000E+01 0.  1.
         25    2    1    2    0    0  0.38966832943E+02  0.31531809997E+02 -0.12015024871E+03  0.18048154741E+03  0.12499935032E+03 0.  0.
         25    2    1    2    0    0 -0.38966832943E+02 -0.31531809997E+02 -0.13393209251E+03  0.18993462160E+03  0.12499874387E+03 0.  0.
          5    1    3    3  502    0 -0.15196215329E+02  0.42345112920E+02 -0.11644974628E+03  0.12492664631E+03  0.47000000000E+01 0.  1.
         -5    1    3    3    0  502  0.54163048272E+02 -0.10813302923E+02 -0.37005024253E+01  0.55554901101E+02  0.47000000000E+01 0.  1.
          5    1    4    4  503    0 -0.95809556516E+01 -0.11222343654E+02 -0.14977687871E+03  0.15057536022E+03  0.47000000000E+01 0.  1.
         -5    1    4    4    0  503 -0.29385877291E+02 -0.20309466343E+02  0.15844786198E+02  0.39359261388E+02  0.47000000000E+01 0.  1.
<mgrwt>
<rscale>  0 0.13467542E+03</rscale>
<asrwt>0</asrwt>
<pdfrwt beam="1">  1        5 0.89487562E-02 0.13467556E+03</pdfrwt>
<pdfrwt beam="2">  1       -5 0.48038346E-01 0.13467556E+03</pdfrwt>
<totfact> 0.29007393E+02</totfact>
</mgrwt>
</event>
<event>
 8    1  0.3682083E-007  0.1323412E+03  0.7546771E-02  0.1224024E+00
         -5   -1    0    0    0  501 -0.00000000000E+00  0.00000000000E+00  0.36442048555E+02  0.36743882524E+02  0.47000000000E+01 0. -1.
          5   -1    0    0  501    0  0.00000000000E+00 -0.00000000000E+00 -0.57922419822E+03  0.57924326652E+03  0.47000000000E+01 0. -1.
         25    2    1    2    0    0 -0.36271439947E+02  0.23963120579E+02 -0.14285922171E+03  0.19473598188E+03  0.12499398748E+03 0.  0.
         25    2    1    2    0    0  0.36271439947E+02 -0.23963120579E+02 -0.39992292796E+03  0.42125116716E+03  0.12499739607E+03 0.  0.
          5    1    4    4  502    0  0.45339257824E+02  0.94624688056E+01 -0.45456888381E+02  0.65066161076E+02  0.47000000000E+01 0. -1.
         -5    1    4    4    0  502 -0.90678178772E+01 -0.33425589385E+02 -0.35446603958E+03  0.35618500609E+03  0.47000000000E+01 0. -1.
          5    1    3    3  503    0  0.31103935907E+02 -0.25916385959E+02 -0.80229539531E+02  0.89988793210E+02  0.47000000000E+01 0. -1.
         -5    1    3    3    0  503 -0.67375375854E+02  0.49879506538E+02 -0.62629682175E+02  0.10474718867E+03  0.47000000000E+01 0. -1.
<mgrwt>
<rscale>  0 0.13234041E+03</rscale>
<asrwt>0</asrwt>
<pdfrwt beam="2">  1        5 0.89136093E-01 0.13234122E+03</pdfrwt>
<pdfrwt beam="1">  1       -5 0.56311542E-02 0.13234122E+03</pdfrwt>
<totfact> 0.15999320E+02</totfact>
</mgrwt>
</event>
<event>
 8    1  0.3682083E-007  0.1298297E+03  0.7546771E-02  0.1227713E+00
          5   -1    0    0  501    0  0.00000000000E+00  0.00000000000E+00  0.19219859932E+03  0.19225605733E+03  0.47000000000E+01 0.  1.
         -5   -1    0    0    0  501 -0.00000000000E+00 -0.00000000000E+00 -0.10242770813E+03  0.10253548358E+03  0.47000000000E+01 0.  1.
         25    2    1    2    0    0 -0.25621910864E+02  0.23953446370E+02 -0.11224131299E+02  0.13031401784E+03  0.12500204884E+03 0.  0.
         25    2    1    2    0    0  0.25621910864E+02 -0.23953446370E+02  0.10099502248E+03  0.16447752307E+03  0.12499044411E+03 0.  0.
          5    1    3    3  502    0  0.23996192219E+02  0.61987152867E+02 -0.74425292436E-01  0.66635725408E+02  0.47000000000E+01 0. -1.
         -5    1    3    3    0  502 -0.49618103082E+02 -0.38033706497E+02 -0.11149706007E+02  0.63678292435E+02  0.47000000000E+01 0. -1.
          5    1    4    4  503    0 -0.25074379028E+02 -0.92669884623E+01 -0.19115327095E+02  0.33197700052E+02  0.47000000000E+01 0.  1.
         -5    1    4    4    0  503  0.50696289892E+02 -0.14686457907E+02  0.12011034958E+03  0.13127982301E+03  0.47000000000E+01 0.  1.
<mgrwt>
<rscale>  0 0.12982695E+03</rscale>
<asrwt>0</asrwt>
<pdfrwt beam="1">  1        5 0.29581726E-01 0.12982974E+03</pdfrwt>
<pdfrwt beam="2">  1       -5 0.15770819E-01 0.12982974E+03</pdfrwt>
<totfact> 0.28047319E+02</totfact>
</mgrwt>
</event>
<event>
 8    1  0.3682083E-007  0.1581889E+03  0.7546771E-02  0.1190758E+00
         -5   -1    0    0    0  501 -0.00000000000E+00  0.00000000000E+00  0.21750569816E+03  0.21755647251E+03  0.47000000000E+01 0. -1.
          5   -1    0    0  501    0  0.00000000000E+00 -0.00000000000E+00 -0.12766124856E+03  0.12774773730E+03  0.47000000000E+01 0. -1.
         25    2    1    2    0    0 -0.96016292646E+02  0.13365425557E+02  0.99404880572E+02  0.18682666077E+03  0.12500043135E+03 0.  0.
         25    2    1    2    0    0  0.96016292646E+02 -0.13365425557E+02 -0.95604309771E+01  0.15847754904E+03  0.12500387456E+03 0.  0.
          5    1    4    4  502    0  0.97581460884E+02  0.39290485828E+02 -0.60921885047E+01  0.10547553529E+03  0.47000000000E+01 0. -1.
         -5    1    4    4    0  502 -0.15651682381E+01 -0.52655911385E+02 -0.34682424725E+01  0.53002013747E+02  0.47000000000E+01 0. -1.
          5    1    3    3  503    0  0.25806904592E+02  0.80732731022E+00 -0.39070382764E+01  0.26533055800E+02  0.47000000000E+01 0.  1.
         -5    1    3    3    0  503 -0.12182319724E+03  0.12558098247E+02  0.10331191885E+03  0.16029360497E+03  0.47000000000E+01 0.  1.
<mgrwt>
<rscale>  0 0.15818823E+03</rscale>
<asrwt>0</asrwt>
<pdfrwt beam="2">  1        5 0.19650751E-01 0.15818891E+03</pdfrwt>
<pdfrwt beam="1">  1       -5 0.33472973E-01 0.15818891E+03</pdfrwt>
<totfact> 0.15654673E+02</totfact>
</mgrwt>
</event>
<event>
 8    1  0.3682083E-007  0.1369662E+03  0.7546771E-02  0.1217472E+00
         -5   -1    0    0    0  501 -0.00000000000E+00  0.00000000000E+00  0.76057839775E+03  0.76059291945E+03  0.47000000000E+01 0.  1.
          5   -1    0    0  501    0  0.00000000000E+00 -0.00000000000E+00 -0.26166259750E+02  0.26585017384E+02  0.47000000000E+01 0.  1.
         25    2    1    2    0    0  0.30605286629E+02 -0.46882933796E+02  0.46786238233E+03  0.48749724508E+03  0.12499464831E+03 0.  0.
         25    2    1    2    0    0 -0.30605286629E+02  0.46882933796E+02  0.26654975567E+03  0.29968069176E+03  0.12500020686E+03 0.  0.
          5    1    3    3  502    0  0.48477670765E+02  0.29911266394E+02  0.17060392578E+03  0.17992375583E+03  0.47000000000E+01 0. -1.
         -5    1    3    3    0  502 -0.17872384135E+02 -0.76794200190E+02  0.29725845655E+03  0.30757348925E+03  0.47000000000E+01 0. -1.
          5    1    4    4  503    0 -0.66287349629E+02 -0.74402306061E+01  0.17472523599E+03  0.18708385244E+03  0.47000000000E+01 0.  1.
         -5    1    4    4    0  503  0.35682062999E+02  0.54323164402E+02  0.91824519683E+02  0.11259683932E+03  0.47000000000E+01 0.  1.
<mgrwt>
<rscale>  0 0.13696495E+03</rscale>
<asrwt>0</asrwt>
<pdfrwt beam="2">  1        5 0.40589082E-02 0.13696622E+03</pdfrwt>
<pdfrwt beam="1">  1       -5 0.11704537E+00 0.13696622E+03</pdfrwt>
<totfact> 0.14300887E+02</totfact>
</mgrwt>
</event>
<event>
 8    1  0.3682083E-007  0.1824818E+03  0.7546771E-02  0.1165430E+00
          5   -1    0    0  501    0  0.00000000000E+00  0.00000000000E+00  0.80035828334E+03  0.80037208329E+03  0.47000000000E+01 0. -1.
         -5   -1    0    0    0  501 -0.00000000000E+00 -0.00000000000E+00 -0.44310524928E+02  0.44559091322E+02  0.47000000000E+01 0. -1.
         25    2    1    2    0    0 -0.11412926701E+03  0.68166561102E+02  0.27107284903E+03  0.32677221471E+03  0.12500968435E+03 0.  0.
         25    2    1    2    0    0  0.11412926701E+03 -0.68166561102E+02  0.48497490938E+03  0.51815895991E+03  0.12496349611E+03 0.  0.
          5    1    4    4  502    0 -0.13455009131E+02  0.18464041441E+02  0.11430725049E+03  0.11666274303E+03  0.47000000000E+01 0.  1.
         -5    1    4    4    0  502  0.12758427614E+03 -0.86630602543E+02  0.37066765889E+03  0.40149621687E+03  0.47000000000E+01 0.  1.
          5    1    3    3  503    0 -0.88603668117E+01  0.53767124119E+02  0.27987334616E+02  0.61439324825E+02  0.47000000000E+01 0. -1.
         -5    1    3    3    0  503 -0.10526890020E+03  0.14399436983E+02  0.24308551442E+03  0.26533288989E+03  0.47000000000E+01 0. -1.
<mgrwt>
<rscale>  0 0.18247384E+03</rscale>
<asrwt>0</asrwt>
<pdfrwt beam="1">  1        5 0.12315222E+00 0.18248175E+03</pdfrwt>
<pdfrwt beam="2">  1       -5 0.68371860E-02 0.18248175E+03</pdfrwt>
<totfact> 0.57194671E+01</totfact>
</mgrwt>
</event>
<event>
 8    1  0.3682083E-007  0.1448350E+03  0.7546771E-02  0.1206968E+00
          5   -1    0    0  501    0  0.00000000000E+00  0.00000000000E+00  0.33043978508E+02  0.33376556377E+02  0.47000000000E+01 0.  1.
         -5   -1    0    0    0  501 -0.00000000000E+00 -0.00000000000E+00 -0.66593049187E+03  0.66594707748E+03  0.47000000000E+01 0.  1.
         25    2    1    2    0    0 -0.72252863131E+02  0.11459916555E+02 -0.39615946653E+03  0.42180447843E+03  0.12499955672E+03 0.  0.
         25    2    1    2    0    0  0.72252863131E+02 -0.11459916555E+02 -0.23672704683E+03  0.27751915543E+03  0.12500152403E+03 0.  0.
          5    1    3    3  502    0 -0.39646953820E+02  0.66358336789E+02 -0.26101837635E+03  0.27226456361E+03  0.47000000000E+01 0.  1.
         -5    1    3    3    0  502 -0.32605909311E+02 -0.54898420234E+02 -0.13514109018E+03  0.14953991481E+03  0.47000000000E+01 0.  1.
          5    1    4    4  503    0  0.87548111929E+02 -0.21659926166E+01 -0.76948704336E+02  0.11667286113E+03  0.47000000000E+01 0. -1.
         -5    1    4    4    0  503 -0.15295248798E+02 -0.92939239380E+01 -0.15977834249E+03  0.16084629429E+03  0.47000000000E+01 0. -1.
<mgrwt>
<rscale>  0 0.14483461E+03</rscale>
<asrwt>0</asrwt>
<pdfrwt beam="1">  1        5 0.51105483E-02 0.14483503E+03</pdfrwt>
<pdfrwt beam="2">  1       -5 0.10247769E+00 0.14483503E+03</pdfrwt>
<totfact> 0.13845249E+02</totfact>
</mgrwt>
</event>
<event>
 8    1  0.3682083E-007  0.1405537E+03  0.7546771E-02  0.1212588E+00
         -5   -1    0    0    0  501 -0.00000000000E+00  0.00000000000E+00  0.18265860222E+03  0.18271906021E+03  0.47000000000E+01 0. -1.
          5   -1    0    0  501    0  0.00000000000E+00 -0.00000000000E+00 -0.10984748618E+03  0.10994798870E+03  0.47000000000E+01 0. -1.
         25    2    1    2    0    0 -0.57017053924E+02 -0.29649366666E+02  0.55267755014E+02  0.15102937977E+03  0.12500127771E+03 0.  0.
         25    2    1    2    0    0  0.57017053924E+02  0.29649366666E+02  0.17543361029E+02  0.14163766914E+03  0.12499372153E+03 0.  0.
          5    1    4    4  502    0  0.70529985341E+02  0.19529354354E+02 -0.38564739859E+02  0.82856524632E+02  0.47000000000E+01 0.  1.
         -5    1    4    4    0  502 -0.13512931416E+02  0.10120012312E+02  0.56108100888E+02  0.58781144510E+02  0.47000000000E+01 0.  1.
          5    1    3    3  503    0  0.88150520336E+01 -0.60084544783E+02  0.20398311078E+01  0.60943486732E+02  0.47000000000E+01 0. -1.
         -5    1    3    3    0  503 -0.65832105958E+02  0.30435178117E+02  0.53227923906E+02  0.90085893042E+02  0.47000000000E+01 0. -1.
<mgrwt>
<rscale>  0 0.14055204E+03</rscale>
<asrwt>0</asrwt>
<pdfrwt beam="2">  1        5 0.16911995E-01 0.14055372E+03</pdfrwt>
<pdfrwt beam="1">  1       -5 0.28113705E-01 0.14055372E+03</pdfrwt>
<totfact> 0.28029766E+02</totfact>
</mgrwt>
</event>
<event>
 8    1  0.3682083E-007  0.1381084E+03  0.7546771E-02  0.1215911E+00
         -5   -1    0    0    0  501 -0.00000000000E+00  0.00000000000E+00  0.11651675231E+03  0.11661150702E+03  0.47000000000E+01 0.  1.
          5   -1    0    0  501    0  0.00000000000E+00 -0.00000000000E+00 -0.20486980144E+03  0.20492370664E+03  0.47000000000E+01 0.  1.
         25    2    1    2    0    0  0.54551617201E+02  0.21636571838E+02  0.28080077584E+02  0.14089582045E+03  0.12497648292E+03 0.  0.
         25    2    1    2    0    0 -0.54551617201E+02 -0.21636571838E+02 -0.11643312671E+03  0.18063939322E+03  0.12501958729E+03 0.  0.
          5    1    3    3  502    0  0.13647113339E+02 -0.50356256527E+02  0.24639188848E+02  0.57889341859E+02  0.47000000000E+01 0.  1.
         -5    1    3    3    0  502  0.40904503862E+02  0.71992828364E+02  0.34408887366E+01  0.83006478587E+02  0.47000000000E+01 0.  1.
          5    1    4    4  503    0 -0.73074675912E+02 -0.43897553691E+02 -0.12380551009E+03  0.15038882209E+03  0.47000000000E+01 0. -1.
         -5    1    4    4    0  503  0.18523058711E+02  0.22260981853E+02  0.73723833780E+01  0.30250571131E+02  0.47000000000E+01 0. -1.
<mgrwt>
<rscale>  0 0.13809860E+03</rscale>
<asrwt>0</asrwt>
<pdfrwt beam="2">  1        5 0.31529866E-01 0.13810835E+03</pdfrwt>
<pdfrwt beam="1">  1       -5 0.17937090E-01 0.13810835E+03</pdfrwt>
<totfact> 0.19971335E+02</totfact>
</mgrwt>
</event>
<event>
 8    1  0.3682083E-007  0.1931022E+03  0.7546771E-02  0.1155700E+00
          5   -1    0    0  501    0  0.00000000000E+00  0.00000000000E+00  0.71826900004E+03  0.71828437713E+03  0.47000000000E+01 0.  1.
         -5   -1    0    0    0  501 -0.00000000000E+00 -0.00000000000E+00 -0.55177534873E+02  0.55377345139E+02  0.47000000000E+01 0.  1.
         25    2    1    2    0    0 -0.14305180594E+03 -0.34643952787E+02  0.23582329421E+03  0.30479677179E+03  0.12499769340E+03 0.  0.
         25    2    1    2    0    0  0.14305180594E+03  0.34643952787E+02  0.42726817097E+03  0.46886495048E+03  0.12494890642E+03 0.  0.
          5    1    3    3  502    0 -0.15970103806E+03 -0.87916788994E+01  0.21203715793E+03  0.26563802724E+03  0.47000000000E+01 0.  1.
         -5    1    3    3    0  502  0.16649232118E+02 -0.25852273887E+02  0.23786136277E+02  0.39158744544E+02  0.47000000000E+01 0.  1.
          5    1    4    4  503    0  0.12332079724E+03 -0.96787735042E+01  0.38478306909E+03  0.40420514340E+03  0.47000000000E+01 0. -1.
         -5    1    4    4    0  503  0.19731008708E+02  0.44322726291E+02  0.42485101872E+02  0.64659807079E+02  0.47000000000E+01 0. -1.
<mgrwt>
<rscale>  0 0.19309427E+03</rscale>
<asrwt>0</asrwt>
<pdfrwt beam="1">  1        5 0.11051947E+00 0.19310216E+03</pdfrwt>
<pdfrwt beam="2">  1       -5 0.85054046E-02 0.19310216E+03</pdfrwt>
<totfact> 0.52563526E+01</totfact>
</mgrwt>
</event>
<event>
 8    1  0.3682083E-007  0.1598168E+03  0.7546771E-02  0.1188905E+00
          5   -1    0    0  501    0  0.00000000000E+00  0.00000000000E+00  0.52821268237E+03  0.52823359209E+03  0.47000000000E+01 0.  1.
         -5   -1    0    0    0  501 -0.00000000000E+00 -0.00000000000E+00 -0.53349870284E+02  0.53556499692E+02  0.47000000000E+01 0.  1.
         25    2    1    2    0    0 -0.87686022196E+01 -0.99191440048E+02  0.14739754249E+03  0.21740718136E+03  0.12499606719E+03 0.  0.
         25    2    1    2    0    0  0.87686022196E+01  0.99191440048E+02  0.32746526959E+03  0.36438291042E+03  0.12500228979E+03 0.  0.
          5    1    3    3  502    0 -0.42622296675E+02  0.16517681670E+01  0.10870155145E+02  0.44267807544E+02  0.47000000000E+01 0. -1.
         -5    1    3    3    0  502  0.33853694455E+02 -0.10084320821E+03  0.13652738734E+03  0.17313937382E+03  0.47000000000E+01 0. -1.
          5    1    4    4  503    0 -0.18967094003E+02 -0.16827246379E+02  0.14870458543E+02  0.29767892315E+02  0.47000000000E+01 0.  1.
         -5    1    4    4    0  503  0.27735696222E+02  0.11601868643E+03  0.31259481105E+03  0.33461501810E+03  0.47000000000E+01 0.  1.
<mgrwt>
<rscale>  0 0.15981556E+03</rscale>
<asrwt>0</asrwt>
<pdfrwt beam="1">  1        5 0.81280995E-01 0.15981678E+03</pdfrwt>
<pdfrwt beam="2">  1       -5 0.82251751E-02 0.15981678E+03</pdfrwt>
<totfact> 0.11095963E+02</totfact>
</mgrwt>
</event>
<event>
 8    1  0.3682083E-007  0.1306324E+03  0.7546771E-02  0.1226521E+00
          5   -1    0    0  501    0  0.00000000000E+00  0.00000000000E+00  0.80759584715E+02  0.80896233060E+02  0.47000000000E+01 0. -1.
         -5   -1    0    0    0  501 -0.00000000000E+00 -0.00000000000E+00 -0.30203431541E+03  0.30207088189E+03  0.47000000000E+01 0. -1.
         25    2    1    2    0    0 -0.26466884510E+02  0.27186695708E+02 -0.21575354667E+03  0.25221807315E+03  0.12499900449E+03 0.  0.
         25    2    1    2    0    0  0.26466884510E+02 -0.27186695708E+02 -0.55211840264E+01  0.13074904180E+03  0.12500086424E+03 0.  0.
          5    1    3    3  502    0 -0.29672443998E+02  0.58946282838E+02 -0.48891877741E+02  0.82265569361E+02  0.47000000000E+01 0.  1.
         -5    1    3    3    0  502  0.32055594872E+01 -0.31759587130E+02 -0.16686166893E+03  0.16995250379E+03  0.47000000000E+01 0.  1.
          5    1    4    4  503    0  0.26070142637E+02 -0.51803277207E+02  0.45527699123E+02  0.73878909398E+02  0.47000000000E+01 0. -1.
         -5    1    4    4    0  503  0.39674187347E+00  0.24616581498E+02 -0.51048883149E+02  0.56870132403E+02  0.47000000000E+01 0. -1.
<mgrwt>
<rscale>  0 0.13063197E+03</rscale>
<asrwt>0</asrwt>
<pdfrwt beam="1">  1        5 0.12437876E-01 0.13063242E+03</pdfrwt>
<pdfrwt beam="2">  1       -5 0.46480141E-01 0.13063242E+03</pdfrwt>
<totfact> 0.17276160E+02</totfact>
</mgrwt>
</event>
<event>
 8    1  0.3682083E-007  0.1332087E+03  0.7546771E-02  0.1222778E+00
         -5   -1    0    0    0  501 -0.00000000000E+00  0.00000000000E+00  0.18897609030E+03  0.18903452781E+03  0.47000000000E+01 0.  1.
          5   -1    0    0  501    0  0.00000000000E+00 -0.00000000000E+00 -0.12314981843E+03  0.12323947330E+03  0.47000000000E+01 0.  1.
         25    2    1    2    0    0  0.25847038933E+02  0.38029612510E+02  0.10914714407E+03  0.17219811488E+03  0.12499908343E+03 0.  0.
         25    2    1    2    0    0 -0.25847038933E+02 -0.38029612510E+02 -0.43320872195E+02  0.14007588623E+03  0.12502093859E+03 0.  0.
          5    1    3    3  502    0  0.75386274701E+02  0.35132455824E+02  0.66268719228E+02  0.10644723112E+03  0.47000000000E+01 0.  1.
         -5    1    3    3    0  502 -0.49539235768E+02  0.28971566867E+01  0.42878424845E+02  0.65750883755E+02  0.47000000000E+01 0.  1.
          5    1    4    4  503    0  0.16529907273E+02 -0.18952783953E+02 -0.77877819617E+02  0.81972499305E+02  0.47000000000E+01 0. -1.
         -5    1    4    4    0  503 -0.42376946205E+02 -0.19076828558E+02  0.34556947421E+02  0.58103386929E+02  0.47000000000E+01 0. -1.
<mgrwt>
<rscale>  0 0.13320356E+03</rscale>
<asrwt>0</asrwt>
<pdfrwt beam="2">  1        5 0.18957518E-01 0.13320869E+03</pdfrwt>
<pdfrwt beam="1">  1       -5 0.29084636E-01 0.13320869E+03</pdfrwt>
<totfact> 0.20872491E+02</totfact>
</mgrwt>
</event>
<event>
 8    1  0.3682083E-007  0.1267003E+03  0.7546771E-02  0.1232439E+00
         -5   -1    0    0    0  501 -0.00000000000E+00  0.00000000000E+00  0.25212931082E+03  0.25217311390E+03  0.47000000000E+01 0.  1.
          5   -1    0    0  501    0  0.00000000000E+00 -0.00000000000E+00 -0.84730976812E+02  0.84861230438E+02  0.47000000000E+01 0.  1.
         25    2    1    2    0    0 -0.82595121524E+01 -0.18978395889E+02  0.16789949397E+03  0.21034067764E+03  0.12499824615E+03 0.  0.
         25    2    1    2    0    0  0.82595121524E+01  0.18978395889E+02 -0.50115996982E+00  0.12669366670E+03  0.12499053952E+03 0.  0.
          5    1    4    4  502    0  0.13458756897E+02 -0.30298991069E+02 -0.47580415315E+02  0.58182066984E+02  0.47000000000E+01 0. -1.
         -5    1    4    4    0  502 -0.51992447442E+01  0.49277386958E+02  0.47079255345E+02  0.68511599713E+02  0.47000000000E+01 0. -1.
          5    1    3    3  503    0  0.50229584212E+02  0.12875422556E+02  0.11105199851E+03  0.12265163679E+03  0.47000000000E+01 0.  1.
         -5    1    3    3    0  503 -0.58489096365E+02 -0.31853818446E+02  0.56847495470E+02  0.87689040845E+02  0.47000000000E+01 0.  1.
<mgrwt>
<rscale>  0 0.12669838E+03</rscale>
<asrwt>0</asrwt>
<pdfrwt beam="2">  1        5 0.13048924E-01 0.12670028E+03</pdfrwt>
<pdfrwt beam="1">  1       -5 0.38802514E-01 0.12670028E+03</pdfrwt>
<totfact> 0.22766670E+02</totfact>
</mgrwt>
</event>
<event>
 8    1  0.3682083E-007  0.1253384E+03  0.7546771E-02  0.1234543E+00
         -5   -1    0    0    0  501 -0.00000000000E+00  0.00000000000E+00  0.15258047830E+02  0.15965526098E+02  0.47000000000E+01 0.  1.
          5   -1    0    0  501    0  0.00000000000E+00 -0.00000000000E+00 -0.10371258106E+04  0.10371364602E+04  0.47000000000E+01 0.  1.
         25    2    1    2    0    0  0.90659668228E+01 -0.12970001810E+01 -0.41905791335E+03  0.43739960436E+03  0.12500002076E+03 0.  0.
         25    2    1    2    0    0 -0.90659668228E+01  0.12970001810E+01 -0.60280984943E+03  0.61570238191E+03  0.12500333821E+03 0.  0.
          5    1    4    4  502    0 -0.23356360221E+02  0.26858283048E+02 -0.57130872407E+03  0.57243570393E+03  0.47000000000E+01 0.  1.
         -5    1    4    4    0  502  0.14290393398E+02 -0.25561282867E+02 -0.31501125355E+02  0.43266677986E+02  0.47000000000E+01 0.  1.
          5    1    3    3  503    0 -0.22937892309E+02  0.75914282352E+01 -0.93651967411E+01  0.26335785469E+02  0.47000000000E+01 0.  1.
         -5    1    3    3    0  503  0.32003859132E+02 -0.88884284162E+01 -0.40969271661E+03  0.41106381889E+03  0.47000000000E+01 0.  1.
<mgrwt>
<rscale>  0 0.12533755E+03</rscale>
<asrwt>0</asrwt>
<pdfrwt beam="2">  1        5 0.15961300E+00 0.12533838E+03</pdfrwt>
<pdfrwt beam="1">  1       -5 0.24026334E-02 0.12533838E+03</pdfrwt>
<totfact> 0.14266483E+02</totfact>
</mgrwt>
</event>
<event>
 8    1  0.3682083E-007  0.1689587E+03  0.7546771E-02  0.1178943E+00
         -5   -1    0    0    0  501 -0.00000000000E+00  0.00000000000E+00  0.52123435507E+03  0.52125554472E+03  0.47000000000E+01 0. -1.
          5   -1    0    0  501    0  0.00000000000E+00 -0.00000000000E+00 -0.10485851304E+03  0.10496379260E+03  0.47000000000E+01 0. -1.
         25    2    1    2    0    0 -0.17078634601E+02 -0.11235664316E+03  0.42469919337E+03  0.45707380080E+03  0.12502543543E+03 0.  0.
         25    2    1    2    0    0  0.17078634601E+02  0.11235664316E+03 -0.83233513393E+01  0.16914553652E+03  0.12500095730E+03 0.  0.
          5    1    4    4  502    0 -0.16257698594E+02  0.11736650447E+03  0.25357510395E+02  0.12126129831E+03  0.47000000000E+01 0.  1.
         -5    1    4    4    0  502  0.33336333196E+02 -0.50098613123E+01 -0.33680861734E+02  0.47884238205E+02  0.47000000000E+01 0.  1.
          5    1    3    3  503    0 -0.60954192338E+02 -0.49993125747E+02  0.12554141458E+03  0.14831541713E+03  0.47000000000E+01 0. -1.
         -5    1    3    3    0  503  0.43875557737E+02 -0.62363517413E+02  0.29915777879E+03  0.30875838367E+03  0.47000000000E+01 0. -1.
<mgrwt>
<rscale>  0 0.16895421E+03</rscale>
<asrwt>0</asrwt>
<pdfrwt beam="2">  1        5 0.16141807E-01 0.16895874E+03</pdfrwt>
<pdfrwt beam="1">  1       -5 0.80199629E-01 0.16895874E+03</pdfrwt>
<totfact> 0.35182102E+01</totfact>
</mgrwt>
</event>
<event>
 8    1  0.3682083E-007  0.1280536E+03  0.7546771E-02  0.1230375E+00
         -5   -1    0    0    0  501 -0.00000000000E+00  0.00000000000E+00  0.13151313758E+03  0.13159709479E+03  0.47000000000E+01 0. -1.
          5   -1    0    0  501    0  0.00000000000E+00 -0.00000000000E+00 -0.12488772617E+03  0.12497613431E+03  0.47000000000E+01 0. -1.
         25    2    1    2    0    0 -0.72102858117E+01 -0.26837510313E+02 -0.37318013164E+01  0.12810143519E+03  0.12499524461E+03 0.  0.
         25    2    1    2    0    0  0.72102858117E+01  0.26837510313E+02  0.10357212730E+02  0.12847179391E+03  0.12500195916E+03 0.  0.
          5    1    3    3  502    0  0.74701605565E+01 -0.74221733014E+02 -0.16754419666E+02  0.76599409454E+02  0.47000000000E+01 0.  1.
         -5    1    3    3    0  502 -0.14680446368E+02  0.47384222701E+02  0.13022618349E+02  0.51502025739E+02  0.47000000000E+01 0.  1.
          5    1    4    4  503    0  0.32781965642E+02  0.32936212191E+02  0.57627902001E+02  0.74178948724E+02  0.47000000000E+01 0. -1.
         -5    1    4    4    0  503 -0.25571679830E+02 -0.60987018778E+01 -0.47270689271E+02  0.54292845183E+02  0.47000000000E+01 0. -1.
<mgrwt>
<rscale>  0 0.12805198E+03</rscale>
<asrwt>0</asrwt>
<pdfrwt beam="2">  1        5 0.19226755E-01 0.12805362E+03</pdfrwt>
<pdfrwt beam="1">  1       -5 0.20246049E-01 0.12805362E+03</pdfrwt>
<totfact> 0.40012818E+02</totfact>
</mgrwt>
</event>
<event>
 8    1  0.3682083E-007  0.1397635E+03  0.7546771E-02  0.1213650E+00
         -5   -1    0    0    0  501 -0.00000000000E+00  0.00000000000E+00  0.57457727088E+03  0.57459649339E+03  0.47000000000E+01 0.  1.
          5   -1    0    0  501    0  0.00000000000E+00 -0.00000000000E+00 -0.34314372287E+02  0.34634753434E+02  0.47000000000E+01 0.  1.
         25    2    1    2    0    0  0.53796563599E+02 -0.31828669324E+02  0.23348641248E+03  0.27212081793E+03  0.12500680097E+03 0.  0.
         25    2    1    2    0    0 -0.53796563599E+02  0.31828669324E+02  0.30677648611E+03  0.33711042889E+03  0.12499797755E+03 0.  0.
          5    1    3    3  502    0  0.77161895621E+02 -0.18314587800E+02  0.23138337755E+03  0.24464206439E+03  0.47000000000E+01 0.  1.
         -5    1    3    3    0  502 -0.23365332022E+02 -0.13514081524E+02  0.21030349317E+01  0.27478753536E+02  0.47000000000E+01 0.  1.
          5    1    4    4  503    0 -0.82575672103E+01  0.64321374887E+02  0.24567892590E+03  0.25413707190E+03  0.47000000000E+01 0.  1.
         -5    1    4    4    0  503 -0.45538996389E+02 -0.32492705563E+02  0.61097560213E+02  0.82973356994E+02  0.47000000000E+01 0.  1.
<mgrwt>
<rscale>  0 0.13976152E+03</rscale>
<asrwt>0</asrwt>
<pdfrwt beam="2">  1        5 0.53052580E-02 0.13976350E+03</pdfrwt>
<pdfrwt beam="1">  1       -5 0.88422620E-01 0.13976350E+03</pdfrwt>
<totfact> 0.18339516E+02</totfact>
</mgrwt>
</event>
<event>
 8    1  0.3682083E-007  0.1632695E+03  0.7546771E-02  0.1185054E+00
         -5   -1    0    0    0  501 -0.00000000000E+00  0.00000000000E+00  0.62512976180E+02  0.62689410517E+02  0.47000000000E+01 0. -1.
          5   -1    0    0  501    0  0.00000000000E+00 -0.00000000000E+00 -0.46065814859E+03  0.46068212453E+03  0.47000000000E+01 0. -1.
         25    2    1    2    0    0  0.10384166214E+03  0.15744791167E+02 -0.27121872323E+03  0.31656994566E+03  0.12500378162E+03 0.  0.
         25    2    1    2    0    0 -0.10384166214E+03 -0.15744791167E+02 -0.12692644918E+03  0.20680158940E+03  0.12500233850E+03 0.  0.
          5    1    3    3  502    0  0.57783443926E+02 -0.31849566540E+02 -0.22786485964E+03  0.23727158604E+03  0.47000000000E+01 0. -1.
         -5    1    3    3    0  502  0.46058218211E+02  0.47594357707E+02 -0.43353863587E+02  0.79298359619E+02  0.47000000000E+01 0. -1.
          5    1    4    4  503    0 -0.94850143138E+02  0.18654381907E+02 -0.13863476274E+03  0.16907460796E+03  0.47000000000E+01 0. -1.
         -5    1    4    4    0  503 -0.89915189994E+01 -0.34399173074E+02  0.11708313552E+02  0.37726981436E+02  0.47000000000E+01 0. -1.
<mgrwt>
<rscale>  0 0.16326924E+03</rscale>
<asrwt>0</asrwt>
<pdfrwt beam="2">  1        5 0.70885898E-01 0.16326952E+03</pdfrwt>
<pdfrwt beam="1">  1       -5 0.96327974E-02 0.16326952E+03</pdfrwt>
<totfact> 0.11627157E+02</totfact>
</mgrwt>
</event>
<event>
 8    1  0.3682083E-007  0.1289114E+03  0.7546771E-02  0.1229083E+00
         -5   -1    0    0    0  501 -0.00000000000E+00  0.00000000000E+00  0.21443995761E+02  0.21953016973E+02  0.47000000000E+01 0.  1.
          5   -1    0    0  501    0  0.00000000000E+00 -0.00000000000E+00 -0.91298813763E+03  0.91300023519E+03  0.47000000000E+01 0.  1.
         25    2    1    2    0    0 -0.31212618331E+02 -0.40096925656E+01 -0.25779952010E+03  0.28823044489E+03  0.12500356644E+03 0.  0.
         25    2    1    2    0    0  0.31212618331E+02  0.40096925656E+01 -0.63374462177E+03  0.64672280727E+03  0.12501135406E+03 0.  0.
          5    1    4    4  502    0 -0.16856516832E+02 -0.27859687613E+02 -0.49894027855E+03  0.50002379534E+03  0.47000000000E+01 0.  1.
         -5    1    4    4    0  502  0.48069135163E+02  0.31869380178E+02 -0.13480434323E+03  0.14669901193E+03  0.47000000000E+01 0.  1.
          5    1    3    3  503    0  0.43836011528E+01 -0.16529528581E+02  0.81913362079E+01  0.19535333707E+02  0.47000000000E+01 0. -1.
         -5    1    3    3    0  503 -0.35596219483E+02  0.12519836016E+02 -0.26599085631E+03  0.26869511118E+03  0.47000000000E+01 0. -1.
<mgrwt>
<rscale>  0 0.12890949E+03</rscale>
<asrwt>0</asrwt>
<pdfrwt beam="2">  1        5 0.14049977E+00 0.12891138E+03</pdfrwt>
<pdfrwt beam="1">  1       -5 0.33391630E-02 0.12891138E+03</pdfrwt>
<totfact> 0.12004079E+02</totfact>
</mgrwt>
</event>
<event>
 8    1  0.3682083E-007  0.1433456E+03  0.7546771E-02  0.1208915E+00
         -5   -1    0    0    0  501 -0.00000000000E+00  0.00000000000E+00  0.25995076638E+02  0.26416548022E+02  0.47000000000E+01 0. -1.
          5   -1    0    0  501    0  0.00000000000E+00 -0.00000000000E+00 -0.81382011261E+03  0.81383368429E+03  0.47000000000E+01 0. -1.
         25    2    1    2    0    0 -0.18971134043E+02 -0.67461290392E+02 -0.31274250118E+03  0.34402882880E+03  0.12504812423E+03 0.  0.
         25    2    1    2    0    0  0.18971134043E+02  0.67461290392E+02 -0.47508253479E+03  0.49622140351E+03  0.12498534639E+03 0.  0.
          5    1    3    3  502    0  0.17003406058E+02 -0.90012917519E+02 -0.15043311473E+03  0.17619209161E+03  0.47000000000E+01 0. -1.
         -5    1    3    3    0  502 -0.35974540101E+02  0.22551627127E+02 -0.16230938644E+03  0.16783673719E+03  0.47000000000E+01 0. -1.
          5    1    4    4  503    0 -0.42313561346E+02  0.52673229878E+02 -0.14367436682E+03  0.15883740208E+03  0.47000000000E+01 0. -1.
         -5    1    4    4    0  503  0.61284695389E+02  0.14788060513E+02 -0.33140816797E+03  0.33738400143E+03  0.47000000000E+01 0. -1.
<mgrwt>
<rscale>  0 0.14333191E+03</rscale>
<asrwt>0</asrwt>
<pdfrwt beam="2">  1        5 0.12523654E+00 0.14334561E+03</pdfrwt>
<pdfrwt beam="1">  1       -5 0.40327080E-02 0.14334561E+03</pdfrwt>
<totfact> 0.12335193E+02</totfact>
</mgrwt>
</event>
<event>
 8    1  0.3682083E-007  0.1441788E+03  0.7546771E-02  0.1207814E+00
          5   -1    0    0  501    0  0.00000000000E+00  0.00000000000E+00  0.24124775030E+03  0.24129352877E+03  0.47000000000E+01 0.  1.
         -5   -1    0    0    0  501 -0.00000000000E+00 -0.00000000000E+00 -0.93621976358E+02  0.93739876558E+02  0.47000000000E+01 0.  1.
         25    2    1    2    0    0  0.64272551220E+01  0.71555495674E+02  0.26209398721E+02  0.14654082980E+03  0.12500313455E+03 0.  0.
         25    2    1    2    0    0 -0.64272551220E+01 -0.71555495674E+02  0.12141637523E+03  0.18849257553E+03  0.12500406509E+03 0.  0.
          5    1    3    3  502    0  0.52008440000E+02  0.20559888613E+02  0.48784225829E+02  0.74361129233E+02  0.47000000000E+01 0. -1.
         -5    1    3    3    0  502 -0.45581184878E+02  0.50995607060E+02 -0.22574827108E+02  0.72179700563E+02  0.47000000000E+01 0. -1.
          5    1    4    4  503    0 -0.19292086652E+02 -0.74006445391E+02  0.14333504717E+03  0.16253050272E+03  0.47000000000E+01 0.  1.
         -5    1    4    4    0  503  0.12864831530E+02  0.24509497168E+01 -0.21918671947E+02  0.25962072813E+02  0.47000000000E+01 0.  1.
<mgrwt>
<rscale>  0 0.14417856E+03</rscale>
<asrwt>0</asrwt>
<pdfrwt beam="1">  1        5 0.37127630E-01 0.14417876E+03</pdfrwt>
<pdfrwt beam="2">  1       -5 0.14415971E-01 0.14417876E+03</pdfrwt>
<totfact> 0.21769258E+02</totfact>
</mgrwt>
</event>
<event>
 8    1  0.3682083E-007  0.1285631E+03  0.7546771E-02  0.1229604E+00
          5   -1    0    0  501    0  0.00000000000E+00  0.00000000000E+00  0.42659841959E+03  0.42662430967E+03  0.47000000000E+01 0.  1.
         -5   -1    0    0    0  501 -0.00000000000E+00 -0.00000000000E+00 -0.40936132728E+02  0.41205059916E+02  0.47000000000E+01 0.  1.
         25    2    1    2    0    0 -0.11043237616E+02 -0.27958848454E+02  0.13685612945E+03  0.18777050634E+03  0.12499805029E+03 0.  0.
         25    2    1    2    0    0  0.11043237616E+02  0.27958848454E+02  0.24880615741E+03  0.28005886325E+03  0.12499925045E+03 0.  0.
          5    1    3    3  502    0 -0.27325862207E+02 -0.70772006920E+02  0.54891749004E+02  0.93758060014E+02  0.47000000000E+01 0.  1.
         -5    1    3    3    0  502  0.16282624591E+02  0.42813158466E+02  0.81964380447E+02  0.94012446322E+02  0.47000000000E+01 0.  1.
          5    1    4    4  503    0  0.16185673269E+00 -0.27631442832E+02  0.20850705825E+03  0.21038252344E+03  0.47000000000E+01 0.  1.
         -5    1    4    4    0  503  0.10881380884E+02  0.55590291286E+02  0.40299099167E+02  0.69676339807E+02  0.47000000000E+01 0.  1.
<mgrwt>
<rscale>  0 0.12856278E+03</rscale>
<asrwt>0</asrwt>
<pdfrwt beam="1">  1        5 0.65653203E-01 0.12856307E+03</pdfrwt>
<pdfrwt beam="2">  1       -5 0.63205450E-02 0.12856307E+03</pdfrwt>
<totfact> 0.26285870E+02</totfact>
</mgrwt>
</event>
<event>
 8    1  0.3682083E-007  0.1531209E+03  0.7546771E-02  0.1196694E+00
          5   -1    0    0  501    0  0.00000000000E+00  0.00000000000E+00  0.99911312182E+02  0.10002179913E+03  0.47000000000E+01 0.  1.
         -5   -1    0    0    0  501 -0.00000000000E+00 -0.00000000000E+00 -0.23715948043E+03  0.23720604789E+03  0.47000000000E+01 0.  1.
         25    2    1    2    0    0 -0.69141462566E+02 -0.55129156802E+02 -0.50387125337E+02  0.16119820484E+03  0.12500493218E+03 0.  0.
         25    2    1    2    0    0  0.69141462566E+02  0.55129156802E+02 -0.86861042908E+02  0.17602964219E+03  0.12498731287E+03 0.  0.
          5    1    4    4  502    0  0.87514203401E+02  0.14467975881E+02 -0.13230444011E+02  0.89806418321E+02  0.47000000000E+01 0. -1.
         -5    1    4    4    0  502 -0.18372740835E+02  0.40661180921E+02 -0.73630598896E+02  0.86223223864E+02  0.47000000000E+01 0. -1.
          5    1    3    3  503    0 -0.72158770234E+02  0.20637488605E+02 -0.37888809114E+02  0.84204785575E+02  0.47000000000E+01 0. -1.
         -5    1    3    3    0  503  0.30173076682E+01 -0.75766645407E+02 -0.12498316223E+02  0.76993419265E+02  0.47000000000E+01 0. -1.
<mgrwt>
<rscale>  0 0.15311727E+03</rscale>
<asrwt>0</asrwt>
<pdfrwt beam="1">  1        5 0.15383052E-01 0.15312086E+03</pdfrwt>
<pdfrwt beam="2">  1       -5 0.36498155E-01 0.15312086E+03</pdfrwt>
<totfact> 0.20437562E+02</totfact>
</mgrwt>
</event>
<event>
 8    1  0.3682083E-007  0.1351850E+03  0.7546771E-02  0.1219964E+00
         -5   -1    0    0    0  501 -0.00000000000E+00  0.00000000000E+00  0.71426142033E+02  0.71580610263E+02  0.47000000000E+01 0.  1.
          5   -1    0    0  501    0  0.00000000000E+00 -0.00000000000E+00 -0.35825618108E+03  0.35828700965E+03  0.47000000000E+01 0.  1.
         25    2    1    2    0    0  0.50822395411E+02  0.82121665930E+01 -0.28272903071E+02  0.13810991683E+03  0.12499854608E+03 0.  0.
         25    2    1    2    0    0 -0.50822395411E+02 -0.82121665930E+01 -0.25855713598E+03  0.29175770309E+03  0.12498163540E+03 0.  0.
          5    1    4    4  502    0  0.19192829607E+02  0.33744516675E+01 -0.19604581496E+03  0.19706801667E+03  0.47000000000E+01 0. -1.
         -5    1    4    4    0  502 -0.70015225019E+02 -0.11586618261E+02 -0.62511321021E+02  0.94689686412E+02  0.47000000000E+01 0. -1.
          5    1    3    3  503    0 -0.49338450532E+01 -0.35119253465E+02 -0.52306335711E+02  0.63369926199E+02  0.47000000000E+01 0.  1.
         -5    1    3    3    0  503  0.55756240464E+02  0.43331420058E+02  0.24033432640E+02  0.74739990630E+02  0.47000000000E+01 0.  1.
<mgrwt>
<rscale>  0 0.13518112E+03</rscale>
<asrwt>0</asrwt>
<pdfrwt beam="2">  1        5 0.55130588E-01 0.13518503E+03</pdfrwt>
<pdfrwt beam="1">  1       -5 0.11002891E-01 0.13518503E+03</pdfrwt>
<totfact> 0.15109652E+02</totfact>
</mgrwt>
</event>
<event>
 8    1  0.3682083E-007  0.1333496E+03  0.7546771E-02  0.1222575E+00
          5   -1    0    0  501    0  0.00000000000E+00  0.00000000000E+00  0.44119398786E+03  0.44121902149E+03  0.47000000000E+01 0. -1.
         -5   -1    0    0    0  501 -0.00000000000E+00 -0.00000000000E+00 -0.41701286863E+02  0.41965310985E+02  0.47000000000E+01 0. -1.
         25    2    1    2    0    0  0.23637814663E+02  0.39956131462E+02  0.24637408571E+03  0.28013895244E+03  0.12498961492E+03 0.  0.
         25    2    1    2    0    0 -0.23637814663E+02 -0.39956131462E+02  0.15311861528E+03  0.20304538003E+03  0.12500750891E+03 0.  0.
          5    1    3    3  502    0 -0.33063134666E+02  0.10956185744E+02  0.19510400232E+03  0.19824447181E+03  0.47000000000E+01 0.  1.
         -5    1    3    3    0  502  0.56700949328E+02  0.28999945719E+02  0.51270083391E+02  0.81894480628E+02  0.47000000000E+01 0.  1.
          5    1    4    4  503    0 -0.41714650041E+02 -0.79268762399E+02  0.98879915856E+02  0.13350272087E+03  0.47000000000E+01 0. -1.
         -5    1    4    4    0  503  0.18076835378E+02  0.39312630936E+02  0.54238699423E+02  0.69542659163E+02  0.47000000000E+01 0. -1.
<mgrwt>
<rscale>  0 0.13334541E+03</rscale>
<asrwt>0</asrwt>
<pdfrwt beam="1">  1        5 0.67898230E-01 0.13334960E+03</pdfrwt>
<pdfrwt beam="2">  1       -5 0.64378181E-02 0.13334960E+03</pdfrwt>
<totfact> 0.23951638E+02</totfact>
</mgrwt>
</event>
<event>
 8    1  0.3682083E-007  0.1454424E+03  0.7546771E-02  0.1206190E+00
         -5   -1    0    0    0  501 -0.00000000000E+00  0.00000000000E+00  0.44945248747E+03  0.44947706114E+03  0.47000000000E+01 0. -1.
          5   -1    0    0  501    0  0.00000000000E+00 -0.00000000000E+00 -0.52599829873E+02  0.52809394076E+02  0.47000000000E+01 0. -1.
         25    2    1    2    0    0  0.68410023222E+02  0.29138256344E+02  0.28075855196E+03  0.31619150573E+03  0.12499093781E+03 0.  0.
         25    2    1    2    0    0 -0.68410023222E+02 -0.29138256344E+02  0.11609410564E+03  0.18609494949E+03  0.12499807840E+03 0.  0.
          5    1    3    3  502    0 -0.18091042113E+02 -0.32683759115E+02  0.55615834106E+02  0.67161930570E+02  0.47000000000E+01 0.  1.
         -5    1    3    3    0  502  0.86501065335E+02  0.61822015459E+02  0.22514271785E+03  0.24902957516E+03  0.47000000000E+01 0.  1.
          5    1    4    4  503    0 -0.95612526697E+02 -0.51418269766E+02  0.76250341416E+02  0.13274712160E+03  0.47000000000E+01 0. -1.
         -5    1    4    4    0  503  0.27202503475E+02  0.22280013423E+02  0.39843764222E+02  0.53347827892E+02  0.47000000000E+01 0. -1.
<mgrwt>
<rscale>  0 0.14544086E+03</rscale>
<asrwt>0</asrwt>
<pdfrwt beam="2">  1        5 0.81102924E-02 0.14544239E+03</pdfrwt>
<pdfrwt beam="1">  1       -5 0.69164545E-01 0.14544239E+03</pdfrwt>
<totfact> 0.15961326E+02</totfact>
</mgrwt>
</event>
<event>
 8    1  0.3682083E-007  0.1517654E+03  0.7546771E-02  0.1198321E+00
         -5   -1    0    0    0  501 -0.00000000000E+00  0.00000000000E+00  0.40629220449E+02  0.40900165700E+02  0.47000000000E+01 0. -1.
          5   -1    0    0  501    0  0.00000000000E+00 -0.00000000000E+00 -0.56930305138E+03  0.56932245196E+03  0.47000000000E+01 0. -1.
         25    2    1    2    0    0 -0.19883836460E+02  0.83730442025E+02 -0.23699186692E+03  0.28142120715E+03  0.12500638772E+03 0.  0.
         25    2    1    2    0    0  0.19883836460E+02 -0.83730442025E+02 -0.29168196401E+03  0.32880141052E+03  0.12500338218E+03 0.  0.
          5    1    4    4  502    0 -0.46291750057E+02 -0.84857153145E+01 -0.60504368404E+02  0.76797148930E+02  0.47000000000E+01 0. -1.
         -5    1    4    4    0  502  0.66175586517E+02 -0.75244726711E+02 -0.23117759560E+03  0.25200426159E+03  0.47000000000E+01 0. -1.
          5    1    3    3  503    0 -0.68210171604E+02  0.67932774942E+02 -0.18469976792E+03  0.20833526751E+03  0.47000000000E+01 0. -1.
         -5    1    3    3    0  503  0.48326335145E+02  0.15797667083E+02 -0.52292099008E+02  0.73085939636E+02  0.47000000000E+01 0. -1.
<mgrwt>
<rscale>  0 0.15176483E+03</rscale>
<asrwt>0</asrwt>
<pdfrwt beam="2">  1        5 0.87607413E-01 0.15176545E+03</pdfrwt>
<pdfrwt beam="1">  1       -5 0.62729840E-02 0.15176545E+03</pdfrwt>
<totfact> 0.14533996E+02</totfact>
</mgrwt>
</event>
<event>
 8    1  0.3682083E-007  0.1340547E+03  0.7546771E-02  0.1221561E+00
         -5   -1    0    0    0  501 -0.00000000000E+00  0.00000000000E+00  0.26731758747E+03  0.26735890217E+03  0.47000000000E+01 0. -1.
          5   -1    0    0  501    0  0.00000000000E+00 -0.00000000000E+00 -0.69454377638E+02  0.69613221252E+02  0.47000000000E+01 0. -1.
         25    2    1    2    0    0 -0.27028858631E+02  0.40170374561E+02  0.12993553056E+03  0.18669203811E+03  0.12500582707E+03 0.  0.
         25    2    1    2    0    0  0.27028858631E+02 -0.40170374561E+02  0.67927679269E+02  0.15028008531E+03  0.12500286492E+03 0.  0.
          5    1    4    4  502    0  0.22354933494E+02 -0.32720749769E+02 -0.31198271131E+02  0.50653851172E+02  0.47000000000E+01 0. -1.
         -5    1    4    4    0  502  0.46739251369E+01 -0.74496247917E+01  0.99125950401E+02  0.99626234138E+02  0.47000000000E+01 0. -1.
          5    1    3    3  503    0  0.30675274507E+02 -0.29945315292E+02  0.41535802754E+02  0.59874930350E+02  0.47000000000E+01 0. -1.
         -5    1    3    3    0  503 -0.57704133138E+02  0.70115689853E+02  0.88399727811E+02  0.12681710776E+03  0.47000000000E+01 0. -1.
<mgrwt>
<rscale>  0 0.13405406E+03</rscale>
<asrwt>0</asrwt>
<pdfrwt beam="2">  1        5 0.10700686E-01 0.13405475E+03</pdfrwt>
<pdfrwt beam="1">  1       -5 0.41141179E-01 0.13405475E+03</pdfrwt>
<totfact> 0.29275645E+02</totfact>
</mgrwt>
</event>
<event>
 8    1  0.3682083E-007  0.1405320E+03  0.7546771E-02  0.1212617E+00
          5   -1    0    0  501    0  0.00000000000E+00  0.00000000000E+00  0.14295569727E+04  0.14295646988E+04  0.47000000000E+01 0. -1.
         -5   -1    0    0    0  501 -0.00000000000E+00 -0.00000000000E+00 -0.13447817836E+02  0.14245483655E+02  0.47000000000E+01 0. -1.
         25    2    1    2    0    0  0.63952911735E+02 -0.58381889105E+01  0.66917722848E+03  0.68377298713E+03  0.12499310158E+03 0.  0.
         25    2    1    2    0    0 -0.63952911735E+02  0.58381889105E+01  0.74693192636E+03  0.76003719535E+03  0.12500070532E+03 0.  0.
          5    1    3    3  502    0 -0.16409965788E+02 -0.46830634759E+02  0.21551390390E+03  0.22120291161E+03  0.47000000000E+01 0. -1.
         -5    1    3    3    0  502  0.80362877524E+02  0.40992445848E+02  0.45366332457E+03  0.46257007552E+03  0.47000000000E+01 0. -1.
          5    1    4    4  503    0 -0.46654166089E+02  0.63680365805E+02  0.37995558218E+03  0.38809809924E+03  0.47000000000E+01 0. -1.
         -5    1    4    4    0  503 -0.17298745646E+02 -0.57842176894E+02  0.36697634418E+03  0.37193909612E+03  0.47000000000E+01 0. -1.
<mgrwt>
<rscale>  0 0.14053028E+03</rscale>
<asrwt>0</asrwt>
<pdfrwt beam="1">  1        5 0.21999361E+00 0.14053197E+03</pdfrwt>
<pdfrwt beam="2">  1       -5 0.21308500E-02 0.14053197E+03</pdfrwt>
<totfact> 0.68009196E+01</totfact>
</mgrwt>
</event>
<event>
 8    1  0.3682083E-007  0.1264737E+03  0.7546771E-02  0.1232789E+00
         -5   -1    0    0    0  501 -0.00000000000E+00  0.00000000000E+00  0.64394349135E+02  0.64565642571E+02  0.47000000000E+01 0.  1.
          5   -1    0    0  501    0  0.00000000000E+00 -0.00000000000E+00 -0.25075544319E+03  0.25079948622E+03  0.47000000000E+01 0.  1.
         25    2    1    2    0    0 -0.26161027646E+01 -0.19040420831E+02 -0.76223378925E+02  0.14766721736E+03  0.12500488778E+03 0.  0.
         25    2    1    2    0    0  0.26161027646E+01  0.19040420831E+02 -0.11013771513E+03  0.16769791143E+03  0.12499156605E+03 0.  0.
          5    1    4    4  502    0 -0.37710053475E+02 -0.11776000197E+02 -0.10973707627E+03  0.11672633902E+03  0.47000000000E+01 0.  1.
         -5    1    4    4    0  502  0.40326156240E+02  0.30816421028E+02 -0.40063885952E+00  0.50971572406E+02  0.47000000000E+01 0.  1.
          5    1    3    3  503    0 -0.32250401142E+02  0.42132146197E+02 -0.54367936305E+02  0.76112867605E+02  0.47000000000E+01 0.  1.
         -5    1    3    3    0  503  0.29634298378E+02 -0.61172567028E+02 -0.21855442620E+02  0.71554349758E+02  0.47000000000E+01 0.  1.
<mgrwt>
<rscale>  0 0.12647043E+03</rscale>
<asrwt>0</asrwt>
<pdfrwt beam="2">  1        5 0.38594324E-01 0.12647373E+03</pdfrwt>
<pdfrwt beam="1">  1       -5 0.99233874E-02 0.12647373E+03</pdfrwt>
<totfact> 0.37261573E+02</totfact>
</mgrwt>
</event>
<event>
 8    1  0.3682083E-007  0.1462681E+03  0.7546771E-02  0.1205139E+00
          5   -1    0    0  501    0  0.00000000000E+00  0.00000000000E+00  0.86672015923E+03  0.86673290258E+03  0.47000000000E+01 0.  1.
         -5   -1    0    0    0  501 -0.00000000000E+00 -0.00000000000E+00 -0.27282981721E+02  0.27684853107E+02  0.47000000000E+01 0.  1.
         25    2    1    2    0    0 -0.65111461839E+02  0.39100586189E+02  0.27665565698E+03  0.31294203597E+03  0.12500402808E+03 0.  0.
         25    2    1    2    0    0  0.65111461839E+02 -0.39100586189E+02  0.56278152053E+03  0.58147571972E+03  0.12499045750E+03 0.  0.
          5    1    3    3  502    0 -0.94861937500E+02  0.11430665414E+02  0.23865082209E+03  0.25711038909E+03  0.47000000000E+01 0. -1.
         -5    1    3    3    0  502  0.29750475661E+02  0.27669920775E+02  0.38004834890E+02  0.55831646875E+02  0.47000000000E+01 0. -1.
          5    1    4    4  503    0 -0.20070413857E+02 -0.54801637665E+02  0.26017114317E+03  0.26667799823E+03  0.47000000000E+01 0. -1.
         -5    1    4    4    0  503  0.85181875695E+02  0.15701051477E+02  0.30261037736E+03  0.31479772148E+03  0.47000000000E+01 0. -1.
<mgrwt>
<rscale>  0 0.14626523E+03</rscale>
<asrwt>0</asrwt>
<pdfrwt beam="1">  1        5 0.13337345E+00 0.14626813E+03</pdfrwt>
<pdfrwt beam="2">  1       -5 0.42292753E-02 0.14626813E+03</pdfrwt>
<totfact> 0.97444734E+01</totfact>
</mgrwt>
</event>
<event>
 8    1  0.3682083E-007  0.1463320E+03  0.7546771E-02  0.1205055E+00
          5   -1    0    0  501    0  0.00000000000E+00  0.00000000000E+00  0.31942605450E+02  0.32286530364E+02  0.47000000000E+01 0. -1.
         -5   -1    0    0    0  501 -0.00000000000E+00 -0.00000000000E+00 -0.71035263978E+03  0.71036818823E+03  0.47000000000E+01 0. -1.
         25    2    1    2    0    0 -0.70663150502E+02 -0.28175861841E+02 -0.43154026878E+03  0.45567434845E+03  0.12499979289E+03 0.  0.
         25    2    1    2    0    0  0.70663150502E+02  0.28175861841E+02 -0.24686976555E+03  0.28698037014E+03  0.12500356665E+03 0.  0.
          5    1    3    3  502    0  0.12914754447E+02  0.24604253843E+02 -0.26375965870E+02  0.38599763797E+02  0.47000000000E+01 0.  1.
         -5    1    3    3    0  502 -0.83577904949E+02 -0.52780115684E+02 -0.40516430291E+03  0.41707458465E+03  0.47000000000E+01 0.  1.
          5    1    4    4  503    0 -0.81644024321E+00  0.62428389691E+02 -0.14406758584E+03  0.15708446678E+03  0.47000000000E+01 0. -1.
         -5    1    4    4    0  503  0.71479590745E+02 -0.34252527850E+02 -0.10280217971E+03  0.12989590336E+03  0.47000000000E+01 0. -1.
<mgrwt>
<rscale>  0 0.14633119E+03</rscale>
<asrwt>0</asrwt>
<pdfrwt beam="1">  1        5 0.49418993E-02 0.14633199E+03</pdfrwt>
<pdfrwt beam="2">  1       -5 0.10931266E+00 0.14633199E+03</pdfrwt>
<totfact> 0.12520042E+02</totfact>
</mgrwt>
</event>
<event>
 8    1  0.3682083E-007  0.1594752E+03  0.7546771E-02  0.1189291E+00
         -5   -1    0    0    0  501 -0.00000000000E+00  0.00000000000E+00  0.88892365224E+02  0.89016529898E+02  0.47000000000E+01 0.  1.
          5   -1    0    0  501    0  0.00000000000E+00 -0.00000000000E+00 -0.43585738758E+03  0.43588272770E+03  0.47000000000E+01 0.  1.
         25    2    1    2    0    0  0.42563773477E+02 -0.89416312081E+02 -0.19495268096E+02  0.16066199331E+03  0.12500103574E+03 0.  0.
         25    2    1    2    0    0 -0.42563773477E+02  0.89416312081E+02 -0.32746975426E+03  0.36423726430E+03  0.12500157226E+03 0.  0.
          5    1    3    3  502    0 -0.41078852131E+02 -0.48526344357E+02  0.59531680316E+01  0.64029746202E+02  0.47000000000E+01 0.  1.
         -5    1    3    3    0  502  0.83642625608E+02 -0.40889967724E+02 -0.25448436128E+02  0.96632247104E+02  0.47000000000E+01 0.  1.
          5    1    4    4  503    0 -0.48180182127E+02  0.11721415477E+03 -0.29356805189E+03  0.31978864758E+03  0.47000000000E+01 0. -1.
         -5    1    4    4    0  503  0.56164086498E+01 -0.27797842692E+02 -0.33901702374E+02  0.44448616719E+02  0.47000000000E+01 0. -1.
<mgrwt>
<rscale>  0 0.15947511E+03</rscale>
<asrwt>0</asrwt>
<pdfrwt beam="2">  1        5 0.67066482E-01 0.15947522E+03</pdfrwt>
<pdfrwt beam="1">  1       -5 0.13687249E-01 0.15947522E+03</pdfrwt>
<totfact> 0.70220841E+01</totfact>
</mgrwt>
</event>
<event>
 8    1  0.3682083E-007  0.1273158E+03  0.7546771E-02  0.1231505E+00
          5   -1    0    0  501    0  0.00000000000E+00  0.00000000000E+00  0.17071770406E+03  0.17078238925E+03  0.47000000000E+01 0.  1.
         -5   -1    0    0    0  501 -0.00000000000E+00 -0.00000000000E+00 -0.12821962272E+03  0.12830573507E+03  0.47000000000E+01 0.  1.
         25    2    1    2    0    0 -0.25727752622E+01  0.24007248255E+02 -0.55068108909E+02  0.13868711395E+03  0.12497460468E+03 0.  0.
         25    2    1    2    0    0  0.25727752622E+01 -0.24007248255E+02  0.97566190247E+02  0.16040101037E+03  0.12500542191E+03 0.  0.
          5    1    3    3  502    0  0.39784797783E+02 -0.12803655434E+02  0.18577526833E+02  0.45978018991E+02  0.47000000000E+01 0.  1.
         -5    1    3    3    0  502 -0.42357573045E+02  0.36810903690E+02 -0.73645635742E+02  0.92709094961E+02  0.47000000000E+01 0.  1.
          5    1    4    4  503    0 -0.18199197177E+02 -0.60807740094E+02  0.99187062812E+02  0.11785141264E+03  0.47000000000E+01 0. -1.
         -5    1    4    4    0  503  0.20771972439E+02  0.36800491839E+02 -0.16208725644E+01  0.42549597724E+02  0.47000000000E+01 0. -1.
<mgrwt>
<rscale>  0 0.12730827E+03</rscale>
<asrwt>0</asrwt>
<pdfrwt beam="1">  1        5 0.26275862E-01 0.12731584E+03</pdfrwt>
<pdfrwt beam="2">  1       -5 0.19737696E-01 0.12731584E+03</pdfrwt>
<totfact> 0.23203711E+02</totfact>
</mgrwt>
</event>
<event>
 8    1  0.3682083E-007  0.1264530E+03  0.7546771E-02  0.1232816E+00
         -5   -1    0    0    0  501 -0.00000000000E+00  0.00000000000E+00  0.59402621889E+02  0.59588266356E+02  0.47000000000E+01 0. -1.
          5   -1    0    0  501    0  0.00000000000E+00 -0.00000000000E+00 -0.27058858987E+03  0.27062940522E+03  0.47000000000E+01 0. -1.
         25    2    1    2    0    0 -0.55795907693E+01  0.18269827654E+02 -0.91301531718E+02  0.15596889996E+03  0.12500163849E+03 0.  0.
         25    2    1    2    0    0  0.55795907693E+01 -0.18269827654E+02 -0.11988443626E+03  0.17424877161E+03  0.12500175164E+03 0.  0.
          5    1    3    3  502    0 -0.41699486260E+02  0.41096648966E+02 -0.42580940387E+01  0.58889753569E+02  0.47000000000E+01 0.  1.
         -5    1    3    3    0  502  0.36119895491E+02 -0.22826821311E+02 -0.87043437679E+02  0.97079146394E+02  0.47000000000E+01 0.  1.
          5    1    4    4  503    0  0.27263587165E+02  0.97876647753E+01 -0.13296271994E+03  0.13616268380E+03  0.47000000000E+01 0. -1.
         -5    1    4    4    0  503 -0.21683996396E+02 -0.28057492430E+02  0.13078283670E+02  0.38086087813E+02  0.47000000000E+01 0. -1.
<mgrwt>
<rscale>  0 0.12645295E+03</rscale>
<asrwt>0</asrwt>
<pdfrwt beam="2">  1        5 0.41646433E-01 0.12645298E+03</pdfrwt>
<pdfrwt beam="1">  1       -5 0.91562851E-02 0.12645298E+03</pdfrwt>
<totfact> 0.36674880E+02</totfact>
</mgrwt>
</event>
<event>
 8    1  0.3682083E-007  0.1683188E+03  0.7546771E-02  0.1179613E+00
          5   -1    0    0  501    0  0.00000000000E+00  0.00000000000E+00  0.18094113400E+02  0.18694569792E+02  0.47000000000E+01 0. -1.
         -5   -1    0    0    0  501 -0.00000000000E+00 -0.00000000000E+00 -0.16629251235E+04  0.16629317654E+04  0.47000000000E+01 0. -1.
         25    2    1    2    0    0 -0.43224983939E+02  0.10410461535E+03 -0.10513433223E+04  0.10647318006E+04  0.12499942333E+03 0.  0.
         25    2    1    2    0    0  0.43224983939E+02 -0.10410461535E+03 -0.59348768782E+03  0.61689453454E+03  0.12500024392E+03 0.  0.
          5    1    4    4  502    0  0.11842866496E+01 -0.11959529152E+03 -0.48222577652E+03  0.49685835590E+03  0.47000000000E+01 0. -1.
         -5    1    4    4    0  502  0.42040697290E+02  0.15490676167E+02 -0.11126191129E+03  0.12003617864E+03  0.47000000000E+01 0. -1.
          5    1    3    3  503    0 -0.83547214464E+02  0.81202282656E+02 -0.85598042913E+03  0.86388571745E+03  0.47000000000E+01 0. -1.
         -5    1    3    3    0  503  0.40322230525E+02  0.22902332692E+02 -0.19536289313E+03  0.20084608318E+03  0.47000000000E+01 0. -1.
<mgrwt>
<rscale>  0 0.16831869E+03</rscale>
<asrwt>0</asrwt>
<pdfrwt beam="1">  1        5 0.28304109E-02 0.16831884E+03</pdfrwt>
<pdfrwt beam="2">  1       -5 0.25588121E+00 0.16831884E+03</pdfrwt>
<totfact> 0.26587333E+01</totfact>
</mgrwt>
</event>
<event>
 8    1  0.3682083E-007  0.1325358E+03  0.7546771E-02  0.1223741E+00
         -5   -1    0    0    0  501 -0.00000000000E+00  0.00000000000E+00  0.67996998305E+03  0.67998622622E+03  0.47000000000E+01 0.  1.
          5   -1    0    0  501    0  0.00000000000E+00 -0.00000000000E+00 -0.26780420420E+02  0.27189720812E+02  0.47000000000E+01 0.  1.
         25    2    1    2    0    0  0.36070659040E+02 -0.25302398336E+02  0.40015683082E+03  0.42153438345E+03  0.12499777347E+03 0.  0.
         25    2    1    2    0    0 -0.36070659040E+02  0.25302398336E+02  0.25303273181E+03  0.28564156358E+03  0.12499694266E+03 0.  0.
          5    1    4    4  502    0 -0.17153389242E+02 -0.26846260862E+02  0.64380479664E+01  0.32840507706E+02  0.47000000000E+01 0. -1.
         -5    1    4    4    0  502 -0.18917269798E+02  0.52148659198E+02  0.24659468384E+03  0.25280105587E+03  0.47000000000E+01 0. -1.
          5    1    3    3  503    0 -0.23924756605E+02 -0.39893203932E+02  0.61453524773E+02  0.77217144505E+02  0.47000000000E+01 0.  1.
         -5    1    3    3    0  503  0.59995415645E+02  0.14590805596E+02  0.33870330605E+03  0.34431723895E+03  0.47000000000E+01 0.  1.
<mgrwt>
<rscale>  0 0.13253564E+03</rscale>
<asrwt>0</asrwt>
<pdfrwt beam="2">  1        5 0.41527990E-02 0.13253583E+03</pdfrwt>
<pdfrwt beam="1">  1       -5 0.10464349E+00 0.13253583E+03</pdfrwt>
<totfact> 0.18008463E+02</totfact>
</mgrwt>
</event>
<event>
 8    1  0.3682083E-007  0.1709978E+03  0.7546771E-02  0.1176812E+00
         -5   -1    0    0    0  501 -0.00000000000E+00  0.00000000000E+00  0.13378967716E+04  0.13379050271E+04  0.47000000000E+01 0.  1.
          5   -1    0    0  501    0  0.00000000000E+00 -0.00000000000E+00 -0.30880197512E+02  0.31235822358E+02  0.47000000000E+01 0.  1.
         25    2    1    2    0    0  0.14604193387E+02  0.11577611956E+03  0.10262732467E+04  0.10404215562E+04  0.12499138154E+03 0.  0.
         25    2    1    2    0    0 -0.14604193387E+02 -0.11577611956E+03  0.28074332743E+03  0.32871929323E+03  0.12498866158E+03 0.  0.
          5    1    4    4  502    0  0.17778306855E+01 -0.75198604073E+02  0.27402243040E+03  0.28419777110E+03  0.47000000000E+01 0. -1.
         -5    1    4    4    0  502 -0.16382024073E+02 -0.40577515490E+02  0.67208970261E+01  0.44521522131E+02  0.47000000000E+01 0. -1.
          5    1    3    3  503    0  0.22351851629E+02 -0.22042933694E+02  0.14912578903E+03  0.15246667554E+03  0.47000000000E+01 0.  1.
         -5    1    3    3    0  503 -0.77476582413E+01  0.13781905326E+03  0.87714745767E+03  0.88795488070E+03  0.47000000000E+01 0.  1.
<mgrwt>
<rscale>  0 0.17099727E+03</rscale>
<asrwt>0</asrwt>
<pdfrwt beam="2">  1        5 0.47787899E-02 0.17099777E+03</pdfrwt>
<pdfrwt beam="1">  1       -5 0.20585829E+00 0.17099777E+03</pdfrwt>
<totfact> 0.23921086E+01</totfact>
</mgrwt>
</event>
<event>
 8    1  0.3682083E-007  0.1360724E+03  0.7546771E-02  0.1218717E+00
         -5   -1    0    0    0  501 -0.00000000000E+00  0.00000000000E+00  0.49886333323E+02  0.50107247504E+02  0.47000000000E+01 0. -1.
          5   -1    0    0  501    0  0.00000000000E+00 -0.00000000000E+00 -0.37499005990E+03  0.37501951286E+03  0.47000000000E+01 0. -1.
         25    2    1    2    0    0  0.21664776147E+02 -0.49204588206E+02 -0.13822911062E+03  0.19396056823E+03  0.12499184366E+03 0.  0.
         25    2    1    2    0    0 -0.21664776147E+02  0.49204588206E+02 -0.18687461596E+03  0.23116619213E+03  0.12500092907E+03 0.  0.
          5    1    4    4  502    0 -0.62629663989E+02  0.39725789730E+01 -0.14185164139E+03  0.15518451714E+03  0.47000000000E+01 0.  1.
         -5    1    4    4    0  502  0.40964887842E+02  0.45232009233E+02 -0.45022974572E+02  0.75981674991E+02  0.47000000000E+01 0.  1.
          5    1    3    3  503    0 -0.53565714856E+01  0.16143781495E+02 -0.11931018043E+03  0.12060814107E+03  0.47000000000E+01 0.  1.
         -5    1    3    3    0  503  0.27021347633E+02 -0.65348369701E+02 -0.18918930187E+02  0.73352427158E+02  0.47000000000E+01 0.  1.
<mgrwt>
<rscale>  0 0.13607027E+03</rscale>
<asrwt>0</asrwt>
<pdfrwt beam="2">  1        5 0.57710036E-01 0.13607236E+03</pdfrwt>
<pdfrwt beam="1">  1       -5 0.76940797E-02 0.13607236E+03</pdfrwt>
<totfact> 0.25497620E+02</totfact>
</mgrwt>
</event>
<event>
 8    1  0.3682083E-007  0.1443877E+03  0.7546771E-02  0.1207547E+00
         -5   -1    0    0    0  501 -0.00000000000E+00  0.00000000000E+00  0.75406651814E+02  0.75552982323E+02  0.47000000000E+01 0.  1.
          5   -1    0    0  501    0  0.00000000000E+00 -0.00000000000E+00 -0.30166574837E+03  0.30170235952E+03  0.47000000000E+01 0.  1.
         25    2    1    2    0    0 -0.17252608348E+02  0.70178246501E+02 -0.58150459618E+02  0.15565757228E+03  0.12500066030E+03 0.  0.
         25    2    1    2    0    0  0.17252608348E+02 -0.70178246501E+02 -0.16810863694E+03  0.22159776957E+03  0.12498967512E+03 0.  0.
          5    1    4    4  502    0  0.47144700294E+02  0.12459763400E+02 -0.96183590522E+02  0.10794091697E+03  0.47000000000E+01 0. -1.
         -5    1    4    4    0  502 -0.29892091946E+02 -0.82638009901E+02 -0.71925046420E+02  0.11365685260E+03  0.47000000000E+01 0. -1.
          5    1    3    3  503    0 -0.54359788001E+01 -0.29284445610E+02  0.12866713244E+02  0.32783699149E+02  0.47000000000E+01 0. -1.
         -5    1    3    3    0  503 -0.11816629547E+02  0.99462692112E+02 -0.71017172862E+02  0.12287387313E+03  0.47000000000E+01 0. -1.
<mgrwt>
<rscale>  0 0.14438531E+03</rscale>
<asrwt>0</asrwt>
<pdfrwt beam="2">  1        5 0.46424187E-01 0.14438769E+03</pdfrwt>
<pdfrwt beam="1">  1       -5 0.11615096E-01 0.14438769E+03</pdfrwt>
<totfact> 0.20222427E+02</totfact>
</mgrwt>
</event>
<event>
 8    1  0.3682083E-007  0.1250834E+03  0.7546771E-02  0.1234953E+00
          5   -1    0    0  501    0  0.00000000000E+00  0.00000000000E+00  0.24412949755E+02  0.24861257324E+02  0.47000000000E+01 0.  1.
         -5   -1    0    0    0  501 -0.00000000000E+00 -0.00000000000E+00 -0.67243950917E+03  0.67245593424E+03  0.47000000000E+01 0.  1.
         25    2    1    2    0    0 -0.39538412714E+01 -0.21603347446E+01 -0.40693228980E+03  0.42572260412E+03  0.12500218906E+03 0.  0.
         25    2    1    2    0    0  0.39538412714E+01  0.21603347446E+01 -0.24109426962E+03  0.27159458745E+03  0.12496748849E+03 0.  0.
          5    1    3    3  502    0  0.38630021716E+02  0.11680252947E+02 -0.35360341682E+03  0.35593001176E+03  0.47000000000E+01 0.  1.
         -5    1    3    3    0  502 -0.42583862987E+02 -0.13840587691E+02 -0.53328872979E+02  0.69792592356E+02  0.47000000000E+01 0.  1.
          5    1    4    4  503    0 -0.25801765765E+02  0.47747988903E+02 -0.54081517810E+02  0.76762634983E+02  0.47000000000E+01 0. -1.
         -5    1    4    4    0  503  0.29755607037E+02 -0.45587654158E+02 -0.18701275181E+03  0.19483195246E+03  0.47000000000E+01 0. -1.
<mgrwt>
<rscale>  0 0.12507469E+03</rscale>
<asrwt>0</asrwt>
<pdfrwt beam="1">  1        5 0.37915876E-02 0.12508336E+03</pdfrwt>
<pdfrwt beam="2">  1       -5 0.10348797E+00 0.12508336E+03</pdfrwt>
<totfact> 0.21048548E+02</totfact>
</mgrwt>
</event>
<event>
 8    1  0.3682083E-007  0.1743365E+03  0.7546771E-02  0.1173402E+00
         -5   -1    0    0    0  501 -0.00000000000E+00  0.00000000000E+00  0.27552354469E+02  0.27950353071E+02  0.47000000000E+01 0. -1.
          5   -1    0    0  501    0  0.00000000000E+00 -0.00000000000E+00 -0.11179689733E+04  0.11179788527E+04  0.47000000000E+01 0. -1.
         25    2    1    2    0    0 -0.11070183958E+03 -0.50093272498E+02 -0.46263265476E+03  0.49439073328E+03  0.12501596166E+03 0.  0.
         25    2    1    2    0    0  0.11070183958E+03  0.50093272498E+02 -0.62778396402E+03  0.65153847252E+03  0.12500176981E+03 0.  0.
          5    1    3    3  502    0 -0.70831545505E+02 -0.91359283966E+02 -0.33371238636E+03  0.35319919792E+03  0.47000000000E+01 0. -1.
         -5    1    3    3    0  502 -0.39870294072E+02  0.41266011467E+02 -0.12892026840E+03  0.14119153536E+03  0.47000000000E+01 0. -1.
          5    1    4    4  503    0  0.43581960383E+02  0.69939178742E+02 -0.49022315693E+03  0.49712343496E+03  0.47000000000E+01 0.  1.
         -5    1    4    4    0  503  0.67119879193E+02 -0.19845906244E+02 -0.13756080709E+03  0.15441503756E+03  0.47000000000E+01 0.  1.
<mgrwt>
<rscale>  0 0.17433398E+03</rscale>
<asrwt>0</asrwt>
<pdfrwt beam="2">  1        5 0.17202657E+00 0.17433652E+03</pdfrwt>
<pdfrwt beam="1">  1       -5 0.42701999E-02 0.17433652E+03</pdfrwt>
<totfact> 0.49982708E+01</totfact>
</mgrwt>
</event>
<event>
 8    1  0.3682083E-007  0.1462357E+03  0.7546771E-02  0.1205177E+00
          5   -1    0    0  501    0  0.00000000000E+00  0.00000000000E+00  0.17073867159E+03  0.17080334885E+03  0.47000000000E+01 0. -1.
         -5   -1    0    0    0  501 -0.00000000000E+00 -0.00000000000E+00 -0.12757900284E+03  0.12766554729E+03  0.47000000000E+01 0. -1.
         25    2    1    2    0    0 -0.72286409963E+02  0.23127554219E+02  0.85792338326E+00  0.14623780438E+03  0.12499820226E+03 0.  0.
         25    2    1    2    0    0  0.72286409963E+02 -0.23127554219E+02  0.42301745371E+02  0.15223109176E+03  0.12499863522E+03 0.  0.
          5    1    4    4  502    0  0.61762842616E+02 -0.42315378889E+02  0.79192119382E+02  0.10908126233E+03  0.47000000000E+01 0. -1.
         -5    1    4    4    0  502  0.10523567348E+02  0.19187824670E+02 -0.36890374010E+02  0.43149829431E+02  0.47000000000E+01 0. -1.
          5    1    3    3  503    0 -0.31624780330E+02  0.29874760850E+02  0.59837389751E+02  0.74129827188E+02  0.47000000000E+01 0. -1.
         -5    1    3    3    0  503 -0.40661629633E+02 -0.67472066308E+01 -0.58979466368E+02  0.72107977192E+02  0.47000000000E+01 0. -1.
<mgrwt>
<rscale>  0 0.14623557E+03</rscale>
<asrwt>0</asrwt>
<pdfrwt beam="1">  1        5 0.26279120E-01 0.14623566E+03</pdfrwt>
<pdfrwt beam="2">  1       -5 0.19639171E-01 0.14623566E+03</pdfrwt>
<totfact> 0.24559095E+02</totfact>
</mgrwt>
</event>
<event>
 8    1  0.3682083E-007  0.1755559E+03  0.7546771E-02  0.1172176E+00
         -5   -1    0    0    0  501 -0.00000000000E+00  0.00000000000E+00  0.68123083708E+03  0.68124705019E+03  0.47000000000E+01 0. -1.
          5   -1    0    0  501    0  0.00000000000E+00 -0.00000000000E+00 -0.45904766376E+02  0.46144745920E+02  0.47000000000E+01 0. -1.
         25    2    1    2    0    0 -0.73722521447E+02  0.98779663097E+02  0.36565908293E+03  0.40561858314E+03  0.12500975183E+03 0.  0.
         25    2    1    2    0    0  0.73722521447E+02 -0.98779663097E+02  0.26966698778E+03  0.32177321297E+03  0.12500113710E+03 0.  0.
          5    1    3    3  502    0 -0.38523910935E+00  0.62135995467E+02  0.28041619902E+03  0.28725661875E+03  0.47000000000E+01 0.  1.
         -5    1    3    3    0  502 -0.73337282337E+02  0.36643667630E+02  0.85242883910E+02  0.11836196439E+03  0.47000000000E+01 0.  1.
          5    1    4    4  503    0  0.10060933775E+03 -0.37243949558E+02  0.15008323497E+03  0.18454381063E+03  0.47000000000E+01 0. -1.
         -5    1    4    4    0  503 -0.26886816304E+02 -0.61535713539E+02  0.11958375280E+03  0.13722940234E+03  0.47000000000E+01 0. -1.
<mgrwt>
<rscale>  0 0.17555436E+03</rscale>
<asrwt>0</asrwt>
<pdfrwt beam="2">  1        5 0.70819788E-02 0.17555589E+03</pdfrwt>
<pdfrwt beam="1">  1       -5 0.10482445E+00 0.17555589E+03</pdfrwt>
<totfact> 0.80049903E+01</totfact>
</mgrwt>
</event>
<event>
 8    1  0.3682083E-007  0.1449047E+03  0.7546771E-02  0.1206878E+00
          5   -1    0    0  501    0  0.00000000000E+00  0.00000000000E+00  0.95822094933E+02  0.95937291380E+02  0.47000000000E+01 0.  1.
         -5   -1    0    0    0  501 -0.00000000000E+00 -0.00000000000E+00 -0.23298204615E+03  0.23302944842E+03  0.47000000000E+01 0.  1.
         25    2    1    2    0    0 -0.35618009346E+02 -0.64061369183E+02 -0.28090800729E+02  0.14760238948E+03  0.12499948273E+03 0.  0.
         25    2    1    2    0    0  0.35618009346E+02  0.64061369183E+02 -0.10906915049E+03  0.18136435032E+03  0.12499778544E+03 0.  0.
          5    1    4    4  502    0  0.11300657101E+02 -0.24859732290E+02  0.11087662504E+02  0.29845224078E+02  0.47000000000E+01 0. -1.
         -5    1    4    4    0  502  0.24317352245E+02  0.88921101472E+02 -0.12015681300E+03  0.15151912624E+03  0.47000000000E+01 0. -1.
          5    1    3    3  503    0 -0.58678752156E+02 -0.44594911304E+01  0.25267543329E+02  0.64215432426E+02  0.47000000000E+01 0.  1.
         -5    1    3    3    0  503  0.23060742811E+02 -0.59601878052E+02 -0.53358344058E+02  0.83386957055E+02  0.47000000000E+01 0.  1.
<mgrwt>
<rscale>  0 0.14490433E+03</rscale>
<asrwt>0</asrwt>
<pdfrwt beam="1">  1        5 0.14754368E-01 0.14490470E+03</pdfrwt>
<pdfrwt beam="2">  1       -5 0.35855899E-01 0.14490470E+03</pdfrwt>
<totfact> 0.22434622E+02</totfact>
</mgrwt>
</event>
<event>
 8    1  0.3682083E-007  0.1303056E+03  0.7546771E-02  0.1227004E+00
         -5   -1    0    0    0  501 -0.00000000000E+00  0.00000000000E+00  0.68317489747E+02  0.68478970533E+02  0.47000000000E+01 0. -1.
          5   -1    0    0  501    0  0.00000000000E+00 -0.00000000000E+00 -0.29717462049E+03  0.29721178486E+03  0.47000000000E+01 0. -1.
         25    2    1    2    0    0 -0.36703915608E+02 -0.26245496938E+01 -0.40118846782E+02  0.13634176705E+03  0.12500195956E+03 0.  0.
         25    2    1    2    0    0  0.36703915608E+02  0.26245496938E+01 -0.18873828396E+03  0.22934898834E+03  0.12499901175E+03 0.  0.
          5    1    4    4  502    0  0.76551921690E+02 -0.14723618887E+02 -0.15692533160E+03  0.17528442990E+03  0.47000000000E+01 0. -1.
         -5    1    4    4    0  502 -0.39848006082E+02  0.17348168581E+02 -0.31812952361E+02  0.54064558444E+02  0.47000000000E+01 0. -1.
          5    1    3    3  503    0 -0.81950539574E+02  0.10942138122E+02 -0.24231425195E+02  0.86283679164E+02  0.47000000000E+01 0. -1.
         -5    1    3    3    0  503  0.45246623966E+02 -0.13566687816E+02 -0.15887421587E+02  0.50058087891E+02  0.47000000000E+01 0. -1.
<mgrwt>
<rscale>  0 0.13030492E+03</rscale>
<asrwt>0</asrwt>
<pdfrwt beam="2">  1        5 0.45734452E-01 0.13030562E+03</pdfrwt>
<pdfrwt beam="1">  1       -5 0.10525664E-01 0.13030562E+03</pdfrwt>
<totfact> 0.23964775E+02</totfact>
</mgrwt>
</event>
<event>
 8    1  0.3682083E-007  0.1483488E+03  0.7546771E-02  0.1202519E+00
         -5   -1    0    0    0  501 -0.00000000000E+00  0.00000000000E+00  0.65847219936E+03  0.65848897282E+03  0.47000000000E+01 0. -1.
          5   -1    0    0  501    0  0.00000000000E+00 -0.00000000000E+00 -0.33258035775E+02  0.33588494215E+02  0.47000000000E+01 0. -1.
         25    2    1    2    0    0 -0.56623664120E+02 -0.56330509679E+02  0.32117358705E+03  0.35377576930E+03  0.12500182504E+03 0.  0.
         25    2    1    2    0    0  0.56623664120E+02  0.56330509679E+02  0.30404057653E+03  0.33830169774E+03  0.12501200284E+03 0.  0.
          5    1    3    3  502    0 -0.11674172327E+01  0.36192936909E+02  0.12033593884E+03  0.12575420360E+03  0.47000000000E+01 0. -1.
         -5    1    3    3    0  502 -0.55456246887E+02 -0.92523446588E+02  0.20083764821E+03  0.22802156570E+03  0.47000000000E+01 0. -1.
          5    1    4    4  503    0 -0.29567498263E+01  0.66523981192E+02  0.24402980504E+03  0.25299568808E+03  0.47000000000E+01 0.  1.
         -5    1    4    4    0  503  0.59580413946E+02 -0.10193471514E+02  0.60010771496E+02  0.85306009654E+02  0.47000000000E+01 0.  1.
<mgrwt>
<rscale>  0 0.14834666E+03</rscale>
<asrwt>0</asrwt>
<pdfrwt beam="2">  1        5 0.51433314E-02 0.14834880E+03</pdfrwt>
<pdfrwt beam="1">  1       -5 0.10133012E+00 0.14834880E+03</pdfrwt>
<totfact> 0.14190532E+02</totfact>
</mgrwt>
</event>
<event>
 8    1  0.3682083E-007  0.1357209E+03  0.7546771E-02  0.1219208E+00
          5   -1    0    0  501    0  0.00000000000E+00  0.00000000000E+00  0.42892123214E+02  0.43148861327E+02  0.47000000000E+01 0. -1.
         -5   -1    0    0    0  501 -0.00000000000E+00 -0.00000000000E+00 -0.42805962069E+03  0.42808542239E+03  0.47000000000E+01 0. -1.
         25    2    1    2    0    0  0.31354097743E+02  0.42564118169E+02 -0.19738778073E+03  0.23954186967E+03  0.12499435083E+03 0.  0.
         25    2    1    2    0    0 -0.31354097743E+02 -0.42564118169E+02 -0.18777971674E+03  0.23169241405E+03  0.12500147642E+03 0.  0.
          5    1    3    3  502    0 -0.27063919605E+02  0.20994980298E+02 -0.22410008747E+01  0.34646169009E+02  0.47000000000E+01 0.  1.
         -5    1    3    3    0  502  0.58418017348E+02  0.21569137871E+02 -0.19514677986E+03  0.20489570066E+03  0.47000000000E+01 0.  1.
          5    1    4    4  503    0 -0.30443566762E+02 -0.81130785403E+02 -0.83596240551E+02  0.12049662457E+03  0.47000000000E+01 0. -1.
         -5    1    4    4    0  503 -0.91053098072E+00  0.38566667234E+02 -0.10418347619E+03  0.11119578948E+03  0.47000000000E+01 0. -1.
<mgrwt>
<rscale>  0 0.13571922E+03</rscale>
<asrwt>0</asrwt>
<pdfrwt beam="1">  1        5 0.66205223E-02 0.13572086E+03</pdfrwt>
<pdfrwt beam="2">  1       -5 0.65877057E-01 0.13572086E+03</pdfrwt>
<totfact> 0.24585657E+02</totfact>
</mgrwt>
</event>
<event>
 8    1  0.3682083E-007  0.1379333E+03  0.7546771E-02  0.1216141E+00
         -5   -1    0    0    0  501 -0.00000000000E+00  0.00000000000E+00  0.38732415487E+02  0.39016535078E+02  0.47000000000E+01 0. -1.
          5   -1    0    0  501    0  0.00000000000E+00 -0.00000000000E+00 -0.49161339228E+03  0.49163585860E+03  0.47000000000E+01 0. -1.
         25    2    1    2    0    0 -0.51243406429E+02  0.27821826737E+02 -0.24550399176E+03  0.28159253200E+03  0.12498881295E+03 0.  0.
         25    2    1    2    0    0  0.51243406429E+02 -0.27821826737E+02 -0.20737698503E+03  0.24905986168E+03  0.12500264012E+03 0.  0.
          5    1    4    4  502    0  0.86084295811E+02  0.14455928343E+01 -0.16743072051E+03  0.18832878668E+03  0.47000000000E+01 0.  1.
         -5    1    4    4    0  502 -0.34840889381E+02 -0.29267419572E+02 -0.39946264516E+02  0.60731074995E+02  0.47000000000E+01 0.  1.
          5    1    3    3  503    0 -0.10940996182E+02  0.72309125391E+02 -0.16923371334E+03  0.18441923637E+03  0.47000000000E+01 0.  1.
         -5    1    3    3    0  503 -0.40302410247E+02 -0.44487298653E+02 -0.76270278423E+02  0.97173295632E+02  0.47000000000E+01 0.  1.
<mgrwt>
<rscale>  0 0.13793019E+03</rscale>
<asrwt>0</asrwt>
<pdfrwt beam="2">  1        5 0.75656409E-01 0.13793332E+03</pdfrwt>
<pdfrwt beam="1">  1       -5 0.59824170E-02 0.13793332E+03</pdfrwt>
<totfact> 0.21458795E+02</totfact>
</mgrwt>
</event>
<event>
 8    1  0.3682083E-007  0.1489145E+03  0.7546771E-02  0.1201814E+00
          5   -1    0    0  501    0  0.00000000000E+00  0.00000000000E+00  0.28308427876E+02  0.28695942027E+02  0.47000000000E+01 0.  1.
         -5   -1    0    0    0  501 -0.00000000000E+00 -0.00000000000E+00 -0.83345074110E+03  0.83346399313E+03  0.47000000000E+01 0.  1.
         25    2    1    2    0    0 -0.10252284438E+02 -0.80283624498E+02 -0.51411114151E+03  0.53524301506E+03  0.12499699858E+03 0.  0.
         25    2    1    2    0    0  0.10252284438E+02  0.80283624498E+02 -0.29103117172E+03  0.32691692009E+03  0.12499984013E+03 0.  0.
          5    1    3    3  502    0 -0.26909828644E+02  0.17989560080E+02 -0.44970128336E+02  0.55607244061E+02  0.47000000000E+01 0. -1.
         -5    1    3    3    0  502  0.16657544205E+02 -0.98273184578E+02 -0.46914101317E+03  0.47963577100E+03  0.47000000000E+01 0. -1.
          5    1    4    4  503    0 -0.49200879273E+02  0.58349401087E+02 -0.21284672263E+03  0.22616630267E+03  0.47000000000E+01 0. -1.
         -5    1    4    4    0  503  0.59453163711E+02  0.21934223411E+02 -0.78184449082E+02  0.10075061742E+03  0.47000000000E+01 0. -1.
<mgrwt>
<rscale>  0 0.14891391E+03</rscale>
<asrwt>0</asrwt>
<pdfrwt beam="1">  1        5 0.43859715E-02 0.14891450E+03</pdfrwt>
<pdfrwt beam="2">  1       -5 0.12825400E+00 0.14891450E+03</pdfrwt>
<totfact> 0.10220537E+02</totfact>
</mgrwt>
</event>
<event>
 8    1  0.3682083E-007  0.1369965E+03  0.7546771E-02  0.1217431E+00
          5   -1    0    0  501    0  0.00000000000E+00  0.00000000000E+00  0.79920394787E+02  0.80058475522E+02  0.47000000000E+01 0. -1.
         -5   -1    0    0    0  501 -0.00000000000E+00 -0.00000000000E+00 -0.26183520344E+03  0.26187738307E+03  0.47000000000E+01 0. -1.
         25    2    1    2    0    0  0.53806500350E+02 -0.15692671887E+02 -0.14621935254E+03  0.20036540547E+03  0.12499918888E+03 0.  0.
         25    2    1    2    0    0 -0.53806500350E+02  0.15692671887E+02 -0.35695456115E+02  0.14157045312E+03  0.12500651254E+03 0.  0.
          5    1    4    4  502    0 -0.87792137784E+02 -0.22666276543E+00  0.23145847911E+01  0.87948610765E+02  0.47000000000E+01 0.  1.
         -5    1    4    4    0  502  0.33985637434E+02  0.15919334653E+02 -0.38010040907E+02  0.53621842353E+02  0.47000000000E+01 0.  1.
          5    1    3    3  503    0  0.59893399921E+02  0.21551003836E+02 -0.17551584128E+02  0.66195265887E+02  0.47000000000E+01 0. -1.
         -5    1    3    3    0  503 -0.60868995706E+01 -0.37243675723E+02 -0.12866776841E+03  0.13417013959E+03  0.47000000000E+01 0. -1.
<mgrwt>
<rscale>  0 0.13699478E+03</rscale>
<asrwt>0</asrwt>
<pdfrwt beam="1">  1        5 0.12309312E-01 0.13699645E+03</pdfrwt>
<pdfrwt beam="2">  1       -5 0.40296205E-01 0.13699645E+03</pdfrwt>
<totfact> 0.24035033E+02</totfact>
</mgrwt>
</event>
<event>
 8    1  0.3682083E-007  0.1592476E+03  0.7546771E-02  0.1189552E+00
          5   -1    0    0  501    0  0.00000000000E+00  0.00000000000E+00  0.42941767623E+02  0.43198210688E+02  0.47000000000E+01 0.  1.
         -5   -1    0    0    0  501 -0.00000000000E+00 -0.00000000000E+00 -0.67796494028E+03  0.67798123149E+03  0.47000000000E+01 0.  1.
         25    2    1    2    0    0 -0.79806664906E+02  0.58013708157E+02 -0.44846401184E+03  0.47589567400E+03  0.12498811353E+03 0.  0.
         25    2    1    2    0    0  0.79806664906E+02 -0.58013708157E+02 -0.18655916082E+03  0.24528376818E+03  0.12500044938E+03 0.  0.
          5    1    4    4  502    0  0.76203087744E+02  0.80872047208E+01 -0.15239223445E+03  0.17063937582E+03  0.47000000000E+01 0.  1.
         -5    1    4    4    0  502  0.36035771614E+01 -0.66100912878E+02 -0.34166926376E+02  0.74644392352E+02  0.47000000000E+01 0.  1.
          5    1    3    3  503    0 -0.49934656109E+02 -0.29603739381E+02 -0.10419312728E+03  0.11936561079E+03  0.47000000000E+01 0.  1.
         -5    1    3    3    0  503 -0.29872008797E+02  0.87617447538E+02 -0.34427088456E+03  0.35653006321E+03  0.47000000000E+01 0.  1.
<mgrwt>
<rscale>  0 0.15924521E+03</rscale>
<asrwt>0</asrwt>
<pdfrwt beam="1">  1        5 0.66274058E-02 0.15924763E+03</pdfrwt>
<pdfrwt beam="2">  1       -5 0.10432327E+00 0.15924763E+03</pdfrwt>
<totfact> 0.88188346E+01</totfact>
</mgrwt>
</event>
<event>
 8    1  0.3682083E-007  0.1329171E+03  0.7546771E-02  0.1223194E+00
          5   -1    0    0  501    0  0.00000000000E+00  0.00000000000E+00  0.41275517299E+02  0.41542247511E+02  0.47000000000E+01 0.  1.
         -5   -1    0    0    0  501 -0.00000000000E+00 -0.00000000000E+00 -0.47895221789E+03  0.47897527809E+03  0.47000000000E+01 0.  1.
         25    2    1    2    0    0 -0.12674620428E+02 -0.43354720647E+02 -0.30506715505E+03  0.33276172935E+03  0.12499648644E+03 0.  0.
         25    2    1    2    0    0  0.12674620428E+02  0.43354720647E+02 -0.13260954554E+03  0.18775579626E+03  0.12500667844E+03 0.  0.
          5    1    4    4  502    0  0.50799433064E+02  0.64811998052E+02 -0.11219245938E+03  0.13924947193E+03  0.47000000000E+01 0.  1.
         -5    1    4    4    0  502 -0.38124812636E+02 -0.21457277405E+02 -0.20417086158E+02  0.48506324323E+02  0.47000000000E+01 0.  1.
          5    1    3    3  503    0  0.44606592493E+02 -0.45028815828E+02 -0.90254824563E+02  0.11038734396E+03  0.47000000000E+01 0.  1.
         -5    1    3    3    0  503 -0.57281212921E+02  0.16740951803E+01 -0.21481233049E+03  0.22237438539E+03  0.47000000000E+01 0.  1.
<mgrwt>
<rscale>  0 0.13291467E+03</rscale>
<asrwt>0</asrwt>
<pdfrwt beam="1">  1        5 0.63723715E-02 0.13291707E+03</pdfrwt>
<pdfrwt beam="2">  1       -5 0.73707244E-01 0.13291707E+03</pdfrwt>
<totfact> 0.20226683E+02</totfact>
</mgrwt>
</event>
<event>
 8    1  0.3682083E-007  0.1355030E+03  0.7546771E-02  0.1219513E+00
          5   -1    0    0  501    0  0.00000000000E+00  0.00000000000E+00  0.20771557697E+02  0.21296657230E+02  0.47000000000E+01 0.  1.
         -5   -1    0    0    0  501 -0.00000000000E+00 -0.00000000000E+00 -0.13338055443E+04  0.13338138251E+04  0.47000000000E+01 0.  1.
         25    2    1    2    0    0  0.12103277294E+02  0.50897487152E+02 -0.10549596502E+04  0.10636256259E+04  0.12499025927E+03 0.  0.
         25    2    1    2    0    0 -0.12103277294E+02 -0.50897487152E+02 -0.25807433634E+03  0.29148485640E+03  0.12499605959E+03 0.  0.
          5    1    3    3  502    0  0.31128811066E+02 -0.33935959004E+02 -0.28145837563E+03  0.28523947729E+03  0.47000000000E+01 0. -1.
         -5    1    3    3    0  502 -0.19025533772E+02  0.84833446156E+02 -0.77350127460E+03  0.77838614860E+03  0.47000000000E+01 0. -1.
          5    1    4    4  503    0 -0.61717661165E+02 -0.37375557770E+02 -0.20525120562E+03  0.21761468109E+03  0.47000000000E+01 0.  1.
         -5    1    4    4    0  503  0.49614383871E+02 -0.13521929382E+02 -0.52823130719E+02  0.73870175308E+02  0.47000000000E+01 0.  1.
<mgrwt>
<rscale>  0 0.13550165E+03</rscale>
<asrwt>0</asrwt>
<pdfrwt beam="1">  1        5 0.32366546E-02 0.13550298E+03</pdfrwt>
<pdfrwt beam="2">  1       -5 0.20524182E+00 0.13550298E+03</pdfrwt>
<totfact> 0.43062506E+01</totfact>
</mgrwt>
</event>
<event>
 8    1  0.3682083E-007  0.1296338E+03  0.7546771E-02  0.1228005E+00
         -5   -1    0    0    0  501 -0.00000000000E+00  0.00000000000E+00  0.23434083635E+03  0.23438796381E+03  0.47000000000E+01 0.  1.
          5   -1    0    0  501    0  0.00000000000E+00 -0.00000000000E+00 -0.73011351178E+02  0.73162472627E+02  0.47000000000E+01 0.  1.
         25    2    1    2    0    0 -0.31828296316E+02 -0.12898635969E+02  0.10222353894E+03  0.16508962013E+03  0.12500206200E+03 0.  0.
         25    2    1    2    0    0  0.31828296316E+02  0.12898635969E+02  0.59105946234E+02  0.14246081631E+03  0.12498862367E+03 0.  0.
          5    1    3    3  502    0  0.36857334653E+02 -0.21890867231E+02  0.82205363638E+02  0.92830409871E+02  0.47000000000E+01 0. -1.
         -5    1    3    3    0  502 -0.68685630970E+02  0.89922312618E+01  0.20018175298E+02  0.72259210257E+02  0.47000000000E+01 0. -1.
          5    1    4    4  503    0 -0.37955392902E+02  0.37018299480E+02  0.38405211184E+02  0.65635482727E+02  0.47000000000E+01 0.  1.
         -5    1    4    4    0  503  0.69783689218E+02 -0.24119663510E+02  0.20700735050E+02  0.76825333585E+02  0.47000000000E+01 0.  1.
<mgrwt>
<rscale>  0 0.12963059E+03</rscale>
<asrwt>0</asrwt>
<pdfrwt beam="2">  1        5 0.11247766E-01 0.12963383E+03</pdfrwt>
<pdfrwt beam="1">  1       -5 0.36067686E-01 0.12963383E+03</pdfrwt>
<totfact> 0.34623378E+02</totfact>
</mgrwt>
</event>
<event>
 8    1  0.3682083E-007  0.1430022E+03  0.7546771E-02  0.1209350E+00
          5   -1    0    0  501    0  0.00000000000E+00  0.00000000000E+00  0.19848953994E+03  0.19854517740E+03  0.47000000000E+01 0.  1.
         -5   -1    0    0    0  501 -0.00000000000E+00 -0.00000000000E+00 -0.10624400471E+03  0.10634791271E+03  0.47000000000E+01 0.  1.
         25    2    1    2    0    0 -0.66222848962E+02  0.20875718956E+02  0.19064969696E+02  0.14425362915E+03  0.12499750032E+03 0.  0.
         25    2    1    2    0    0  0.66222848962E+02 -0.20875718956E+02  0.73180565538E+02  0.16063946095E+03  0.12501351878E+03 0.  0.
          5    1    3    3  502    0 -0.10080899272E+03  0.11114017400E+02 -0.34482248895E+01  0.10158717759E+03  0.47000000000E+01 0. -1.
         -5    1    3    3    0  502  0.34586143761E+02  0.97617015563E+01  0.22513194585E+02  0.42666451552E+02  0.47000000000E+01 0. -1.
          5    1    4    4  503    0  0.54917760673E+02  0.43739541519E+02  0.62298416999E+02  0.93980267557E+02  0.47000000000E+01 0.  1.
         -5    1    4    4    0  503  0.11305088289E+02 -0.64615260475E+02  0.10882148539E+02  0.66659193397E+02  0.47000000000E+01 0.  1.
<mgrwt>
<rscale>  0 0.14299874E+03</rscale>
<asrwt>0</asrwt>
<pdfrwt beam="1">  1        5 0.30549124E-01 0.14300224E+03</pdfrwt>
<pdfrwt beam="2">  1       -5 0.16357505E-01 0.14300224E+03</pdfrwt>
<totfact> 0.25470146E+02</totfact>
</mgrwt>
</event>
<event>
 8    1  0.3682083E-007  0.1483135E+03  0.7546771E-02  0.1202563E+00
         -5   -1    0    0    0  501 -0.00000000000E+00  0.00000000000E+00  0.14072975515E+03  0.14080821703E+03  0.47000000000E+01 0. -1.
          5   -1    0    0  501    0  0.00000000000E+00 -0.00000000000E+00 -0.22172598773E+03  0.22177579588E+03  0.47000000000E+01 0. -1.
         25    2    1    2    0    0 -0.59132741424E+02 -0.53608292211E+02  0.58070457427E+02  0.15927039691E+03  0.12499740479E+03 0.  0.
         25    2    1    2    0    0  0.59132741424E+02  0.53608292211E+02 -0.13906669001E+03  0.20331361600E+03  0.12500540819E+03 0.  0.
          5    1    4    4  502    0  0.81235929419E+02  0.67971624378E+00 -0.44864514351E+02  0.92922832989E+02  0.47000000000E+01 0. -1.
         -5    1    4    4    0  502 -0.22103187995E+02  0.52928575968E+02 -0.94202175663E+02  0.11039078301E+03  0.47000000000E+01 0. -1.
          5    1    3    3  503    0 -0.94324814289E+02 -0.58674609572E+02  0.52572858307E+02  0.12298729946E+03  0.47000000000E+01 0.  1.
         -5    1    3    3    0  503  0.35192072865E+02  0.50663173602E+01  0.54975991200E+01  0.36283097445E+02  0.47000000000E+01 0.  1.
<mgrwt>
<rscale>  0 0.14831177E+03</rscale>
<asrwt>0</asrwt>
<pdfrwt beam="2">  1        5 0.34121557E-01 0.14831346E+03</pdfrwt>
<pdfrwt beam="1">  1       -5 0.21660599E-01 0.14831346E+03</pdfrwt>
<totfact> 0.12291648E+02</totfact>
</mgrwt>
</event>
<event>
 8    1  0.3682083E-007  0.1290305E+03  0.7546771E-02  0.1228904E+00
          5   -1    0    0  501    0  0.00000000000E+00  0.00000000000E+00  0.40426748628E+03  0.40429480638E+03  0.47000000000E+01 0. -1.
         -5   -1    0    0    0  501 -0.00000000000E+00 -0.00000000000E+00 -0.43156225367E+02  0.43411401589E+02  0.47000000000E+01 0. -1.
         25    2    1    2    0    0  0.29418091106E+02 -0.12498417525E+02  0.13089105206E+03  0.18379291611E+03  0.12500293588E+03 0.  0.
         25    2    1    2    0    0 -0.29418091106E+02  0.12498417525E+02  0.23022020886E+03  0.26391329185E+03  0.12500898578E+03 0.  0.
          5    1    3    3  502    0  0.37263543258E+02 -0.60697988709E+02  0.43546222629E+02  0.83613282406E+02  0.47000000000E+01 0. -1.
         -5    1    3    3    0  502 -0.78454521523E+01  0.48199571184E+02  0.87344829427E+02  0.10017963371E+03  0.47000000000E+01 0. -1.
          5    1    4    4  503    0 -0.63944114369E+02  0.13166982846E+02  0.55697500396E+02  0.85944870412E+02  0.47000000000E+01 0.  1.
         -5    1    4    4    0  503  0.34526023263E+02 -0.66856532055E+00  0.17452270846E+03  0.17796842144E+03  0.47000000000E+01 0.  1.
<mgrwt>
<rscale>  0 0.12902908E+03</rscale>
<asrwt>0</asrwt>
<pdfrwt beam="1">  1        5 0.62216728E-01 0.12903054E+03</pdfrwt>
<pdfrwt beam="2">  1       -5 0.66611498E-02 0.12903054E+03</pdfrwt>
<totfact> 0.27130061E+02</totfact>
</mgrwt>
</event>
<event>
 8    1  0.3682083E-007  0.1748869E+03  0.7546771E-02  0.1172849E+00
         -5   -1    0    0    0  501 -0.00000000000E+00  0.00000000000E+00  0.76093214120E+02  0.76238226863E+02  0.47000000000E+01 0.  1.
          5   -1    0    0  501    0  0.00000000000E+00 -0.00000000000E+00 -0.40305108701E+03  0.40307848955E+03  0.47000000000E+01 0.  1.
         25    2    1    2    0    0  0.73570788715E+02  0.97713122284E+02 -0.14798559602E+03  0.22908380301E+03  0.12497654563E+03 0.  0.
         25    2    1    2    0    0 -0.73570788715E+02 -0.97713122284E+02 -0.17897227687E+03  0.25023291340E+03  0.12499967937E+03 0.  0.
          5    1    3    3  502    0 -0.96413682973E+01  0.84966693015E+02 -0.10150478255E+03  0.13280664812E+03  0.47000000000E+01 0.  1.
         -5    1    3    3    0  502  0.83212157012E+02  0.12746429269E+02 -0.46480813464E+02  0.96277154891E+02  0.47000000000E+01 0.  1.
          5    1    4    4  503    0  0.27302051974E+02 -0.61753494650E+02 -0.70581521686E+02  0.97789249649E+02  0.47000000000E+01 0. -1.
         -5    1    4    4    0  503 -0.10087284069E+03 -0.35959627634E+02 -0.10839075519E+03  0.15244366375E+03  0.47000000000E+01 0. -1.
<mgrwt>
<rscale>  0 0.17488279E+03</rscale>
<asrwt>0</asrwt>
<pdfrwt beam="2">  1        5 0.62021121E-01 0.17488692E+03</pdfrwt>
<pdfrwt beam="1">  1       -5 0.11719911E-01 0.17488692E+03</pdfrwt>
<totfact> 0.11329985E+02</totfact>
</mgrwt>
</event>
<event>
 8    1  0.3682083E-007  0.1446647E+03  0.7546771E-02  0.1207187E+00
         -5   -1    0    0    0  501 -0.00000000000E+00  0.00000000000E+00  0.15532764055E+03  0.15539873204E+03  0.47000000000E+01 0. -1.
          5   -1    0    0  501    0  0.00000000000E+00 -0.00000000000E+00 -0.13498683974E+03  0.13506863774E+03  0.47000000000E+01 0. -1.
         25    2    1    2    0    0 -0.39505949420E+02 -0.61172778206E+02  0.18037364132E+02  0.14578488008E+03  0.12500022368E+03 0.  0.
         25    2    1    2    0    0  0.39505949420E+02  0.61172778206E+02  0.23034366843E+01  0.14468248971E+03  0.12499955270E+03 0.  0.
          5    1    4    4  502    0  0.29437151536E+02 -0.35869104776E+02  0.54442208640E+01  0.46956023137E+02  0.47000000000E+01 0.  1.
         -5    1    4    4    0  502  0.10068797883E+02  0.97041882982E+02 -0.31407841797E+01  0.97726466573E+02  0.47000000000E+01 0.  1.
          5    1    3    3  503    0 -0.27993982762E+02  0.33002007716E+02 -0.13693392884E+02  0.45633261913E+02  0.47000000000E+01 0.  1.
         -5    1    3    3    0  503 -0.11511966658E+02 -0.94174785922E+02  0.31730757016E+02  0.10015161816E+03  0.47000000000E+01 0.  1.
<mgrwt>
<rscale>  0 0.14466459E+03</rscale>
<asrwt>0</asrwt>
<pdfrwt beam="2">  1        5 0.20778967E-01 0.14466473E+03</pdfrwt>
<pdfrwt beam="1">  1       -5 0.23908321E-01 0.14466473E+03</pdfrwt>
<totfact> 0.26399206E+02</totfact>
</mgrwt>
</event>
<event>
 8    1  0.3682083E-007  0.1282787E+03  0.7546771E-02  0.1230033E+00
         -5   -1    0    0    0  501 -0.00000000000E+00  0.00000000000E+00  0.10487573713E+03  0.10498099942E+03  0.47000000000E+01 0. -1.
          5   -1    0    0  501    0  0.00000000000E+00 -0.00000000000E+00 -0.15711094799E+03  0.15718123291E+03  0.47000000000E+01 0. -1.
         25    2    1    2    0    0 -0.20232109811E+02  0.20445960659E+02 -0.19279946799E+02  0.12971797630E+03  0.12501064536E+03 0.  0.
         25    2    1    2    0    0  0.20232109811E+02 -0.20445960659E+02 -0.32955264057E+02  0.13244425602E+03  0.12501222320E+03 0.  0.
          5    1    4    4  502    0  0.37383932853E+01 -0.63939358626E+02 -0.51326777970E+02  0.82211588615E+02  0.47000000000E+01 0.  1.
         -5    1    4    4    0  502  0.16493716526E+02  0.43493397967E+02  0.18371513912E+02  0.50232667409E+02  0.47000000000E+01 0.  1.
          5    1    3    3  503    0 -0.10843058428E+02  0.65846851177E+02 -0.40832743233E+02  0.78375906030E+02  0.47000000000E+01 0. -1.
         -5    1    3    3    0  503 -0.93890513831E+01 -0.45400890518E+02  0.21552796434E+02  0.51342070272E+02  0.47000000000E+01 0. -1.
<mgrwt>
<rscale>  0 0.12827834E+03</rscale>
<asrwt>0</asrwt>
<pdfrwt beam="2">  1        5 0.24184419E-01 0.12827873E+03</pdfrwt>
<pdfrwt beam="1">  1       -5 0.16148232E-01 0.12827873E+03</pdfrwt>
<totfact> 0.39463039E+02</totfact>
</mgrwt>
</event>
<event>
 8    1  0.3682083E-007  0.1350175E+03  0.7546771E-02  0.1220196E+00
          5   -1    0    0  501    0  0.00000000000E+00  0.00000000000E+00  0.17049194918E+03  0.17055672000E+03  0.47000000000E+01 0. -1.
         -5   -1    0    0    0  501 -0.00000000000E+00 -0.00000000000E+00 -0.11370370080E+03  0.11380079778E+03  0.47000000000E+01 0. -1.
         25    2    1    2    0    0 -0.11300792389E+02 -0.49770687632E+02 -0.66541476051E+01  0.13517757073E+03  0.12499547468E+03 0.  0.
         25    2    1    2    0    0  0.11300792389E+02  0.49770687632E+02  0.63442395992E+02  0.14917994705E+03  0.12499955895E+03 0.  0.
          5    1    4    4  502    0 -0.50462768962E+02 -0.61241317505E+01  0.30581209123E+02  0.59508792564E+02  0.47000000000E+01 0.  1.
         -5    1    4    4    0  502  0.61763561350E+02  0.55894819383E+02  0.32861186870E+02  0.89671154487E+02  0.47000000000E+01 0.  1.
          5    1    3    3  503    0  0.34492730877E+02  0.67528110879E+01  0.36152958942E+02  0.50640649494E+02  0.47000000000E+01 0.  1.
         -5    1    3    3    0  503 -0.45793523266E+02 -0.56523498720E+02 -0.42807106547E+02  0.84536921233E+02  0.47000000000E+01 0.  1.
<mgrwt>
<rscale>  0 0.13501653E+03</rscale>
<asrwt>0</asrwt>
<pdfrwt beam="1">  1        5 0.26241982E-01 0.13501748E+03</pdfrwt>
<pdfrwt beam="2">  1       -5 0.17505328E-01 0.13501748E+03</pdfrwt>
<totfact> 0.29655868E+02</totfact>
</mgrwt>
</event>
<event>
 8    1  0.3682083E-007  0.1508433E+03  0.7546771E-02  0.1199445E+00
         -5   -1    0    0    0  501 -0.00000000000E+00  0.00000000000E+00  0.16804318614E+04  0.16804384341E+04  0.47000000000E+01 0. -1.
          5   -1    0    0  501    0  0.00000000000E+00 -0.00000000000E+00 -0.13212165437E+02  0.14023241977E+02  0.47000000000E+01 0. -1.
         25    2    1    2    0    0 -0.83784474615E+02  0.10394272928E+02  0.76653736874E+03  0.78123532551E+03  0.12498486730E+03 0.  0.
         25    2    1    2    0    0  0.83784474615E+02 -0.10394272928E+02  0.90068232724E+03  0.91322635059E+03  0.12500333478E+03 0.  0.
          5    1    4    4  502    0  0.73990524361E+02 -0.62210892573E+02  0.52716941024E+03  0.53597991562E+03  0.47000000000E+01 0. -1.
         -5    1    4    4    0  502  0.97939502532E+01  0.51816619644E+02  0.37351291700E+03  0.37724643497E+03  0.47000000000E+01 0. -1.
          5    1    3    3  503    0 -0.85203386740E+02 -0.34752197687E+02  0.64391993474E+03  0.65047851979E+03  0.47000000000E+01 0.  1.
         -5    1    3    3    0  503  0.14189121252E+01  0.45146470615E+02  0.12261743400E+03  0.13075680572E+03  0.47000000000E+01 0.  1.
<mgrwt>
<rscale>  0 0.15083951E+03</rscale>
<asrwt>0</asrwt>
<pdfrwt beam="2">  1        5 0.20955377E-02 0.15084334E+03</pdfrwt>
<pdfrwt beam="1">  1       -5 0.25859078E+00 0.15084334E+03</pdfrwt>
<totfact> 0.40296304E+01</totfact>
</mgrwt>
</event>
<event>
 8    1  0.3682083E-007  0.1647260E+03  0.7546771E-02  0.1183463E+00
          5   -1    0    0  501    0  0.00000000000E+00  0.00000000000E+00  0.42091082755E+03  0.42093706744E+03  0.47000000000E+01 0.  1.
         -5   -1    0    0    0  501 -0.00000000000E+00 -0.00000000000E+00 -0.10529288246E+03  0.10539772814E+03  0.47000000000E+01 0.  1.
         25    2    1    2    0    0 -0.82979462886E+02 -0.67994613142E+02 -0.61641446927E+01  0.16484124797E+03  0.12500312666E+03 0.  0.
         25    2    1    2    0    0  0.82979462886E+02  0.67994613142E+02  0.32178208978E+03  0.36149354761E+03  0.12500005195E+03 0.  0.
          5    1    3    3  502    0 -0.12908373126E+02 -0.80752048820E+02  0.26846769314E+02  0.86199527307E+02  0.47000000000E+01 0.  1.
         -5    1    3    3    0  502 -0.70071089760E+02  0.12757435678E+02 -0.33010914006E+02  0.78641720662E+02  0.47000000000E+01 0.  1.
          5    1    4    4  503    0  0.11580122649E+03  0.60470478269E+02  0.25565514907E+03  0.28713802961E+03  0.47000000000E+01 0. -1.
         -5    1    4    4    0  503 -0.32821763601E+02  0.75241348722E+01  0.66126940703E+02  0.74355518007E+02  0.47000000000E+01 0. -1.
<mgrwt>
<rscale>  0 0.16472537E+03</rscale>
<asrwt>0</asrwt>
<pdfrwt beam="1">  1        5 0.64765594E-01 0.16472596E+03</pdfrwt>
<pdfrwt beam="2">  1       -5 0.16208989E-01 0.16472596E+03</pdfrwt>
<totfact> 0.56381402E+01</totfact>
</mgrwt>
</event>
<event>
 8    1  0.3682083E-007  0.2519491E+03  0.7546771E-02  0.1112080E+00
          5   -1    0    0  501    0  0.00000000000E+00  0.00000000000E+00  0.61224702721E+02  0.61404838761E+02  0.47000000000E+01 0.  1.
         -5   -1    0    0    0  501 -0.00000000000E+00 -0.00000000000E+00 -0.11152202440E+04  0.11152301478E+04  0.47000000000E+01 0.  1.
         25    2    1    2    0    0  0.21323626371E+03 -0.48818077315E+02 -0.68468188974E+03  0.72956572866E+03  0.12499581379E+03 0.  0.
         25    2    1    2    0    0 -0.21323626371E+03  0.48818077315E+02 -0.36931365154E+03  0.44706925793E+03  0.12500175734E+03 0.  0.
          5    1    4    4  502    0 -0.20833948130E+03  0.31476005079E+02 -0.37267902156E+03  0.42814462682E+03  0.47000000000E+01 0.  1.
         -5    1    4    4    0  502 -0.48967824123E+01  0.17342072236E+02  0.33653700149E+01  0.18924631113E+02  0.47000000000E+01 0.  1.
          5    1    3    3  503    0  0.17951929216E+03 -0.22673361296E+02 -0.64893449112E+03  0.67370566372E+03  0.47000000000E+01 0. -1.
         -5    1    3    3    0  503  0.33716971558E+02 -0.26144716019E+02 -0.35747398620E+02  0.55860064937E+02  0.47000000000E+01 0. -1.
<mgrwt>
<rscale>  0 0.25194836E+03</rscale>
<asrwt>0</asrwt>
<pdfrwt beam="1">  1        5 0.94338043E-02 0.25194910E+03</pdfrwt>
<pdfrwt beam="2">  1       -5 0.17158695E+00 0.25194910E+03</pdfrwt>
<totfact> 0.14237063E+01</totfact>
</mgrwt>
</event>
<event>
 8    1  0.3682083E-007  0.1253274E+03  0.7546771E-02  0.1234562E+00
         -5   -1    0    0    0  501 -0.00000000000E+00  0.00000000000E+00  0.13683753658E+04  0.13683834374E+04  0.47000000000E+01 0.  1.
          5   -1    0    0  501    0  0.00000000000E+00 -0.00000000000E+00 -0.11132781177E+02  0.12084238360E+02  0.47000000000E+01 0.  1.
         25    2    1    2    0    0  0.88780321103E+01 -0.16927152373E+01  0.75404892114E+03  0.76439174752E+03  0.12499313370E+03 0.  0.
         25    2    1    2    0    0 -0.88780321103E+01  0.16927152373E+01  0.60319366344E+03  0.61607592819E+03  0.12500107574E+03 0.  0.
          5    1    4    4  502    0  0.14672436947E+02 -0.51906734636E+02  0.15789672687E+03  0.16692230487E+03  0.47000000000E+01 0. -1.
         -5    1    4    4    0  502 -0.23550469057E+02  0.53599449873E+02  0.44529693657E+03  0.44915362332E+03  0.47000000000E+01 0. -1.
          5    1    3    3  503    0  0.45451689621E+02 -0.31561875094E+02  0.61431069830E+03  0.61681580078E+03  0.47000000000E+01 0.  1.
         -5    1    3    3    0  503 -0.36573657511E+02  0.29869159857E+02  0.13973822284E+03  0.14757594674E+03  0.47000000000E+01 0.  1.
<mgrwt>
<rscale>  0 0.12532541E+03</rscale>
<asrwt>0</asrwt>
<pdfrwt beam="2">  1        5 0.17865456E-02 0.12532739E+03</pdfrwt>
<pdfrwt beam="1">  1       -5 0.21059308E+00 0.12532739E+03</pdfrwt>
<totfact> 0.10013781E+02</totfact>
</mgrwt>
</event>
<event>
 8    1  0.3682083E-007  0.1430275E+03  0.7546771E-02  0.1209313E+00
         -5   -1    0    0    0  501 -0.00000000000E+00  0.00000000000E+00  0.24507549388E+03  0.24512055748E+03  0.47000000000E+01 0. -1.
          5   -1    0    0  501    0  0.00000000000E+00 -0.00000000000E+00 -0.93782121687E+02  0.93899820810E+02  0.47000000000E+01 0. -1.
         25    2    1    2    0    0  0.52484097259E+02  0.45567008022E+02  0.13212861688E+03  0.19471730109E+03  0.12500369298E+03 0.  0.
         25    2    1    2    0    0 -0.52484097259E+02 -0.45567008022E+02  0.19164755309E+02  0.14430307720E+03  0.12500063023E+03 0.  0.
          5    1    3    3  502    0  0.38464454815E+02  0.81166432533E+02  0.12729964005E+03  0.15586786844E+03  0.47000000000E+01 0.  1.
         -5    1    3    3    0  502  0.14019642444E+02 -0.35599424512E+02  0.48289768292E+01  0.38849432648E+02  0.47000000000E+01 0.  1.
          5    1    4    4  503    0  0.94441679923E+01  0.24199023134E+02  0.40639934361E+02  0.48461111157E+02  0.47000000000E+01 0.  1.
         -5    1    4    4    0  503 -0.61928265251E+02 -0.69766031156E+02 -0.21475179052E+02  0.95841966046E+02  0.47000000000E+01 0.  1.
<mgrwt>
<rscale>  0 0.14302680E+03</rscale>
<asrwt>0</asrwt>
<pdfrwt beam="2">  1        5 0.14440539E-01 0.14302747E+03</pdfrwt>
<pdfrwt beam="1">  1       -5 0.37716442E-01 0.14302747E+03</pdfrwt>
<totfact> 0.20965454E+02</totfact>
</mgrwt>
</event>
<event>
 8    1  0.3682083E-007  0.1899821E+03  0.7546771E-02  0.1158486E+00
         -5   -1    0    0    0  501 -0.00000000000E+00  0.00000000000E+00  0.16970313403E+04  0.16970378487E+04  0.47000000000E+01 0.  1.
          5   -1    0    0  501    0  0.00000000000E+00 -0.00000000000E+00 -0.21267593466E+02  0.21780737633E+02  0.47000000000E+01 0.  1.
         25    2    1    2    0    0  0.61663291052E+02 -0.12909836934E+03  0.74231821697E+03  0.76624377300E+03  0.12499773592E+03 0.  0.
         25    2    1    2    0    0 -0.61663291052E+02  0.12909836934E+03  0.93344552988E+03  0.95257481336E+03  0.12493785401E+03 0.  0.
          5    1    4    4  502    0 -0.57038200016E+02  0.76160450354E+02  0.83661261199E+03  0.84201931272E+03  0.47000000000E+01 0.  1.
         -5    1    4    4    0  502 -0.46250910356E+01  0.52937918988E+02  0.96832917887E+02  0.11055550063E+03  0.47000000000E+01 0.  1.
          5    1    3    3  503    0  0.17041550129E+02 -0.25248588724E+02  0.23979014634E+02  0.39051105057E+02  0.47000000000E+01 0.  1.
         -5    1    3    3    0  503  0.44621740922E+02 -0.10384978062E+03  0.71833920233E+03  0.72719266794E+03  0.47000000000E+01 0.  1.
<mgrwt>
<rscale>  0 0.18997221E+03</rscale>
<asrwt>0</asrwt>
<pdfrwt beam="2">  1        5 0.33119109E-02 0.18998206E+03</pdfrwt>
<pdfrwt beam="1">  1       -5 0.26112170E+00 0.18998206E+03</pdfrwt>
<totfact> 0.19596214E+01</totfact>
</mgrwt>
</event>
<event>
 8    1  0.3682083E-007  0.1309171E+03  0.7546771E-02  0.1226108E+00
          5   -1    0    0  501    0  0.00000000000E+00  0.00000000000E+00  0.38750260397E+03  0.38753110596E+03  0.47000000000E+01 0. -1.
         -5   -1    0    0    0  501 -0.00000000000E+00 -0.00000000000E+00 -0.45070521731E+02  0.45314919498E+02  0.47000000000E+01 0. -1.
         25    2    1    2    0    0  0.36135541643E+02 -0.14455819366E+02  0.13905706133E+03  0.19098730007E+03  0.12499813759E+03 0.  0.
         25    2    1    2    0    0 -0.36135541643E+02  0.14455819366E+02  0.20337502091E+03  0.24185872538E+03  0.12497798137E+03 0.  0.
          5    1    3    3  502    0  0.25891386574E+01  0.17614208001E+01 -0.23489311635E+02  0.24158725200E+02  0.47000000000E+01 0.  1.
         -5    1    3    3    0  502  0.33546402985E+02 -0.16217240166E+02  0.16254637296E+03  0.16682857487E+03  0.47000000000E+01 0.  1.
          5    1    4    4  503    0 -0.75579624300E+02  0.37354802901E+02  0.12038811463E+03  0.14704777813E+03  0.47000000000E+01 0. -1.
         -5    1    4    4    0  503  0.39444082657E+02 -0.22898983535E+02  0.82986906289E+02  0.94810947253E+02  0.47000000000E+01 0. -1.
<mgrwt>
<rscale>  0 0.13091227E+03</rscale>
<asrwt>0</asrwt>
<pdfrwt beam="1">  1        5 0.59636778E-01 0.13091708E+03</pdfrwt>
<pdfrwt beam="2">  1       -5 0.69549187E-02 0.13091708E+03</pdfrwt>
<totfact> 0.27816612E+02</totfact>
</mgrwt>
</event>
<event>
 8    1  0.3682083E-007  0.1515649E+03  0.7546771E-02  0.1198566E+00
          5   -1    0    0  501    0  0.00000000000E+00  0.00000000000E+00  0.82491728041E+02  0.82625511770E+02  0.47000000000E+01 0. -1.
         -5   -1    0    0    0  501 -0.00000000000E+00 -0.00000000000E+00 -0.27860107052E+03  0.27864071220E+03  0.47000000000E+01 0. -1.
         25    2    1    2    0    0  0.85643474654E+02  0.29529416242E+01 -0.10589097323E+03  0.18488233423E+03  0.12500021873E+03 0.  0.
         25    2    1    2    0    0 -0.85643474654E+02 -0.29529416242E+01 -0.90218369243E+02  0.17638388974E+03  0.12501359045E+03 0.  0.
          5    1    4    4  502    0 -0.10357190343E+03 -0.26435661000E+02 -0.98406004277E+02  0.14536786106E+03  0.47000000000E+01 0.  1.
         -5    1    4    4    0  502  0.17928428773E+02  0.23482719376E+02  0.81876350333E+01  0.31016028679E+02  0.47000000000E+01 0.  1.
          5    1    3    3  503    0  0.74612951241E+02  0.16860303119E+02 -0.13219462892E+03  0.15280337768E+03  0.47000000000E+01 0.  1.
         -5    1    3    3    0  503  0.11030523413E+02 -0.13907361495E+02  0.26303655690E+02  0.32078956547E+02  0.47000000000E+01 0.  1.
<mgrwt>
<rscale>  0 0.15156215E+03</rscale>
<asrwt>0</asrwt>
<pdfrwt beam="1">  1        5 0.12704376E-01 0.15156491E+03</pdfrwt>
<pdfrwt beam="2">  1       -5 0.42875043E-01 0.15156491E+03</pdfrwt>
<totfact> 0.20681759E+02</totfact>
</mgrwt>
</event>
<event>
 8    1  0.3682083E-007  0.1258984E+03  0.7546771E-02  0.1233673E+00
          5   -1    0    0  501    0  0.00000000000E+00  0.00000000000E+00  0.29406489987E+02  0.29779718826E+02  0.47000000000E+01 0. -1.
         -5   -1    0    0    0  501 -0.00000000000E+00 -0.00000000000E+00 -0.60795996359E+03  0.60797813063E+03  0.47000000000E+01 0. -1.
         25    2    1    2    0    0  0.84399971851E+01 -0.12379556539E+02 -0.39954287290E+03  0.41890813713E+03  0.12500013240E+03 0.  0.
         25    2    1    2    0    0 -0.84399971851E+01  0.12379556539E+02 -0.17901060071E+03  0.21884971233E+03  0.12500365774E+03 0.  0.
          5    1    3    3  502    0  0.54458163528E+02 -0.32837072884E+02 -0.30593184101E+03  0.31250655397E+03  0.47000000000E+01 0.  1.
         -5    1    3    3    0  502 -0.46018166343E+02  0.20457516346E+02 -0.93611031887E+02  0.10640158316E+03  0.47000000000E+01 0.  1.
          5    1    4    4  503    0 -0.63202923958E+02  0.97469262588E+01 -0.13087743430E+03  0.14574156915E+03  0.47000000000E+01 0. -1.
         -5    1    4    4    0  503  0.54762926773E+02  0.26326302799E+01 -0.48133166407E+02  0.73108143181E+02  0.47000000000E+01 0. -1.
<mgrwt>
<rscale>  0 0.12589750E+03</rscale>
<asrwt>0</asrwt>
<pdfrwt beam="1">  1        5 0.45541832E-02 0.12589838E+03</pdfrwt>
<pdfrwt beam="2">  1       -5 0.93562400E-01 0.12589838E+03</pdfrwt>
<totfact> 0.19933615E+02</totfact>
</mgrwt>
</event>
<event>
 8    1  0.3682083E-007  0.1380183E+03  0.7546771E-02  0.1216022E+00
         -5   -1    0    0    0  501 -0.00000000000E+00  0.00000000000E+00  0.25123682747E+03  0.25128078613E+03  0.47000000000E+01 0. -1.
          5   -1    0    0  501    0  0.00000000000E+00 -0.00000000000E+00 -0.85575197415E+02  0.85704168000E+02  0.47000000000E+01 0. -1.
         25    2    1    2    0    0 -0.37170905675E+02 -0.45153321850E+02  0.14002033261E+03  0.19660806455E+03  0.12501415440E+03 0.  0.
         25    2    1    2    0    0  0.37170905675E+02  0.45153321850E+02  0.25641297446E+02  0.14037688958E+03  0.12501078470E+03 0.  0.
          5    1    3    3  502    0  0.25228230337E+02 -0.52192522759E+02  0.20778777065E+02  0.61760591109E+02  0.47000000000E+01 0.  1.
         -5    1    3    3    0  502 -0.62399136011E+02  0.70392009085E+01  0.11924155555E+03  0.13484747344E+03  0.47000000000E+01 0.  1.
          5    1    4    4  503    0  0.82414161293E+02  0.41301041387E+02  0.19132470456E+02  0.94265642877E+02  0.47000000000E+01 0. -1.
         -5    1    4    4    0  503 -0.45243255619E+02  0.38522804630E+01  0.65088269901E+01  0.46111246703E+02  0.47000000000E+01 0. -1.
<mgrwt>
<rscale>  0 0.13801749E+03</rscale>
<asrwt>0</asrwt>
<pdfrwt beam="2">  1        5 0.13178717E-01 0.13801825E+03</pdfrwt>
<pdfrwt beam="1">  1       -5 0.38665122E-01 0.13801825E+03</pdfrwt>
<totfact> 0.23213407E+02</totfact>
</mgrwt>
</event>
<event>
 8    1  0.3682083E-007  0.1398637E+03  0.7546771E-02  0.1213519E+00
          5   -1    0    0  501    0  0.00000000000E+00  0.00000000000E+00  0.92320822829E+01  0.10359601502E+02  0.47000000000E+01 0. -1.
         -5   -1    0    0    0  501 -0.00000000000E+00 -0.00000000000E+00 -0.22806630369E+04  0.22806678798E+04  0.47000000000E+01 0. -1.
         25    2    1    2    0    0  0.30413821572E+02 -0.54860681613E+02 -0.15405601095E+04  0.15468943905E+04  0.12498843729E+03 0.  0.
         25    2    1    2    0    0 -0.30413821572E+02  0.54860681613E+02 -0.73087084507E+03  0.74413309074E+03  0.12500867821E+03 0.  0.
          5    1    4    4  502    0  0.12465059055E+02 -0.36474588538E+02 -0.19689423623E+03  0.20068682958E+03  0.47000000000E+01 0. -1.
         -5    1    4    4    0  502 -0.42878880627E+02  0.91335270151E+02 -0.53397660885E+03  0.54344626116E+03  0.47000000000E+01 0. -1.
          5    1    3    3  503    0  0.27308549654E+02  0.37324024320E+02 -0.60679256220E+03  0.60857057373E+03  0.47000000000E+01 0. -1.
         -5    1    3    3    0  503  0.31052719180E+01 -0.92184705933E+02 -0.93376754732E+03  0.93832381679E+03  0.47000000000E+01 0. -1.
<mgrwt>
<rscale>  0 0.13985921E+03</rscale>
<asrwt>0</asrwt>
<pdfrwt beam="1">  1        5 0.15074269E-02 0.13986374E+03</pdfrwt>
<pdfrwt beam="2">  1       -5 0.35095792E+00 0.13986374E+03</pdfrwt>
<totfact> 0.17116861E+01</totfact>
</mgrwt>
</event>
<event>
 8    1  0.3682083E-007  0.1282669E+03  0.7546771E-02  0.1230050E+00
          5   -1    0    0  501    0  0.00000000000E+00  0.00000000000E+00  0.28184698803E+02  0.28573890995E+02  0.47000000000E+01 0. -1.
         -5   -1    0    0    0  501 -0.00000000000E+00 -0.00000000000E+00 -0.57934004640E+03  0.57935911088E+03  0.47000000000E+01 0. -1.
         25    2    1    2    0    0  0.28732576437E+02 -0.13168991897E+01 -0.27662948757E+03  0.30492008851E+03  0.12500036724E+03 0.  0.
         25    2    1    2    0    0 -0.28732576437E+02  0.13168991897E+01 -0.27452586002E+03  0.30301291336E+03  0.12500033069E+03 0.  0.
          5    1    3    3  502    0 -0.21977046969E+02  0.38152239718E+02 -0.39985853466E+02  0.59661901296E+02  0.47000000000E+01 0. -1.
         -5    1    3    3    0  502  0.50709623406E+02 -0.39469138907E+02 -0.23664363411E+03  0.24525818722E+03  0.47000000000E+01 0. -1.
          5    1    4    4  503    0  0.28180677681E+02 -0.44513939939E+02 -0.88598762973E+02  0.10318658946E+03  0.47000000000E+01 0.  1.
         -5    1    4    4    0  503 -0.56913254119E+02  0.45830839128E+02 -0.18592709705E+03  0.19982632391E+03  0.47000000000E+01 0.  1.
<mgrwt>
<rscale>  0 0.12826685E+03</rscale>
<asrwt>0</asrwt>
<pdfrwt beam="1">  1        5 0.43675123E-02 0.12826686E+03</pdfrwt>
<pdfrwt beam="2">  1       -5 0.89160633E-01 0.12826686E+03</pdfrwt>
<totfact> 0.24105531E+02</totfact>
</mgrwt>
</event>
<event>
 8    1  0.3682083E-007  0.1870276E+03  0.7546771E-02  0.1161170E+00
          5   -1    0    0  501    0  0.00000000000E+00  0.00000000000E+00  0.42559274085E+03  0.42561869210E+03  0.47000000000E+01 0.  1.
         -5   -1    0    0    0  501 -0.00000000000E+00 -0.00000000000E+00 -0.82100218947E+02  0.82234639607E+02  0.47000000000E+01 0.  1.
         25    2    1    2    0    0 -0.13742944759E+03 -0.21625999140E+02  0.17411339836E+03  0.25552848744E+03  0.12499918201E+03 0.  0.
         25    2    1    2    0    0  0.13742944759E+03  0.21625999140E+02  0.16937912354E+03  0.25232484426E+03  0.12499601048E+03 0.  0.
          5    1    4    4  502    0  0.13557181092E+03  0.33042681795E+01  0.18380324094E+03  0.22846521723E+03  0.47000000000E+01 0. -1.
         -5    1    4    4    0  502  0.18576366729E+01  0.18321730960E+02 -0.14424117399E+02  0.23859627033E+02  0.47000000000E+01 0. -1.
          5    1    3    3  503    0 -0.16434381338E+02 -0.47077028831E+02  0.98552788135E+02  0.11054898273E+03  0.47000000000E+01 0. -1.
         -5    1    3    3    0  503 -0.12099506625E+03  0.25451029691E+02  0.75560610225E+02  0.14497950471E+03  0.47000000000E+01 0. -1.
<mgrwt>
<rscale>  0 0.18702709E+03</rscale>
<asrwt>0</asrwt>
<pdfrwt beam="1">  1        5 0.65488143E-01 0.18702762E+03</pdfrwt>
<pdfrwt beam="2">  1       -5 0.12643139E-01 0.18702762E+03</pdfrwt>
<totfact> 0.89409885E+01</totfact>
</mgrwt>
</event>
<event>
 8    1  0.3682083E-007  0.1267713E+03  0.7546771E-02  0.1232333E+00
          5   -1    0    0  501    0  0.00000000000E+00  0.00000000000E+00  0.23266136509E+03  0.23270883267E+03  0.47000000000E+01 0. -1.
         -5   -1    0    0    0  501 -0.00000000000E+00 -0.00000000000E+00 -0.76633761507E+02  0.76777753306E+02  0.47000000000E+01 0. -1.
         25    2    1    2    0    0 -0.18086526878E+01 -0.20952148086E+02  0.29023636620E+02  0.13005124057E+03  0.12501475896E+03 0.  0.
         25    2    1    2    0    0  0.18086526878E+01  0.20952148086E+02  0.12700396696E+03  0.17943534541E+03  0.12499908729E+03 0.  0.
          5    1    3    3  502    0 -0.13033061681E+02 -0.68491360144E+02 -0.54342709407E+01  0.70089574202E+02  0.47000000000E+01 0. -1.
         -5    1    3    3    0  502  0.11224408993E+02  0.47539212057E+02  0.34457907561E+02  0.59961666369E+02  0.47000000000E+01 0. -1.
          5    1    4    4  503    0  0.15129709730E+02  0.67183841510E+02  0.10652695789E+03  0.12693565076E+03  0.47000000000E+01 0. -1.
         -5    1    4    4    0  503 -0.13321057042E+02 -0.46231693424E+02  0.20477009065E+02  0.52499694645E+02  0.47000000000E+01 0. -1.
<mgrwt>
<rscale>  0 0.12676740E+03</rscale>
<asrwt>0</asrwt>
<pdfrwt beam="1">  1        5 0.35808784E-01 0.12677127E+03</pdfrwt>
<pdfrwt beam="2">  1       -5 0.11804537E-01 0.12677127E+03</pdfrwt>
<totfact> 0.31995610E+02</totfact>
</mgrwt>
</event>
<event>
 8    1  0.3682083E-007  0.1310186E+03  0.7546771E-02  0.1225962E+00
         -5   -1    0    0    0  501 -0.00000000000E+00  0.00000000000E+00  0.76327162809E+02  0.76471731918E+02  0.47000000000E+01 0.  1.
          5   -1    0    0  501    0  0.00000000000E+00 -0.00000000000E+00 -0.23020756054E+03  0.23025553399E+03  0.47000000000E+01 0.  1.
         25    2    1    2    0    0  0.18548680954E+02 -0.34604898430E+02 -0.52745345496E+02  0.14123718178E+03  0.12499726991E+03 0.  0.
         25    2    1    2    0    0 -0.18548680954E+02  0.34604898430E+02 -0.10113505224E+03  0.16549008412E+03  0.12496846239E+03 0.  0.
          5    1    3    3  502    0 -0.11779331752E+02 -0.11517559638E+02 -0.87669465748E+02  0.89327666829E+02  0.47000000000E+01 0. -1.
         -5    1    3    3    0  502  0.30328012706E+02 -0.23087338792E+02  0.34924120251E+02  0.51909514952E+02  0.47000000000E+01 0. -1.
          5    1    4    4  503    0  0.25007522850E+02  0.65961515007E+02 -0.82113873748E+02  0.10835624543E+03  0.47000000000E+01 0. -1.
         -5    1    4    4    0  503 -0.43556203804E+02 -0.31356616578E+02 -0.19021178489E+02  0.57133838696E+02  0.47000000000E+01 0. -1.
<mgrwt>
<rscale>  0 0.13101172E+03</rscale>
<asrwt>0</asrwt>
<pdfrwt beam="2">  1        5 0.35431359E-01 0.13101859E+03</pdfrwt>
<pdfrwt beam="1">  1       -5 0.11757451E-01 0.13101859E+03</pdfrwt>
<totfact> 0.33314631E+02</totfact>
</mgrwt>
</event>
<event>
 8    1  0.3682083E-007  0.1303780E+03  0.7546771E-02  0.1226899E+00
          5   -1    0    0  501    0  0.00000000000E+00  0.00000000000E+00  0.20943104202E+03  0.20948377350E+03  0.47000000000E+01 0. -1.
         -5   -1    0    0    0  501 -0.00000000000E+00 -0.00000000000E+00 -0.81231250249E+02  0.81367106480E+02  0.47000000000E+01 0. -1.
         25    2    1    2    0    0 -0.14535910799E+02  0.34085121144E+02  0.56857327275E+02  0.14223635470E+03  0.12500134698E+03 0.  0.
         25    2    1    2    0    0  0.14535910799E+02 -0.34085121144E+02  0.71342464494E+02  0.14861452528E+03  0.12499376664E+03 0.  0.
          5    1    4    4  502    0  0.34270908614E+02 -0.56094016037E+02 -0.55163362546E+01  0.66132849463E+02  0.47000000000E+01 0.  1.
         -5    1    4    4    0  502 -0.19734997816E+02  0.22008894892E+02  0.76858800749E+02  0.82481675818E+02  0.47000000000E+01 0.  1.
          5    1    3    3  503    0  0.23253089864E+02 -0.38991171187E+02  0.33409261687E+02  0.56562234620E+02  0.47000000000E+01 0.  1.
         -5    1    3    3    0  503 -0.37789000662E+02  0.73076292331E+02  0.23448065588E+02  0.85674120082E+02  0.47000000000E+01 0.  1.
<mgrwt>
<rscale>  0 0.13037619E+03</rscale>
<asrwt>0</asrwt>
<pdfrwt beam="1">  1        5 0.32234667E-01 0.13037801E+03</pdfrwt>
<pdfrwt beam="2">  1       -5 0.12511622E-01 0.13037801E+03</pdfrwt>
<totfact> 0.35961481E+02</totfact>
</mgrwt>
</event>
<event>
 8    1  0.3682083E-007  0.1267034E+03  0.7546771E-02  0.1232433E+00
          5   -1    0    0  501    0  0.00000000000E+00  0.00000000000E+00  0.11203100614E+04  0.11203199202E+04  0.47000000000E+01 0. -1.
         -5   -1    0    0    0  501 -0.00000000000E+00 -0.00000000000E+00 -0.18386778950E+02  0.18977977767E+02  0.47000000000E+01 0. -1.
         25    2    1    2    0    0 -0.12121383399E+02  0.16777543000E+02  0.27573482116E+03  0.30345035352E+03  0.12499604621E+03 0.  0.
         25    2    1    2    0    0  0.12121383399E+02 -0.16777543000E+02  0.82618846129E+03  0.83584754448E+03  0.12500132064E+03 0.  0.
          5    1    4    4  502    0  0.47646519270E+02 -0.42006992092E+02  0.68643329105E+03  0.68938199225E+03  0.47000000000E+01 0. -1.
         -5    1    4    4    0  502 -0.35525135870E+02  0.25229449092E+02  0.13975517024E+03  0.14646555222E+03  0.47000000000E+01 0. -1.
          5    1    3    3  503    0  0.18750286699E+02 -0.34816023193E+01 -0.49924696683E+01  0.20265970477E+02  0.47000000000E+01 0. -1.
         -5    1    3    3    0  503 -0.30871670098E+02  0.20259145319E+02  0.28072729083E+03  0.28318438304E+03  0.47000000000E+01 0. -1.
<mgrwt>
<rscale>  0 0.12670207E+03</rscale>
<asrwt>0</asrwt>
<pdfrwt beam="1">  1        5 0.17240157E+00 0.12670337E+03</pdfrwt>
<pdfrwt beam="2">  1       -5 0.28749715E-02 0.12670337E+03</pdfrwt>
<totfact> 0.86342245E+01</totfact>
</mgrwt>
</event>
<event>
 8    1  0.3682083E-007  0.1543788E+03  0.7546771E-02  0.1195204E+00
          5   -1    0    0  501    0  0.00000000000E+00  0.00000000000E+00  0.19763175307E+03  0.19768763194E+03  0.47000000000E+01 0.  1.
         -5   -1    0    0    0  501 -0.00000000000E+00 -0.00000000000E+00 -0.12391216140E+03  0.12400126509E+03  0.47000000000E+01 0.  1.
         25    2    1    2    0    0 -0.65546056692E+02 -0.62458719927E+02  0.99649935677E+01  0.15466357748E+03  0.12499657540E+03 0.  0.
         25    2    1    2    0    0  0.65546056692E+02  0.62458719927E+02  0.63754598106E+02  0.16702531954E+03  0.12504171842E+03 0.  0.
          5    1    4    4  502    0  0.21255367780E+01 -0.35037769191E+02  0.25382609885E+01  0.35506280365E+02  0.47000000000E+01 0.  1.
         -5    1    4    4    0  502  0.63420519914E+02  0.97496489119E+02  0.61216337118E+02  0.13151903918E+03  0.47000000000E+01 0.  1.
          5    1    3    3  503    0 -0.35561325431E+02 -0.42120627888E+02  0.67025043796E+02  0.86909157492E+02  0.47000000000E+01 0.  1.
         -5    1    3    3    0  503 -0.29984731261E+02 -0.20338092040E+02 -0.57060050228E+02  0.67754419993E+02  0.47000000000E+01 0.  1.
<mgrwt>
<rscale>  0 0.15436964E+03</rscale>
<asrwt>0</asrwt>
<pdfrwt beam="1">  1        5 0.30416037E-01 0.15437878E+03</pdfrwt>
<pdfrwt beam="2">  1       -5 0.19074562E-01 0.15437878E+03</pdfrwt>
<totfact> 0.19851544E+02</totfact>
</mgrwt>
</event>
<event>
 8    1  0.3682083E-007  0.1591639E+03  0.7546771E-02  0.1189646E+00
         -5   -1    0    0    0  501 -0.00000000000E+00  0.00000000000E+00  0.78569306396E+02  0.78709757384E+02  0.47000000000E+01 0. -1.
          5   -1    0    0  501    0  0.00000000000E+00 -0.00000000000E+00 -0.44631299188E+03  0.44633773840E+03  0.47000000000E+01 0. -1.
         25    2    1    2    0    0 -0.90668353862E+02 -0.38549753464E+02 -0.45330676868E+02  0.16548763723E+03  0.12499781569E+03 0.  0.
         25    2    1    2    0    0  0.90668353862E+02  0.38549753464E+02 -0.32241300862E+03  0.35955985856E+03  0.12500523939E+03 0.  0.
          5    1    3    3  502    0  0.99769408007E+01  0.12079629160E+02  0.26967374736E+02  0.31540229684E+02  0.47000000000E+01 0.  1.
         -5    1    3    3    0  502 -0.10064529466E+03 -0.50629382624E+02 -0.72298051605E+02  0.13394740755E+03  0.47000000000E+01 0.  1.
          5    1    4    4  503    0  0.52833992502E+02  0.56000866667E+02 -0.71525417309E+02  0.10519269534E+03  0.47000000000E+01 0. -1.
         -5    1    4    4    0  503  0.37834361360E+02 -0.17451113203E+02 -0.25088759131E+03  0.25436716322E+03  0.47000000000E+01 0. -1.
<mgrwt>
<rscale>  0 0.15916243E+03</rscale>
<asrwt>0</asrwt>
<pdfrwt beam="2">  1        5 0.68676243E-01 0.15916389E+03</pdfrwt>
<pdfrwt beam="1">  1       -5 0.12100293E-01 0.15916389E+03</pdfrwt>
<totfact> 0.82945744E+01</totfact>
</mgrwt>
</event>
<event>
 8    1  0.3682083E-007  0.1914905E+03  0.7546771E-02  0.1157126E+00
         -5   -1    0    0    0  501 -0.00000000000E+00  0.00000000000E+00  0.93705890197E+03  0.93707068877E+03  0.47000000000E+01 0. -1.
          5   -1    0    0  501    0  0.00000000000E+00 -0.00000000000E+00 -0.41725739895E+02  0.41989610260E+02  0.47000000000E+01 0. -1.
         25    2    1    2    0    0 -0.35918185678E+02  0.14054128958E+03  0.57288348035E+03  0.60403709852E+03  0.12499345662E+03 0.  0.
         25    2    1    2    0    0  0.35918185678E+02 -0.14054128958E+03  0.32244968172E+03  0.37502320051E+03  0.12500653397E+03 0.  0.
          5    1    4    4  502    0  0.78935168619E+02 -0.10508843544E+03  0.25868821828E+03  0.29019997309E+03  0.47000000000E+01 0. -1.
         -5    1    4    4    0  502 -0.43016982941E+02 -0.35452854141E+02  0.63761463448E+02  0.84823227415E+02  0.47000000000E+01 0. -1.
          5    1    3    3  503    0 -0.24869715352E+02  0.20016110497E+02  0.34010437599E+03  0.34163170812E+03  0.47000000000E+01 0.  1.
         -5    1    3    3    0  503 -0.11048470327E+02  0.12052517909E+03  0.23277910435E+03  0.26240539041E+03  0.47000000000E+01 0.  1.
<mgrwt>
<rscale>  0 0.19148835E+03</rscale>
<asrwt>0</asrwt>
<pdfrwt beam="2">  1        5 0.64405495E-02 0.19149048E+03</pdfrwt>
<pdfrwt beam="1">  1       -5 0.14418410E+00 0.19149048E+03</pdfrwt>
<totfact> 0.42246064E+01</totfact>
</mgrwt>
</event>
<event>
 8    1  0.3682083E-007  0.1495435E+03  0.7546771E-02  0.1201036E+00
          5   -1    0    0  501    0  0.00000000000E+00  0.00000000000E+00  0.94324346518E+02  0.94441369887E+02  0.47000000000E+01 0. -1.
         -5   -1    0    0    0  501 -0.00000000000E+00 -0.00000000000E+00 -0.24249677657E+03  0.24254231929E+03  0.47000000000E+01 0. -1.
         25    2    1    2    0    0 -0.75367971071E+02 -0.32518772543E+02 -0.99915520029E+02  0.17985099192E+03  0.12500186607E+03 0.  0.
         25    2    1    2    0    0  0.75367971071E+02  0.32518772543E+02 -0.48256910022E+02  0.15713269725E+03  0.12499661416E+03 0.  0.
          5    1    4    4  502    0  0.73871309748E+02  0.29803682012E+02  0.25030581613E+02  0.83629240588E+02  0.47000000000E+01 0. -1.
         -5    1    4    4    0  502  0.14966613222E+01  0.27150905310E+01 -0.73287491635E+02  0.73503456666E+02  0.47000000000E+01 0. -1.
          5    1    3    3  503    0 -0.64986653741E+02 -0.83695113732E+01  0.10257824765E+02  0.66487794774E+02  0.47000000000E+01 0.  1.
         -5    1    3    3    0  503 -0.10381317330E+02 -0.24149261170E+02 -0.11017334479E+03  0.11336319715E+03  0.47000000000E+01 0.  1.
<mgrwt>
<rscale>  0 0.14954244E+03</rscale>
<asrwt>0</asrwt>
<pdfrwt beam="1">  1        5 0.14523943E-01 0.14954353E+03</pdfrwt>
<pdfrwt beam="2">  1       -5 0.37319701E-01 0.14954353E+03</pdfrwt>
<totfact> 0.21514073E+02</totfact>
</mgrwt>
</event>
<event>
 8    1  0.3682083E-007  0.1278520E+03  0.7546771E-02  0.1230679E+00
          5   -1    0    0  501    0  0.00000000000E+00  0.00000000000E+00  0.77841888053E+03  0.77843306941E+03  0.47000000000E+01 0.  1.
         -5   -1    0    0    0  501 -0.00000000000E+00 -0.00000000000E+00 -0.21370803078E+02  0.21881527008E+02  0.47000000000E+01 0.  1.
         25    2    1    2    0    0  0.98324053776E+01 -0.24972324830E+02  0.30960356360E+03  0.33496234160E+03  0.12500044198E+03 0.  0.
         25    2    1    2    0    0 -0.98324053776E+01  0.24972324830E+02  0.44744451385E+03  0.46535225482E+03  0.12500333951E+03 0.  0.
          5    1    3    3  502    0 -0.21602452263E+02 -0.22482721825E+02  0.30001868184E+03  0.30167107614E+03  0.47000000000E+01 0.  1.
         -5    1    3    3    0  502  0.31434857640E+02 -0.24896030055E+01  0.95848817574E+01  0.33291265465E+02  0.47000000000E+01 0.  1.
          5    1    4    4  503    0 -0.58947224980E+02  0.42439854543E+02  0.30590415109E+03  0.31444452013E+03  0.47000000000E+01 0. -1.
         -5    1    4    4    0  503  0.49114819603E+02 -0.17467529713E+02  0.14154036276E+03  0.15090773469E+03  0.47000000000E+01 0. -1.
<mgrwt>
<rscale>  0 0.12785127E+03</rscale>
<asrwt>0</asrwt>
<pdfrwt beam="1">  1        5 0.11979713E+00 0.12785198E+03</pdfrwt>
<pdfrwt beam="2">  1       -5 0.33281937E-02 0.12785198E+03</pdfrwt>
<totfact> 0.18213994E+02</totfact>
</mgrwt>
</event>
<event>
 8    1  0.3682083E-007  0.1278280E+03  0.7546771E-02  0.1230719E+00
         -5   -1    0    0    0  501 -0.00000000000E+00  0.00000000000E+00  0.14732084341E+03  0.14739579676E+03  0.47000000000E+01 0. -1.
          5   -1    0    0  501    0  0.00000000000E+00 -0.00000000000E+00 -0.19010960320E+03  0.19016769239E+03  0.47000000000E+01 0. -1.
         25    2    1    2    0    0  0.22331740177E+02 -0.14729181573E+02  0.87610094977E+02  0.15496943647E+03  0.12499736833E+03 0.  0.
         25    2    1    2    0    0 -0.22331740177E+02  0.14729181573E+02 -0.13039885477E+03  0.18259405268E+03  0.12498428437E+03 0.  0.
          5    1    4    4  502    0 -0.30000713938E+02 -0.36445117978E+02 -0.60451143690E+01  0.47821782369E+02  0.47000000000E+01 0. -1.
         -5    1    4    4    0  502  0.76689737602E+01  0.51174299552E+02 -0.12435374040E+03  0.13477227031E+03  0.47000000000E+01 0. -1.
          5    1    3    3  503    0  0.53426328975E+02  0.24546361635E+02  0.62561063108E+01  0.59313787296E+02  0.47000000000E+01 0.  1.
         -5    1    3    3    0  503 -0.31094588797E+02 -0.39275543209E+02  0.81353988666E+02  0.95655649173E+02  0.47000000000E+01 0.  1.
<mgrwt>
<rscale>  0 0.12782480E+03</rscale>
<asrwt>0</asrwt>
<pdfrwt beam="2">  1        5 0.29257866E-01 0.12782800E+03</pdfrwt>
<pdfrwt beam="1">  1       -5 0.22674979E-01 0.12782800E+03</pdfrwt>
<totfact> 0.14542364E+02</totfact>
</mgrwt>
</event>
<event>
 8    1  0.3682083E-007  0.1751103E+03  0.7546771E-02  0.1172622E+00
         -5   -1    0    0    0  501 -0.00000000000E+00  0.00000000000E+00  0.43716538504E+03  0.43719064934E+03  0.47000000000E+01 0.  1.
          5   -1    0    0  501    0  0.00000000000E+00 -0.00000000000E+00 -0.87150176450E+02  0.87276819690E+02  0.47000000000E+01 0.  1.
         25    2    1    2    0    0 -0.12092259020E+03 -0.20400252148E+02  0.29110590919E+03  0.33971376904E+03  0.12499740560E+03 0.  0.
         25    2    1    2    0    0  0.12092259020E+03  0.20400252148E+02  0.58909299401E+02  0.18475369999E+03  0.12500072399E+03 0.  0.
          5    1    3    3  502    0 -0.96528451927E+02  0.41397279798E+02  0.14462439638E+03  0.17880095871E+03  0.47000000000E+01 0.  1.
         -5    1    3    3    0  502 -0.24394138270E+02 -0.61797531947E+02  0.14648151281E+03  0.16091281034E+03  0.47000000000E+01 0.  1.
          5    1    4    4  503    0  0.13821599165E+03  0.43994949033E+02  0.44414216434E+02  0.15176932664E+03  0.47000000000E+01 0.  1.
         -5    1    4    4    0  503 -0.17293401454E+02 -0.23594696885E+02  0.14495082967E+02  0.32984373348E+02  0.47000000000E+01 0.  1.
<mgrwt>
<rscale>  0 0.17510973E+03</rscale>
<asrwt>0</asrwt>
<pdfrwt beam="2">  1        5 0.13419404E-01 0.17511032E+03</pdfrwt>
<pdfrwt beam="1">  1       -5 0.67267900E-01 0.17511032E+03</pdfrwt>
<totfact> 0.74245843E+01</totfact>
</mgrwt>
</event>
<event>
 8    1  0.3682083E-007  0.1280004E+03  0.7546771E-02  0.1230461E+00
         -5   -1    0    0    0  501 -0.00000000000E+00  0.00000000000E+00  0.34209283224E+02  0.34530639420E+02  0.47000000000E+01 0. -1.
          5   -1    0    0  501    0  0.00000000000E+00 -0.00000000000E+00 -0.49031090151E+03  0.49033342752E+03  0.47000000000E+01 0. -1.
         25    2    1    2    0    0 -0.26285162811E+02 -0.80767724674E+01 -0.18370296302E+03  0.22389924524E+03  0.12501179688E+03 0.  0.
         25    2    1    2    0    0  0.26285162811E+02  0.80767724674E+01 -0.27239865527E+03  0.30096482170E+03  0.12499060953E+03 0.  0.
          5    1    3    3  502    0 -0.84800090484E+01 -0.88918156407E+00  0.18407834519E+02  0.20824014239E+02  0.47000000000E+01 0. -1.
         -5    1    3    3    0  502 -0.17805153762E+02 -0.71875909033E+01 -0.20211079754E+03  0.20307523100E+03  0.47000000000E+01 0. -1.
          5    1    4    4  503    0  0.68566738815E+02 -0.20910031741E+02 -0.19681413395E+03  0.20951496467E+03  0.47000000000E+01 0.  1.
         -5    1    4    4    0  503 -0.42281576004E+02  0.28986804209E+02 -0.75584521320E+02  0.91449857029E+02  0.47000000000E+01 0.  1.
<mgrwt>
<rscale>  0 0.12799519E+03</rscale>
<asrwt>0</asrwt>
<pdfrwt beam="2">  1        5 0.75458894E-01 0.12800036E+03</pdfrwt>
<pdfrwt beam="1">  1       -5 0.52894195E-02 0.12800036E+03</pdfrwt>
<totfact> 0.25845930E+02</totfact>
</mgrwt>
</event>
<event>
 8    1  0.3682083E-007  0.2250557E+03  0.7546771E-02  0.1130169E+00
         -5   -1    0    0    0  501 -0.00000000000E+00  0.00000000000E+00  0.40716412058E+03  0.40719124633E+03  0.47000000000E+01 0.  1.
          5   -1    0    0  501    0  0.00000000000E+00 -0.00000000000E+00 -0.13484733002E+03  0.13492921260E+03  0.47000000000E+01 0.  1.
         25    2    1    2    0    0 -0.22680531776E+02 -0.18576761202E+03  0.60455666613E+02  0.23303428395E+03  0.12500431062E+03 0.  0.
         25    2    1    2    0    0  0.22680531776E+02  0.18576761202E+03  0.21186112394E+03  0.30908617498E+03  0.12500046212E+03 0.  0.
          5    1    3    3  502    0 -0.28442134512E+02 -0.22928837760E+02  0.59552425041E+02  0.70023338573E+02  0.47000000000E+01 0.  1.
         -5    1    3    3    0  502  0.57616027365E+01 -0.16283877426E+03  0.90324157222E+00  0.16301094538E+03  0.47000000000E+01 0.  1.
          5    1    4    4  503    0  0.49757209715E+02  0.38317343836E+02  0.21093804909E+02  0.66415640949E+02  0.47000000000E+01 0.  1.
         -5    1    4    4    0  503 -0.27076677939E+02  0.14745026818E+03  0.19076731904E+03  0.24267053403E+03  0.47000000000E+01 0.  1.
<mgrwt>
<rscale>  0 0.22505521E+03</rscale>
<asrwt>0</asrwt>
<pdfrwt beam="2">  1        5 0.20754128E-01 0.22505575E+03</pdfrwt>
<pdfrwt beam="1">  1       -5 0.62649020E-01 0.22505575E+03</pdfrwt>
<totfact> 0.41665953E+01</totfact>
</mgrwt>
</event>
<event>
 8    1  0.3682083E-007  0.1294466E+03  0.7546771E-02  0.1228284E+00
         -5   -1    0    0    0  501 -0.00000000000E+00  0.00000000000E+00  0.17916506308E+03  0.17922669954E+03  0.47000000000E+01 0.  1.
          5   -1    0    0  501    0  0.00000000000E+00 -0.00000000000E+00 -0.99458063178E+02  0.99569053079E+02  0.47000000000E+01 0.  1.
         25    2    1    2    0    0  0.23592400940E+02 -0.23990610169E+02  0.74285598428E+02  0.14924735621E+03  0.12499708974E+03 0.  0.
         25    2    1    2    0    0 -0.23592400940E+02  0.23990610169E+02  0.54214014760E+01  0.12954839642E+03  0.12498497774E+03 0.  0.
          5    1    3    3  502    0 -0.41716891774E+02 -0.35573087267E+02  0.59663693115E+02  0.81163969057E+02  0.47000000000E+01 0. -1.
         -5    1    3    3    0  502  0.65309292715E+02  0.11582477099E+02  0.14621905313E+02  0.68083387149E+02  0.47000000000E+01 0. -1.
          5    1    4    4  503    0 -0.12209703028E+02 -0.47561139188E+02 -0.19127827187E+02  0.52906545736E+02  0.47000000000E+01 0. -1.
         -5    1    4    4    0  503 -0.11382697913E+02  0.71551749356E+02  0.24549228663E+02  0.76641850680E+02  0.47000000000E+01 0. -1.
<mgrwt>
<rscale>  0 0.12944368E+03</rscale>
<asrwt>0</asrwt>
<pdfrwt beam="2">  1        5 0.15314520E-01 0.12944660E+03</pdfrwt>
<pdfrwt beam="1">  1       -5 0.27577135E-01 0.12944660E+03</pdfrwt>
<totfact> 0.33877191E+02</totfact>
</mgrwt>
</event>
<event>
 8    1  0.3682083E-007  0.1573233E+03  0.7546771E-02  0.1191760E+00
         -5   -1    0    0    0  501 -0.00000000000E+00  0.00000000000E+00  0.27529542469E+03  0.27533554231E+03  0.47000000000E+01 0.  1.
          5   -1    0    0  501    0  0.00000000000E+00 -0.00000000000E+00 -0.11465912876E+03  0.11475541734E+03  0.47000000000E+01 0.  1.
         25    2    1    2    0    0 -0.80753293922E+02  0.51051162772E+02  0.17111353782E+03  0.23244452485E+03  0.12499319424E+03 0.  0.
         25    2    1    2    0    0  0.80753293922E+02 -0.51051162772E+02 -0.10477241890E+02  0.15764643479E+03  0.12496123441E+03 0.  0.
          5    1    3    3  502    0 -0.67976617163E+02 -0.23991895092E+01  0.16301150608E+03  0.17669583387E+03  0.47000000000E+01 0.  1.
         -5    1    3    3    0  502 -0.12776676759E+02  0.53450352281E+02  0.81020317421E+01  0.55748690983E+02  0.47000000000E+01 0.  1.
          5    1    4    4  503    0 -0.29842783419E+02  0.58747969069E+01 -0.12336754741E+02  0.33157057747E+02  0.47000000000E+01 0. -1.
         -5    1    4    4    0  503  0.11059607734E+03 -0.56925959679E+02  0.18595128511E+01  0.12448937704E+03  0.47000000000E+01 0. -1.
<mgrwt>
<rscale>  0 0.15731693E+03</rscale>
<asrwt>0</asrwt>
<pdfrwt beam="2">  1        5 0.17650359E-01 0.15732328E+03</pdfrwt>
<pdfrwt beam="1">  1       -5 0.42363635E-01 0.15732328E+03</pdfrwt>
<totfact> 0.11818141E+02</totfact>
</mgrwt>
</event>
<event>
 8    1  0.3682083E-007  0.1276909E+03  0.7546771E-02  0.1230943E+00
         -5   -1    0    0    0  501 -0.00000000000E+00  0.00000000000E+00  0.19408389082E+03  0.19414079086E+03  0.47000000000E+01 0. -1.
          5   -1    0    0  501    0  0.00000000000E+00 -0.00000000000E+00 -0.84786041105E+02  0.84916210268E+02  0.47000000000E+01 0. -1.
         25    2    1    2    0    0 -0.25711313031E+02 -0.43535334429E+01  0.69361324773E+02  0.14526655609E+03  0.12494540437E+03 0.  0.
         25    2    1    2    0    0  0.25711313031E+02  0.43535334429E+01  0.39936524942E+02  0.13379044503E+03  0.12499972915E+03 0.  0.
          5    1    3    3  502    0 -0.46369376996E+02 -0.55383314461E+02  0.39475732726E+02  0.82449100165E+02  0.47000000000E+01 0.  1.
         -5    1    3    3    0  502  0.20658063965E+02  0.51029781018E+02  0.29885592047E+02  0.62817455930E+02  0.47000000000E+01 0.  1.
          5    1    4    4  503    0  0.48557763826E+02  0.48513636321E+01  0.76236729827E+02  0.90639511978E+02  0.47000000000E+01 0.  1.
         -5    1    4    4    0  503 -0.22846450796E+02 -0.49783018915E+00 -0.36300204885E+02  0.43150933056E+02  0.47000000000E+01 0.  1.
<mgrwt>
<rscale>  0 0.12767757E+03</rscale>
<asrwt>0</asrwt>
<pdfrwt beam="2">  1        5 0.13058396E-01 0.12769087E+03</pdfrwt>
<pdfrwt beam="1">  1       -5 0.29873450E-01 0.12769087E+03</pdfrwt>
<totfact> 0.38413118E+02</totfact>
</mgrwt>
</event>
<event>
 8    1  0.3682083E-007  0.1367987E+03  0.7546771E-02  0.1217703E+00
         -5   -1    0    0    0  501 -0.00000000000E+00  0.00000000000E+00  0.11355888195E+02  0.12290085300E+02  0.47000000000E+01 0.  1.
          5   -1    0    0  501    0  0.00000000000E+00 -0.00000000000E+00 -0.15927577972E+04  0.15927647317E+04  0.47000000000E+01 0.  1.
         25    2    1    2    0    0  0.55321993401E+02  0.52252080132E+01 -0.72438689764E+03  0.73719078670E+03  0.12500421100E+03 0.  0.
         25    2    1    2    0    0 -0.55321993401E+02 -0.52252080132E+01 -0.85701501137E+03  0.86786403031E+03  0.12500167851E+03 0.  0.
          5    1    3    3  502    0 -0.10318047072E+02 -0.25527452931E+02 -0.39030071684E+02  0.47995306481E+02  0.47000000000E+01 0.  1.
         -5    1    3    3    0  502  0.65640040473E+02  0.30752660944E+02 -0.68535682596E+03  0.68919548022E+03  0.47000000000E+01 0.  1.
          5    1    4    4  503    0 -0.52737486769E+01  0.89676367387E-01  0.20162501367E+01  0.73468177854E+01  0.47000000000E+01 0.  1.
         -5    1    4    4    0  503 -0.50048244724E+02 -0.53148843806E+01 -0.85903126151E+03  0.86051721252E+03  0.47000000000E+01 0.  1.
<mgrwt>
<rscale>  0 0.13679810E+03</rscale>
<asrwt>0</asrwt>
<pdfrwt beam="2">  1        5 0.24511189E+00 0.13679868E+03</pdfrwt>
<pdfrwt beam="1">  1       -5 0.18194557E-02 0.13679868E+03</pdfrwt>
<totfact> 0.59801393E+01</totfact>
</mgrwt>
</event>
<event>
 8    1  0.3682083E-007  0.1673274E+03  0.7546771E-02  0.1180668E+00
         -5   -1    0    0    0  501 -0.00000000000E+00  0.00000000000E+00  0.12877450463E+03  0.12886024617E+03  0.47000000000E+01 0.  1.
          5   -1    0    0  501    0  0.00000000000E+00 -0.00000000000E+00 -0.23310672370E+03  0.23315410062E+03  0.47000000000E+01 0.  1.
         25    2    1    2    0    0 -0.10002981536E+03 -0.48603335769E+02 -0.49262486440E+01  0.16738647087E+03  0.12500285794E+03 0.  0.
         25    2    1    2    0    0  0.10002981536E+03  0.48603335769E+02 -0.99405970426E+02  0.19462787592E+03  0.12502085794E+03 0.  0.
          5    1    3    3  502    0  0.15499751704E+02  0.77436256480E+01 -0.31303080773E+02  0.36085716107E+02  0.47000000000E+01 0.  1.
         -5    1    3    3    0  502 -0.11552956706E+03 -0.56346961417E+02  0.26376832129E+02  0.13130075476E+03  0.47000000000E+01 0.  1.
          5    1    4    4  503    0 -0.25015424718E+02  0.34892029055E+01 -0.43116610560E+02  0.50190418577E+02  0.47000000000E+01 0. -1.
         -5    1    4    4    0  503  0.12504524008E+03  0.45114132863E+02 -0.56289359866E+02  0.14443745734E+03  0.47000000000E+01 0. -1.
<mgrwt>
<rscale>  0 0.16732405E+03</rscale>
<asrwt>0</asrwt>
<pdfrwt beam="2">  1        5 0.35872813E-01 0.16732741E+03</pdfrwt>
<pdfrwt beam="1">  1       -5 0.19821702E-01 0.16732741E+03</pdfrwt>
<totfact> 0.13636126E+02</totfact>
</mgrwt>
</event>
<event>
 8    1  0.3682083E-007  0.1431111E+03  0.7546771E-02  0.1209203E+00
          5   -1    0    0  501    0  0.00000000000E+00  0.00000000000E+00  0.15563743993E+03  0.15570838997E+03  0.47000000000E+01 0.  1.
         -5   -1    0    0    0  501 -0.00000000000E+00 -0.00000000000E+00 -0.43715702375E+03  0.43718228854E+03  0.47000000000E+01 0.  1.
         25    2    1    2    0    0  0.44457299005E+02 -0.53670806323E+02 -0.38862563487E+03  0.41413811530E+03  0.12499395016E+03 0.  0.
         25    2    1    2    0    0 -0.44457299005E+02  0.53670806323E+02  0.10710605106E+03  0.17875256320E+03  0.12499506308E+03 0.  0.
          5    1    4    4  502    0 -0.45347145061E+02 -0.21729438973E+02  0.86958552108E+02  0.10056048860E+03  0.47000000000E+01 0. -1.
         -5    1    4    4    0  502  0.88984605615E+00  0.75400245296E+02  0.20147498947E+02  0.78192074602E+02  0.47000000000E+01 0. -1.
          5    1    3    3  503    0 -0.14676868899E+02  0.26497380736E+02 -0.18362954209E+03  0.18617040687E+03  0.47000000000E+01 0. -1.
         -5    1    3    3    0  503  0.59134167903E+02 -0.80168187059E+02 -0.20499609279E+03  0.22796770843E+03  0.47000000000E+01 0. -1.
<mgrwt>
<rscale>  0 0.14311081E+03</rscale>
<asrwt>0</asrwt>
<pdfrwt beam="1">  1        5 0.23951623E-01 0.14311105E+03</pdfrwt>
<pdfrwt beam="2">  1       -5 0.67262327E-01 0.14311105E+03</pdfrwt>
<totfact> 0.23982383E+01</totfact>
</mgrwt>
</event>
<event>
 8    1  0.3682083E-007  0.1266157E+03  0.7546771E-02  0.1232575E+00
         -5   -1    0    0    0  501 -0.00000000000E+00  0.00000000000E+00  0.18384485772E+03  0.18390492574E+03  0.47000000000E+01 0.  1.
          5   -1    0    0  501    0  0.00000000000E+00 -0.00000000000E+00 -0.88311198755E+02  0.88436179393E+02  0.47000000000E+01 0.  1.
         25    2    1    2    0    0  0.11932750623E+02 -0.16222805747E+02  0.64046526076E+02  0.14189254519E+03  0.12500386760E+03 0.  0.
         25    2    1    2    0    0 -0.11932750623E+02  0.16222805747E+02  0.31487132893E+02  0.13044855994E+03  0.12497926744E+03 0.  0.
          5    1    3    3  502    0  0.46139750321E+02 -0.51651384130E+02  0.12660445651E+02  0.70562872151E+02  0.47000000000E+01 0. -1.
         -5    1    3    3    0  502 -0.34206999697E+02  0.35428578383E+02  0.51386080425E+02  0.71329673040E+02  0.47000000000E+01 0. -1.
          5    1    4    4  503    0 -0.14852210753E+02  0.65201889302E+02  0.43244623455E+02  0.79775071235E+02  0.47000000000E+01 0. -1.
         -5    1    4    4    0  503  0.29194601300E+01 -0.48979083555E+02 -0.11757490562E+02  0.50673488706E+02  0.47000000000E+01 0. -1.
<mgrwt>
<rscale>  0 0.12660963E+03</rscale>
<asrwt>0</asrwt>
<pdfrwt beam="2">  1        5 0.13600573E-01 0.12661571E+03</pdfrwt>
<pdfrwt beam="1">  1       -5 0.28298059E-01 0.12661571E+03</pdfrwt>
<totfact> 0.39577784E+02</totfact>
</mgrwt>
</event>
<event>
 8    1  0.3682083E-007  0.1650335E+03  0.7546771E-02  0.1183130E+00
         -5   -1    0    0    0  501 -0.00000000000E+00  0.00000000000E+00  0.14679814870E+03  0.14687336880E+03  0.47000000000E+01 0.  1.
          5   -1    0    0  501    0  0.00000000000E+00 -0.00000000000E+00 -0.21780373624E+03  0.21785444113E+03  0.47000000000E+01 0.  1.
         25    2    1    2    0    0 -0.56863793364E+02  0.91515688191E+02  0.34846426411E+02  0.16866475846E+03  0.12499966052E+03 0.  0.
         25    2    1    2    0    0  0.56863793364E+02 -0.91515688191E+02 -0.10585201396E+03  0.19606305147E+03  0.12500983607E+03 0.  0.
          5    1    3    3  502    0 -0.53915661663E+02  0.77582049834E+02  0.78236731935E+02  0.12275564856E+03  0.47000000000E+01 0. -1.
         -5    1    3    3    0  502 -0.29481317010E+01  0.13933638357E+02 -0.43390305523E+02  0.45909109900E+02  0.47000000000E+01 0. -1.
          5    1    4    4  503    0  0.55555388543E+02 -0.11722199133E+03 -0.10927146130E+03  0.16967539215E+03  0.47000000000E+01 0.  1.
         -5    1    4    4    0  503  0.13084048208E+01  0.25706303138E+02  0.34194473447E+01  0.26387659319E+02  0.47000000000E+01 0.  1.
<mgrwt>
<rscale>  0 0.16503162E+03</rscale>
<asrwt>0</asrwt>
<pdfrwt beam="2">  1        5 0.33517954E-01 0.16503355E+03</pdfrwt>
<pdfrwt beam="1">  1       -5 0.22594017E-01 0.16503355E+03</pdfrwt>
<totfact> 0.12161273E+02</totfact>
</mgrwt>
</event>
<event>
 8    1  0.3682083E-007  0.1445984E+03  0.7546771E-02  0.1207274E+00
         -5   -1    0    0    0  501 -0.00000000000E+00  0.00000000000E+00  0.99881819011E+03  0.99882924811E+03  0.47000000000E+01 0. -1.
          5   -1    0    0  501    0  0.00000000000E+00 -0.00000000000E+00 -0.20665304992E+02  0.21193037310E+02  0.47000000000E+01 0. -1.
         25    2    1    2    0    0  0.64828647419E+02 -0.32860530322E+02  0.49889935215E+03  0.51943166973E+03  0.12500451178E+03 0.  0.
         25    2    1    2    0    0 -0.64828647419E+02  0.32860530322E+02  0.47925353297E+03  0.50059061570E+03  0.12499779071E+03 0.  0.
          5    1    3    3  502    0  0.45811393273E+02 -0.58995424513E+02  0.13740860537E+03  0.15646839520E+03  0.47000000000E+01 0. -1.
         -5    1    3    3    0  502  0.19017254146E+02  0.26134894191E+02  0.36149074678E+03  0.36296327453E+03  0.47000000000E+01 0. -1.
          5    1    4    4  503    0  0.30742877467E+02  0.15527673711E+02  0.23720232090E+03  0.23973582170E+03  0.47000000000E+01 0. -1.
         -5    1    4    4    0  503 -0.95571524886E+02  0.17332856611E+02  0.24205121207E+03  0.26085479400E+03  0.47000000000E+01 0. -1.
<mgrwt>
<rscale>  0 0.14459694E+03</rscale>
<asrwt>0</asrwt>
<pdfrwt beam="2">  1        5 0.32207246E-02 0.14459840E+03</pdfrwt>
<pdfrwt beam="1">  1       -5 0.15370571E+00 0.14459840E+03</pdfrwt>
<totfact> 0.10345702E+02</totfact>
</mgrwt>
</event>
<event>
 8    1  0.3682083E-007  0.1528878E+03  0.7546771E-02  0.1196972E+00
          5   -1    0    0  501    0  0.00000000000E+00  0.00000000000E+00  0.12976247964E+03  0.12984756880E+03  0.47000000000E+01 0. -1.
         -5   -1    0    0    0  501 -0.00000000000E+00 -0.00000000000E+00 -0.18938863437E+03  0.18944694462E+03  0.47000000000E+01 0. -1.
         25    2    1    2    0    0 -0.35352502102E+02  0.80607860577E+02 -0.65445442285E+02  0.16630626297E+03  0.12500896206E+03 0.  0.
         25    2    1    2    0    0  0.35352502102E+02 -0.80607860577E+02  0.58192875621E+01  0.15298825045E+03  0.12499645626E+03 0.  0.
          5    1    3    3  502    0  0.14117717549E+02 -0.18221301866E+02 -0.49154635495E+02  0.54493981146E+02  0.47000000000E+01 0. -1.
         -5    1    3    3    0  502 -0.49470219650E+02  0.98829162443E+02 -0.16290806790E+02  0.11181228183E+03  0.47000000000E+01 0. -1.
          5    1    4    4  503    0  0.34339783179E+02 -0.52043061570E+02  0.63079002960E+02  0.88818644331E+02  0.47000000000E+01 0. -1.
         -5    1    4    4    0  503  0.10127189222E+01 -0.28564799008E+02 -0.57259715398E+02  0.64169606119E+02  0.47000000000E+01 0. -1.
<mgrwt>
<rscale>  0 0.15288520E+03</rscale>
<asrwt>0</asrwt>
<pdfrwt beam="1">  1        5 0.19974489E-01 0.15288776E+03</pdfrwt>
<pdfrwt beam="2">  1       -5 0.29147744E-01 0.15288776E+03</pdfrwt>
<totfact> 0.19742713E+02</totfact>
</mgrwt>
</event>
<event>
 8    1  0.3682083E-007  0.1313490E+03  0.7546771E-02  0.1225468E+00
         -5   -1    0    0    0  501 -0.00000000000E+00  0.00000000000E+00  0.20923383408E+02  0.21444765637E+02  0.47000000000E+01 0.  1.
          5   -1    0    0  501    0  0.00000000000E+00 -0.00000000000E+00 -0.11257006787E+04  0.11257104904E+04  0.47000000000E+01 0.  1.
         25    2    1    2    0    0  0.22857716542E+02  0.33239301390E+02 -0.25058230733E+03  0.28292058639E+03  0.12500095637E+03 0.  0.
         25    2    1    2    0    0 -0.22857716542E+02 -0.33239301390E+02 -0.85419498801E+03  0.86423466962E+03  0.12500064108E+03 0.  0.
          5    1    3    3  502    0  0.26031889158E+02  0.36445297462E+02 -0.26410153697E+03  0.26791347632E+03  0.47000000000E+01 0.  1.
         -5    1    3    3    0  502 -0.31741726161E+01 -0.32059960722E+01  0.13519229642E+02  0.15007110073E+02  0.47000000000E+01 0.  1.
          5    1    4    4  503    0 -0.36526719546E+02  0.41347295911E+02 -0.36341528534E+03  0.36760924872E+03  0.47000000000E+01 0.  1.
         -5    1    4    4    0  503  0.13669003004E+02 -0.74586597301E+02 -0.49077970266E+03  0.49662542090E+03  0.47000000000E+01 0.  1.
<mgrwt>
<rscale>  0 0.13134895E+03</rscale>
<asrwt>0</asrwt>
<pdfrwt beam="2">  1        5 0.17322553E+00 0.13134902E+03</pdfrwt>
<pdfrwt beam="1">  1       -5 0.32598440E-02 0.13134902E+03</pdfrwt>
<totfact> 0.70328876E+01</totfact>
</mgrwt>
</event>
<event>
 8    1  0.3682083E-007  0.1385073E+03  0.7546771E-02  0.1215364E+00
          5   -1    0    0  501    0  0.00000000000E+00  0.00000000000E+00  0.29088978266E+02  0.29466229086E+02  0.47000000000E+01 0.  1.
         -5   -1    0    0    0  501 -0.00000000000E+00 -0.00000000000E+00 -0.65616541114E+03  0.65618224357E+03  0.47000000000E+01 0.  1.
         25    2    1    2    0    0 -0.47116261052E+02  0.36617270300E+02 -0.32969647408E+03  0.35759495092E+03  0.12495446115E+03 0.  0.
         25    2    1    2    0    0  0.47116261052E+02 -0.36617270300E+02 -0.29737995880E+03  0.32805352174E+03  0.12499402663E+03 0.  0.
          5    1    3    3  502    0 -0.26457639014E+02 -0.23468650522E+02 -0.26281065874E+03  0.26522125965E+03  0.47000000000E+01 0. -1.
         -5    1    3    3    0  502 -0.20658622038E+02  0.60085920822E+02 -0.66885815335E+02  0.92373691269E+02  0.47000000000E+01 0. -1.
          5    1    4    4  503    0 -0.37036657174E+02 -0.17690451458E+02 -0.44009158424E+02  0.60361925687E+02  0.47000000000E+01 0.  1.
         -5    1    4    4    0  503  0.84152918226E+02 -0.18926818843E+02 -0.25337080037E+03  0.26769159606E+03  0.47000000000E+01 0.  1.
<mgrwt>
<rscale>  0 0.13849838E+03</rscale>
<asrwt>0</asrwt>
<pdfrwt beam="1">  1        5 0.45055420E-02 0.13850730E+03</pdfrwt>
<pdfrwt beam="2">  1       -5 0.10097883E+00 0.13850730E+03</pdfrwt>
<totfact> 0.17436411E+02</totfact>
</mgrwt>
</event>
<event>
 8    1  0.3682083E-007  0.1435331E+03  0.7546771E-02  0.1208656E+00
          5   -1    0    0  501    0  0.00000000000E+00  0.00000000000E+00  0.70366827878E+02  0.70523616367E+02  0.47000000000E+01 0. -1.
         -5   -1    0    0    0  501 -0.00000000000E+00 -0.00000000000E+00 -0.31755825835E+03  0.31759303746E+03  0.47000000000E+01 0. -1.
         25    2    1    2    0    0 -0.42802561788E+02 -0.56104720355E+02 -0.17835778478E+03  0.22893175176E+03  0.12497379177E+03 0.  0.
         25    2    1    2    0    0  0.42802561788E+02  0.56104720355E+02 -0.68833645688E+02  0.15918490207E+03  0.12498785272E+03 0.  0.
          5    1    3    3  502    0  0.41028573909E+02 -0.28330205877E+02 -0.37305891917E+02  0.62448090553E+02  0.47000000000E+01 0.  1.
         -5    1    3    3    0  502 -0.83831135698E+02 -0.27774514479E+02 -0.14105189287E+03  0.16648366120E+03  0.47000000000E+01 0.  1.
          5    1    4    4  503    0  0.84782122638E+02  0.52258139308E+02 -0.37807548470E+02  0.10663218165E+03  0.47000000000E+01 0. -1.
         -5    1    4    4    0  503 -0.41979560850E+02  0.38465810475E+01 -0.31026097219E+02  0.52552720420E+02  0.47000000000E+01 0. -1.
<mgrwt>
<rscale>  0 0.14353008E+03</rscale>
<asrwt>0</asrwt>
<pdfrwt beam="1">  1        5 0.10840402E-01 0.14353314E+03</pdfrwt>
<pdfrwt beam="2">  1       -5 0.48869852E-01 0.14353314E+03</pdfrwt>
<totfact> 0.20460746E+02</totfact>
</mgrwt>
</event>
<event>
 8    1  0.3682083E-007  0.1333510E+03  0.7546771E-02  0.1222569E+00
         -5   -1    0    0    0  501 -0.00000000000E+00  0.00000000000E+00  0.65662310503E+03  0.65663992573E+03  0.47000000000E+01 0.  1.
          5   -1    0    0  501    0  0.00000000000E+00 -0.00000000000E+00 -0.27317637070E+02  0.27719006026E+02  0.47000000000E+01 0.  1.
         25    2    1    2    0    0 -0.41781210218E+02 -0.20244906325E+02  0.35864528034E+03  0.38263420995E+03  0.12500790276E+03 0.  0.
         25    2    1    2    0    0  0.41781210218E+02  0.20244906325E+02  0.27066018762E+03  0.30172472181E+03  0.12500137931E+03 0.  0.
          5    1    3    3  502    0  0.16552997290E+02 -0.14966596936E+02  0.29549681101E+03  0.29637553216E+03  0.47000000000E+01 0.  1.
         -5    1    3    3    0  502 -0.58334207508E+02 -0.52783093889E+01  0.63148469334E+02  0.86258677794E+02  0.47000000000E+01 0.  1.
          5    1    4    4  503    0  0.24884824418E+02  0.55703470470E+02  0.24943659566E+03  0.25683231176E+03  0.47000000000E+01 0.  1.
         -5    1    4    4    0  503  0.16896385800E+02 -0.35458564145E+02  0.21223591958E+02  0.44892410048E+02  0.47000000000E+01 0.  1.
<mgrwt>
<rscale>  0 0.13334952E+03</rscale>
<asrwt>0</asrwt>
<pdfrwt beam="2">  1        5 0.42348823E-02 0.13335105E+03</pdfrwt>
<pdfrwt beam="1">  1       -5 0.10105110E+00 0.13335105E+03</pdfrwt>
<totfact> 0.19037997E+02</totfact>
</mgrwt>
</event>
<event>
 8    1  0.3682083E-007  0.1517172E+03  0.7546771E-02  0.1198388E+00
          5   -1    0    0  501    0  0.00000000000E+00  0.00000000000E+00  0.70419325389E+02  0.70575997252E+02  0.47000000000E+01 0. -1.
         -5   -1    0    0    0  501 -0.00000000000E+00 -0.00000000000E+00 -0.32656749326E+03  0.32660131301E+03  0.47000000000E+01 0. -1.
         25    2    1    2    0    0 -0.60775334795E+02  0.60823166774E+02 -0.13405985201E+03  0.20246022251E+03  0.12499999536E+03 0.  0.
         25    2    1    2    0    0  0.60775334795E+02 -0.60823166774E+02 -0.12208831586E+03  0.19471708775E+03  0.12496434874E+03 0.  0.
          5    1    4    4  502    0  0.26225753440E+02 -0.82222168873E+02 -0.12688543651E+03  0.15352615150E+03  0.47000000000E+01 0.  1.
         -5    1    4    4    0  502  0.34549581355E+02  0.21399002098E+02  0.47971206417E+01  0.41190936249E+02  0.47000000000E+01 0.  1.
          5    1    3    3  503    0  0.37580993471E+02  0.44539267488E+01 -0.30271060483E+02  0.48688762938E+02  0.47000000000E+01 0. -1.
         -5    1    3    3    0  503 -0.98356328265E+02  0.56369240026E+02 -0.10378879153E+03  0.15377145957E+03  0.47000000000E+01 0. -1.
<mgrwt>
<rscale>  0 0.15170982E+03</rscale>
<asrwt>0</asrwt>
<pdfrwt beam="1">  1        5 0.10848396E-01 0.15171716E+03</pdfrwt>
<pdfrwt beam="2">  1       -5 0.50255805E-01 0.15171716E+03</pdfrwt>
<totfact> 0.19613856E+02</totfact>
</mgrwt>
</event>
<event>
 8    1  0.3682083E-007  0.1350799E+03  0.7546771E-02  0.1220112E+00
         -5   -1    0    0    0  501 -0.00000000000E+00  0.00000000000E+00  0.22091034595E+03  0.22096033795E+03  0.47000000000E+01 0.  1.
          5   -1    0    0  501    0  0.00000000000E+00 -0.00000000000E+00 -0.93286748296E+02  0.93405071638E+02  0.47000000000E+01 0.  1.
         25    2    1    2    0    0 -0.42395660482E+02  0.28650432971E+02  0.11730578160E+03  0.17890565513E+03  0.12501339009E+03 0.  0.
         25    2    1    2    0    0  0.42395660482E+02 -0.28650432971E+02  0.10317816053E+02  0.13545975446E+03  0.12499859365E+03 0.  0.
          5    1    3    3  502    0 -0.35468254746E+02  0.44565273370E+02 -0.30330716105E+01  0.57230675417E+02  0.47000000000E+01 0. -1.
         -5    1    3    3    0  502 -0.69274057362E+01 -0.15914840399E+02  0.12033885321E+03  0.12167497971E+03  0.47000000000E+01 0. -1.
          5    1    4    4  503    0  0.33495392412E+02 -0.17718226492E+02  0.66861368650E+02  0.76996165363E+02  0.47000000000E+01 0. -1.
         -5    1    4    4    0  503  0.89002680701E+01 -0.10932206479E+02 -0.56543552597E+02  0.58463589100E+02  0.47000000000E+01 0. -1.
<mgrwt>
<rscale>  0 0.13507650E+03</rscale>
<asrwt>0</asrwt>
<pdfrwt beam="2">  1        5 0.14364755E-01 0.13507993E+03</pdfrwt>
<pdfrwt beam="1">  1       -5 0.33999154E-01 0.13507993E+03</pdfrwt>
<totfact> 0.25581000E+02</totfact>
</mgrwt>
</event>
<event>
 8    1  0.3682083E-007  0.1300472E+03  0.7546771E-02  0.1227386E+00
         -5   -1    0    0    0  501 -0.00000000000E+00  0.00000000000E+00  0.14843750928E+03  0.14851189906E+03  0.47000000000E+01 0.  1.
          5   -1    0    0  501    0  0.00000000000E+00 -0.00000000000E+00 -0.14342858361E+03  0.14350556991E+03  0.47000000000E+01 0.  1.
         25    2    1    2    0    0 -0.14471332763E+02  0.32834378285E+02  0.68847162396E+02  0.14714652040E+03  0.12499860330E+03 0.  0.
         25    2    1    2    0    0  0.14471332763E+02 -0.32834378285E+02 -0.63838236719E+02  0.14487094857E+03  0.12499902160E+03 0.  0.
          5    1    4    4  502    0  0.34580103076E+02  0.40205166377E+02 -0.34799923282E+02  0.63603172819E+02  0.47000000000E+01 0. -1.
         -5    1    4    4    0  502 -0.20108770313E+02 -0.73039544662E+02 -0.29038313437E+02  0.81267775749E+02  0.47000000000E+01 0. -1.
          5    1    3    3  503    0  0.47042714472E+02  0.28554072303E+02  0.85530980220E+00  0.55237429202E+02  0.47000000000E+01 0.  1.
         -5    1    3    3    0  503 -0.61514047235E+02  0.42803059813E+01  0.67991852594E+02  0.91909091202E+02  0.47000000000E+01 0.  1.
<mgrwt>
<rscale>  0 0.13004709E+03</rscale>
<asrwt>0</asrwt>
<pdfrwt beam="2">  1        5 0.22077580E-01 0.13004719E+03</pdfrwt>
<pdfrwt beam="1">  1       -5 0.22848184E-01 0.13004719E+03</pdfrwt>
<totfact> 0.24753113E+02</totfact>
</mgrwt>
</event>
<event>
 8    1  0.3682083E-007  0.1890680E+03  0.7546771E-02  0.1159305E+00
         -5   -1    0    0    0  501 -0.00000000000E+00  0.00000000000E+00  0.13583926883E+03  0.13592055384E+03  0.47000000000E+01 0.  1.
          5   -1    0    0  501    0  0.00000000000E+00 -0.00000000000E+00 -0.34005641549E+03  0.34008889384E+03  0.47000000000E+01 0.  1.
         25    2    1    2    0    0 -0.14146857507E+03 -0.10335342361E+02  0.11187960510E+02  0.18939872711E+03  0.12500612119E+03 0.  0.
         25    2    1    2    0    0  0.14146857507E+03  0.10335342361E+02 -0.21540510717E+03  0.28661072058E+03  0.12500467159E+03 0.  0.
          5    1    3    3  502    0 -0.82610132475E+02 -0.76456550299E+01 -0.55776340985E+02  0.10007986932E+03  0.47000000000E+01 0. -1.
         -5    1    3    3    0  502 -0.58858442598E+02 -0.26896873308E+01  0.66964301495E+02  0.89318857795E+02  0.47000000000E+01 0. -1.
          5    1    4    4  503    0  0.33387867794E+02 -0.35449822950E+02 -0.99235004160E+01  0.49919991221E+02  0.47000000000E+01 0.  1.
         -5    1    4    4    0  503  0.10808070728E+03  0.45785165311E+02 -0.20548160675E+03  0.23669072935E+03  0.47000000000E+01 0.  1.
<mgrwt>
<rscale>  0 0.18906776E+03</rscale>
<asrwt>0</asrwt>
<pdfrwt beam="2">  1        5 0.52325122E-01 0.18906800E+03</pdfrwt>
<pdfrwt beam="1">  1       -5 0.20907100E-01 0.18906800E+03</pdfrwt>
<totfact> 0.58244030E+01</totfact>
</mgrwt>
</event>
<event>
 8    1  0.3682083E-007  0.1729047E+03  0.7546771E-02  0.1174852E+00
          5   -1    0    0  501    0  0.00000000000E+00  0.00000000000E+00  0.13875424676E+03  0.13883382511E+03  0.47000000000E+01 0.  1.
         -5   -1    0    0    0  501 -0.00000000000E+00 -0.00000000000E+00 -0.21701676269E+03  0.21706765141E+03  0.47000000000E+01 0.  1.
         25    2    1    2    0    0 -0.11235284183E+03  0.40592144889E+02 -0.23277289628E+02  0.17446453389E+03  0.12500063231E+03 0.  0.
         25    2    1    2    0    0  0.11235284183E+03 -0.40592144889E+02 -0.54985226306E+02  0.18143694263E+03  0.12500042298E+03 0.  0.
          5    1    4    4  502    0  0.49421423963E+02  0.28702238478E+02 -0.65580660064E+02  0.87116064045E+02  0.47000000000E+01 0. -1.
         -5    1    4    4    0  502  0.62931417866E+02 -0.69294383367E+02  0.10595433759E+02  0.94320878587E+02  0.47000000000E+01 0. -1.
          5    1    3    3  503    0 -0.44425139753E+02  0.57383193288E+02  0.37357656402E+02  0.81756396727E+02  0.47000000000E+01 0. -1.
         -5    1    3    3    0  503 -0.67927702077E+02 -0.16791048399E+02 -0.60634946030E+02  0.92708137161E+02  0.47000000000E+01 0. -1.
<mgrwt>
<rscale>  0 0.17290468E+03</rscale>
<asrwt>0</asrwt>
<pdfrwt beam="1">  1        5 0.21356843E-01 0.17290472E+03</pdfrwt>
<pdfrwt beam="2">  1       -5 0.33397230E-01 0.17290472E+03</pdfrwt>
<totfact> 0.13818606E+02</totfact>
</mgrwt>
</event>
<event>
 8    1  0.3682083E-007  0.1625782E+03  0.7546771E-02  0.1185821E+00
         -5   -1    0    0    0  501 -0.00000000000E+00  0.00000000000E+00  0.12371601406E+02  0.13234293383E+02  0.47000000000E+01 0. -1.
          5   -1    0    0  501    0  0.00000000000E+00 -0.00000000000E+00 -0.21570663543E+04  0.21570714747E+04  0.47000000000E+01 0. -1.
         25    2    1    2    0    0 -0.97315689436E+02 -0.36553487867E+02 -0.84621378265E+03  0.86168646069E+03  0.12497715669E+03 0.  0.
         25    2    1    2    0    0  0.97315689436E+02  0.36553487867E+02 -0.12984809702E+04  0.13086193074E+04  0.12500064264E+03 0.  0.
          5    1    4    4  502    0  0.61003846322E+02  0.51384615288E+02 -0.11978528066E+04  0.12005145915E+04  0.47000000000E+01 0.  1.
         -5    1    4    4    0  502  0.36311843113E+02 -0.14831127420E+02 -0.10062816362E+03  0.10810471593E+03  0.47000000000E+01 0.  1.
          5    1    3    3  503    0 -0.11591903010E+03 -0.27249455804E+02 -0.47014517394E+03  0.48501374100E+03  0.47000000000E+01 0.  1.
         -5    1    3    3    0  503  0.18603340662E+02 -0.93040320633E+01 -0.37606860872E+03  0.37667271969E+03  0.47000000000E+01 0.  1.
<mgrwt>
<rscale>  0 0.16257366E+03</rscale>
<asrwt>0</asrwt>
<pdfrwt beam="2">  1        5 0.33192283E+00 0.16257817E+03</pdfrwt>
<pdfrwt beam="1">  1       -5 0.19700798E-02 0.16257817E+03</pdfrwt>
<totfact> 0.15435699E+01</totfact>
</mgrwt>
</event>
<event>
 8    1  0.3682083E-007  0.2081426E+03  0.7546771E-02  0.1143046E+00
         -5   -1    0    0    0  501 -0.00000000000E+00  0.00000000000E+00  0.16836451076E+03  0.16843009970E+03  0.47000000000E+01 0.  1.
          5   -1    0    0  501    0  0.00000000000E+00 -0.00000000000E+00 -0.31990792447E+03  0.31994244817E+03  0.47000000000E+01 0.  1.
         25    2    1    2    0    0 -0.16399731537E+03 -0.28340819675E+02  0.32339433066E+02  0.21063997916E+03  0.12500016153E+03 0.  0.
         25    2    1    2    0    0  0.16399731537E+03  0.28340819675E+02 -0.18388284678E+03  0.27773256871E+03  0.12499662746E+03 0.  0.
          5    1    3    3  502    0 -0.70686053921E+02 -0.28842973600E+01  0.76419004626E+02  0.10424390466E+03  0.47000000000E+01 0. -1.
         -5    1    3    3    0  502 -0.93311261444E+02 -0.25456522315E+02 -0.44079571560E+02  0.10639607450E+03  0.47000000000E+01 0. -1.
          5    1    4    4  503    0  0.13983697948E+03  0.58685154671E+02 -0.18422250570E+03  0.23865948507E+03  0.47000000000E+01 0. -1.
         -5    1    4    4    0  503  0.24160335888E+02 -0.30344334996E+02  0.33965892432E+00  0.39073083635E+02  0.47000000000E+01 0. -1.
<mgrwt>
<rscale>  0 0.20814212E+03</rscale>
<asrwt>0</asrwt>
<pdfrwt beam="2">  1        5 0.49224305E-01 0.20814265E+03</pdfrwt>
<pdfrwt beam="1">  1       -5 0.25909933E-01 0.20814265E+03</pdfrwt>
<totfact> 0.45165847E+01</totfact>
</mgrwt>
</event>
<event>
 8    1  0.3682083E-007  0.1504081E+03  0.7546771E-02  0.1199982E+00
         -5   -1    0    0    0  501 -0.00000000000E+00  0.00000000000E+00  0.34361390827E+02  0.34681337626E+02  0.47000000000E+01 0.  1.
          5   -1    0    0  501    0  0.00000000000E+00 -0.00000000000E+00 -0.69863508413E+03  0.69865089334E+03  0.47000000000E+01 0.  1.
         25    2    1    2    0    0 -0.56352262178E+02  0.61732553668E+02 -0.24033735531E+03  0.28350492667E+03  0.12500605368E+03 0.  0.
         25    2    1    2    0    0  0.56352262178E+02 -0.61732553668E+02 -0.42393633799E+03  0.44982730430E+03  0.12504438966E+03 0.  0.
          5    1    4    4  502    0  0.38351540040E+02 -0.35614187077E+02 -0.41242146112E+03  0.41575565244E+03  0.47000000000E+01 0. -1.
         -5    1    4    4    0  502  0.18000722138E+02 -0.26118366591E+02 -0.11514876873E+02  0.34071651857E+02  0.47000000000E+01 0. -1.
          5    1    3    3  503    0 -0.24097831330E+02  0.82483712756E+02 -0.22677205184E+03  0.24255292586E+03  0.47000000000E+01 0.  1.
         -5    1    3    3    0  503 -0.32254430848E+02 -0.20751159088E+02 -0.13565303464E+02  0.40952000817E+02  0.47000000000E+01 0.  1.
<mgrwt>
<rscale>  0 0.15040009E+03</rscale>
<asrwt>0</asrwt>
<pdfrwt beam="2">  1        5 0.10750814E+00 0.15040806E+03</pdfrwt>
<pdfrwt beam="1">  1       -5 0.53121957E-02 0.15040806E+03</pdfrwt>
<totfact> 0.11669418E+02</totfact>
</mgrwt>
</event>
<event>
 8    1  0.3682083E-007  0.1257068E+03  0.7546771E-02  0.1233970E+00
         -5   -1    0    0    0  501 -0.00000000000E+00  0.00000000000E+00  0.49159832759E+02  0.49383996972E+02  0.47000000000E+01 0. -1.
          5   -1    0    0  501    0  0.00000000000E+00 -0.00000000000E+00 -0.32620621389E+03  0.32624007109E+03  0.47000000000E+01 0. -1.
         25    2    1    2    0    0  0.12216621103E+02 -0.51916952055E+01 -0.11360769167E+03  0.16943382782E+03  0.12499965949E+03 0.  0.
         25    2    1    2    0    0 -0.12216621103E+02  0.51916952055E+01 -0.16343868947E+03  0.20619024024E+03  0.12500404164E+03 0.  0.
          5    1    3    3  502    0  0.10943885372E+01  0.38171199434E+02 -0.11808891158E+03  0.12419870849E+03  0.47000000000E+01 0.  1.
         -5    1    3    3    0  502  0.11122232566E+02 -0.43362894639E+02  0.44812199130E+01  0.45235119328E+02  0.47000000000E+01 0.  1.
          5    1    4    4  503    0 -0.33246629227E+02  0.58099362815E+02 -0.72431470534E+02  0.98738453695E+02  0.47000000000E+01 0.  1.
         -5    1    4    4    0  503  0.21030008124E+02 -0.52907667610E+02 -0.91007218934E+02  0.10745178654E+03  0.47000000000E+01 0.  1.
<mgrwt>
<rscale>  0 0.12570575E+03</rscale>
<asrwt>0</asrwt>
<pdfrwt beam="2">  1        5 0.50205418E-01 0.12570684E+03</pdfrwt>
<pdfrwt beam="1">  1       -5 0.75828992E-02 0.12570684E+03</pdfrwt>
<totfact> 0.34258003E+02</totfact>
</mgrwt>
</event>
<event>
 8    1  0.3682083E-007  0.1390445E+03  0.7546771E-02  0.1214623E+00
          5   -1    0    0  501    0  0.00000000000E+00  0.00000000000E+00  0.17914384117E+02  0.18520668409E+02  0.47000000000E+01 0. -1.
         -5   -1    0    0    0  501 -0.00000000000E+00 -0.00000000000E+00 -0.10728020342E+04  0.10728123296E+04  0.47000000000E+01 0. -1.
         25    2    1    2    0    0  0.55935754706E+02 -0.24025099879E+02 -0.58568069621E+03  0.60195950852E+03  0.12500943125E+03 0.  0.
         25    2    1    2    0    0 -0.55935754706E+02  0.24025099879E+02 -0.46920695387E+03  0.48937348951E+03  0.12500093038E+03 0.  0.
          5    1    3    3  502    0  0.10159708219E+02 -0.68289800561E+02 -0.39096764486E+03  0.39704471519E+03  0.47000000000E+01 0. -1.
         -5    1    3    3    0  502  0.45776046487E+02  0.44264700682E+02 -0.19471305135E+03  0.20491479333E+03  0.47000000000E+01 0. -1.
          5    1    4    4  503    0 -0.28683729076E+02 -0.96563094688E+01 -0.42896038983E+03  0.43005244641E+03  0.47000000000E+01 0. -1.
         -5    1    4    4    0  503 -0.27252025630E+02  0.33681409348E+02 -0.40246564043E+02  0.59321043095E+02  0.47000000000E+01 0. -1.
<mgrwt>
<rscale>  0 0.13904259E+03</rscale>
<asrwt>0</asrwt>
<pdfrwt beam="1">  1        5 0.28034891E-02 0.13904450E+03</pdfrwt>
<pdfrwt beam="2">  1       -5 0.16509385E+00 0.13904450E+03</pdfrwt>
<totfact> 0.10473980E+02</totfact>
</mgrwt>
</event>
<event>
 8    1  0.3682083E-007  0.1486279E+03  0.7546771E-02  0.1202170E+00
         -5   -1    0    0    0  501 -0.00000000000E+00  0.00000000000E+00  0.19638556935E+04  0.19638613176E+04  0.47000000000E+01 0.  1.
          5   -1    0    0  501    0  0.00000000000E+00 -0.00000000000E+00 -0.13022108937E+02  0.13844324511E+02  0.47000000000E+01 0.  1.
         25    2    1    2    0    0 -0.69717362153E+02 -0.40054515758E+02  0.13746517298E+04  0.13826632375E+04  0.12500150144E+03 0.  0.
         25    2    1    2    0    0  0.69717362153E+02  0.40054515758E+02  0.57618185475E+03  0.59504240459E+03  0.12500023484E+03 0.  0.
          5    1    4    4  502    0  0.18931061931E+02  0.55002411848E+02  0.49225399883E+03  0.49570126062E+03  0.47000000000E+01 0.  1.
         -5    1    4    4    0  502  0.50786300222E+02 -0.14947896090E+02  0.83927855911E+02  0.99341143971E+02  0.47000000000E+01 0.  1.
          5    1    3    3  503    0 -0.83529491394E+02 -0.72885837950E+02  0.11213612381E+04  0.11268374495E+04  0.47000000000E+01 0.  1.
         -5    1    3    3    0  503  0.13812129241E+02  0.32831322192E+02  0.25329049168E+03  0.25582578800E+03  0.47000000000E+01 0.  1.
<mgrwt>
<rscale>  0 0.14862763E+03</rscale>
<asrwt>0</asrwt>
<pdfrwt beam="2">  1        5 0.20670829E-02 0.14862789E+03</pdfrwt>
<pdfrwt beam="1">  1       -5 0.30219510E+00 0.14862789E+03</pdfrwt>
<totfact> 0.21761751E+01</totfact>
</mgrwt>
</event>
<event>
 8    1  0.3682083E-007  0.1376511E+03  0.7546771E-02  0.1216526E+00
          5   -1    0    0  501    0  0.00000000000E+00  0.00000000000E+00  0.92339268793E+03  0.92340464917E+03  0.47000000000E+01 0.  1.
         -5   -1    0    0    0  501 -0.00000000000E+00 -0.00000000000E+00 -0.21726041082E+02  0.22228604570E+02  0.47000000000E+01 0.  1.
         25    2    1    2    0    0 -0.57062311236E+02 -0.81038962718E+01  0.32857235996E+03  0.35623960348E+03  0.12500031544E+03 0.  0.
         25    2    1    2    0    0  0.57062311236E+02  0.81038962718E+01  0.57309428688E+03  0.58939365026E+03  0.12500413118E+03 0.  0.
          5    1    4    4  502    0  0.32125908297E+02  0.18111556465E+02  0.36479294759E+02  0.52085808120E+02  0.47000000000E+01 0. -1.
         -5    1    4    4    0  502  0.24936402939E+02 -0.10007660193E+02  0.53661499212E+03  0.53730784214E+03  0.47000000000E+01 0. -1.
          5    1    3    3  503    0  0.40899486490E+01  0.40374904080E+02  0.39662602061E+02  0.56939200571E+02  0.47000000000E+01 0.  1.
         -5    1    3    3    0  503 -0.61152259885E+02 -0.48478800352E+02  0.28890975790E+03  0.29930040291E+03  0.47000000000E+01 0.  1.
<mgrwt>
<rscale>  0 0.13765019E+03</rscale>
<asrwt>0</asrwt>
<pdfrwt beam="1">  1        5 0.14209999E+00 0.13765106E+03</pdfrwt>
<pdfrwt beam="2">  1       -5 0.33820468E-02 0.13765106E+03</pdfrwt>
<totfact> 0.11650264E+02</totfact>
</mgrwt>
</event>
<event>
 8    1  0.3682083E-007  0.1258141E+03  0.7546771E-02  0.1233806E+00
         -5   -1    0    0    0  501 -0.00000000000E+00  0.00000000000E+00  0.55182428954E+03  0.55184430461E+03  0.47000000000E+01 0. -1.
          5   -1    0    0  501    0  0.00000000000E+00 -0.00000000000E+00 -0.29413132265E+02  0.29786277875E+02  0.47000000000E+01 0. -1.
         25    2    1    2    0    0 -0.11753759136E+02 -0.79953537977E+01  0.31291861565E+03  0.33726134805E+03  0.12500032133E+03 0.  0.
         25    2    1    2    0    0  0.11753759136E+02  0.79953537977E+01  0.20949254163E+03  0.24436923444E+03  0.12500848453E+03 0.  0.
          5    1    4    4  502    0 -0.43107459457E+02 -0.19260933009E+02  0.15549747988E+03  0.16257549893E+03  0.47000000000E+01 0.  1.
         -5    1    4    4    0  502  0.54861218592E+02  0.27256286807E+02  0.53995061751E+02  0.81793735514E+02  0.47000000000E+01 0.  1.
          5    1    3    3  503    0 -0.26076740642E+02  0.15376600520E+02  0.88007364896E+01  0.31874428760E+02  0.47000000000E+01 0. -1.
         -5    1    3    3    0  503  0.14322981506E+02 -0.23371954317E+02  0.30411787916E+03  0.30538691929E+03  0.47000000000E+01 0. -1.
<mgrwt>
<rscale>  0 0.12581211E+03</rscale>
<asrwt>0</asrwt>
<pdfrwt beam="2">  1        5 0.45553403E-02 0.12581414E+03</pdfrwt>
<pdfrwt beam="1">  1       -5 0.84926290E-01 0.12581414E+03</pdfrwt>
<totfact> 0.25040960E+02</totfact>
</mgrwt>
</event>
<event>
 8    1  0.3682083E-007  0.1321646E+03  0.7546771E-02  0.1224281E+00
         -5   -1    0    0    0  501 -0.00000000000E+00  0.00000000000E+00  0.14366057170E+03  0.14373743375E+03  0.47000000000E+01 0. -1.
          5   -1    0    0  501    0  0.00000000000E+00 -0.00000000000E+00 -0.12431177463E+03  0.12440059208E+03  0.47000000000E+01 0. -1.
         25    2    1    2    0    0  0.42488118068E+02  0.60799958611E+01  0.30082684981E+02  0.13553827491E+03  0.12499379785E+03 0.  0.
         25    2    1    2    0    0 -0.42488118068E+02 -0.60799958611E+01 -0.10733887911E+02  0.13259975092E+03  0.12500108427E+03 0.  0.
          5    1    3    3  502    0  0.26545452294E+02 -0.38631506139E+02 -0.32219403879E+02  0.57072184909E+02  0.47000000000E+01 0.  1.
         -5    1    3    3    0  502  0.15942665774E+02  0.44711502000E+02  0.62302088860E+02  0.78466089997E+02  0.47000000000E+01 0.  1.
          5    1    4    4  503    0 -0.51940701705E+02  0.59693599382E+01 -0.60628879489E+02  0.80196139432E+02  0.47000000000E+01 0. -1.
         -5    1    4    4    0  503  0.94525836375E+01 -0.12049355799E+02  0.49894991579E+02  0.52403611491E+02  0.47000000000E+01 0. -1.
<mgrwt>
<rscale>  0 0.13216286E+03</rscale>
<asrwt>0</asrwt>
<pdfrwt beam="2">  1        5 0.19137633E-01 0.13216459E+03</pdfrwt>
<pdfrwt beam="1">  1       -5 0.22114371E-01 0.13216459E+03</pdfrwt>
<totfact> 0.34599136E+02</totfact>
</mgrwt>
</event>
<event>
 8    1  0.3682083E-007  0.1553221E+03  0.7546771E-02  0.1194082E+00
         -5   -1    0    0    0  501 -0.00000000000E+00  0.00000000000E+00  0.83428862160E+03  0.83430186032E+03  0.47000000000E+01 0. -1.
          5   -1    0    0  501    0  0.00000000000E+00 -0.00000000000E+00 -0.33325029039E+02  0.33654829675E+02  0.47000000000E+01 0. -1.
         25    2    1    2    0    0  0.51681706310E+02  0.76334094440E+02  0.56105591081E+03  0.58215844476E+03  0.12500730781E+03 0.  0.
         25    2    1    2    0    0 -0.51681706310E+02 -0.76334094440E+02  0.23990768175E+03  0.28579824524E+03  0.12500819363E+03 0.  0.
          5    1    3    3  502    0  0.33010333479E+02  0.70527686578E+02  0.55596787285E+03  0.56141446573E+03  0.47000000000E+01 0.  1.
         -5    1    3    3    0  502  0.18671372830E+02  0.58064078623E+01  0.50880379630E+01  0.20743979029E+02  0.47000000000E+01 0.  1.
          5    1    4    4  503    0 -0.76525972955E+02 -0.90626746038E+02  0.14984286989E+03  0.19116591561E+03  0.47000000000E+01 0. -1.
         -5    1    4    4    0  503  0.24844266645E+02  0.14292651597E+02  0.90064811865E+02  0.94632329630E+02  0.47000000000E+01 0. -1.
<mgrwt>
<rscale>  0 0.15532188E+03</rscale>
<asrwt>0</asrwt>
<pdfrwt beam="2">  1        5 0.51533157E-02 0.15532206E+03</pdfrwt>
<pdfrwt beam="1">  1       -5 0.12837847E+00 0.15532206E+03</pdfrwt>
<totfact> 0.79026447E+01</totfact>
</mgrwt>
</event>
<event>
 8    1  0.3682083E-007  0.1347252E+03  0.7546771E-02  0.1220609E+00
          5   -1    0    0  501    0  0.00000000000E+00  0.00000000000E+00  0.46594004042E+03  0.46596374459E+03  0.47000000000E+01 0.  1.
         -5   -1    0    0    0  501 -0.00000000000E+00 -0.00000000000E+00 -0.39274078240E+02  0.39554307245E+02  0.47000000000E+01 0.  1.
         25    2    1    2    0    0 -0.82638732404E+01 -0.49560588667E+02  0.18531571462E+03  0.22911104780E+03  0.12500165835E+03 0.  0.
         25    2    1    2    0    0  0.82638732404E+01  0.49560588667E+02  0.24135024757E+03  0.27640700403E+03  0.12500538519E+03 0.  0.
          5    1    3    3  502    0 -0.45903453158E+02 -0.73554499145E+02  0.14373897103E+03  0.16792966727E+03  0.47000000000E+01 0.  1.
         -5    1    3    3    0  502  0.37639579918E+02  0.23993910478E+02  0.41576743585E+02  0.61181380530E+02  0.47000000000E+01 0.  1.
          5    1    4    4  503    0  0.56785305809E+02  0.35131703449E+02  0.66659732907E+02  0.94469135353E+02  0.47000000000E+01 0.  1.
         -5    1    4    4    0  503 -0.48521432569E+02  0.14428885217E+02  0.17469051466E+03  0.18193786868E+03  0.47000000000E+01 0.  1.
<mgrwt>
<rscale>  0 0.13472437E+03</rscale>
<asrwt>0</asrwt>
<pdfrwt beam="1">  1        5 0.71706466E-01 0.13472524E+03</pdfrwt>
<pdfrwt beam="2">  1       -5 0.60655451E-02 0.13472524E+03</pdfrwt>
<totfact> 0.23500922E+02</totfact>
</mgrwt>
</event>
<event>
 8    1  0.3682083E-007  0.1333956E+03  0.7546771E-02  0.1222503E+00
         -5   -1    0    0    0  501 -0.00000000000E+00  0.00000000000E+00  0.22015757743E+03  0.22020774033E+03  0.47000000000E+01 0. -1.
          5   -1    0    0  501    0  0.00000000000E+00 -0.00000000000E+00 -0.89663743933E+02  0.89786841887E+02  0.47000000000E+01 0. -1.
         25    2    1    2    0    0  0.26220194539E+02 -0.38491933000E+02  0.11421322123E+03  0.17560910104E+03  0.12499907582E+03 0.  0.
         25    2    1    2    0    0 -0.26220194539E+02  0.38491933000E+02  0.16280612263E+02  0.13438548118E+03  0.12500108683E+03 0.  0.
          5    1    3    3  502    0  0.50698890384E+02  0.71244742164E+01  0.11239444709E+03  0.12359505393E+03  0.47000000000E+01 0.  1.
         -5    1    3    3    0  502 -0.24478695845E+02 -0.45616407216E+02  0.18187741480E+01  0.52014047112E+02  0.47000000000E+01 0.  1.
          5    1    4    4  503    0 -0.20371906772E+02 -0.43426426519E+02 -0.74506602836E+01  0.48769574987E+02  0.47000000000E+01 0.  1.
         -5    1    4    4    0  503 -0.58482877667E+01  0.81918359519E+02  0.23731272547E+02  0.85615906190E+02  0.47000000000E+01 0.  1.
<mgrwt>
<rscale>  0 0.13339518E+03</rscale>
<asrwt>0</asrwt>
<pdfrwt beam="2">  1        5 0.13807750E-01 0.13339565E+03</pdfrwt>
<pdfrwt beam="1">  1       -5 0.33883724E-01 0.13339565E+03</pdfrwt>
<totfact> 0.27535423E+02</totfact>
</mgrwt>
</event>
<event>
 8    1  0.3682083E-007  0.1574269E+03  0.7546771E-02  0.1191634E+00
          5   -1    0    0  501    0  0.00000000000E+00  0.00000000000E+00  0.24726619590E+03  0.24731086033E+03  0.47000000000E+01 0.  1.
         -5   -1    0    0    0  501 -0.00000000000E+00 -0.00000000000E+00 -0.14456859453E+03  0.14464497407E+03  0.47000000000E+01 0.  1.
         25    2    1    2    0    0  0.84712298561E+02 -0.44532044690E+02 -0.57270074071E+02  0.16751678639E+03  0.12499094290E+03 0.  0.
         25    2    1    2    0    0 -0.84712298561E+02  0.44532044690E+02  0.15996767544E+03  0.22443904801E+03  0.12499581014E+03 0.  0.
          5    1    4    4  502    0 -0.32623639993E+02  0.84261837604E+02  0.78442247350E+02  0.11974821641E+03  0.47000000000E+01 0.  1.
         -5    1    4    4    0  502 -0.52088658568E+02 -0.39729792915E+02  0.81525428095E+02  0.10469083161E+03  0.47000000000E+01 0.  1.
          5    1    3    3  503    0  0.31325928736E+01  0.27734609643E+02  0.19284021156E+02  0.34248871253E+02  0.47000000000E+01 0.  1.
         -5    1    3    3    0  503  0.81579705687E+02 -0.72266654333E+02 -0.76554095227E+02  0.13326791514E+03  0.47000000000E+01 0.  1.
<mgrwt>
<rscale>  0 0.15742593E+03</rscale>
<asrwt>0</asrwt>
<pdfrwt beam="1">  1        5 0.38050264E-01 0.15742690E+03</pdfrwt>
<pdfrwt beam="2">  1       -5 0.22250633E-01 0.15742690E+03</pdfrwt>
<totfact> 0.95565943E+01</totfact>
</mgrwt>
</event>
<event>
 8    1  0.3682083E-007  0.1417264E+03  0.7546771E-02  0.1211027E+00
          5   -1    0    0  501    0  0.00000000000E+00  0.00000000000E+00  0.35865541449E+03  0.35868620874E+03  0.47000000000E+01 0. -1.
         -5   -1    0    0    0  501 -0.00000000000E+00 -0.00000000000E+00 -0.71219325227E+02  0.71374241052E+02  0.47000000000E+01 0. -1.
         25    2    1    2    0    0 -0.12538243876E+02  0.65593317205E+02  0.44032259750E+02  0.14840142863E+03  0.12499781318E+03 0.  0.
         25    2    1    2    0    0  0.12538243876E+02 -0.65593317205E+02  0.24340382951E+03  0.28165902116E+03  0.12500675645E+03 0.  0.
          5    1    3    3  502    0 -0.27756057966E+02 -0.31416638829E+02  0.44306275482E+01  0.42416086684E+02  0.47000000000E+01 0. -1.
         -5    1    3    3    0  502  0.15217814089E+02  0.97009956034E+02  0.39601632202E+02  0.10598534195E+03  0.47000000000E+01 0. -1.
          5    1    4    4  503    0  0.41083874269E+02  0.11663032820E+02  0.15456040452E+03  0.16042107001E+03  0.47000000000E+01 0. -1.
         -5    1    4    4    0  503 -0.28545630393E+02 -0.77256350025E+02  0.88843424991E+02  0.12123795114E+03  0.47000000000E+01 0. -1.
<mgrwt>
<rscale>  0 0.14172445E+03</rscale>
<asrwt>0</asrwt>
<pdfrwt beam="1">  1        5 0.55192042E-01 0.14172643E+03</pdfrwt>
<pdfrwt beam="2">  1       -5 0.10971105E-01 0.14172643E+03</pdfrwt>
<totfact> 0.15387351E+02</totfact>
</mgrwt>
</event>
<event>
 8    1  0.3682083E-007  0.1292848E+03  0.7546771E-02  0.1228523E+00
          5   -1    0    0  501    0  0.00000000000E+00  0.00000000000E+00  0.69816105667E+02  0.69974128151E+02  0.47000000000E+01 0.  1.
         -5   -1    0    0    0  501 -0.00000000000E+00 -0.00000000000E+00 -0.78420603426E+03  0.78422011844E+03  0.47000000000E+01 0.  1.
         25    2    1    2    0    0 -0.28338322005E+02 -0.16901188510E+02 -0.71328355345E+03  0.72490468843E+03  0.12499867608E+03 0.  0.
         25    2    1    2    0    0  0.28338322005E+02  0.16901188510E+02 -0.11063751418E+01  0.12928955816E+03  0.12500342042E+03 0.  0.
          5    1    3    3  502    0  0.46856204963E+02 -0.24552686622E+02 -0.26491036327E+03  0.27018128901E+03  0.47000000000E+01 0. -1.
         -5    1    3    3    0  502 -0.75194526968E+02  0.76514981128E+01 -0.44837319018E+03  0.45472339942E+03  0.47000000000E+01 0. -1.
          5    1    4    4  503    0  0.66789783342E+02 -0.14826263057E+02 -0.26038019809E+02  0.73353675509E+02  0.47000000000E+01 0.  1.
         -5    1    4    4    0  503 -0.38451461338E+02  0.31727451567E+02  0.24931644667E+02  0.55935882649E+02  0.47000000000E+01 0.  1.
<mgrwt>
<rscale>  0 0.12928368E+03</rscale>
<asrwt>0</asrwt>
<pdfrwt beam="1">  1        5 0.10754179E-01 0.12928482E+03</pdfrwt>
<pdfrwt beam="2">  1       -5 0.12066031E+00 0.12928482E+03</pdfrwt>
<totfact> 0.24985804E+01</totfact>
</mgrwt>
</event>
<event>
 8    1  0.3682083E-007  0.2005460E+03  0.7546771E-02  0.1149280E+00
          5   -1    0    0  501    0  0.00000000000E+00  0.00000000000E+00  0.38363824428E+03  0.38366703335E+03  0.47000000000E+01 0.  1.
         -5   -1    0    0    0  501 -0.00000000000E+00 -0.00000000000E+00 -0.10611119155E+03  0.10621522948E+03  0.47000000000E+01 0.  1.
         25    2    1    2    0    0 -0.11207532408E+02  0.15642124411E+03  0.11102252214E+03  0.22922455918E+03  0.12499873485E+03 0.  0.
         25    2    1    2    0    0  0.11207532408E+02 -0.15642124411E+03  0.16650453059E+03  0.26065770365E+03  0.12500186146E+03 0.  0.
          5    1    3    3  502    0 -0.52332294213E+02  0.17394862446E+02  0.34513385694E+02  0.65226636041E+02  0.47000000000E+01 0. -1.
         -5    1    3    3    0  502  0.41124761805E+02  0.13902638167E+03  0.76509136445E+02  0.16399792313E+03  0.47000000000E+01 0. -1.
          5    1    4    4  503    0  0.45854696716E+02 -0.10884788908E+03  0.16321821341E+03  0.20152615551E+03  0.47000000000E+01 0.  1.
         -5    1    4    4    0  503 -0.34647164308E+02 -0.47573355034E+02  0.32863171835E+01  0.59131548132E+02  0.47000000000E+01 0.  1.
<mgrwt>
<rscale>  0 0.20054547E+03</rscale>
<asrwt>0</asrwt>
<pdfrwt beam="1">  1        5 0.59031485E-01 0.20054595E+03</pdfrwt>
<pdfrwt beam="2">  1       -5 0.16335016E-01 0.20054595E+03</pdfrwt>
<totfact> 0.72084720E+01</totfact>
</mgrwt>
</event>
<event>
 8    1  0.3682083E-007  0.1485554E+03  0.7546771E-02  0.1202265E+00
          5   -1    0    0  501    0  0.00000000000E+00  0.00000000000E+00  0.64816359797E+02  0.64986540894E+02  0.47000000000E+01 0.  1.
         -5   -1    0    0    0  501 -0.00000000000E+00 -0.00000000000E+00 -0.35001253323E+03  0.35004408782E+03  0.47000000000E+01 0.  1.
         25    2    1    2    0    0  0.59269997054E+02  0.54085914732E+02 -0.17801011381E+03  0.23184340038E+03  0.12500217182E+03 0.  0.
         25    2    1    2    0    0 -0.59269997054E+02 -0.54085914732E+02 -0.10718605963E+03  0.18318722834E+03  0.12502196017E+03 0.  0.
          5    1    4    4  502    0  0.58396038990E+01 -0.74638340666E+02 -0.79662531932E+02  0.10942208125E+03  0.47000000000E+01 0.  1.
         -5    1    4    4    0  502 -0.65109600953E+02  0.20552425933E+02 -0.27523527695E+02  0.73765147087E+02  0.47000000000E+01 0.  1.
          5    1    3    3  503    0  0.47378887988E+02  0.93227504253E+02 -0.14618778139E+03  0.17980290321E+03  0.47000000000E+01 0.  1.
         -5    1    3    3    0  503  0.11891109066E+02 -0.39141589520E+02 -0.31822332424E+02  0.52040497172E+02  0.47000000000E+01 0.  1.
<mgrwt>
<rscale>  0 0.14855124E+03</rscale>
<asrwt>0</asrwt>
<pdfrwt beam="1">  1        5 0.99872660E-02 0.14855541E+03</pdfrwt>
<pdfrwt beam="2">  1       -5 0.53863599E-01 0.14855541E+03</pdfrwt>
<totfact> 0.19417613E+02</totfact>
</mgrwt>
</event>
<event>
 8    1  0.3682083E-007  0.1407024E+03  0.7546771E-02  0.1212392E+00
          5   -1    0    0  501    0  0.00000000000E+00  0.00000000000E+00  0.17864954741E+02  0.18472861389E+02  0.47000000000E+01 0. -1.
         -5   -1    0    0    0  501 -0.00000000000E+00 -0.00000000000E+00 -0.11775584252E+04  0.11775678048E+04  0.47000000000E+01 0. -1.
         25    2    1    2    0    0 -0.63469012644E+02  0.11840437874E+02 -0.74392801740E+03  0.75711693345E+03  0.12501457637E+03 0.  0.
         25    2    1    2    0    0  0.63469012644E+02 -0.11840437874E+02 -0.41576545311E+03  0.43892373273E+03  0.12499847847E+03 0.  0.
          5    1    4    4  502    0  0.86078762463E+02  0.98564311842E+01 -0.16745821715E+03  0.18860288193E+03  0.47000000000E+01 0.  1.
         -5    1    4    4    0  502 -0.22609749819E+02 -0.21696869058E+02 -0.24830723596E+03  0.25032085080E+03  0.47000000000E+01 0.  1.
          5    1    3    3  503    0 -0.92640966235E+02  0.38847138957E+02 -0.51863936167E+03  0.52829946650E+03  0.47000000000E+01 0. -1.
         -5    1    3    3    0  503  0.29171953591E+02 -0.27006701083E+02 -0.22528865573E+03  0.22881746695E+03  0.47000000000E+01 0. -1.
<mgrwt>
<rscale>  0 0.14069879E+03</rscale>
<asrwt>0</asrwt>
<pdfrwt beam="1">  1        5 0.27959390E-02 0.14070237E+03</pdfrwt>
<pdfrwt beam="2">  1       -5 0.18121026E+00 0.14070237E+03</pdfrwt>
<totfact> 0.80629298E+01</totfact>
</mgrwt>
</event>
<event>
 8    1  0.3682083E-007  0.1899735E+03  0.7546771E-02  0.1158486E+00
         -5   -1    0    0    0  501 -0.00000000000E+00  0.00000000000E+00  0.22792661584E+03  0.22797506927E+03  0.47000000000E+01 0. -1.
          5   -1    0    0  501    0  0.00000000000E+00 -0.00000000000E+00 -0.18567840898E+03  0.18573788403E+03  0.47000000000E+01 0. -1.
         25    2    1    2    0    0  0.92117389016E+02 -0.10944613832E+03  0.10062204627E+03  0.21497328816E+03  0.12499859149E+03 0.  0.
         25    2    1    2    0    0 -0.92117389016E+02  0.10944613832E+03 -0.58373839419E+02  0.19873966514E+03  0.12500351522E+03 0.  0.
          5    1    4    4  502    0  0.28552493058E+02  0.97279451629E+01  0.26867919119E+01  0.30646151923E+02  0.47000000000E+01 0. -1.
         -5    1    4    4    0  502 -0.12066988207E+03  0.99718193153E+02 -0.61060631331E+02  0.16809351321E+03  0.47000000000E+01 0. -1.
          5    1    3    3  503    0 -0.23273063847E+02 -0.57020609437E+02  0.45335188272E+02  0.76618239976E+02  0.47000000000E+01 0.  1.
         -5    1    3    3    0  503  0.11539045286E+03 -0.52425528879E+02  0.55286858001E+02  0.13835504818E+03  0.47000000000E+01 0.  1.
<mgrwt>
<rscale>  0 0.18997274E+03</rscale>
<asrwt>0</asrwt>
<pdfrwt beam="2">  1        5 0.28574211E-01 0.18997355E+03</pdfrwt>
<pdfrwt beam="1">  1       -5 0.35073935E-01 0.18997355E+03</pdfrwt>
<totfact> 0.73527396E+01</totfact>
</mgrwt>
</event>
<event>
 8    1  0.3682083E-007  0.1284908E+03  0.7546771E-02  0.1229715E+00
         -5   -1    0    0    0  501 -0.00000000000E+00  0.00000000000E+00  0.13943244053E+03  0.13951163203E+03  0.47000000000E+01 0.  1.
          5   -1    0    0  501    0  0.00000000000E+00 -0.00000000000E+00 -0.11965873281E+03  0.11975100141E+03  0.47000000000E+01 0.  1.
         25    2    1    2    0    0 -0.28370953507E+02  0.88526990455E+01 -0.42075756366E+01  0.12855304324E+03  0.12499959980E+03 0.  0.
         25    2    1    2    0    0  0.28370953507E+02 -0.88526990455E+01  0.23981283351E+02  0.13070959019E+03  0.12500645477E+03 0.  0.
          5    1    4    4  502    0  0.77881006724E+02 -0.23066511929E+01  0.10435999177E+02  0.78751329683E+02  0.47000000000E+01 0.  1.
         -5    1    4    4    0  502 -0.49510053216E+02 -0.65460478526E+01  0.13545284174E+02  0.51958260511E+02  0.47000000000E+01 0.  1.
          5    1    3    3  503    0  0.53290029470E+01  0.18515606377E+02  0.55620749834E+02  0.59050688091E+02  0.47000000000E+01 0. -1.
         -5    1    3    3    0  503 -0.33699956454E+02 -0.96629073312E+01 -0.59828325470E+02  0.69502355152E+02  0.47000000000E+01 0. -1.
<mgrwt>
<rscale>  0 0.12848917E+03</rscale>
<asrwt>0</asrwt>
<pdfrwt beam="2">  1        5 0.18422225E-01 0.12849084E+03</pdfrwt>
<pdfrwt beam="1">  1       -5 0.21464334E-01 0.12849084E+03</pdfrwt>
<totfact> 0.38867624E+02</totfact>
</mgrwt>
</event>
<event>
 8    1  0.3682083E-007  0.1292890E+03  0.7546771E-02  0.1228532E+00
         -5   -1    0    0    0  501 -0.00000000000E+00  0.00000000000E+00  0.84320834676E+03  0.84322144544E+03  0.47000000000E+01 0. -1.
          5   -1    0    0  501    0  0.00000000000E+00 -0.00000000000E+00 -0.30228604574E+02  0.30591805022E+02  0.47000000000E+01 0. -1.
         25    2    1    2    0    0  0.32821088252E+02  0.20975306095E+01  0.66451004352E+03  0.67697063797E+03  0.12503608782E+03 0.  0.
         25    2    1    2    0    0 -0.32821088252E+02 -0.20975306095E+01  0.14846969867E+03  0.19684261250E+03  0.12498855629E+03 0.  0.
          5    1    3    3  502    0  0.48504981962E+02 -0.29753920207E+02  0.13939276593E+03  0.15063353623E+03  0.47000000000E+01 0.  1.
         -5    1    3    3    0  502 -0.15683893710E+02  0.31851450817E+02  0.52511727759E+03  0.52633710174E+03  0.47000000000E+01 0.  1.
          5    1    4    4  503    0  0.16819023998E+02 -0.41127399390E+02  0.11878135187E+03  0.12690721848E+03  0.47000000000E+01 0.  1.
         -5    1    4    4    0  503 -0.49640112250E+02  0.39029868780E+02  0.29688346793E+02  0.69935394019E+02  0.47000000000E+01 0.  1.
<mgrwt>
<rscale>  0 0.12927751E+03</rscale>
<asrwt>0</asrwt>
<pdfrwt beam="2">  1        5 0.46795009E-02 0.12928900E+03</pdfrwt>
<pdfrwt beam="1">  1       -5 0.12975330E+00 0.12928900E+03</pdfrwt>
<totfact> 0.85245091E+01</totfact>
</mgrwt>
</event>
<event>
 8    1  0.3682083E-007  0.1401537E+03  0.7546771E-02  0.1213123E+00
          5   -1    0    0  501    0  0.00000000000E+00  0.00000000000E+00  0.26859644271E+02  0.27267755506E+02  0.47000000000E+01 0.  1.
         -5   -1    0    0    0  501 -0.00000000000E+00 -0.00000000000E+00 -0.75144522286E+03  0.75145992106E+03  0.47000000000E+01 0.  1.
         25    2    1    2    0    0 -0.42874576551E+02  0.46691742137E+02 -0.43479405540E+03  0.45682483103E+03  0.12499883013E+03 0.  0.
         25    2    1    2    0    0  0.42874576551E+02 -0.46691742137E+02 -0.28979152319E+03  0.32190284554E+03  0.12499586775E+03 0.  0.
          5    1    4    4  502    0 -0.42559155555E+01 -0.38493851448E+02 -0.26492737247E+03  0.26778441348E+03  0.47000000000E+01 0.  1.
         -5    1    4    4    0  502  0.47130492107E+02 -0.81978906892E+01 -0.24864150720E+02  0.54118432064E+02  0.47000000000E+01 0.  1.
          5    1    3    3  503    0 -0.77833603409E+02  0.22788109450E+02 -0.16755272518E+03  0.18620787703E+03  0.47000000000E+01 0. -1.
         -5    1    3    3    0  503  0.34959026857E+02  0.23903632687E+02 -0.26724133022E+03  0.27061695400E+03  0.47000000000E+01 0. -1.
<mgrwt>
<rscale>  0 0.14015303E+03</rscale>
<asrwt>0</asrwt>
<pdfrwt beam="1">  1        5 0.41647773E-02 0.14015369E+03</pdfrwt>
<pdfrwt beam="2">  1       -5 0.11563947E+00 0.14015369E+03</pdfrwt>
<totfact> 0.14235981E+02</totfact>
</mgrwt>
</event>
<event>
 8    1  0.3682083E-007  0.1960806E+03  0.7546771E-02  0.1153091E+00
          5   -1    0    0  501    0  0.00000000000E+00  0.00000000000E+00  0.16137745126E+03  0.16144587878E+03  0.47000000000E+01 0. -1.
         -5   -1    0    0    0  501 -0.00000000000E+00 -0.00000000000E+00 -0.23882986452E+03  0.23887610635E+03  0.47000000000E+01 0. -1.
         25    2    1    2    0    0  0.17595097381E+02  0.15004214160E+03 -0.49847440559E+02  0.20230772962E+03  0.12498567288E+03 0.  0.
         25    2    1    2    0    0 -0.17595097381E+02 -0.15004214160E+03 -0.27604972697E+02  0.19801425551E+03  0.12500151663E+03 0.  0.
          5    1    3    3  502    0  0.40583203443E+02  0.67904296186E+02 -0.79144793838E+02  0.11199990283E+03  0.47000000000E+01 0.  1.
         -5    1    3    3    0  502 -0.22988106062E+02  0.82137845418E+02  0.29297353278E+02  0.90307826789E+02  0.47000000000E+01 0.  1.
          5    1    4    4  503    0 -0.46635418728E+02 -0.13199039536E+03  0.17569419186E+02  0.14116338491E+03  0.47000000000E+01 0.  1.
         -5    1    4    4    0  503  0.29040321347E+02 -0.18051746239E+02 -0.45174391882E+02  0.56850870602E+02  0.47000000000E+01 0.  1.
<mgrwt>
<rscale>  0 0.19607810E+03</rscale>
<asrwt>0</asrwt>
<pdfrwt beam="1">  1        5 0.24836121E-01 0.19608062E+03</pdfrwt>
<pdfrwt beam="2">  1       -5 0.36751877E-01 0.19608062E+03</pdfrwt>
<totfact> 0.88612574E+01</totfact>
</mgrwt>
</event>
<event>
 8    1  0.3682083E-007  0.1562095E+03  0.7546771E-02  0.1193044E+00
          5   -1    0    0  501    0  0.00000000000E+00  0.00000000000E+00  0.10244648464E+03  0.10255424035E+03  0.47000000000E+01 0. -1.
         -5   -1    0    0    0  501 -0.00000000000E+00 -0.00000000000E+00 -0.25806968508E+03  0.25811248005E+03  0.47000000000E+01 0. -1.
         25    2    1    2    0    0  0.57486810292E+02 -0.73979028617E+02 -0.12817534768E+03  0.20206411444E+03  0.12499342607E+03 0.  0.
         25    2    1    2    0    0 -0.57486810292E+02  0.73979028617E+02 -0.27447852765E+02  0.15860260596E+03  0.12499508776E+03 0.  0.
          5    1    3    3  502    0  0.91555563374E+02 -0.70591712752E+02 -0.72522820109E+02  0.13655497256E+03  0.47000000000E+01 0.  1.
         -5    1    3    3    0  502 -0.34068753082E+02 -0.33873158657E+01 -0.55652527573E+02  0.65509141886E+02  0.47000000000E+01 0.  1.
          5    1    4    4  503    0  0.91826153488E+01  0.35188575018E+02 -0.63502343189E+02  0.73329351743E+02  0.47000000000E+01 0.  1.
         -5    1    4    4    0  503 -0.66669425641E+02  0.38790453599E+02  0.36054490424E+02  0.85273254221E+02  0.47000000000E+01 0.  1.
<mgrwt>
<rscale>  0 0.15620915E+03</rscale>
<asrwt>0</asrwt>
<pdfrwt beam="1">  1        5 0.15772579E-01 0.15620948E+03</pdfrwt>
<pdfrwt beam="2">  1       -5 0.39714609E-01 0.15620948E+03</pdfrwt>
<totfact> 0.16552963E+02</totfact>
</mgrwt>
</event>
<event>
 8    1  0.3682083E-007  0.1697272E+03  0.7546771E-02  0.1178136E+00
         -5   -1    0    0    0  501 -0.00000000000E+00  0.00000000000E+00  0.55328856872E+03  0.55330853081E+03  0.47000000000E+01 0. -1.
          5   -1    0    0  501    0  0.00000000000E+00 -0.00000000000E+00 -0.61103850611E+02  0.61284341879E+02  0.47000000000E+01 0. -1.
         25    2    1    2    0    0  0.11247517916E+03  0.22952032707E+02  0.36493017037E+03  0.40246905857E+03  0.12501940702E+03 0.  0.
         25    2    1    2    0    0 -0.11247517916E+03 -0.22952032707E+02  0.12725454773E+03  0.21212381412E+03  0.12500132346E+03 0.  0.
          5    1    3    3  502    0 -0.24001589237E-01  0.88368200626E+01 -0.79003046794E+01  0.12751265777E+02  0.47000000000E+01 0. -1.
         -5    1    3    3    0  502  0.11249918075E+03  0.14115212644E+02  0.37283047505E+03  0.38971779280E+03  0.47000000000E+01 0. -1.
          5    1    4    4  503    0 -0.11285848251E+03 -0.19615127689E+02  0.14992082007E+03  0.18873296638E+03  0.47000000000E+01 0.  1.
         -5    1    4    4    0  503  0.38330335593E+00 -0.33369050185E+01 -0.22666272331E+02  0.23390847739E+02  0.47000000000E+01 0.  1.
<mgrwt>
<rscale>  0 0.16972384E+03</rscale>
<asrwt>0</asrwt>
<pdfrwt beam="2">  1        5 0.94160123E-02 0.16972717E+03</pdfrwt>
<pdfrwt beam="1">  1       -5 0.85136734E-01 0.16972717E+03</pdfrwt>
<totfact> 0.80151037E+01</totfact>
</mgrwt>
</event>
<event>
 8    1  0.3682083E-007  0.1376304E+03  0.7546771E-02  0.1216561E+00
         -5   -1    0    0    0  501 -0.00000000000E+00  0.00000000000E+00  0.33546197679E+02  0.33873845054E+02  0.47000000000E+01 0. -1.
          5   -1    0    0  501    0  0.00000000000E+00 -0.00000000000E+00 -0.10936413674E+04  0.10936514666E+04  0.47000000000E+01 0. -1.
         25    2    1    2    0    0  0.57217374780E+02  0.63849527081E+01 -0.13687225729E+03  0.19410344564E+03  0.12501014837E+03 0.  0.
         25    2    1    2    0    0 -0.57217374780E+02 -0.63849527081E+01 -0.92322291239E+03  0.93342186602E+03  0.12498495268E+03 0.  0.
          5    1    4    4  502    0 -0.59812094758E+02 -0.58655045434E+02 -0.50709847147E+03  0.51399304548E+03  0.47000000000E+01 0.  1.
         -5    1    4    4    0  502  0.25947199773E+01  0.52270092726E+02 -0.41612444092E+03  0.41942882054E+03  0.47000000000E+01 0.  1.
          5    1    3    3  503    0  0.76055760532E+02  0.27779289460E+02 -0.14315742856E+03  0.16453664329E+03  0.47000000000E+01 0.  1.
         -5    1    3    3    0  503 -0.18838385752E+02 -0.21394336752E+02  0.62851712784E+01  0.29566802343E+02  0.47000000000E+01 0.  1.
<mgrwt>
<rscale>  0 0.13762470E+03</rscale>
<asrwt>0</asrwt>
<pdfrwt beam="2">  1        5 0.16827847E+00 0.13763042E+03</pdfrwt>
<pdfrwt beam="1">  1       -5 0.51869348E-02 0.13763042E+03</pdfrwt>
<totfact> 0.36143429E+01</totfact>
</mgrwt>
</event>
<event>
 8    1  0.3682083E-007  0.1391586E+03  0.7546771E-02  0.1214468E+00
          5   -1    0    0  501    0  0.00000000000E+00  0.00000000000E+00  0.73202414125E+02  0.73353141948E+02  0.47000000000E+01 0. -1.
         -5   -1    0    0    0  501 -0.00000000000E+00 -0.00000000000E+00 -0.27188345306E+03  0.27192407405E+03  0.47000000000E+01 0. -1.
         25    2    1    2    0    0 -0.59490704197E+02 -0.14073871200E+02 -0.12856991157E+03  0.18945461473E+03  0.12500244454E+03 0.  0.
         25    2    1    2    0    0  0.59490704197E+02  0.14073871200E+02 -0.70111127364E+02  0.15582260128E+03  0.12501158007E+03 0.  0.
          5    1    3    3  502    0  0.32692249581E+01  0.47003592896E+02 -0.24351273064E+02  0.53245657821E+02  0.47000000000E+01 0.  1.
         -5    1    3    3    0  502 -0.62759929155E+02 -0.61077464097E+02 -0.10421863851E+03  0.13620895690E+03  0.47000000000E+01 0.  1.
          5    1    4    4  503    0  0.82367916241E+02  0.44871990649E+02 -0.26571751373E+02  0.97601829602E+02  0.47000000000E+01 0.  1.
         -5    1    4    4    0  503 -0.22877212044E+02 -0.30798119449E+02 -0.43539375991E+02  0.58220771673E+02  0.47000000000E+01 0.  1.
<mgrwt>
<rscale>  0 0.13915654E+03</rscale>
<asrwt>0</asrwt>
<pdfrwt beam="1">  1        5 0.11276629E-01 0.13915859E+03</pdfrwt>
<pdfrwt beam="2">  1       -5 0.41842942E-01 0.13915859E+03</pdfrwt>
<totfact> 0.26115274E+02</totfact>
</mgrwt>
</event>
<event>
 8    1  0.3682083E-007  0.1263638E+03  0.7546771E-02  0.1232959E+00
         -5   -1    0    0    0  501 -0.00000000000E+00  0.00000000000E+00  0.34138352041E+03  0.34141587252E+03  0.47000000000E+01 0. -1.
          5   -1    0    0  501    0  0.00000000000E+00 -0.00000000000E+00 -0.48708569946E+02  0.48934801381E+02  0.47000000000E+01 0. -1.
         25    2    1    2    0    0 -0.15541924558E+02 -0.98528095035E+01  0.18667852211E+03  0.22541718194E+03  0.12500162407E+03 0.  0.
         25    2    1    2    0    0  0.15541924558E+02  0.98528095035E+01  0.10599642835E+03  0.16493349197E+03  0.12501673758E+03 0.  0.
          5    1    4    4  502    0  0.51228543397E+02 -0.12345640644E+02  0.23101554870E+01  0.52954747850E+02  0.47000000000E+01 0.  1.
         -5    1    4    4    0  502 -0.35686618839E+02  0.22198450148E+02  0.10368627287E+03  0.11197874412E+03  0.47000000000E+01 0.  1.
          5    1    3    3  503    0  0.48134958969E+02 -0.32467463466E+02  0.94841804821E+02  0.11130214913E+03  0.47000000000E+01 0. -1.
         -5    1    3    3    0  503 -0.63676883527E+02  0.22614653963E+02  0.91836717294E+02  0.11411503281E+03  0.47000000000E+01 0. -1.
<mgrwt>
<rscale>  0 0.12636008E+03</rscale>
<asrwt>0</asrwt>
<pdfrwt beam="2">  1        5 0.75135168E-02 0.12636382E+03</pdfrwt>
<pdfrwt beam="1">  1       -5 0.52540435E-01 0.12636382E+03</pdfrwt>
<totfact> 0.31654488E+02</totfact>
</mgrwt>
</event>
<event>
 8    1  0.3682083E-007  0.1384380E+03  0.7546771E-02  0.1215448E+00
          5   -1    0    0  501    0  0.00000000000E+00  0.00000000000E+00  0.45887544203E+02  0.46127613346E+02  0.47000000000E+01 0.  1.
         -5   -1    0    0    0  501 -0.00000000000E+00 -0.00000000000E+00 -0.59093843011E+03  0.59095712043E+03  0.47000000000E+01 0.  1.
         25    2    1    2    0    0  0.24523842232E+02 -0.54200848167E+02 -0.44566008860E+03  0.46666690326E+03  0.12500373296E+03 0.  0.
         25    2    1    2    0    0 -0.24523842232E+02  0.54200848167E+02 -0.99390797311E+02  0.17041783051E+03  0.12499822233E+03 0.  0.
          5    1    3    3  502    0  0.21601809566E+02  0.25698386705E+02 -0.36789732735E+02  0.50026190045E+02  0.47000000000E+01 0. -1.
         -5    1    3    3    0  502  0.29220326666E+01 -0.79899234872E+02 -0.40887035586E+03  0.41664071322E+03  0.47000000000E+01 0. -1.
          5    1    4    4  503    0  0.37196870724E+02 -0.10984981699E+02 -0.61511683085E+02  0.72870118502E+02  0.47000000000E+01 0. -1.
         -5    1    4    4    0  503 -0.61720712956E+02  0.65185829866E+02 -0.37879114226E+02  0.97547712006E+02  0.47000000000E+01 0. -1.
<mgrwt>
<rscale>  0 0.13843677E+03</rscale>
<asrwt>0</asrwt>
<pdfrwt beam="1">  1        5 0.70795272E-02 0.13843802E+03</pdfrwt>
<pdfrwt beam="2">  1       -5 0.90933504E-01 0.13843802E+03</pdfrwt>
<totfact> 0.10527168E+02</totfact>
</mgrwt>
</event>
<event>
 8    1  0.3682083E-007  0.1447035E+03  0.7546771E-02  0.1207138E+00
          5   -1    0    0  501    0  0.00000000000E+00  0.00000000000E+00  0.20356311998E+02  0.20891850999E+02  0.47000000000E+01 0. -1.
         -5   -1    0    0    0  501 -0.00000000000E+00 -0.00000000000E+00 -0.11177627431E+04  0.11177726244E+04  0.47000000000E+01 0. -1.
         25    2    1    2    0    0  0.71043750291E+02  0.16336021959E+02 -0.72153483328E+03  0.73590190157E+03  0.12500005209E+03 0.  0.
         25    2    1    2    0    0 -0.71043750291E+02 -0.16336021959E+02 -0.37587159785E+03  0.40276257386E+03  0.12499661102E+03 0.  0.
          5    1    4    4  502    0 -0.91965456716E+02  0.10134348456E+02 -0.16562266808E+03  0.18977172716E+03  0.47000000000E+01 0. -1.
         -5    1    4    4    0  502  0.20921706425E+02 -0.26470370416E+02 -0.21024892977E+03  0.21299084670E+03  0.47000000000E+01 0. -1.
          5    1    3    3  503    0  0.69914830528E+02  0.36134191616E+02 -0.70570819383E+03  0.71009852005E+03  0.47000000000E+01 0.  1.
         -5    1    3    3    0  503  0.11289197625E+01 -0.19798169657E+02 -0.15826639451E+02  0.25803381521E+02  0.47000000000E+01 0.  1.
<mgrwt>
<rscale>  0 0.14470272E+03</rscale>
<asrwt>0</asrwt>
<pdfrwt beam="1">  1        5 0.31736966E-02 0.14470347E+03</pdfrwt>
<pdfrwt beam="2">  1       -5 0.17200541E+00 0.14470347E+03</pdfrwt>
<totfact> 0.77154841E+01</totfact>
</mgrwt>
</event>
<event>
 8    1  0.3682083E-007  0.1311494E+03  0.7546771E-02  0.1225766E+00
          5   -1    0    0  501    0  0.00000000000E+00  0.00000000000E+00  0.50529011831E+02  0.50747128358E+02  0.47000000000E+01 0.  1.
         -5   -1    0    0    0  501 -0.00000000000E+00 -0.00000000000E+00 -0.33950089347E+03  0.33953342496E+03  0.47000000000E+01 0.  1.
         25    2    1    2    0    0  0.86334831650E+01 -0.38683040507E+02 -0.14798546595E+03  0.19773686712E+03  0.12501702216E+03 0.  0.
         25    2    1    2    0    0 -0.86334831650E+01  0.38683040507E+02 -0.14098641569E+03  0.19254368620E+03  0.12499994814E+03 0.  0.
          5    1    3    3  502    0 -0.48442013375E+02 -0.49147878691E+02 -0.56558431920E+02  0.89348132946E+02  0.47000000000E+01 0. -1.
         -5    1    3    3    0  502  0.57075496540E+02  0.10464838185E+02 -0.91427034032E+02  0.10838873417E+03  0.47000000000E+01 0. -1.
          5    1    4    4  503    0 -0.22517572917E+01  0.65322228902E+02 -0.20158357003E+02  0.68560289940E+02  0.47000000000E+01 0. -1.
         -5    1    4    4    0  503 -0.63817258733E+01 -0.26639188395E+02 -0.12082805869E+03  0.12398339626E+03  0.47000000000E+01 0. -1.
<mgrwt>
<rscale>  0 0.13114535E+03</rscale>
<asrwt>0</asrwt>
<pdfrwt beam="1">  1        5 0.77929750E-02 0.13114942E+03</pdfrwt>
<pdfrwt beam="2">  1       -5 0.52250186E-01 0.13114942E+03</pdfrwt>
<totfact> 0.30505299E+02</totfact>
</mgrwt>
</event>
<event>
 8    1  0.3682083E-007  0.2089931E+03  0.7546771E-02  0.1142367E+00
          5   -1    0    0  501    0  0.00000000000E+00  0.00000000000E+00  0.30828024848E+04  0.30828060676E+04  0.47000000000E+01 0. -1.
         -5   -1    0    0    0  501 -0.00000000000E+00 -0.00000000000E+00 -0.17707411820E+02  0.18320546754E+02  0.47000000000E+01 0. -1.
         25    2    1    2    0    0 -0.54753294171E+02 -0.15828587220E+03  0.81584356590E+03  0.84218693100E+03  0.12500304860E+03 0.  0.
         25    2    1    2    0    0  0.54753294171E+02  0.15828587220E+03  0.22492515071E+04  0.22589396833E+04  0.12499524107E+03 0.  0.
          5    1    4    4  502    0  0.61091677572E+02  0.55952530569E+02  0.15474085430E+04  0.15496316232E+04  0.47000000000E+01 0. -1.
         -5    1    4    4    0  502 -0.63383834011E+01  0.10233334163E+03  0.70184296411E+03  0.70930806014E+03  0.47000000000E+01 0. -1.
          5    1    3    3  503    0 -0.66424270090E+02 -0.14355659776E+03  0.80412115968E+03  0.81954475769E+03  0.47000000000E+01 0. -1.
         -5    1    3    3    0  503  0.11670975919E+02 -0.14729274436E+02  0.11722406223E+02  0.22642173304E+02  0.47000000000E+01 0. -1.
<mgrwt>
<rscale>  0 0.20899190E+03</rscale>
<asrwt>0</asrwt>
<pdfrwt beam="1">  1        5 0.47432419E+00 0.20899307E+03</pdfrwt>
<pdfrwt beam="2">  1       -5 0.27716603E-02 0.20899307E+03</pdfrwt>
<totfact> 0.90072168E-01</totfact>
</mgrwt>
</event>
<event>
 8    1  0.3682083E-007  0.1412796E+03  0.7546771E-02  0.1211618E+00
          5   -1    0    0  501    0  0.00000000000E+00  0.00000000000E+00  0.85099753857E+02  0.85229443894E+02  0.47000000000E+01 0. -1.
         -5   -1    0    0    0  501 -0.00000000000E+00 -0.00000000000E+00 -0.23839063414E+03  0.23843696116E+03  0.47000000000E+01 0. -1.
         25    2    1    2    0    0 -0.49918311210E+02  0.42927142886E+02 -0.98060701428E+02  0.17197625845E+03  0.12500141966E+03 0.  0.
         25    2    1    2    0    0  0.49918311210E+02 -0.42927142886E+02 -0.55230178855E+02  0.15169014660E+03  0.12499980211E+03 0.  0.
          5    1    3    3  502    0 -0.57182143680E+01 -0.24128083997E+02  0.17828681480E+02  0.30900069518E+02  0.47000000000E+01 0.  1.
         -5    1    3    3    0  502 -0.44200096842E+02  0.67055226883E+02 -0.11588938291E+03  0.14107618893E+03  0.47000000000E+01 0.  1.
          5    1    4    4  503    0  0.73637104513E+02  0.13124875280E+02 -0.50687062154E+02  0.90476260875E+02  0.47000000000E+01 0. -1.
         -5    1    4    4    0  503 -0.23718793303E+02 -0.56052018165E+02 -0.45431167011E+01  0.61213885725E+02  0.47000000000E+01 0. -1.
<mgrwt>
<rscale>  0 0.14127927E+03</rscale>
<asrwt>0</asrwt>
<pdfrwt beam="1">  1        5 0.13105810E-01 0.14127962E+03</pdfrwt>
<pdfrwt beam="2">  1       -5 0.36689022E-01 0.14127962E+03</pdfrwt>
<totfact> 0.26281468E+02</totfact>
</mgrwt>
</event>
<event>
 8    1  0.3682083E-007  0.1332586E+03  0.7546771E-02  0.1222701E+00
          5   -1    0    0  501    0  0.00000000000E+00  0.00000000000E+00  0.18202789989E+03  0.18208856729E+03  0.47000000000E+01 0. -1.
         -5   -1    0    0    0  501 -0.00000000000E+00 -0.00000000000E+00 -0.16057682666E+03  0.16064559521E+03  0.47000000000E+01 0. -1.
         25    2    1    2    0    0 -0.43953250944E+02  0.14142864674E+02 -0.96697625703E+02  0.16464158378E+03  0.12499804560E+03 0.  0.
         25    2    1    2    0    0  0.43953250944E+02 -0.14142864674E+02  0.11814869893E+03  0.17809257872E+03  0.12500377052E+03 0.  0.
          5    1    4    4  502    0 -0.43763390918E+02 -0.40866382429E+01  0.31358545286E+02  0.54197632413E+02  0.47000000000E+01 0.  1.
         -5    1    4    4    0  502  0.87716641862E+02 -0.10056226431E+02  0.86790153647E+02  0.12389494630E+03  0.47000000000E+01 0.  1.
          5    1    3    3  503    0 -0.33204502916E+02 -0.33096680181E+02 -0.10516369683E+03  0.11523637613E+03  0.47000000000E+01 0. -1.
         -5    1    3    3    0  503 -0.10748748028E+02  0.47239544855E+02  0.84660711299E+01  0.49405207647E+02  0.47000000000E+01 0. -1.
<mgrwt>
<rscale>  0 0.13325725E+03</rscale>
<asrwt>0</asrwt>
<pdfrwt beam="1">  1        5 0.28014249E-01 0.13325859E+03</pdfrwt>
<pdfrwt beam="2">  1       -5 0.24714084E-01 0.13325859E+03</pdfrwt>
<totfact> 0.13632077E+02</totfact>
</mgrwt>
</event>
<event>
 8    1  0.3682083E-007  0.1335604E+03  0.7546771E-02  0.1222271E+00
         -5   -1    0    0    0  501 -0.00000000000E+00  0.00000000000E+00  0.29206322937E+03  0.29210104408E+03  0.47000000000E+01 0. -1.
          5   -1    0    0  501    0  0.00000000000E+00 -0.00000000000E+00 -0.61277187469E+02  0.61457169672E+02  0.47000000000E+01 0. -1.
         25    2    1    2    0    0 -0.45437144049E+02 -0.12211629492E+02  0.12850146474E+03  0.18533064580E+03  0.12498465457E+03 0.  0.
         25    2    1    2    0    0  0.45437144049E+02  0.12211629492E+02  0.10228457717E+03  0.16822756795E+03  0.12499888775E+03 0.  0.
          5    1    3    3  502    0 -0.10786970973E+02  0.30775984417E+02 -0.11391600914E+02  0.34862279487E+02  0.47000000000E+01 0.  1.
         -5    1    3    3    0  502 -0.34650173076E+02 -0.42987613909E+02  0.13989306565E+03  0.15046836631E+03  0.47000000000E+01 0.  1.
          5    1    4    4  503    0  0.36529525936E+02 -0.51838524634E+02  0.27589525336E+02  0.69317463959E+02  0.47000000000E+01 0. -1.
         -5    1    4    4    0  503  0.89076181124E+01  0.64050154126E+02  0.74695051832E+02  0.98910103994E+02  0.47000000000E+01 0. -1.
<mgrwt>
<rscale>  0 0.13355707E+03</rscale>
<asrwt>0</asrwt>
<pdfrwt beam="2">  1        5 0.94440132E-02 0.13356040E+03</pdfrwt>
<pdfrwt beam="1">  1       -5 0.44949558E-01 0.13356040E+03</pdfrwt>
<totfact> 0.30279490E+02</totfact>
</mgrwt>
</event>
<event>
 8    1  0.3682083E-007  0.1293022E+03  0.7546771E-02  0.1228495E+00
          5   -1    0    0  501    0  0.00000000000E+00  0.00000000000E+00  0.22345557853E+03  0.22350500123E+03  0.47000000000E+01 0. -1.
         -5   -1    0    0    0  501 -0.00000000000E+00 -0.00000000000E+00 -0.75272439595E+02  0.75419030507E+02  0.47000000000E+01 0. -1.
         25    2    1    2    0    0  0.76531459146E+00  0.33050760666E+02  0.60941229296E+02  0.14294366665E+03  0.12500447960E+03 0.  0.
         25    2    1    2    0    0 -0.76531459146E+00 -0.33050760666E+02  0.87241909637E+02  0.15598036509E+03  0.12500314000E+03 0.  0.
          5    1    3    3  502    0  0.36747089914E+02  0.63545741958E+02  0.60976768280E+02  0.95544053756E+02  0.47000000000E+01 0. -1.
         -5    1    3    3    0  502 -0.35981775323E+02 -0.30494981293E+02 -0.35538984195E-01  0.47399612893E+02  0.47000000000E+01 0. -1.
          5    1    4    4  503    0 -0.29801684064E+02  0.25198684777E+02 -0.84013105726E+01  0.40196842001E+02  0.47000000000E+01 0. -1.
         -5    1    4    4    0  503  0.29036369472E+02 -0.58249445443E+02  0.95643220210E+02  0.11578352309E+03  0.47000000000E+01 0. -1.
<mgrwt>
<rscale>  0 0.12930187E+03</rscale>
<asrwt>0</asrwt>
<pdfrwt beam="1">  1        5 0.34392859E-01 0.12930220E+03</pdfrwt>
<pdfrwt beam="2">  1       -5 0.11595453E-01 0.12930220E+03</pdfrwt>
<totfact> 0.36061350E+02</totfact>
</mgrwt>
</event>
<event>
 8    1  0.3682083E-007  0.1401609E+03  0.7546771E-02  0.1213118E+00
         -5   -1    0    0    0  501 -0.00000000000E+00  0.00000000000E+00  0.24347964418E+03  0.24352500309E+03  0.47000000000E+01 0. -1.
          5   -1    0    0  501    0  0.00000000000E+00 -0.00000000000E+00 -0.81325483175E+02  0.81461182250E+02  0.47000000000E+01 0. -1.
         25    2    1    2    0    0 -0.48566137961E+01  0.63186720680E+02  0.65268801496E+02  0.15461274447E+03  0.12501574275E+03 0.  0.
         25    2    1    2    0    0  0.48566137961E+01 -0.63186720680E+02  0.96885359505E+02  0.17037344087E+03  0.12499675236E+03 0.  0.
          5    1    3    3  502    0  0.37039928279E+02  0.77889325340E+02  0.67924759818E+02  0.10988433139E+03  0.47000000000E+01 0.  1.
         -5    1    3    3    0  502 -0.41896542075E+02 -0.14702604660E+02 -0.26559583214E+01  0.44728413076E+02  0.47000000000E+01 0.  1.
          5    1    4    4  503    0 -0.30910102891E+02 -0.89948196303E+02  0.65865407299E+02  0.11578624425E+03  0.47000000000E+01 0. -1.
         -5    1    4    4    0  503  0.35766716687E+02  0.26761475622E+02  0.31019952206E+02  0.54587196621E+02  0.47000000000E+01 0. -1.
<mgrwt>
<rscale>  0 0.14015669E+03</rscale>
<asrwt>0</asrwt>
<pdfrwt beam="2">  1        5 0.12525540E-01 0.14016092E+03</pdfrwt>
<pdfrwt beam="1">  1       -5 0.37472335E-01 0.14016092E+03</pdfrwt>
<totfact> 0.27227456E+02</totfact>
</mgrwt>
</event>
<event>
 8    1  0.3682083E-007  0.1328657E+03  0.7546771E-02  0.1223265E+00
          5   -1    0    0  501    0  0.00000000000E+00  0.00000000000E+00  0.18199616575E+02  0.18796702994E+02  0.47000000000E+01 0.  1.
         -5   -1    0    0    0  501 -0.00000000000E+00 -0.00000000000E+00 -0.11377769725E+04  0.11377866800E+04  0.47000000000E+01 0.  1.
         25    2    1    2    0    0  0.17747147333E+02  0.41395063932E+02 -0.79232282454E+03  0.80338580584E+03  0.12499912873E+03 0.  0.
         25    2    1    2    0    0 -0.17747147333E+02 -0.41395063932E+02 -0.32725453138E+03  0.35319757713E+03  0.12499795049E+03 0.  0.
          5    1    3    3  502    0  0.36834376350E+02 -0.28916050698E+00 -0.67018025151E+02  0.76618278433E+02  0.47000000000E+01 0. -1.
         -5    1    3    3    0  502 -0.19087229017E+02  0.41684224439E+02 -0.72530479939E+03  0.72676752741E+03  0.47000000000E+01 0. -1.
          5    1    4    4  503    0 -0.31013156075E+02 -0.81975958480E+02 -0.18821623968E+03  0.20767598922E+03  0.47000000000E+01 0. -1.
         -5    1    4    4    0  503  0.13266008742E+02  0.40580894547E+02 -0.13903829170E+03  0.14552158791E+03  0.47000000000E+01 0. -1.
<mgrwt>
<rscale>  0 0.13286542E+03</rscale>
<asrwt>0</asrwt>
<pdfrwt beam="1">  1        5 0.28466184E-02 0.13286570E+03</pdfrwt>
<pdfrwt beam="2">  1       -5 0.17508923E+00 0.13286570E+03</pdfrwt>
<totfact> 0.85172143E+01</totfact>
</mgrwt>
</event>
<event>
 8    1  0.3682083E-007  0.1297191E+03  0.7546771E-02  0.1227874E+00
         -5   -1    0    0    0  501 -0.00000000000E+00  0.00000000000E+00  0.64081409743E+02  0.64253537448E+02  0.47000000000E+01 0. -1.
          5   -1    0    0  501    0  0.00000000000E+00 -0.00000000000E+00 -0.32890797232E+03  0.32894155142E+03  0.47000000000E+01 0. -1.
         25    2    1    2    0    0  0.26197247507E+02 -0.22704567470E+02 -0.43798202496E+02  0.13691353393E+03  0.12500096027E+03 0.  0.
         25    2    1    2    0    0 -0.26197247507E+02  0.22704567470E+02 -0.22102836008E+03  0.25628155495E+03  0.12499962514E+03 0.  0.
          5    1    4    4  502    0 -0.68074174298E+02  0.29465010999E+02 -0.81181508286E+02  0.11006728563E+03  0.47000000000E+01 0.  1.
         -5    1    4    4    0  502  0.41876926790E+02 -0.67604435293E+01 -0.13984685179E+03  0.14621426931E+03  0.47000000000E+01 0.  1.
          5    1    3    3  503    0  0.64896999648E+02 -0.50038599845E+02 -0.28993642447E+02  0.87052876691E+02  0.47000000000E+01 0.  1.
         -5    1    3    3    0  503 -0.38699752141E+02  0.27334032375E+02 -0.14804560049E+02  0.49860657235E+02  0.47000000000E+01 0.  1.
<mgrwt>
<rscale>  0 0.12971873E+03</rscale>
<asrwt>0</asrwt>
<pdfrwt beam="2">  1        5 0.50617049E-01 0.12971906E+03</pdfrwt>
<pdfrwt beam="1">  1       -5 0.98745022E-02 0.12971906E+03</pdfrwt>
<totfact> 0.21608301E+02</totfact>
</mgrwt>
</event>
<event>
 8    1  0.3682083E-007  0.1296029E+03  0.7546771E-02  0.1228054E+00
         -5   -1    0    0    0  501 -0.00000000000E+00  0.00000000000E+00  0.10711872577E+02  0.11697615744E+02  0.47000000000E+01 0.  1.
          5   -1    0    0  501    0  0.00000000000E+00 -0.00000000000E+00 -0.15004232120E+04  0.15004305732E+04  0.47000000000E+01 0.  1.
         25    2    1    2    0    0 -0.11272368947E+02 -0.32307072400E+02 -0.71368561933E+03  0.72535789462E+03  0.12500439522E+03 0.  0.
         25    2    1    2    0    0  0.11272368947E+02  0.32307072400E+02 -0.77602572008E+03  0.78677029434E+03  0.12498305730E+03 0.  0.
          5    1    4    4  502    0  0.15921789416E+02  0.68340175415E+02 -0.68571509293E+03  0.68931209305E+03  0.47000000000E+01 0. -1.
         -5    1    4    4    0  502 -0.46494204685E+01 -0.36033103015E+02 -0.90310627149E+02  0.97458201295E+02  0.47000000000E+01 0. -1.
          5    1    3    3  503    0 -0.39334152006E+02 -0.66036600453E+02 -0.56618644499E+03  0.57139932499E+03  0.47000000000E+01 0.  1.
         -5    1    3    3    0  503  0.28061783059E+02  0.33729528053E+02 -0.14749917434E+03  0.15395856963E+03  0.47000000000E+01 0.  1.
<mgrwt>
<rscale>  0 0.12959776E+03</rscale>
<asrwt>0</asrwt>
<pdfrwt beam="2">  1        5 0.23091057E+00 0.12960290E+03</pdfrwt>
<pdfrwt beam="1">  1       -5 0.17243742E-02 0.12960290E+03</pdfrwt>
<totfact> 0.78944729E+01</totfact>
</mgrwt>
</event>
<event>
 8    1  0.3682083E-007  0.1259674E+03  0.7546771E-02  0.1233566E+00
          5   -1    0    0  501    0  0.00000000000E+00  0.00000000000E+00  0.23867307606E+02  0.24325673112E+02  0.47000000000E+01 0.  1.
         -5   -1    0    0    0  501 -0.00000000000E+00 -0.00000000000E+00 -0.67937650329E+03  0.67939276065E+03  0.47000000000E+01 0.  1.
         25    2    1    2    0    0 -0.69289957575E+01  0.13959882395E+02 -0.39009118078E+03  0.40992510760E+03  0.12499830084E+03 0.  0.
         25    2    1    2    0    0  0.69289957575E+01 -0.13959882395E+02 -0.26541801490E+03  0.29379332617E+03  0.12499962627E+03 0.  0.
          5    1    3    3  502    0 -0.52469648906E+02  0.37314046188E+02 -0.13415236426E+03  0.14887695905E+03  0.47000000000E+01 0. -1.
         -5    1    3    3    0  502  0.45540653148E+02 -0.23354163792E+02 -0.25593881653E+03  0.26104814855E+03  0.47000000000E+01 0. -1.
          5    1    4    4  503    0  0.16864026596E+02 -0.64853586878E+02 -0.10076032971E+03  0.12109961671E+03  0.47000000000E+01 0. -1.
         -5    1    4    4    0  503 -0.99350308387E+01  0.50893704482E+02 -0.16465768519E+03  0.17269370946E+03  0.47000000000E+01 0. -1.
<mgrwt>
<rscale>  0 0.12596711E+03</rscale>
<asrwt>0</asrwt>
<pdfrwt beam="1">  1        5 0.37084034E-02 0.12596744E+03</pdfrwt>
<pdfrwt beam="2">  1       -5 0.10455596E+00 0.12596744E+03</pdfrwt>
<totfact> 0.21333596E+02</totfact>
</mgrwt>
</event>
<event>
 8    1  0.3682083E-007  0.1281788E+03  0.7546771E-02  0.1230192E+00
         -5   -1    0    0    0  501 -0.00000000000E+00  0.00000000000E+00  0.10484053186E+04  0.10484158535E+04  0.47000000000E+01 0.  1.
          5   -1    0    0  501    0  0.00000000000E+00 -0.00000000000E+00 -0.15429281541E+02  0.16129250723E+02  0.47000000000E+01 0.  1.
         25    2    1    2    0    0  0.31786618154E+01 -0.28214845932E+02  0.46972899834E+03  0.48689726189E+03  0.12496971769E+03 0.  0.
         25    2    1    2    0    0 -0.31786618154E+01  0.28214845932E+02  0.56324703867E+03  0.57764784237E+03  0.12499448709E+03 0.  0.
          5    1    4    4  502    0  0.26946728121E+01  0.13802217698E+02  0.67692729748E+00  0.14842867159E+02  0.47000000000E+01 0.  1.
         -5    1    4    4    0  502 -0.58733346275E+01  0.14412628234E+02  0.56257011138E+03  0.56280497522E+03  0.47000000000E+01 0.  1.
          5    1    3    3  503    0 -0.20142236116E+02  0.44790361845E+02  0.14314316885E+03  0.15140654866E+03  0.47000000000E+01 0. -1.
         -5    1    3    3    0  503  0.23320897932E+02 -0.73005207776E+02  0.32658582949E+03  0.33549071323E+03  0.47000000000E+01 0. -1.
<mgrwt>
<rscale>  0 0.12817276E+03</rscale>
<asrwt>0</asrwt>
<pdfrwt beam="2">  1        5 0.24283908E-02 0.12817879E+03</pdfrwt>
<pdfrwt beam="1">  1       -5 0.16134771E+00 0.12817879E+03</pdfrwt>
<totfact> 0.13709993E+02</totfact>
</mgrwt>
</event>
<event>
 8    1  0.3682083E-007  0.1251968E+03  0.7546771E-02  0.1234777E+00
         -5   -1    0    0    0  501 -0.00000000000E+00  0.00000000000E+00  0.12001579954E+03  0.12010779383E+03  0.47000000000E+01 0. -1.
          5   -1    0    0  501    0  0.00000000000E+00 -0.00000000000E+00 -0.13964780777E+03  0.13972687721E+03  0.47000000000E+01 0. -1.
         25    2    1    2    0    0 -0.49263523830E+01 -0.39004946038E+01  0.23638414976E+02  0.12737124929E+03  0.12500071071E+03 0.  0.
         25    2    1    2    0    0  0.49263523830E+01  0.39004946038E+01 -0.43270423208E+02  0.13246342175E+03  0.12503897701E+03 0.  0.
          5    1    4    4  502    0  0.46027691400E+02 -0.16036483923E+02 -0.65226718734E+02  0.81561829486E+02  0.47000000000E+01 0. -1.
         -5    1    4    4    0  502 -0.41101339017E+02  0.19936978527E+02  0.21956295526E+02  0.50901592264E+02  0.47000000000E+01 0. -1.
          5    1    3    3  503    0  0.55910668378E+02 -0.20329932139E+02 -0.62767271009E+00  0.59680758644E+02  0.47000000000E+01 0. -1.
         -5    1    3    3    0  503 -0.60837020761E+02  0.16429437536E+02  0.24266087687E+02  0.67690490650E+02  0.47000000000E+01 0. -1.
<mgrwt>
<rscale>  0 0.12518720E+03</rscale>
<asrwt>0</asrwt>
<pdfrwt beam="2">  1        5 0.21497437E-01 0.12519676E+03</pdfrwt>
<pdfrwt beam="1">  1       -5 0.18477128E-01 0.12519676E+03</pdfrwt>
<totfact> 0.38173521E+02</totfact>
</mgrwt>
</event>
<event>
 8    1  0.3682083E-007  0.1471911E+03  0.7546771E-02  0.1203970E+00
         -5   -1    0    0    0  501 -0.00000000000E+00  0.00000000000E+00  0.10640540889E+03  0.10650915943E+03  0.47000000000E+01 0.  1.
          5   -1    0    0  501    0  0.00000000000E+00 -0.00000000000E+00 -0.20689183641E+03  0.20694521491E+03  0.47000000000E+01 0.  1.
         25    2    1    2    0    0 -0.39844185182E+01  0.77616664170E+02 -0.29807134328E+02  0.15017311425E+03  0.12499310716E+03 0.  0.
         25    2    1    2    0    0  0.39844185182E+01 -0.77616664170E+02 -0.70679293191E+02  0.16328126009E+03  0.12499994105E+03 0.  0.
          5    1    4    4  502    0  0.47344902990E+02  0.22875660248E+01  0.64187509085E+00  0.47636905872E+02  0.47000000000E+01 0.  1.
         -5    1    4    4    0  502 -0.43360484472E+02 -0.79904230195E+02 -0.71321168282E+02  0.11564435422E+03  0.47000000000E+01 0.  1.
          5    1    3    3  503    0  0.10553218357E+02  0.95466176022E+02  0.17136835856E+02  0.97677644961E+02  0.47000000000E+01 0.  1.
         -5    1    3    3    0  503 -0.14537636875E+02 -0.17849511852E+02 -0.46943970183E+02  0.52495469289E+02  0.47000000000E+01 0.  1.
<mgrwt>
<rscale>  0 0.14718961E+03</rscale>
<asrwt>0</asrwt>
<pdfrwt beam="2">  1        5 0.31841600E-01 0.14719106E+03</pdfrwt>
<pdfrwt beam="1">  1       -5 0.16382150E-01 0.14719106E+03</pdfrwt>
<totfact> 0.23632267E+02</totfact>
</mgrwt>
</event>
<event>
 8    1  0.3682083E-007  0.1263366E+03  0.7546771E-02  0.1232998E+00
          5   -1    0    0  501    0  0.00000000000E+00  0.00000000000E+00  0.48262047607E+03  0.48264336100E+03  0.47000000000E+01 0.  1.
         -5   -1    0    0    0  501 -0.00000000000E+00 -0.00000000000E+00 -0.33120993464E+02  0.33452805682E+02  0.47000000000E+01 0.  1.
         25    2    1    2    0    0  0.18256731441E+02 -0.86541141253E+00  0.20277224907E+03  0.23890440637E+03  0.12499869283E+03 0.  0.
         25    2    1    2    0    0 -0.18256731441E+02  0.86541141253E+00  0.24672723353E+03  0.27719176032E+03  0.12500754793E+03 0.  0.
          5    1    3    3  502    0 -0.50862107700E+02  0.90976812486E+01  0.56250695996E+02  0.76524196198E+02  0.47000000000E+01 0. -1.
         -5    1    3    3    0  502  0.69118839141E+02 -0.99630926611E+01  0.14652155308E+03  0.16238021017E+03  0.47000000000E+01 0. -1.
          5    1    4    4  503    0  0.38805774931E+02 -0.34191906316E+02  0.15536504069E+03  0.16381501913E+03  0.47000000000E+01 0.  1.
         -5    1    4    4    0  503 -0.57062506372E+02  0.35057317729E+02  0.91362192843E+02  0.11337674118E+03  0.47000000000E+01 0.  1.
<mgrwt>
<rscale>  0 0.12633444E+03</rscale>
<asrwt>0</asrwt>
<pdfrwt beam="1">  1        5 0.74276590E-01 0.12633663E+03</pdfrwt>
<pdfrwt beam="2">  1       -5 0.51228217E-02 0.12633663E+03</pdfrwt>
<totfact> 0.28124463E+02</totfact>
</mgrwt>
</event>
<event>
 8    1  0.3682083E-007  0.1285431E+03  0.7546771E-02  0.1229635E+00
         -5   -1    0    0    0  501 -0.00000000000E+00  0.00000000000E+00  0.45960711087E+02  0.46200400037E+02  0.47000000000E+01 0. -1.
          5   -1    0    0  501    0  0.00000000000E+00 -0.00000000000E+00 -0.36222511944E+03  0.36225561024E+03  0.47000000000E+01 0. -1.
         25    2    1    2    0    0  0.40293809689E+01  0.29705976700E+02 -0.13690901062E+03  0.18779617386E+03  0.12499857905E+03 0.  0.
         25    2    1    2    0    0 -0.40293809689E+01 -0.29705976700E+02 -0.17935539773E+03  0.22065983642E+03  0.12499489490E+03 0.  0.
          5    1    3    3  502    0  0.13516830187E+02 -0.30398938455E+02  0.43858976759E+01  0.33884011803E+02  0.47000000000E+01 0.  1.
         -5    1    3    3    0  502 -0.94874492181E+01  0.60104915155E+02 -0.14129490830E+03  0.15391216206E+03  0.47000000000E+01 0.  1.
          5    1    4    4  503    0 -0.32478805025E+02 -0.94351267104E+00 -0.17683228598E+03  0.17985413634E+03  0.47000000000E+01 0. -1.
         -5    1    4    4    0  503  0.28449424056E+02 -0.28762464029E+02 -0.25231117458E+01  0.40805700080E+02  0.47000000000E+01 0. -1.
<mgrwt>
<rscale>  0 0.12854219E+03</rscale>
<asrwt>0</asrwt>
<pdfrwt beam="2">  1        5 0.55747723E-01 0.12854309E+03</pdfrwt>
<pdfrwt beam="1">  1       -5 0.70916619E-02 0.12854309E+03</pdfrwt>
<totfact> 0.30947986E+02</totfact>
</mgrwt>
</event>
<event>
 8    1  0.3682083E-007  0.1463538E+03  0.7546771E-02  0.1205028E+00
          5   -1    0    0  501    0  0.00000000000E+00  0.00000000000E+00  0.50927524282E+02  0.51143941278E+02  0.47000000000E+01 0. -1.
         -5   -1    0    0    0  501 -0.00000000000E+00 -0.00000000000E+00 -0.42812549202E+03  0.42815128976E+03  0.47000000000E+01 0. -1.
         25    2    1    2    0    0  0.47184409377E+02  0.59726636530E+02 -0.22270254959E+03  0.26648479884E+03  0.12499633121E+03 0.  0.
         25    2    1    2    0    0 -0.47184409377E+02 -0.59726636530E+02 -0.15449541815E+03  0.21281043220E+03  0.12500322486E+03 0.  0.
          5    1    4    4  502    0 -0.49090368981E+02  0.21652286467E+02 -0.10340167069E+03  0.11658765517E+03  0.47000000000E+01 0.  1.
         -5    1    4    4    0  502  0.19059596036E+01 -0.81378922997E+02 -0.51093747455E+02  0.96222777029E+02  0.47000000000E+01 0.  1.
          5    1    3    3  503    0  0.28624511740E+01  0.88337271963E+02 -0.17058242897E+03  0.19217731999E+03  0.47000000000E+01 0.  1.
         -5    1    3    3    0  503  0.44321958203E+02 -0.28610635433E+02 -0.52120120621E+02  0.74307478845E+02  0.47000000000E+01 0.  1.
<mgrwt>
<rscale>  0 0.14635237E+03</rscale>
<asrwt>0</asrwt>
<pdfrwt beam="1">  1        5 0.78536359E-02 0.14635384E+03</pdfrwt>
<pdfrwt beam="2">  1       -5 0.65884090E-01 0.14635384E+03</pdfrwt>
<totfact> 0.18844500E+02</totfact>
</mgrwt>
</event>
<event>
 8    1  0.3682083E-007  0.2387357E+03  0.7546771E-02  0.1120638E+00
          5   -1    0    0  501    0  0.00000000000E+00  0.00000000000E+00  0.26029771607E+03  0.26034014480E+03  0.47000000000E+01 0.  1.
         -5   -1    0    0    0  501 -0.00000000000E+00 -0.00000000000E+00 -0.22096534465E+03  0.22101532422E+03  0.47000000000E+01 0.  1.
         25    2    1    2    0    0  0.19762372215E+03  0.48112646108E+02  0.43076173572E+02  0.24259039904E+03  0.12499833080E+03 0.  0.
         25    2    1    2    0    0 -0.19762372215E+03 -0.48112646108E+02 -0.37438021532E+01  0.23876506998E+03  0.12499912126E+03 0.  0.
          5    1    4    4  502    0 -0.12223797524E+02  0.33122393478E+02  0.57177622398E+01  0.36073494157E+02  0.47000000000E+01 0. -1.
         -5    1    4    4    0  502 -0.18539992462E+03 -0.81235039586E+02 -0.94615643930E+01  0.20269157582E+03  0.47000000000E+01 0. -1.
          5    1    3    3  503    0  0.40982964537E+02 -0.30322746392E+02 -0.21904890922E+02  0.55686502649E+02  0.47000000000E+01 0. -1.
         -5    1    3    3    0  503  0.15664075761E+03  0.78435392500E+02  0.64981064494E+02  0.18690389639E+03  0.47000000000E+01 0. -1.
<mgrwt>
<rscale>  0 0.23873561E+03</rscale>
<asrwt>0</asrwt>
<pdfrwt beam="1">  1        5 0.40052911E-01 0.23873572E+03</pdfrwt>
<pdfrwt beam="2">  1       -5 0.34001777E-01 0.23873572E+03</pdfrwt>
<totfact> 0.42089306E+01</totfact>
</mgrwt>
</event>
<event>
 8    1  0.3682083E-007  0.1895087E+03  0.7546771E-02  0.1158906E+00
          5   -1    0    0  501    0  0.00000000000E+00  0.00000000000E+00  0.54209112434E+02  0.54412479000E+02  0.47000000000E+01 0.  1.
         -5   -1    0    0    0  501 -0.00000000000E+00 -0.00000000000E+00 -0.79651618228E+03  0.79653004879E+03  0.47000000000E+01 0.  1.
         25    2    1    2    0    0 -0.71833279136E+02  0.12298785151E+03 -0.54661235214E+03  0.57853143102E+03  0.12501008584E+03 0.  0.
         25    2    1    2    0    0  0.71833279136E+02 -0.12298785151E+03 -0.19569471771E+03  0.27241109677E+03  0.12500140598E+03 0.  0.
          5    1    3    3  502    0  0.88363938961E+01  0.58830376388E+01 -0.24254788346E+03  0.24282557065E+03  0.47000000000E+01 0. -1.
         -5    1    3    3    0  502 -0.80669673032E+02  0.11710481387E+03 -0.30406446867E+03  0.33570586037E+03  0.47000000000E+01 0. -1.
          5    1    4    4  503    0 -0.24685451423E+02 -0.78791942847E+02 -0.95920248501E+02  0.12665040798E+03  0.47000000000E+01 0. -1.
         -5    1    4    4    0  503  0.96518730558E+02 -0.44195908661E+02 -0.99774469206E+02  0.14576068879E+03  0.47000000000E+01 0. -1.
<mgrwt>
<rscale>  0 0.18950728E+03</rscale>
<asrwt>0</asrwt>
<pdfrwt beam="1">  1        5 0.83565743E-02 0.18950872E+03</pdfrwt>
<pdfrwt beam="2">  1       -5 0.12255765E+00 0.18950872E+03</pdfrwt>
<totfact> 0.41457333E+01</totfact>
</mgrwt>
</event>
<event>
 8    1  0.3682083E-007  0.1373775E+03  0.7546771E-02  0.1216904E+00
         -5   -1    0    0    0  501 -0.00000000000E+00  0.00000000000E+00  0.20880286874E+04  0.20880339771E+04  0.47000000000E+01 0.  1.
          5   -1    0    0  501    0  0.00000000000E+00 -0.00000000000E+00 -0.85760016023E+01  0.97794582407E+01  0.47000000000E+01 0.  1.
         25    2    1    2    0    0 -0.55219733921E+02  0.13985733207E+02  0.11714727369E+04  0.11794996781E+04  0.12500519024E+03 0.  0.
         25    2    1    2    0    0  0.55219733921E+02 -0.13985733207E+02  0.90797994888E+03  0.91831375719E+03  0.12501099688E+03 0.  0.
          5    1    3    3  502    0 -0.76877135545E+02  0.27569093106E+02  0.11065069575E+04  0.11095268748E+04  0.47000000000E+01 0.  1.
         -5    1    3    3    0  502  0.21657401623E+02 -0.13583359899E+02  0.64965779414E+02  0.69972803331E+02  0.47000000000E+01 0.  1.
          5    1    4    4  503    0  0.53303042943E+02 -0.45044383591E+02  0.84518326691E+03  0.84807255323E+03  0.47000000000E+01 0.  1.
         -5    1    4    4    0  503  0.19166909782E+01  0.31058650384E+02  0.62796681970E+02  0.70241203964E+02  0.47000000000E+01 0.  1.
<mgrwt>
<rscale>  0 0.13737615E+03</rscale>
<asrwt>0</asrwt>
<pdfrwt beam="2">  1        5 0.14123652E-02 0.13737747E+03</pdfrwt>
<pdfrwt beam="1">  1       -5 0.32132819E+00 0.13737747E+03</pdfrwt>
<totfact> 0.29404830E+01</totfact>
</mgrwt>
</event>
<event>
 8    1  0.3682083E-007  0.1629121E+03  0.7546771E-02  0.1185448E+00
          5   -1    0    0  501    0  0.00000000000E+00  0.00000000000E+00  0.16052113319E+03  0.16058992559E+03  0.47000000000E+01 0. -1.
         -5   -1    0    0    0  501 -0.00000000000E+00 -0.00000000000E+00 -0.16632635833E+03  0.16639275067E+03  0.47000000000E+01 0. -1.
         25    2    1    2    0    0 -0.92629830757E+02 -0.48318804885E+02 -0.16345070746E+02  0.16372998593E+03  0.12500141801E+03 0.  0.
         25    2    1    2    0    0  0.92629830757E+02  0.48318804885E+02  0.10539845613E+02  0.16325269033E+03  0.12500144040E+03 0.  0.
          5    1    3    3  502    0 -0.13114356818E+02  0.63932221931E+01  0.46162852480E+02  0.48641120401E+02  0.47000000000E+01 0.  1.
         -5    1    3    3    0  502 -0.79515473939E+02 -0.54712027078E+02 -0.62507923226E+02  0.11508886553E+03  0.47000000000E+01 0.  1.
          5    1    4    4  503    0  0.46923084888E+02 -0.40911103154E+02  0.10451174044E+01  0.62439382821E+02  0.47000000000E+01 0.  1.
         -5    1    4    4    0  503  0.45706745869E+02  0.89229908039E+02  0.94947282090E+01  0.10081330751E+03  0.47000000000E+01 0.  1.
<mgrwt>
<rscale>  0 0.16291210E+03</rscale>
<asrwt>0</asrwt>
<pdfrwt beam="1">  1        5 0.24705958E-01 0.16291210E+03</pdfrwt>
<pdfrwt beam="2">  1       -5 0.25599069E-01 0.16291210E+03</pdfrwt>
<totfact> 0.17335359E+02</totfact>
</mgrwt>
</event>
<event>
 8    1  0.3682083E-007  0.1538066E+03  0.7546771E-02  0.1195872E+00
         -5   -1    0    0    0  501 -0.00000000000E+00  0.00000000000E+00  0.63575076413E+02  0.63748571285E+02  0.47000000000E+01 0. -1.
          5   -1    0    0  501    0  0.00000000000E+00 -0.00000000000E+00 -0.38724351569E+03  0.38727203675E+03  0.47000000000E+01 0. -1.
         25    2    1    2    0    0  0.29018007132E+02 -0.84790285738E+02 -0.11624076100E+03  0.19279104999E+03  0.12500014858E+03 0.  0.
         25    2    1    2    0    0 -0.29018007132E+02  0.84790285738E+02 -0.20742767828E+03  0.25822955804E+03  0.12499930255E+03 0.  0.
          5    1    3    3  502    0  0.64007579644E+02 -0.93695551501E+02 -0.68063408476E+02  0.13240296143E+03  0.47000000000E+01 0. -1.
         -5    1    3    3    0  502 -0.34989572512E+02  0.89052657626E+01 -0.48177352527E+02  0.60388088556E+02  0.47000000000E+01 0. -1.
          5    1    4    4  503    0 -0.23278750947E+02  0.10864483055E+03 -0.10551832017E+03  0.15330298543E+03  0.47000000000E+01 0.  1.
         -5    1    4    4    0  503 -0.57392561846E+01 -0.23854544811E+02 -0.10190935811E+03  0.10492657261E+03  0.47000000000E+01 0.  1.
<mgrwt>
<rscale>  0 0.15380644E+03</rscale>
<asrwt>0</asrwt>
<pdfrwt beam="2">  1        5 0.59591464E-01 0.15380661E+03</pdfrwt>
<pdfrwt beam="1">  1       -5 0.97963209E-02 0.15380661E+03</pdfrwt>
<totfact> 0.16312571E+02</totfact>
</mgrwt>
</event>
<event>
 8    1  0.3682083E-007  0.1413692E+03  0.7546771E-02  0.1211499E+00
         -5   -1    0    0    0  501 -0.00000000000E+00  0.00000000000E+00  0.38380682280E+02  0.38667386416E+02  0.47000000000E+01 0. -1.
          5   -1    0    0  501    0  0.00000000000E+00 -0.00000000000E+00 -0.58089339212E+03  0.58091240562E+03  0.47000000000E+01 0. -1.
         25    2    1    2    0    0  0.49822077247E+02  0.43341254715E+02 -0.16973191676E+03  0.22089405232E+03  0.12499822016E+03 0.  0.
         25    2    1    2    0    0 -0.49822077247E+02 -0.43341254715E+02 -0.37278079308E+03  0.39868573972E+03  0.12499638244E+03 0.  0.
          5    1    4    4  502    0  0.25651368573E+02  0.23593120771E+02 -0.15027214898E+03  0.15433222870E+03  0.47000000000E+01 0.  1.
         -5    1    4    4    0  502 -0.75473445820E+02 -0.66934375486E+02 -0.22250864410E+03  0.24435351102E+03  0.47000000000E+01 0.  1.
          5    1    3    3  503    0 -0.70077158192E+01  0.44335272931E+02 -0.36337552921E+01  0.45277132025E+02  0.47000000000E+01 0.  1.
         -5    1    3    3    0  503  0.56829793066E+02 -0.99401821613E+00 -0.16609816146E+03  0.17561692029E+03  0.47000000000E+01 0.  1.
<mgrwt>
<rscale>  0 0.14136882E+03</rscale>
<asrwt>0</asrwt>
<pdfrwt beam="2">  1        5 0.89391725E-01 0.14136923E+03</pdfrwt>
<pdfrwt beam="1">  1       -5 0.59282375E-02 0.14136923E+03</pdfrwt>
<totfact> 0.14897166E+02</totfact>
</mgrwt>
</event>
<event>
 8    1  0.3682083E-007  0.1492499E+03  0.7546771E-02  0.1201404E+00
         -5   -1    0    0    0  501 -0.00000000000E+00  0.00000000000E+00  0.67508705619E+02  0.67672116372E+02  0.47000000000E+01 0.  1.
          5   -1    0    0  501    0  0.00000000000E+00 -0.00000000000E+00 -0.32936227979E+03  0.32939581258E+03  0.47000000000E+01 0.  1.
         25    2    1    2    0    0  0.24018075335E+02 -0.77892759961E+02 -0.13241579881E+03  0.19950866077E+03  0.12500244778E+03 0.  0.
         25    2    1    2    0    0 -0.24018075335E+02  0.77892759961E+02 -0.12943777536E+03  0.19755926818E+03  0.12502550443E+03 0.  0.
          5    1    3    3  502    0 -0.29132827080E+02 -0.59416012638E+02 -0.13263407112E+02  0.67653471010E+02  0.47000000000E+01 0.  1.
         -5    1    3    3    0  502  0.53150902415E+02 -0.18476747323E+02 -0.11915239170E+03  0.13185518976E+03  0.47000000000E+01 0.  1.
          5    1    4    4  503    0 -0.15915271548E+02  0.80016336334E+02 -0.15225698455E+03  0.17280101069E+03  0.47000000000E+01 0. -1.
         -5    1    4    4    0  503 -0.81028037872E+01 -0.21235763729E+01  0.22819209198E+02  0.24758257496E+02  0.47000000000E+01 0. -1.
<mgrwt>
<rscale>  0 0.14924505E+03</rscale>
<asrwt>0</asrwt>
<pdfrwt beam="2">  1        5 0.50686268E-01 0.14924988E+03</pdfrwt>
<pdfrwt beam="1">  1       -5 0.10401104E-01 0.14924988E+03</pdfrwt>
<totfact> 0.20628563E+02</totfact>
</mgrwt>
</event>
<event>
 8    1  0.3682083E-007  0.1312829E+03  0.7546771E-02  0.1225566E+00
         -5   -1    0    0    0  501 -0.00000000000E+00  0.00000000000E+00  0.16144316076E+02  0.16814545535E+02  0.47000000000E+01 0.  1.
          5   -1    0    0  501    0  0.00000000000E+00 -0.00000000000E+00 -0.10466350012E+04  0.10466455540E+04  0.47000000000E+01 0.  1.
         25    2    1    2    0    0  0.23152851371E+02  0.32758219865E+02 -0.49517625910E+03  0.51228251034E+03  0.12499874929E+03 0.  0.
         25    2    1    2    0    0 -0.23152851371E+02 -0.32758219865E+02 -0.53531442601E+03  0.55117758921E+03  0.12500417852E+03 0.  0.
          5    1    3    3  502    0 -0.43009062456E+02  0.15283323942E+02 -0.33372657437E+03  0.33686625815E+03  0.47000000000E+01 0.  1.
         -5    1    3    3    0  502  0.66161913827E+02  0.17474895923E+02 -0.16144968474E+03  0.17541625219E+03  0.47000000000E+01 0.  1.
          5    1    4    4  503    0 -0.33880941175E+01 -0.49888300342E+02 -0.51572228599E+03  0.51816202867E+03  0.47000000000E+01 0. -1.
         -5    1    4    4    0  503 -0.19764757253E+02  0.17130080478E+02 -0.19592140025E+02  0.33015560532E+02  0.47000000000E+01 0. -1.
<mgrwt>
<rscale>  0 0.13128161E+03</rscale>
<asrwt>0</asrwt>
<pdfrwt beam="2">  1        5 0.16107308E+00 0.13128290E+03</pdfrwt>
<pdfrwt beam="1">  1       -5 0.25361096E-02 0.13128290E+03</pdfrwt>
<totfact> 0.12954252E+02</totfact>
</mgrwt>
</event>
<event>
 8    1  0.3682083E-007  0.1347885E+03  0.7546771E-02  0.1220519E+00
          5   -1    0    0  501    0  0.00000000000E+00  0.00000000000E+00  0.15631763583E+03  0.15638827729E+03  0.47000000000E+01 0. -1.
         -5   -1    0    0    0  501 -0.00000000000E+00 -0.00000000000E+00 -0.17505420256E+03  0.17511728594E+03  0.47000000000E+01 0. -1.
         25    2    1    2    0    0 -0.44124268111E+02  0.24406076457E+02 -0.10553544845E+03  0.17118900108E+03  0.12500134242E+03 0.  0.
         25    2    1    2    0    0  0.44124268111E+02 -0.24406076457E+02  0.86798881728E+02  0.16031656214E+03  0.12499898649E+03 0.  0.
          5    1    3    3  502    0 -0.27198763494E+02 -0.44520988002E+02 -0.12104995422E+02  0.53763482239E+02  0.47000000000E+01 0.  1.
         -5    1    3    3    0  502 -0.16925504618E+02  0.68927064459E+02 -0.93430453031E+02  0.11742551884E+03  0.47000000000E+01 0.  1.
          5    1    4    4  503    0  0.74853233261E+02 -0.54969915915E+01  0.10690594078E+02  0.75957897864E+02  0.47000000000E+01 0.  1.
         -5    1    4    4    0  503 -0.30728965150E+02 -0.18909084866E+02  0.76108287650E+02  0.84358664277E+02  0.47000000000E+01 0.  1.
<mgrwt>
<rscale>  0 0.13478797E+03</rscale>
<asrwt>0</asrwt>
<pdfrwt beam="1">  1        5 0.24059154E-01 0.13478851E+03</pdfrwt>
<pdfrwt beam="2">  1       -5 0.26941702E-01 0.13478851E+03</pdfrwt>
<totfact> 0.15535915E+02</totfact>
</mgrwt>
</event>
<event>
 8    1  0.3682083E-007  0.1394754E+03  0.7546771E-02  0.1214037E+00
          5   -1    0    0  501    0  0.00000000000E+00  0.00000000000E+00  0.13985495858E+03  0.13993391097E+03  0.47000000000E+01 0.  1.
         -5   -1    0    0    0  501 -0.00000000000E+00 -0.00000000000E+00 -0.13920802375E+03  0.13928734284E+03  0.47000000000E+01 0.  1.
         25    2    1    2    0    0  0.38149923481E+02 -0.48720758276E+02 -0.58232206636E+01  0.13959585333E+03  0.12499585361E+03 0.  0.
         25    2    1    2    0    0 -0.38149923481E+02  0.48720758276E+02  0.64701554944E+01  0.13962540048E+03  0.12499704236E+03 0.  0.
          5    1    3    3  502    0  0.39895592233E+02 -0.60387750601E+02 -0.53583962319E+02  0.90175771248E+02  0.47000000000E+01 0.  1.
         -5    1    3    3    0  502 -0.17456687520E+01  0.11666992325E+02  0.47760741656E+02  0.49420082080E+02  0.47000000000E+01 0.  1.
          5    1    4    4  503    0  0.37232034708E+01  0.55372975104E+02 -0.45834395017E+02  0.72131202559E+02  0.47000000000E+01 0.  1.
         -5    1    4    4    0  503 -0.41873126952E+02 -0.66522168284E+01  0.52304550511E+02  0.67494197926E+02  0.47000000000E+01 0.  1.
<mgrwt>
<rscale>  0 0.13947514E+03</rscale>
<asrwt>0</asrwt>
<pdfrwt beam="1">  1        5 0.21528322E-01 0.13947541E+03</pdfrwt>
<pdfrwt beam="2">  1       -5 0.21428794E-01 0.13947541E+03</pdfrwt>
<totfact> 0.30017015E+02</totfact>
</mgrwt>
</event>
<event>
 8    1  0.3682083E-007  0.1250556E+03  0.7546771E-02  0.1234992E+00
          5   -1    0    0  501    0  0.00000000000E+00  0.00000000000E+00  0.42491200866E+02  0.42750346794E+02  0.47000000000E+01 0. -1.
         -5   -1    0    0    0  501 -0.00000000000E+00 -0.00000000000E+00 -0.44891076797E+03  0.44893537129E+03  0.47000000000E+01 0. -1.
         25    2    1    2    0    0  0.11745540587E+01  0.33384951130E+01 -0.30843850722E+03  0.33281721988E+03  0.12498185463E+03 0.  0.
         25    2    1    2    0    0 -0.11745540587E+01 -0.33384951130E+01 -0.97981059876E+02  0.15886849820E+03  0.12500554587E+03 0.  0.
          5    1    4    4  502    0  0.20407046356E+02 -0.60321445469E+02 -0.53052347214E+02  0.83016660192E+02  0.47000000000E+01 0.  1.
         -5    1    4    4    0  502 -0.21581600415E+02  0.56982950356E+02 -0.44928712662E+02  0.75851838008E+02  0.47000000000E+01 0.  1.
          5    1    3    3  503    0  0.12969404710E+02  0.17222282957E+02 -0.31274019241E+03  0.31351767165E+03  0.47000000000E+01 0.  1.
         -5    1    3    3    0  503 -0.11794850651E+02 -0.13883787844E+02  0.43016851826E+01  0.19299548237E+02  0.47000000000E+01 0.  1.
<mgrwt>
<rscale>  0 0.12504971E+03</rscale>
<asrwt>0</asrwt>
<pdfrwt beam="1">  1        5 0.65589350E-02 0.12505563E+03</pdfrwt>
<pdfrwt beam="2">  1       -5 0.69085019E-01 0.12505563E+03</pdfrwt>
<totfact> 0.21822254E+02</totfact>
</mgrwt>
</event>
<event>
 8    1  0.3682083E-007  0.1399150E+03  0.7546771E-02  0.1213448E+00
         -5   -1    0    0    0  501 -0.00000000000E+00  0.00000000000E+00  0.22851615673E+02  0.23329945110E+02  0.47000000000E+01 0.  1.
          5   -1    0    0  501    0  0.00000000000E+00 -0.00000000000E+00 -0.86639247441E+03  0.86640522258E+03  0.47000000000E+01 0.  1.
         25    2    1    2    0    0  0.28737442501E+02  0.55875561316E+02 -0.35559436613E+03  0.38212510254E+03  0.12499728723E+03 0.  0.
         25    2    1    2    0    0 -0.28737442501E+02 -0.55875561316E+02 -0.48794649261E+03  0.50761006515E+03  0.12501311787E+03 0.  0.
          5    1    3    3  502    0 -0.42488959145E+02  0.34344983630E+02 -0.22653608512E+03  0.23307847909E+03  0.47000000000E+01 0. -1.
         -5    1    3    3    0  502  0.71226401646E+02  0.21530577685E+02 -0.12905828100E+03  0.14904662345E+03  0.47000000000E+01 0. -1.
          5    1    4    4  503    0 -0.37887519062E+02 -0.33986653076E+02 -0.47915908915E+03  0.48187766020E+03  0.47000000000E+01 0. -1.
         -5    1    4    4    0  503  0.91500765604E+01 -0.21888908240E+02 -0.87874034632E+01  0.25732404952E+02  0.47000000000E+01 0. -1.
<mgrwt>
<rscale>  0 0.13991143E+03</rscale>
<asrwt>0</asrwt>
<pdfrwt beam="2">  1        5 0.13332890E+00 0.13991497E+03</pdfrwt>
<pdfrwt beam="1">  1       -5 0.35534091E-02 0.13991497E+03</pdfrwt>
<totfact> 0.12793792E+02</totfact>
</mgrwt>
</event>
<event>
 8    1  0.3682083E-007  0.1603557E+03  0.7546771E-02  0.1188297E+00
         -5   -1    0    0    0  501 -0.00000000000E+00  0.00000000000E+00  0.11662732909E+03  0.11672199403E+03  0.47000000000E+01 0.  1.
          5   -1    0    0  501    0  0.00000000000E+00 -0.00000000000E+00 -0.23651183408E+03  0.23655852904E+03  0.47000000000E+01 0.  1.
         25    2    1    2    0    0 -0.96475469034E+02  0.27944289059E+02 -0.13661229750E+02  0.16093652897E+03  0.12500215095E+03 0.  0.
         25    2    1    2    0    0  0.96475469034E+02 -0.27944289059E+02 -0.10622327524E+03  0.19234399411E+03  0.12499771378E+03 0.  0.
          5    1    4    4  502    0  0.32793938020E+02 -0.15541115444E+02 -0.12034083239E+03  0.12578145563E+03  0.47000000000E+01 0. -1.
         -5    1    4    4    0  502  0.63681531014E+02 -0.12403173615E+02  0.14117557153E+02  0.66562538473E+02  0.47000000000E+01 0. -1.
          5    1    3    3  503    0 -0.85706645238E+02  0.21329167105E+02  0.46054095028E+02  0.99717762090E+02  0.47000000000E+01 0.  1.
         -5    1    3    3    0  503 -0.10768823796E+02  0.66151219543E+01 -0.59715324778E+02  0.61218766876E+02  0.47000000000E+01 0.  1.
<mgrwt>
<rscale>  0 0.16035479E+03</rscale>
<asrwt>0</asrwt>
<pdfrwt beam="2">  1        5 0.36397310E-01 0.16035566E+03</pdfrwt>
<pdfrwt beam="1">  1       -5 0.17953540E-01 0.16035566E+03</pdfrwt>
<totfact> 0.15715406E+02</totfact>
</mgrwt>
</event>
<event>
 8    1  0.3682083E-007  0.1324298E+03  0.7546771E-02  0.1223897E+00
          5   -1    0    0  501    0  0.00000000000E+00  0.00000000000E+00  0.21217702331E+03  0.21222907252E+03  0.47000000000E+01 0. -1.
         -5   -1    0    0    0  501 -0.00000000000E+00 -0.00000000000E+00 -0.84139742164E+02  0.84270909639E+02  0.47000000000E+01 0. -1.
         25    2    1    2    0    0  0.41678851363E+02  0.13312242142E+02  0.43485332823E+02  0.13938658477E+03  0.12499321342E+03 0.  0.
         25    2    1    2    0    0 -0.41678851363E+02 -0.13312242142E+02  0.84551948324E+02  0.15711339738E+03  0.12498498002E+03 0.  0.
          5    1    3    3  502    0  0.84610460183E+02  0.48236450262E+01  0.13053036983E+02  0.85875894745E+02  0.47000000000E+01 0.  1.
         -5    1    3    3    0  502 -0.42931608821E+02  0.84885971158E+01  0.30432295840E+02  0.53510690026E+02  0.47000000000E+01 0.  1.
          5    1    4    4  503    0 -0.42877629428E+02  0.51161686470E+02  0.34122661645E+02  0.75116278566E+02  0.47000000000E+01 0. -1.
         -5    1    4    4    0  503  0.11987780648E+01 -0.64473928612E+02  0.50429286679E+02  0.81997118818E+02  0.47000000000E+01 0. -1.
<mgrwt>
<rscale>  0 0.13242783E+03</rscale>
<asrwt>0</asrwt>
<pdfrwt beam="1">  1        5 0.32656712E-01 0.13242978E+03</pdfrwt>
<pdfrwt beam="2">  1       -5 0.12958669E-01 0.13242978E+03</pdfrwt>
<totfact> 0.33111468E+02</totfact>
</mgrwt>
</event>
<event>
 8    1  0.3682083E-007  0.1309664E+03  0.7546771E-02  0.1226029E+00
         -5   -1    0    0    0  501 -0.00000000000E+00  0.00000000000E+00  0.16501147700E+02  0.17157443732E+02  0.47000000000E+01 0. -1.
          5   -1    0    0  501    0  0.00000000000E+00 -0.00000000000E+00 -0.10638068959E+04  0.10638172784E+04  0.47000000000E+01 0. -1.
         25    2    1    2    0    0  0.36887110368E+02 -0.12884813276E+02 -0.41216550561E+03  0.43247234224E+03  0.12500098186E+03 0.  0.
         25    2    1    2    0    0 -0.36887110368E+02  0.12884813276E+02 -0.63514024261E+03  0.64850237988E+03  0.12500212641E+03 0.  0.
          5    1    3    3  502    0  0.68865932522E+02  0.17124693159E+02 -0.14290703013E+03  0.15962543983E+03  0.47000000000E+01 0. -1.
         -5    1    3    3    0  502 -0.31978822154E+02 -0.30009506434E+02 -0.26925847548E+03  0.27284690242E+03  0.47000000000E+01 0. -1.
          5    1    4    4  503    0 -0.27594670394E+02 -0.36691034717E+02 -0.52774746095E+03  0.52976142782E+03  0.47000000000E+01 0.  1.
         -5    1    4    4    0  503 -0.92924399739E+01  0.49575847992E+02 -0.10739278166E+03  0.11874095206E+03  0.47000000000E+01 0.  1.
<mgrwt>
<rscale>  0 0.13096617E+03</rscale>
<asrwt>0</asrwt>
<pdfrwt beam="2">  1        5 0.16371383E+00 0.13096644E+03</pdfrwt>
<pdfrwt beam="1">  1       -5 0.25899219E-02 0.13096644E+03</pdfrwt>
<totfact> 0.11956574E+02</totfact>
</mgrwt>
</event>
<event>
 8    1  0.3682083E-007  0.1315116E+03  0.7546771E-02  0.1225234E+00
         -5   -1    0    0    0  501 -0.00000000000E+00  0.00000000000E+00  0.22707174642E+03  0.22712038222E+03  0.47000000000E+01 0.  1.
          5   -1    0    0  501    0  0.00000000000E+00 -0.00000000000E+00 -0.94529479998E+02  0.94646249734E+02  0.47000000000E+01 0.  1.
         25    2    1    2    0    0  0.65725538209E+01  0.40326796415E+02  0.13737180370E+03  0.19016640674E+03  0.12499120301E+03 0.  0.
         25    2    1    2    0    0 -0.65725538209E+01 -0.40326796415E+02 -0.48295372784E+01  0.13160022522E+03  0.12500338345E+03 0.  0.
          5    1    4    4  502    0  0.43449084546E+02  0.22328848154E+02  0.95890249637E+01  0.50004397881E+02  0.47000000000E+01 0.  1.
         -5    1    4    4    0  502 -0.50021638366E+02 -0.62655644569E+02 -0.14418562242E+02  0.81595827334E+02  0.47000000000E+01 0.  1.
          5    1    3    3  503    0  0.25905933631E+02  0.78768520767E+02  0.63497332801E+02  0.10454472026E+03  0.47000000000E+01 0.  1.
         -5    1    3    3    0  503 -0.19333379810E+02 -0.38441724352E+02  0.73874470899E+02  0.85621686485E+02  0.47000000000E+01 0.  1.
<mgrwt>
<rscale>  0 0.13150868E+03</rscale>
<asrwt>0</asrwt>
<pdfrwt beam="2">  1        5 0.14555721E-01 0.13151158E+03</pdfrwt>
<pdfrwt beam="1">  1       -5 0.34946838E-01 0.13151158E+03</pdfrwt>
<totfact> 0.23425297E+02</totfact>
</mgrwt>
</event>
<event>
 8    1  0.3682083E-007  0.1395070E+03  0.7546771E-02  0.1213997E+00
         -5   -1    0    0    0  501 -0.00000000000E+00  0.00000000000E+00  0.44045611879E+03  0.44048119436E+03  0.47000000000E+01 0.  1.
          5   -1    0    0  501    0  0.00000000000E+00 -0.00000000000E+00 -0.48337172022E+02  0.48565133575E+02  0.47000000000E+01 0.  1.
         25    2    1    2    0    0 -0.57343192604E+02 -0.23374810273E+02  0.26882852749E+03  0.30286700172E+03  0.12500008019E+03 0.  0.
         25    2    1    2    0    0  0.57343192604E+02  0.23374810273E+02  0.12329041928E+03  0.18617932621E+03  0.12501036168E+03 0.  0.
          5    1    3    3  502    0  0.32784103594E+02  0.15678747791E+02  0.42608691556E+02  0.56197964170E+02  0.47000000000E+01 0.  1.
         -5    1    3    3    0  502 -0.90127296198E+02 -0.39053558064E+02  0.22621983593E+03  0.24666903755E+03  0.47000000000E+01 0.  1.
          5    1    4    4  503    0  0.52647832235E+02  0.71375327844E+02  0.95071838424E+02  0.13010371296E+03  0.47000000000E+01 0.  1.
         -5    1    4    4    0  503  0.46953603685E+01 -0.48000517571E+02  0.28218580859E+02  0.56075613254E+02  0.47000000000E+01 0.  1.
<mgrwt>
<rscale>  0 0.13950474E+03</rscale>
<asrwt>0</asrwt>
<pdfrwt beam="2">  1        5 0.74559525E-02 0.13950704E+03</pdfrwt>
<pdfrwt beam="1">  1       -5 0.67781943E-01 0.13950704E+03</pdfrwt>
<totfact> 0.19026738E+02</totfact>
</mgrwt>
</event>
<event>
 8    1  0.3682083E-007  0.2054283E+03  0.7546771E-02  0.1145239E+00
          5   -1    0    0  501    0  0.00000000000E+00  0.00000000000E+00  0.36811274430E+02  0.37110105432E+02  0.47000000000E+01 0. -1.
         -5   -1    0    0    0  501 -0.00000000000E+00 -0.00000000000E+00 -0.11478957754E+04  0.11479053973E+04  0.47000000000E+01 0. -1.
         25    2    1    2    0    0  0.12208757943E+03 -0.10802001161E+03 -0.51114255825E+03  0.55087883678E+03  0.12500831170E+03 0.  0.
         25    2    1    2    0    0 -0.12208757943E+03  0.10802001161E+03 -0.59994194268E+03  0.63413666593E+03  0.12500110610E+03 0.  0.
          5    1    3    3  502    0  0.13814222757E+03 -0.10182720318E+03 -0.50257660941E+03  0.53109075747E+03  0.47000000000E+01 0. -1.
         -5    1    3    3    0  502 -0.16054648136E+02 -0.61928084283E+01 -0.85659488354E+01  0.19788079302E+02  0.47000000000E+01 0. -1.
          5    1    4    4  503    0  0.15174928807E+02 -0.11733232577E+02 -0.31277403897E+02  0.36990717829E+02  0.47000000000E+01 0. -1.
         -5    1    4    4    0  503 -0.13726250824E+03  0.11975324419E+03 -0.56866453878E+03  0.59714594810E+03  0.47000000000E+01 0. -1.
<mgrwt>
<rscale>  0 0.20542718E+03</rscale>
<asrwt>0</asrwt>
<pdfrwt beam="1">  1        5 0.56870010E-02 0.20542828E+03</pdfrwt>
<pdfrwt beam="2">  1       -5 0.17662305E+00 0.20542828E+03</pdfrwt>
<totfact> 0.29865135E+01</totfact>
</mgrwt>
</event>
<event>
 8    1  0.3682083E-007  0.1687347E+03  0.7546771E-02  0.1179174E+00
          5   -1    0    0  501    0  0.00000000000E+00  0.00000000000E+00  0.34944294558E+03  0.34947455160E+03  0.47000000000E+01 0.  1.
         -5   -1    0    0    0  501 -0.00000000000E+00 -0.00000000000E+00 -0.12142821538E+03  0.12151914043E+03  0.47000000000E+01 0.  1.
         25    2    1    2    0    0 -0.10842417935E+03 -0.33023334820E+02 -0.21167346094E+02  0.17005663506E+03  0.12499943710E+03 0.  0.
         25    2    1    2    0    0  0.10842417935E+03  0.33023334820E+02  0.24918207629E+03  0.30093705697E+03  0.12500024720E+03 0.  0.
          5    1    4    4  502    0  0.12202508100E+02 -0.42696477975E+02  0.85655892130E+02  0.96596647416E+02  0.47000000000E+01 0. -1.
         -5    1    4    4    0  502  0.96221671253E+02  0.75719812796E+02  0.16352618416E+03  0.20434040955E+03  0.47000000000E+01 0. -1.
          5    1    3    3  503    0 -0.20299297471E+02 -0.20171231346E+02 -0.64637505466E+02  0.70845163312E+02  0.47000000000E+01 0. -1.
         -5    1    3    3    0  503 -0.88124881882E+02 -0.12852103474E+02  0.43470159373E+02  0.99211471747E+02  0.47000000000E+01 0. -1.
<mgrwt>
<rscale>  0 0.16873457E+03</rscale>
<asrwt>0</asrwt>
<pdfrwt beam="1">  1        5 0.53769879E-01 0.16873472E+03</pdfrwt>
<pdfrwt beam="2">  1       -5 0.18690689E-01 0.16873472E+03</pdfrwt>
<totfact> 0.65614180E+01</totfact>
</mgrwt>
</event>
<event>
 8    1  0.3682083E-007  0.1281938E+03  0.7546771E-02  0.1230175E+00
          5   -1    0    0  501    0  0.00000000000E+00  0.00000000000E+00  0.11990901417E+04  0.11990993528E+04  0.47000000000E+01 0.  1.
         -5   -1    0    0    0  501 -0.00000000000E+00 -0.00000000000E+00 -0.14763679700E+02  0.15493748362E+02  0.47000000000E+01 0.  1.
         25    2    1    2    0    0  0.11973226026E+02 -0.25639910858E+02  0.40497610536E+03  0.42476993263E+03  0.12499234609E+03 0.  0.
         25    2    1    2    0    0 -0.11973226026E+02  0.25639910858E+02  0.77935035663E+03  0.78982316854E+03  0.12503158006E+03 0.  0.
          5    1    4    4  502    0 -0.27189451904E+02  0.60399139169E+02  0.68213620114E+03  0.68536064172E+03  0.47000000000E+01 0.  1.
         -5    1    4    4    0  502  0.15216225877E+02 -0.34759228312E+02  0.97214155487E+02  0.10446252682E+03  0.47000000000E+01 0.  1.
          5    1    3    3  503    0 -0.21474852855E+02 -0.68338151594E+02  0.26582538469E+03  0.27534795699E+03  0.47000000000E+01 0. -1.
         -5    1    3    3    0  503  0.33448078882E+02  0.42698240737E+02  0.13915072067E+03  0.14942197564E+03  0.47000000000E+01 0. -1.
<mgrwt>
<rscale>  0 0.12818427E+03</rscale>
<asrwt>0</asrwt>
<pdfrwt beam="1">  1        5 0.18453223E+00 0.12819383E+03</pdfrwt>
<pdfrwt beam="2">  1       -5 0.23282036E-02 0.12819383E+03</pdfrwt>
<totfact> 0.99569030E+01</totfact>
</mgrwt>
</event>
<event>
 8    1  0.3682083E-007  0.1485958E+03  0.7546771E-02  0.1202213E+00
          5   -1    0    0  501    0  0.00000000000E+00  0.00000000000E+00  0.33095658498E+02  0.33427722199E+02  0.47000000000E+01 0.  1.
         -5   -1    0    0    0  501 -0.00000000000E+00 -0.00000000000E+00 -0.87013530708E+03  0.87014800041E+03  0.47000000000E+01 0.  1.
         25    2    1    2    0    0  0.38365185960E+02  0.70568534755E+02 -0.63868241934E+03  0.65574076482E+03  0.12501564814E+03 0.  0.
         25    2    1    2    0    0 -0.38365185960E+02 -0.70568534755E+02 -0.19835722924E+03  0.24783495779E+03  0.12499908128E+03 0.  0.
          5    1    3    3  502    0  0.10040846113E+02  0.24778557366E+02 -0.55781456653E+03  0.55847468710E+03  0.47000000000E+01 0. -1.
         -5    1    3    3    0  502  0.28324339847E+02  0.45789977389E+02 -0.80867852811E+02  0.97266077721E+02  0.47000000000E+01 0. -1.
          5    1    4    4  503    0  0.49749095942E+00  0.25847453616E+02 -0.29417355988E+01  0.26440161952E+02  0.47000000000E+01 0.  1.
         -5    1    4    4    0  503 -0.38862676919E+02 -0.96415988371E+02 -0.19541549364E+03  0.22139479584E+03  0.47000000000E+01 0.  1.
<mgrwt>
<rscale>  0 0.14859234E+03</rscale>
<asrwt>0</asrwt>
<pdfrwt beam="1">  1        5 0.51181602E-02 0.14859582E+03</pdfrwt>
<pdfrwt beam="2">  1       -5 0.13389347E+00 0.14859582E+03</pdfrwt>
<totfact> 0.70664782E+01</totfact>
</mgrwt>
</event>
<event>
 8    1  0.3682083E-007  0.2044339E+03  0.7546771E-02  0.1146051E+00
          5   -1    0    0  501    0  0.00000000000E+00  0.00000000000E+00  0.67166249478E+02  0.67330491376E+02  0.47000000000E+01 0.  1.
         -5   -1    0    0    0  501 -0.00000000000E+00 -0.00000000000E+00 -0.84232077077E+03  0.84233388325E+03  0.47000000000E+01 0.  1.
         25    2    1    2    0    0  0.13577402211E+03 -0.87942946765E+02 -0.62054012499E+03  0.65334772258E+03  0.12499861163E+03 0.  0.
         25    2    1    2    0    0 -0.13577402211E+03  0.87942946765E+02 -0.15461439630E+03  0.25631665205E+03  0.12499627038E+03 0.  0.
          5    1    3    3  502    0  0.12948800108E+03 -0.27399694379E+02 -0.51163446556E+03  0.52849768403E+03  0.47000000000E+01 0. -1.
         -5    1    3    3    0  502  0.62860210321E+01 -0.60543252386E+02 -0.10890565943E+03  0.12485003855E+03  0.47000000000E+01 0. -1.
          5    1    4    4  503    0 -0.14490185530E+03  0.10600591716E+03 -0.12018045083E+03  0.21610005300E+03  0.47000000000E+01 0.  1.
         -5    1    4    4    0  503  0.91278331944E+01 -0.18062970398E+02 -0.34433945476E+02  0.40216599054E+02  0.47000000000E+01 0.  1.
<mgrwt>
<rscale>  0 0.20443349E+03</rscale>
<asrwt>0</asrwt>
<pdfrwt beam="1">  1        5 0.10346912E-01 0.20443385E+03</pdfrwt>
<pdfrwt beam="2">  1       -5 0.12960145E+00 0.20443385E+03</pdfrwt>
<totfact> 0.25146048E+01</totfact>
</mgrwt>
</event>
<event>
 8    1  0.3682083E-007  0.1291740E+03  0.7546771E-02  0.1228716E+00
         -5   -1    0    0    0  501 -0.00000000000E+00  0.00000000000E+00  0.26981165083E+03  0.26985258368E+03  0.47000000000E+01 0.  1.
          5   -1    0    0  501    0  0.00000000000E+00 -0.00000000000E+00 -0.78001786201E+02  0.78143257230E+02  0.47000000000E+01 0.  1.
         25    2    1    2    0    0 -0.23889780741E+02  0.21680553731E+02  0.17539560913E+03  0.21778314454E+03  0.12500044124E+03 0.  0.
         25    2    1    2    0    0  0.23889780741E+02 -0.21680553731E+02  0.16414255495E+02  0.13021269637E+03  0.12508057595E+03 0.  0.
          5    1    4    4  502    0 -0.16027103213E+02 -0.73188324066E+01  0.63849232039E+02  0.66402166962E+02  0.47000000000E+01 0.  1.
         -5    1    4    4    0  502  0.39916883954E+02 -0.14361721325E+02 -0.47434976544E+02  0.63810529411E+02  0.47000000000E+01 0.  1.
          5    1    3    3  503    0 -0.11378075140E+02  0.73393466853E+02  0.86821411987E+02  0.11435081613E+03  0.47000000000E+01 0.  1.
         -5    1    3    3    0  503 -0.12511705600E+02 -0.51712913122E+02  0.88574197143E+02  0.10343232841E+03  0.47000000000E+01 0.  1.
<mgrwt>
<rscale>  0 0.12915458E+03</rscale>
<asrwt>0</asrwt>
<pdfrwt beam="2">  1        5 0.12014306E-01 0.12917399E+03</pdfrwt>
<pdfrwt beam="1">  1       -5 0.41523516E-01 0.12917399E+03</pdfrwt>
<totfact> 0.23116542E+02</totfact>
</mgrwt>
</event>
<event>
 8    1  0.3682083E-007  0.1556168E+03  0.7546771E-02  0.1193737E+00
         -5   -1    0    0    0  501 -0.00000000000E+00  0.00000000000E+00  0.85226949246E+02  0.85356446024E+02  0.47000000000E+01 0.  1.
          5   -1    0    0  501    0  0.00000000000E+00 -0.00000000000E+00 -0.40647857230E+03  0.40650574380E+03  0.47000000000E+01 0.  1.
         25    2    1    2    0    0  0.38750739088E+02  0.84202253011E+02 -0.25529740742E+02  0.15769455658E+03  0.12499666524E+03 0.  0.
         25    2    1    2    0    0 -0.38750739088E+02 -0.84202253011E+02 -0.29572188231E+03  0.33416763324E+03  0.12499974493E+03 0.  0.
          5    1    3    3  502    0  0.36628216257E+02  0.66836193732E+02 -0.73764791130E+02  0.10616985179E+03  0.47000000000E+01 0. -1.
         -5    1    3    3    0  502  0.21225228302E+01  0.17366059280E+02  0.48235050389E+02  0.51524704794E+02  0.47000000000E+01 0. -1.
          5    1    4    4  503    0 -0.83407214276E+02 -0.61029595383E+02 -0.17494656835E+03  0.20324804226E+03  0.47000000000E+01 0. -1.
         -5    1    4    4    0  503  0.44656475189E+02 -0.23172657628E+02 -0.12077531396E+03  0.13091959097E+03  0.47000000000E+01 0. -1.
<mgrwt>
<rscale>  0 0.15561614E+03</rscale>
<asrwt>0</asrwt>
<pdfrwt beam="2">  1        5 0.62547215E-01 0.15561676E+03</pdfrwt>
<pdfrwt beam="1">  1       -5 0.13123890E-01 0.15561676E+03</pdfrwt>
<totfact> 0.87777625E+01</totfact>
</mgrwt>
</event>
<event>
 8    1  0.3682083E-007  0.1479990E+03  0.7546771E-02  0.1202955E+00
         -5   -1    0    0    0  501 -0.00000000000E+00  0.00000000000E+00  0.65239702818E+02  0.65408782467E+02  0.47000000000E+01 0.  1.
          5   -1    0    0  501    0  0.00000000000E+00 -0.00000000000E+00 -0.45311028334E+03  0.45313465865E+03  0.47000000000E+01 0.  1.
         25    2    1    2    0    0 -0.47012804856E+02  0.63783300683E+02 -0.61657286891E+02  0.16032882894E+03  0.12500079638E+03 0.  0.
         25    2    1    2    0    0  0.47012804856E+02 -0.63783300683E+02 -0.32621329363E+03  0.35821461218E+03  0.12499632862E+03 0.  0.
          5    1    3    3  502    0 -0.87526867505E+02  0.54883151062E+02 -0.57626148054E+02  0.11838908626E+03  0.47000000000E+01 0. -1.
         -5    1    3    3    0  502  0.40514062649E+02  0.89001496212E+01 -0.40311388362E+01  0.41939742679E+02  0.47000000000E+01 0. -1.
          5    1    4    4  503    0 -0.39896282526E+02 -0.19431331108E+02 -0.15277292168E+03  0.15915698410E+03  0.47000000000E+01 0.  1.
         -5    1    4    4    0  503  0.86909087382E+02 -0.44351969575E+02 -0.17344037195E+03  0.19905762808E+03  0.47000000000E+01 0.  1.
<mgrwt>
<rscale>  0 0.14799808E+03</rscale>
<asrwt>0</asrwt>
<pdfrwt beam="2">  1        5 0.69724153E-01 0.14799903E+03</pdfrwt>
<pdfrwt beam="1">  1       -5 0.10051759E-01 0.14799903E+03</pdfrwt>
<totfact> 0.10866971E+02</totfact>
</mgrwt>
</event>
<event>
 8    1  0.3682083E-007  0.1437560E+03  0.7546771E-02  0.1208363E+00
         -5   -1    0    0    0  501 -0.00000000000E+00  0.00000000000E+00  0.26719274586E+03  0.26723407987E+03  0.47000000000E+01 0.  1.
          5   -1    0    0  501    0  0.00000000000E+00 -0.00000000000E+00 -0.92709713224E+02  0.92828772081E+02  0.47000000000E+01 0.  1.
         25    2    1    2    0    0 -0.57087587799E+02  0.42203733858E+02  0.16075127412E+03  0.21565429098E+03  0.12500261299E+03 0.  0.
         25    2    1    2    0    0  0.57087587799E+02 -0.42203733858E+02  0.13731758519E+02  0.14440856097E+03  0.12500049382E+03 0.  0.
          5    1    4    4  502    0  0.46469607711E+02 -0.51320247898E+01  0.64925024281E+02  0.80144312943E+02  0.47000000000E+01 0.  1.
         -5    1    4    4    0  502  0.10617980088E+02 -0.37071709068E+02 -0.51193265762E+02  0.64264248022E+02  0.47000000000E+01 0.  1.
          5    1    3    3  503    0 -0.17451623278E+02 -0.44424463785E+02  0.61665634138E+02  0.78120628333E+02  0.47000000000E+01 0.  1.
         -5    1    3    3    0  503 -0.39635964521E+02  0.86628197643E+02  0.99085639984E+02  0.13753366265E+03  0.47000000000E+01 0.  1.
<mgrwt>
<rscale>  0 0.14375559E+03</rscale>
<asrwt>0</asrwt>
<pdfrwt beam="2">  1        5 0.14275371E-01 0.14375605E+03</pdfrwt>
<pdfrwt beam="1">  1       -5 0.41118913E-01 0.14375605E+03</pdfrwt>
<totfact> 0.17974634E+02</totfact>
</mgrwt>
</event>
<event>
 8    1  0.3682083E-007  0.1844571E+03  0.7546771E-02  0.1163558E+00
         -5   -1    0    0    0  501 -0.00000000000E+00  0.00000000000E+00  0.11661234551E+03  0.11670702261E+03  0.47000000000E+01 0.  1.
          5   -1    0    0  501    0  0.00000000000E+00 -0.00000000000E+00 -0.29177574459E+03  0.29181359655E+03  0.47000000000E+01 0.  1.
         25    2    1    2    0    0  0.75793414088E+02  0.11249242340E+03 -0.93398409350E+02  0.20675361056E+03  0.12499842267E+03 0.  0.
         25    2    1    2    0    0 -0.75793414088E+02 -0.11249242340E+03 -0.81764989731E+02  0.20176700859E+03  0.12500090108E+03 0.  0.
          5    1    4    4  502    0 -0.12710595227E+02  0.12021543668E+02  0.21471034829E+02  0.28092206745E+02  0.47000000000E+01 0.  1.
         -5    1    4    4    0  502 -0.63082818861E+02 -0.12451396707E+03 -0.10323602456E+03  0.17367480185E+03  0.47000000000E+01 0.  1.
          5    1    3    3  503    0 -0.11206640814E+02  0.10173785760E+02 -0.68207643865E+02  0.70024762739E+02  0.47000000000E+01 0. -1.
         -5    1    3    3    0  503  0.87000054902E+02  0.10231863764E+03 -0.25190765485E+02  0.13672884782E+03  0.47000000000E+01 0. -1.
<mgrwt>
<rscale>  0 0.18445665E+03</rscale>
<asrwt>0</asrwt>
<pdfrwt beam="2">  1        5 0.44898770E-01 0.18445707E+03</pdfrwt>
<pdfrwt beam="1">  1       -5 0.17950555E-01 0.18445707E+03</pdfrwt>
<totfact> 0.10641543E+02</totfact>
</mgrwt>
</event>
<event>
 8    1  0.3682083E-007  0.1455397E+03  0.7546771E-02  0.1206066E+00
         -5   -1    0    0    0  501 -0.00000000000E+00  0.00000000000E+00  0.45700708179E+02  0.45941753646E+02  0.47000000000E+01 0. -1.
          5   -1    0    0  501    0  0.00000000000E+00 -0.00000000000E+00 -0.47749128943E+03  0.47751442018E+03  0.47000000000E+01 0. -1.
         25    2    1    2    0    0  0.28050835291E+02 -0.69039862691E+02 -0.16874122126E+03  0.22282886064E+03  0.12500299749E+03 0.  0.
         25    2    1    2    0    0 -0.28050835291E+02  0.69039862691E+02 -0.26304935999E+03  0.30062731318E+03  0.12501385379E+03 0.  0.
          5    1    4    4  502    0  0.58511493953E+00 -0.31744466109E+02 -0.11361631410E+03  0.11806273890E+03  0.47000000000E+01 0. -1.
         -5    1    4    4    0  502 -0.28635950231E+02  0.10078432880E+03 -0.14943304589E+03  0.18256457428E+03  0.47000000000E+01 0. -1.
          5    1    3    3  503    0  0.63326602487E+02 -0.46251162785E+02 -0.41693523847E+02  0.88937441903E+02  0.47000000000E+01 0. -1.
         -5    1    3    3    0  503 -0.35275767195E+02 -0.22788699905E+02 -0.12704769741E+03  0.13389141874E+03  0.47000000000E+01 0. -1.
<mgrwt>
<rscale>  0 0.14553741E+03</rscale>
<asrwt>0</asrwt>
<pdfrwt beam="2">  1        5 0.73480516E-01 0.14553974E+03</pdfrwt>
<pdfrwt beam="1">  1       -5 0.70511997E-02 0.14553974E+03</pdfrwt>
<totfact> 0.17682582E+02</totfact>
</mgrwt>
</event>
<event>
 8    1  0.3682083E-007  0.1329575E+03  0.7546771E-02  0.1223134E+00
         -5   -1    0    0    0  501 -0.00000000000E+00  0.00000000000E+00  0.14565069639E+03  0.14572650877E+03  0.47000000000E+01 0. -1.
          5   -1    0    0  501    0  0.00000000000E+00 -0.00000000000E+00 -0.12226358641E+03  0.12235389067E+03  0.47000000000E+01 0. -1.
         25    2    1    2    0    0 -0.14685969794E+02 -0.42831576799E+02  0.24102849847E+02  0.13512101454E+03  0.12500607793E+03 0.  0.
         25    2    1    2    0    0  0.14685969794E+02  0.42831576799E+02 -0.71573986947E+00  0.13295938490E+03  0.12500985589E+03 0.  0.
          5    1    4    4  502    0  0.18490264517E+02 -0.21719477014E+02  0.45100975840E+02  0.53570641077E+02  0.47000000000E+01 0.  1.
         -5    1    4    4    0  502 -0.38042947225E+01  0.64551053813E+02 -0.45816715710E+02  0.79388743819E+02  0.47000000000E+01 0.  1.
          5    1    3    3  503    0  0.54162162917E+02 -0.71301276761E+01  0.46612961981E+01  0.55029049553E+02  0.47000000000E+01 0.  1.
         -5    1    3    3    0  503 -0.68848132711E+02 -0.35701449123E+02  0.19441553648E+02  0.80091964988E+02  0.47000000000E+01 0.  1.
<mgrwt>
<rscale>  0 0.13295657E+03</rscale>
<asrwt>0</asrwt>
<pdfrwt beam="2">  1        5 0.18822561E-01 0.13295746E+03</pdfrwt>
<pdfrwt beam="1">  1       -5 0.22420578E-01 0.13295746E+03</pdfrwt>
<totfact> 0.34840499E+02</totfact>
</mgrwt>
</event>
<event>
 8    1  0.3682083E-007  0.1631228E+03  0.7546771E-02  0.1185216E+00
         -5   -1    0    0    0  501 -0.00000000000E+00  0.00000000000E+00  0.15133055040E+03  0.15140351873E+03  0.47000000000E+01 0.  1.
          5   -1    0    0  501    0  0.00000000000E+00 -0.00000000000E+00 -0.19477175681E+03  0.19482845596E+03  0.47000000000E+01 0.  1.
         25    2    1    2    0    0  0.29918728292E+02  0.10043553451E+03  0.32453827568E+02  0.16631783236E+03  0.12500377411E+03 0.  0.
         25    2    1    2    0    0 -0.29918728292E+02 -0.10043553451E+03 -0.75895033978E+02  0.17991414234E+03  0.12500646198E+03 0.  0.
          5    1    4    4  502    0  0.48269307063E+02 -0.28398531545E+02 -0.19576467587E+02  0.59512441401E+02  0.47000000000E+01 0.  1.
         -5    1    4    4    0  502 -0.78188035356E+02 -0.72037002962E+02 -0.56318566391E+02  0.12040170094E+03  0.47000000000E+01 0.  1.
          5    1    3    3  503    0 -0.36003281412E+02 -0.15159338383E+01 -0.98728198684E+01  0.37657627381E+02  0.47000000000E+01 0. -1.
         -5    1    3    3    0  503  0.65922009704E+02  0.10195146835E+03  0.42326647436E+02  0.12866020498E+03  0.47000000000E+01 0. -1.
<mgrwt>
<rscale>  0 0.16312227E+03</rscale>
<asrwt>0</asrwt>
<pdfrwt beam="2">  1        5 0.29974860E-01 0.16312278E+03</pdfrwt>
<pdfrwt beam="1">  1       -5 0.23291597E-01 0.16312278E+03</pdfrwt>
<totfact> 0.14275181E+02</totfact>
</mgrwt>
</event>
<event>
 8    1  0.3682083E-007  0.1304051E+03  0.7546771E-02  0.1226861E+00
          5   -1    0    0  501    0  0.00000000000E+00  0.00000000000E+00  0.33227973088E+02  0.33558727562E+02  0.47000000000E+01 0.  1.
         -5   -1    0    0    0  501 -0.00000000000E+00 -0.00000000000E+00 -0.51105448502E+03  0.51107609674E+03  0.47000000000E+01 0.  1.
         25    2    1    2    0    0  0.31076013458E+02 -0.20369756778E+02 -0.25678002096E+03  0.28798905297E+03  0.12498427845E+03 0.  0.
         25    2    1    2    0    0 -0.31076013458E+02  0.20369756778E+02 -0.22104649097E+03  0.25664577134E+03  0.12499942068E+03 0.  0.
          5    1    3    3  502    0  0.33869559322E+02 -0.40952506752E+02 -0.26089883491E+03  0.26629785375E+03  0.47000000000E+01 0.  1.
         -5    1    3    3    0  502 -0.27935458645E+01  0.20582749974E+02  0.41188139447E+01  0.21691199213E+02  0.47000000000E+01 0.  1.
          5    1    4    4  503    0  0.48747900159E+01  0.59721083877E+02 -0.52481407095E+02  0.79791976588E+02  0.47000000000E+01 0. -1.
         -5    1    4    4    0  503 -0.35950803474E+02 -0.39351327099E+02 -0.16856508388E+03  0.17685379475E+03  0.47000000000E+01 0. -1.
<mgrwt>
<rscale>  0 0.13040151E+03</rscale>
<asrwt>0</asrwt>
<pdfrwt beam="1">  1        5 0.51391013E-02 0.13040514E+03</pdfrwt>
<pdfrwt beam="2">  1       -5 0.78650867E-01 0.13040514E+03</pdfrwt>
<totfact> 0.24823407E+02</totfact>
</mgrwt>
</event>
<event>
 8    1  0.3682083E-007  0.2476289E+03  0.7546771E-02  0.1114815E+00
          5   -1    0    0  501    0  0.00000000000E+00  0.00000000000E+00  0.38102542912E+02  0.38391324233E+02  0.47000000000E+01 0. -1.
         -5   -1    0    0    0  501 -0.00000000000E+00 -0.00000000000E+00 -0.17854827179E+04  0.17854889039E+04  0.47000000000E+01 0. -1.
         25    2    1    2    0    0 -0.21295929950E+03  0.18422197877E+02 -0.11653230836E+04  0.11913429167E+04  0.12501606063E+03 0.  0.
         25    2    1    2    0    0  0.21295929950E+03 -0.18422197877E+02 -0.58205709140E+03  0.63253731143E+03  0.12498780771E+03 0.  0.
          5    1    4    4  502    0  0.62370832541E+02  0.25469005550E+02 -0.71255652483E+02  0.98174584320E+02  0.47000000000E+01 0.  1.
         -5    1    4    4    0  502  0.15058846696E+03 -0.43891203427E+02 -0.51080143892E+03  0.53436272711E+03  0.47000000000E+01 0.  1.
          5    1    3    3  503    0 -0.12353609376E+03  0.84483932741E+00 -0.35526880013E+03  0.37616471200E+03  0.47000000000E+01 0.  1.
         -5    1    3    3    0  503 -0.89423205742E+02  0.17577358549E+02 -0.81005428349E+03  0.81517820472E+03  0.47000000000E+01 0.  1.
<mgrwt>
<rscale>  0 0.24762530E+03</rscale>
<asrwt>0</asrwt>
<pdfrwt beam="1">  1        5 0.58846209E-02 0.24762887E+03</pdfrwt>
<pdfrwt beam="2">  1       -5 0.27471227E+00 0.24762887E+03</pdfrwt>
<totfact> 0.64786351E+00</totfact>
</mgrwt>
</event>
<event>
 8    1  0.3682083E-007  0.1732208E+03  0.7546771E-02  0.1174531E+00
         -5   -1    0    0    0  501 -0.00000000000E+00  0.00000000000E+00  0.49163716147E+02  0.49387862734E+02  0.47000000000E+01 0. -1.
          5   -1    0    0  501    0  0.00000000000E+00 -0.00000000000E+00 -0.68454706652E+03  0.68456320108E+03  0.47000000000E+01 0. -1.
         25    2    1    2    0    0 -0.56403469066E+02  0.10582581529E+03 -0.19555195666E+03  0.26123935920E+03  0.12499992213E+03 0.  0.
         25    2    1    2    0    0  0.56403469066E+02 -0.10582581529E+03 -0.43983139371E+03  0.47271170462E+03  0.12499698512E+03 0.  0.
          5    1    3    3  502    0 -0.87337031001E+02  0.73406746052E+02 -0.86511661195E+02  0.14325733794E+03  0.47000000000E+01 0.  1.
         -5    1    3    3    0  502  0.30933561935E+02  0.32419069241E+02 -0.10904029547E+03  0.11798202126E+03  0.47000000000E+01 0.  1.
          5    1    4    4  503    0  0.47620702430E+02  0.16140541900E+02 -0.14242269653E+03  0.15111109449E+03  0.47000000000E+01 0.  1.
         -5    1    4    4    0  503  0.87827666368E+01 -0.12196635719E+03 -0.29740869718E+03  0.32160061013E+03  0.47000000000E+01 0.  1.
<mgrwt>
<rscale>  0 0.17322024E+03</rscale>
<asrwt>0</asrwt>
<pdfrwt beam="2">  1        5 0.10533341E+00 0.17322077E+03</pdfrwt>
<pdfrwt beam="1">  1       -5 0.75821323E-02 0.17322077E+03</pdfrwt>
<totfact> 0.70113904E+01</totfact>
</mgrwt>
</event>
<event>
 8    1  0.3682083E-007  0.1273574E+03  0.7546771E-02  0.1231431E+00
          5   -1    0    0  501    0  0.00000000000E+00  0.00000000000E+00  0.38047114114E+02  0.38336312974E+02  0.47000000000E+01 0.  1.
         -5   -1    0    0    0  501 -0.00000000000E+00 -0.00000000000E+00 -0.45100394092E+03  0.45102843006E+03  0.47000000000E+01 0.  1.
         25    2    1    2    0    0 -0.19492361317E+02 -0.14663081553E+02 -0.26589536166E+03  0.29482239983E+03  0.12499978390E+03 0.  0.
         25    2    1    2    0    0  0.19492361317E+02  0.14663081553E+02 -0.14706146514E+03  0.19454234321E+03  0.12499876264E+03 0.  0.
          5    1    3    3  502    0 -0.68585640208E+00  0.12140817490E+02  0.10323837325E+02  0.16629535936E+02  0.47000000000E+01 0. -1.
         -5    1    3    3    0  502 -0.18806504915E+02 -0.26803899042E+02 -0.27621919899E+03  0.27819286389E+03  0.47000000000E+01 0. -1.
          5    1    4    4  503    0 -0.33222449227E+02 -0.77976060626E+00 -0.13365528399E+03  0.13780480433E+03  0.47000000000E+01 0.  1.
         -5    1    4    4    0  503  0.52714810544E+02  0.15442842159E+02 -0.13406181156E+02  0.56737538877E+02  0.47000000000E+01 0.  1.
<mgrwt>
<rscale>  0 0.12735714E+03</rscale>
<asrwt>0</asrwt>
<pdfrwt beam="1">  1        5 0.58775323E-02 0.12735739E+03</pdfrwt>
<pdfrwt beam="2">  1       -5 0.69409348E-01 0.12735739E+03</pdfrwt>
<totfact> 0.26139473E+02</totfact>
</mgrwt>
</event>
<event>
 8    1  0.3682083E-007  0.1318124E+03  0.7546771E-02  0.1224796E+00
         -5   -1    0    0    0  501 -0.00000000000E+00  0.00000000000E+00  0.50418544701E+02  0.50637137062E+02  0.47000000000E+01 0.  1.
          5   -1    0    0  501    0  0.00000000000E+00 -0.00000000000E+00 -0.34439678344E+03  0.34442885252E+03  0.47000000000E+01 0.  1.
         25    2    1    2    0    0 -0.41737687977E+02 -0.20586963138E+01 -0.13745137599E+03  0.19044001325E+03  0.12501297955E+03 0.  0.
         25    2    1    2    0    0  0.41737687977E+02  0.20586963138E+01 -0.15652686275E+03  0.20462597633E+03  0.12499943439E+03 0.  0.
          5    1    4    4  502    0 -0.28997749170E+02 -0.34907216288E+02 -0.28840642564E+02  0.53974585403E+02  0.47000000000E+01 0. -1.
         -5    1    4    4    0  502  0.70735437147E+02  0.36965912602E+02 -0.12768622019E+03  0.15065139093E+03  0.47000000000E+01 0. -1.
          5    1    3    3  503    0 -0.33692334736E+02 -0.36755021850E+01 -0.16124526395E+03  0.16483569966E+03  0.47000000000E+01 0.  1.
         -5    1    3    3    0  503 -0.80453532409E+01  0.16168058712E+01  0.23793887960E+02  0.25604313586E+02  0.47000000000E+01 0.  1.
<mgrwt>
<rscale>  0 0.13180922E+03</rscale>
<asrwt>0</asrwt>
<pdfrwt beam="2">  1        5 0.53003401E-01 0.13181243E+03</pdfrwt>
<pdfrwt beam="1">  1       -5 0.77759810E-02 0.13181243E+03</pdfrwt>
<totfact> 0.29751725E+02</totfact>
</mgrwt>
</event>
<event>
 8    1  0.3682083E-007  0.1252766E+03  0.7546771E-02  0.1234639E+00
         -5   -1    0    0    0  501 -0.00000000000E+00  0.00000000000E+00  0.24172897909E+02  0.24625575999E+02  0.47000000000E+01 0. -1.
          5   -1    0    0  501    0  0.00000000000E+00 -0.00000000000E+00 -0.74516503044E+03  0.74517985251E+03  0.47000000000E+01 0. -1.
         25    2    1    2    0    0 -0.79188023230E+01  0.25208208940E+01 -0.21784982872E+03  0.25130215833E+03  0.12500065976E+03 0.  0.
         25    2    1    2    0    0  0.79188023230E+01 -0.25208208940E+01 -0.50314230381E+03  0.51850327018E+03  0.12499760532E+03 0.  0.
          5    1    3    3  502    0  0.55213879841E+02 -0.16868850684E+02 -0.11867774878E+03  0.13205918637E+03  0.47000000000E+01 0.  1.
         -5    1    3    3    0  502 -0.63132682164E+02  0.19389671578E+02 -0.99172079938E+02  0.11924297195E+03  0.47000000000E+01 0.  1.
          5    1    4    4  503    0 -0.39963327785E+02  0.43080929483E+02 -0.24284740470E+03  0.24989995202E+03  0.47000000000E+01 0.  1.
         -5    1    4    4    0  503  0.47882130108E+02 -0.45601750377E+02 -0.26029489912E+03  0.26860331816E+03  0.47000000000E+01 0.  1.
<mgrwt>
<rscale>  0 0.12527584E+03</rscale>
<asrwt>0</asrwt>
<pdfrwt beam="2">  1        5 0.11467672E+00 0.12527660E+03</pdfrwt>
<pdfrwt beam="1">  1       -5 0.37548695E-02 0.12527660E+03</pdfrwt>
<totfact> 0.16592618E+02</totfact>
</mgrwt>
</event>
<event>
 8    1  0.3682083E-007  0.1415874E+03  0.7546771E-02  0.1211210E+00
         -5   -1    0    0    0  501 -0.00000000000E+00  0.00000000000E+00  0.10997544687E+03  0.11007583256E+03  0.47000000000E+01 0. -1.
          5   -1    0    0  501    0  0.00000000000E+00 -0.00000000000E+00 -0.18754680621E+03  0.18760568893E+03  0.47000000000E+01 0. -1.
         25    2    1    2    0    0  0.66486055059E+02 -0.71971528719E+00 -0.13356187414E+02  0.14221598106E+03  0.12500433600E+03 0.  0.
         25    2    1    2    0    0 -0.66486055059E+02  0.71971528719E+00 -0.64215171928E+02  0.15546554044E+03  0.12500012980E+03 0.  0.
          5    1    4    4  502    0  0.30102910669E+02 -0.13482625939E+02  0.76058539694E+01  0.34174631637E+02  0.47000000000E+01 0.  1.
         -5    1    4    4    0  502 -0.96588965728E+02  0.14202341226E+02 -0.71821025897E+02  0.12129090880E+03  0.47000000000E+01 0.  1.
          5    1    3    3  503    0  0.36142083392E+02  0.47814425086E+02  0.32844383082E+02  0.68507758234E+02  0.47000000000E+01 0. -1.
         -5    1    3    3    0  503  0.30343971667E+02 -0.48534140373E+02 -0.46200570495E+02  0.73708222828E+02  0.47000000000E+01 0. -1.
<mgrwt>
<rscale>  0 0.14158649E+03</rscale>
<asrwt>0</asrwt>
<pdfrwt beam="2">  1        5 0.28865606E-01 0.14158742E+03</pdfrwt>
<pdfrwt beam="1">  1       -5 0.16931551E-01 0.14158742E+03</pdfrwt>
<totfact> 0.26633540E+02</totfact>
</mgrwt>
</event>
<event>
 8    1  0.3682083E-007  0.1290388E+03  0.7546771E-02  0.1228889E+00
          5   -1    0    0  501    0  0.00000000000E+00  0.00000000000E+00  0.26398889339E+03  0.26403072896E+03  0.47000000000E+01 0. -1.
         -5   -1    0    0    0  501 -0.00000000000E+00 -0.00000000000E+00 -0.76726068613E+02  0.76869887504E+02  0.47000000000E+01 0. -1.
         25    2    1    2    0    0  0.21672366356E+02  0.23575087810E+02  0.21474453676E+02  0.13081343264E+03  0.12500210307E+03 0.  0.
         25    2    1    2    0    0 -0.21672366356E+02 -0.23575087810E+02  0.16578837110E+03  0.21008718382E+03  0.12500145832E+03 0.  0.
          5    1    4    4  502    0 -0.31501211264E+02  0.14739142520E+02 -0.43359182286E+01  0.35361827161E+02  0.47000000000E+01 0.  1.
         -5    1    4    4    0  502  0.98288449076E+01 -0.38314230331E+02  0.17012428933E+03  0.17472535665E+03  0.47000000000E+01 0.  1.
          5    1    3    3  503    0  0.27330355766E+02  0.70720730406E+01  0.71826313750E+02  0.77317992152E+02  0.47000000000E+01 0. -1.
         -5    1    3    3    0  503 -0.56579894100E+01  0.16503014770E+02 -0.50351860074E+02  0.53495440493E+02  0.47000000000E+01 0. -1.
<mgrwt>
<rscale>  0 0.12903861E+03</rscale>
<asrwt>0</asrwt>
<pdfrwt beam="1">  1        5 0.40627956E-01 0.12903876E+03</pdfrwt>
<pdfrwt beam="2">  1       -5 0.11818292E-01 0.12903876E+03</pdfrwt>
<totfact> 0.24878277E+02</totfact>
</mgrwt>
</event>
<event>
 8    1  0.3682083E-007  0.1342102E+03  0.7546771E-02  0.1221340E+00
          5   -1    0    0  501    0  0.00000000000E+00  0.00000000000E+00  0.14569393958E+03  0.14576972947E+03  0.47000000000E+01 0.  1.
         -5   -1    0    0    0  501 -0.00000000000E+00 -0.00000000000E+00 -0.12969724714E+03  0.12978237906E+03  0.47000000000E+01 0.  1.
         25    2    1    2    0    0 -0.13719585275E+02  0.46889070114E+02 -0.22159193417E+02  0.13602727739E+03  0.12500231368E+03 0.  0.
         25    2    1    2    0    0  0.13719585275E+02 -0.46889070114E+02  0.38155885859E+02  0.13952483114E+03  0.12499797983E+03 0.  0.
          5    1    3    3  502    0  0.85407617045E+01  0.61250741307E+02  0.36165760126E+02  0.71795892129E+02  0.47000000000E+01 0.  1.
         -5    1    3    3    0  502 -0.22260346980E+02 -0.14361671192E+02 -0.58324953543E+02  0.64231385264E+02  0.47000000000E+01 0.  1.
          5    1    4    4  503    0  0.21897300247E+02  0.10132630765E+02 -0.37180745279E+02  0.44571961857E+02  0.47000000000E+01 0.  1.
         -5    1    4    4    0  503 -0.81777149722E+01 -0.57021700879E+02  0.75336631138E+02  0.94952869280E+02  0.47000000000E+01 0.  1.
<mgrwt>
<rscale>  0 0.13420924E+03</rscale>
<asrwt>0</asrwt>
<pdfrwt beam="1">  1        5 0.22426831E-01 0.13421025E+03</pdfrwt>
<pdfrwt beam="2">  1       -5 0.19965801E-01 0.13421025E+03</pdfrwt>
<totfact> 0.31308554E+02</totfact>
</mgrwt>
</event>
<event>
 8    1  0.3682083E-007  0.1733407E+03  0.7546771E-02  0.1174409E+00
         -5   -1    0    0    0  501 -0.00000000000E+00  0.00000000000E+00  0.47098999654E+03  0.47101344657E+03  0.47000000000E+01 0. -1.
          5   -1    0    0  501    0  0.00000000000E+00 -0.00000000000E+00 -0.72658721176E+02  0.72810574527E+02  0.47000000000E+01 0. -1.
         25    2    1    2    0    0 -0.90094095722E+02 -0.79400939860E+02  0.29461888980E+03  0.34182933562E+03  0.12500219649E+03 0.  0.
         25    2    1    2    0    0  0.90094095722E+02  0.79400939860E+02  0.10371238557E+03  0.20199468548E+03  0.12499655477E+03 0.  0.
          5    1    3    3  502    0 -0.92923032178E+02 -0.79878618646E+02  0.13602455496E+03  0.18313943644E+03  0.47000000000E+01 0. -1.
         -5    1    3    3    0  502  0.28289364561E+01  0.47767878643E+00  0.15859433484E+03  0.15868989918E+03  0.47000000000E+01 0. -1.
          5    1    4    4  503    0  0.51122180166E+02  0.11292403403E+02  0.11122995549E+03  0.12302515466E+03  0.47000000000E+01 0.  1.
         -5    1    4    4    0  503  0.38971915556E+02  0.68108536456E+02 -0.75175699223E+01  0.78969530819E+02  0.47000000000E+01 0.  1.
<mgrwt>
<rscale>  0 0.17333970E+03</rscale>
<asrwt>0</asrwt>
<pdfrwt beam="2">  1        5 0.11191750E-01 0.17334072E+03</pdfrwt>
<pdfrwt beam="1">  1       -5 0.72473480E-01 0.17334072E+03</pdfrwt>
<totfact> 0.86449391E+01</totfact>
</mgrwt>
</event>
<event>
 8    1  0.3682083E-007  0.1324037E+03  0.7546771E-02  0.1223934E+00
          5   -1    0    0  501    0  0.00000000000E+00  0.00000000000E+00  0.51203546927E+02  0.51418802183E+02  0.47000000000E+01 0.  1.
         -5   -1    0    0    0  501 -0.00000000000E+00 -0.00000000000E+00 -0.34144525055E+03  0.34147759681E+03  0.47000000000E+01 0.  1.
         25    2    1    2    0    0 -0.79702552848E+01 -0.42919081748E+02 -0.14320640729E+03  0.19503248328E+03  0.12499608754E+03 0.  0.
         25    2    1    2    0    0  0.79702552848E+01  0.42919081748E+02 -0.14703529633E+03  0.19786391570E+03  0.12500071289E+03 0.  0.
          5    1    3    3  502    0  0.52473185019E+02 -0.26009802712E+02 -0.31127543452E+02  0.66490292107E+02  0.47000000000E+01 0. -1.
         -5    1    3    3    0  502 -0.60443440304E+02 -0.16909279036E+02 -0.11207886384E+03  0.12854219118E+03  0.47000000000E+01 0. -1.
          5    1    4    4  503    0 -0.48733734776E+02 -0.63451542166E+01 -0.27232427966E+02  0.56382027457E+02  0.47000000000E+01 0. -1.
         -5    1    4    4    0  503  0.56703990061E+02  0.49264235965E+02 -0.11980286836E+03  0.14148188825E+03  0.47000000000E+01 0. -1.
<mgrwt>
<rscale>  0 0.13240265E+03</rscale>
<asrwt>0</asrwt>
<pdfrwt beam="1">  1        5 0.78965153E-02 0.13240374E+03</pdfrwt>
<pdfrwt beam="2">  1       -5 0.52549083E-01 0.13240374E+03</pdfrwt>
<totfact> 0.29564938E+02</totfact>
</mgrwt>
</event>
<event>
 8    1  0.3682083E-007  0.1356931E+03  0.7546771E-02  0.1219258E+00
          5   -1    0    0  501    0  0.00000000000E+00  0.00000000000E+00  0.88289479890E+02  0.88414491229E+02  0.47000000000E+01 0.  1.
         -5   -1    0    0    0  501 -0.00000000000E+00 -0.00000000000E+00 -0.25661797433E+03  0.25666101136E+03  0.47000000000E+01 0.  1.
         25    2    1    2    0    0  0.11673159459E+02 -0.51491968666E+02 -0.15910065705E+03  0.20910676204E+03  0.12499973347E+03 0.  0.
         25    2    1    2    0    0 -0.11673159459E+02  0.51491968666E+02 -0.92278373948E+01  0.13596874055E+03  0.12495863289E+03 0.  0.
          5    1    4    4  502    0 -0.51326789266E+01  0.74240289369E+02  0.37434982277E+02  0.83435201544E+02  0.47000000000E+01 0.  1.
         -5    1    4    4    0  502 -0.65404805326E+01 -0.22748320703E+02 -0.46662819672E+02  0.52533539003E+02  0.47000000000E+01 0.  1.
          5    1    3    3  503    0  0.12459383584E+02  0.31423544864E+02 -0.10395408172E+03  0.10941305460E+03  0.47000000000E+01 0. -1.
         -5    1    3    3    0  503 -0.78622412470E+00 -0.82915513530E+02 -0.55146575329E+02  0.99693707439E+02  0.47000000000E+01 0. -1.
<mgrwt>
<rscale>  0 0.13568364E+03</rscale>
<asrwt>0</asrwt>
<pdfrwt beam="1">  1        5 0.13595924E-01 0.13569311E+03</pdfrwt>
<pdfrwt beam="2">  1       -5 0.39492615E-01 0.13569311E+03</pdfrwt>
<totfact> 0.20906560E+02</totfact>
</mgrwt>
</event>
<event>
 8    1  0.3682083E-007  0.1264682E+03  0.7546771E-02  0.1232796E+00
          5   -1    0    0  501    0  0.00000000000E+00  0.00000000000E+00  0.89861255721E+02  0.89984083480E+02  0.47000000000E+01 0. -1.
         -5   -1    0    0    0  501 -0.00000000000E+00 -0.00000000000E+00 -0.19001106685E+03  0.19006918616E+03  0.47000000000E+01 0. -1.
         25    2    1    2    0    0 -0.13124837137E+01 -0.19165608353E+02 -0.85699092563E+02  0.15276212747E+03  0.12499155957E+03 0.  0.
         25    2    1    2    0    0  0.13124837137E+01  0.19165608353E+02 -0.14450718567E+02  0.12729114217E+03  0.12500067380E+03 0.  0.
          5    1    3    3  502    0  0.52184056729E+02  0.10837388570E+01 -0.35189507191E+01  0.52524501719E+02  0.47000000000E+01 0. -1.
         -5    1    3    3    0  502 -0.53496540443E+02 -0.20249347210E+02 -0.82180141844E+02  0.10023762575E+03  0.47000000000E+01 0. -1.
          5    1    4    4  503    0 -0.36766334881E+02 -0.13195112352E+02 -0.51569521570E+02  0.64864319357E+02  0.47000000000E+01 0. -1.
         -5    1    4    4    0  503  0.38078818595E+02  0.32360720705E+02  0.37118803004E+02  0.62426822813E+02  0.47000000000E+01 0. -1.
<mgrwt>
<rscale>  0 0.12646597E+03</rscale>
<asrwt>0</asrwt>
<pdfrwt beam="1">  1        5 0.13838728E-01 0.12646822E+03</pdfrwt>
<pdfrwt beam="2">  1       -5 0.29246391E-01 0.12646822E+03</pdfrwt>
<totfact> 0.35963468E+02</totfact>
</mgrwt>
</event>
<event>
 8    1  0.3682083E-007  0.1552496E+03  0.7546771E-02  0.1194169E+00
          5   -1    0    0  501    0  0.00000000000E+00  0.00000000000E+00  0.11418919150E+03  0.11428587601E+03  0.47000000000E+01 0. -1.
         -5   -1    0    0    0  501 -0.00000000000E+00 -0.00000000000E+00 -0.22207943616E+03  0.22212916505E+03  0.47000000000E+01 0. -1.
         25    2    1    2    0    0 -0.61514578156E+02 -0.68504680204E+02 -0.91751365785E+02  0.18033512538E+03  0.12500203913E+03 0.  0.
         25    2    1    2    0    0  0.61514578156E+02  0.68504680204E+02 -0.16138878883E+02  0.15607991568E+03  0.12499416839E+03 0.  0.
          5    1    3    3  502    0 -0.85360007728E+02 -0.54088935369E+01 -0.65377862195E+02  0.10775872082E+03  0.47000000000E+01 0. -1.
         -5    1    3    3    0  502  0.23845429572E+02 -0.63095786668E+02 -0.26373503590E+02  0.72576404556E+02  0.47000000000E+01 0. -1.
          5    1    4    4  503    0  0.30383395287E+02  0.72972780824E+02 -0.61793303050E+02  0.10044242008E+03  0.47000000000E+01 0.  1.
         -5    1    4    4    0  503  0.31131182869E+02 -0.44681006198E+01  0.45654424167E+02  0.55637495594E+02  0.47000000000E+01 0.  1.
<mgrwt>
<rscale>  0 0.15524804E+03</rscale>
<asrwt>0</asrwt>
<pdfrwt beam="1">  1        5 0.17578831E-01 0.15524962E+03</pdfrwt>
<pdfrwt beam="2">  1       -5 0.34177330E-01 0.15524962E+03</pdfrwt>
<totfact> 0.18352593E+02</totfact>
</mgrwt>
</event>
<event>
 8    1  0.3682083E-007  0.1273928E+03  0.7546771E-02  0.1231381E+00
          5   -1    0    0  501    0  0.00000000000E+00  0.00000000000E+00  0.17344476469E+03  0.17350843322E+03  0.47000000000E+01 0. -1.
         -5   -1    0    0    0  501 -0.00000000000E+00 -0.00000000000E+00 -0.99180337356E+02  0.99291637705E+02  0.47000000000E+01 0. -1.
         25    2    1    2    0    0 -0.13038089732E+02  0.20808348153E+02  0.42910594035E+01  0.12746500966E+03  0.12500374538E+03 0.  0.
         25    2    1    2    0    0  0.13038089732E+02 -0.20808348153E+02  0.69973367935E+02  0.14533506127E+03  0.12499211446E+03 0.  0.
          5    1    4    4  502    0  0.18567185104E+01  0.92906998666E+01 -0.34423159989E+02  0.36011226739E+02  0.47000000000E+01 0. -1.
         -5    1    4    4    0  502  0.11181371222E+02 -0.30099048019E+02  0.10439652792E+03  0.10932383453E+03  0.47000000000E+01 0. -1.
          5    1    3    3  503    0  0.17749054709E+02  0.62763846006E+02  0.26669024566E+02  0.70623340192E+02  0.47000000000E+01 0. -1.
         -5    1    3    3    0  503 -0.30787144441E+02 -0.41955497853E+02 -0.22377965163E+02  0.56841669467E+02  0.47000000000E+01 0. -1.
<mgrwt>
<rscale>  0 0.12738991E+03</rscale>
<asrwt>0</asrwt>
<pdfrwt beam="1">  1        5 0.26697269E-01 0.12739276E+03</pdfrwt>
<pdfrwt beam="2">  1       -5 0.15271973E-01 0.12739276E+03</pdfrwt>
<totfact> 0.36038829E+02</totfact>
</mgrwt>
</event>
<event>
 8    1  0.3682083E-007  0.1601303E+03  0.7546771E-02  0.1188559E+00
         -5   -1    0    0    0  501 -0.00000000000E+00  0.00000000000E+00  0.90332703130E+01  0.10182827336E+02  0.47000000000E+01 0.  1.
          5   -1    0    0  501    0  0.00000000000E+00 -0.00000000000E+00 -0.26680032063E+04  0.26680073461E+04  0.47000000000E+01 0.  1.
         25    2    1    2    0    0 -0.41132473367E+02 -0.91184914321E+02 -0.13045765290E+04  0.13143673856E+04  0.12504053529E+03 0.  0.
         25    2    1    2    0    0  0.41132473367E+02  0.91184914321E+02 -0.13543934070E+04  0.13638227878E+04  0.12499810651E+03 0.  0.
          5    1    3    3  502    0  0.16903979650E+02  0.21834722297E+02 -0.38881836190E+03  0.38982599731E+03  0.47000000000E+01 0.  1.
         -5    1    3    3    0  502 -0.58036453017E+02 -0.11301963662E+03 -0.91575816708E+03  0.92454138832E+03  0.47000000000E+01 0.  1.
          5    1    4    4  503    0 -0.36934514892E+02  0.68621234036E+02 -0.60286693704E+03  0.60790103301E+03  0.47000000000E+01 0. -1.
         -5    1    4    4    0  503  0.78066988258E+02  0.22563680285E+02 -0.75152646992E+03  0.75592175476E+03  0.47000000000E+01 0. -1.
<mgrwt>
<rscale>  0 0.16012199E+03</rscale>
<asrwt>0</asrwt>
<pdfrwt beam="2">  1        5 0.41055019E+00 0.16013027E+03</pdfrwt>
<pdfrwt beam="1">  1       -5 0.14784819E-02 0.16013027E+03</pdfrwt>
<totfact> 0.70779119E+00</totfact>
</mgrwt>
</event>
<event>
 8    1  0.3682083E-007  0.1507970E+03  0.7546771E-02  0.1199499E+00
          5   -1    0    0  501    0  0.00000000000E+00  0.00000000000E+00  0.76827020887E+02  0.76970651150E+02  0.47000000000E+01 0. -1.
         -5   -1    0    0    0  501 -0.00000000000E+00 -0.00000000000E+00 -0.31142046348E+03  0.31145592798E+03  0.47000000000E+01 0. -1.
         25    2    1    2    0    0 -0.71580670995E+02  0.44603659765E+02 -0.16114958544E+03  0.22070097269E+03  0.12500580601E+03 0.  0.
         25    2    1    2    0    0  0.71580670995E+02 -0.44603659765E+02 -0.73443857151E+02  0.16772560644E+03  0.12499839990E+03 0.  0.
          5    1    4    4  502    0  0.10226197503E+03 -0.57039452545E+02 -0.53835679579E+02  0.12896271197E+03  0.47000000000E+01 0.  1.
         -5    1    4    4    0  502 -0.30681304036E+02  0.12435792780E+02 -0.19608177573E+02  0.38762894463E+02  0.47000000000E+01 0.  1.
          5    1    3    3  503    0 -0.39138618136E+01  0.14131686877E+02 -0.14343596374E+03  0.14426014204E+03  0.47000000000E+01 0. -1.
         -5    1    3    3    0  503 -0.67666809181E+02  0.30471972889E+02 -0.17713621698E+02  0.76440830648E+02  0.47000000000E+01 0. -1.
<mgrwt>
<rscale>  0 0.15079545E+03</rscale>
<asrwt>0</asrwt>
<pdfrwt beam="1">  1        5 0.11833318E-01 0.15079698E+03</pdfrwt>
<pdfrwt beam="2">  1       -5 0.47924616E-01 0.15079698E+03</pdfrwt>
<totfact> 0.18564895E+02</totfact>
</mgrwt>
</event>
<event>
 8    1  0.3682083E-007  0.1392214E+03  0.7546771E-02  0.1214381E+00
         -5   -1    0    0    0  501 -0.00000000000E+00  0.00000000000E+00  0.10335143634E+02  0.11353642320E+02  0.47000000000E+01 0. -1.
          5   -1    0    0  501    0  0.00000000000E+00 -0.00000000000E+00 -0.20408761935E+04  0.20408816054E+04  0.47000000000E+01 0. -1.
         25    2    1    2    0    0  0.54151768230E+02  0.28720268236E+02 -0.65296052818E+03  0.66763767348E+03  0.12500137549E+03 0.  0.
         25    2    1    2    0    0 -0.54151768230E+02 -0.28720268236E+02 -0.13775805216E+04  0.13845975742E+04  0.12500032408E+03 0.  0.
          5    1    3    3  502    0 -0.96838997568E+01 -0.41911445512E+02 -0.17556280264E+03  0.18081685444E+03  0.47000000000E+01 0. -1.
         -5    1    3    3    0  502  0.63835667987E+02  0.70631713748E+02 -0.47739772555E+03  0.48682081904E+03  0.47000000000E+01 0. -1.
          5    1    4    4  503    0  0.24364193376E+02  0.27773814466E+02 -0.57315092332E+03  0.57435970401E+03  0.47000000000E+01 0. -1.
         -5    1    4    4    0  503 -0.78515961606E+02 -0.56494082702E+02 -0.80442959833E+03  0.81023787018E+03  0.47000000000E+01 0. -1.
<mgrwt>
<rscale>  0 0.13922121E+03</rscale>
<asrwt>0</asrwt>
<pdfrwt beam="2">  1        5 0.31405941E+00 0.13922145E+03</pdfrwt>
<pdfrwt beam="1">  1       -5 0.16687861E-02 0.13922145E+03</pdfrwt>
<totfact> 0.25269757E+01</totfact>
</mgrwt>
</event>
<event>
 8    1  0.3682083E-007  0.1427735E+03  0.7546771E-02  0.1209647E+00
         -5   -1    0    0    0  501 -0.00000000000E+00  0.00000000000E+00  0.10085080503E+04  0.10085190021E+04  0.47000000000E+01 0. -1.
          5   -1    0    0  501    0  0.00000000000E+00 -0.00000000000E+00 -0.21673486358E+02  0.22177240832E+02  0.47000000000E+01 0. -1.
         25    2    1    2    0    0  0.29983242989E+02 -0.62130691578E+02  0.63793028560E+03  0.65371195766E+03  0.12500022644E+03 0.  0.
         25    2    1    2    0    0 -0.29983242989E+02  0.62130691578E+02  0.34890427836E+03  0.37698428525E+03  0.12499495258E+03 0.  0.
          5    1    3    3  502    0 -0.14862475491E+02  0.31474416546E+02  0.10412616046E+03  0.10989030606E+03  0.47000000000E+01 0.  1.
         -5    1    3    3    0  502  0.44845718480E+02 -0.93605108124E+02  0.53380412514E+03  0.54382165160E+03  0.47000000000E+01 0.  1.
          5    1    4    4  503    0  0.43262223934E+02 -0.24189550942E+01  0.13366946568E+03  0.14059547439E+03  0.47000000000E+01 0. -1.
         -5    1    4    4    0  503 -0.73245466922E+02  0.64549646672E+02  0.21523481268E+03  0.23638881086E+03  0.47000000000E+01 0. -1.
<mgrwt>
<rscale>  0 0.14277235E+03</rscale>
<asrwt>0</asrwt>
<pdfrwt beam="2">  1        5 0.33739756E-02 0.14277351E+03</pdfrwt>
<pdfrwt beam="1">  1       -5 0.15519466E+00 0.14277351E+03</pdfrwt>
<totfact> 0.93059730E+01</totfact>
</mgrwt>
</event>
<event>
 8    1  0.3682083E-007  0.1270828E+03  0.7546771E-02  0.1231850E+00
         -5   -1    0    0    0  501 -0.00000000000E+00  0.00000000000E+00  0.42202355423E+03  0.42204972494E+03  0.47000000000E+01 0. -1.
          5   -1    0    0  501    0  0.00000000000E+00 -0.00000000000E+00 -0.48907817592E+02  0.49133131608E+02  0.47000000000E+01 0. -1.
         25    2    1    2    0    0 -0.22513175398E+02  0.41375284891E+01  0.29700765223E+03  0.32305290515E+03  0.12500268731E+03 0.  0.
         25    2    1    2    0    0  0.22513175398E+02 -0.41375284891E+01  0.76108084403E+02  0.14812995140E+03  0.12500431905E+03 0.  0.
          5    1    4    4  502    0  0.23781240104E+02  0.55678512309E+02  0.61362266325E+02  0.86331117463E+02  0.47000000000E+01 0. -1.
         -5    1    4    4    0  502 -0.12680647052E+01 -0.59816040798E+02  0.14745818078E+02  0.61798833934E+02  0.47000000000E+01 0. -1.
          5    1    3    3  503    0  0.42349033670E+02 -0.19466680446E+02  0.18953031447E+03  0.19523376349E+03  0.47000000000E+01 0. -1.
         -5    1    3    3    0  503 -0.64862209068E+02  0.23604208935E+02  0.10747733776E+03  0.12781914166E+03  0.47000000000E+01 0. -1.
<mgrwt>
<rscale>  0 0.12708241E+03</rscale>
<asrwt>0</asrwt>
<pdfrwt beam="2">  1        5 0.75436247E-02 0.12708282E+03</pdfrwt>
<pdfrwt beam="1">  1       -5 0.64946045E-01 0.12708282E+03</pdfrwt>
<totfact> 0.19869174E+02</totfact>
</mgrwt>
</event>
<event>
 8    1  0.3682083E-007  0.1717244E+03  0.7546771E-02  0.1176062E+00
         -5   -1    0    0    0  501 -0.00000000000E+00  0.00000000000E+00  0.13546487617E+03  0.13554638570E+03  0.47000000000E+01 0. -1.
          5   -1    0    0  501    0  0.00000000000E+00 -0.00000000000E+00 -0.22186302147E+03  0.22191279885E+03  0.47000000000E+01 0. -1.
         25    2    1    2    0    0 -0.11017630493E+03  0.41526404575E+02 -0.18187793435E+02  0.17268487472E+03  0.12500403867E+03 0.  0.
         25    2    1    2    0    0  0.11017630493E+03 -0.41526404575E+02 -0.68210351864E+02  0.18477430983E+03  0.12500253208E+03 0.  0.
          5    1    3    3  502    0  0.52669581247E+00 -0.33259505918E+02  0.11939440718E+02  0.35652663113E+02  0.47000000000E+01 0.  1.
         -5    1    3    3    0  502 -0.11070300074E+03  0.74785910493E+02 -0.30127234153E+02  0.13703221161E+03  0.47000000000E+01 0.  1.
          5    1    4    4  503    0  0.93470464141E+02 -0.34985924097E+02  0.13647447223E+02  0.10084188300E+03  0.47000000000E+01 0. -1.
         -5    1    4    4    0  503  0.16705840787E+02 -0.65404804785E+01 -0.81857799087E+02  0.83932426824E+02  0.47000000000E+01 0. -1.
<mgrwt>
<rscale>  0 0.17172413E+03</rscale>
<asrwt>0</asrwt>
<pdfrwt beam="2">  1        5 0.34142871E-01 0.17172440E+03</pdfrwt>
<pdfrwt beam="1">  1       -5 0.20850849E-01 0.17172440E+03</pdfrwt>
<totfact> 0.13803928E+02</totfact>
</mgrwt>
</event>
<event>
 8    1  0.3682083E-007  0.1432538E+03  0.7546771E-02  0.1209019E+00
         -5   -1    0    0    0  501 -0.00000000000E+00  0.00000000000E+00  0.19921796709E+03  0.19927340116E+03  0.47000000000E+01 0.  1.
          5   -1    0    0  501    0  0.00000000000E+00 -0.00000000000E+00 -0.10476478018E+03  0.10487015384E+03  0.47000000000E+01 0.  1.
         25    2    1    2    0    0 -0.11276969811E+00 -0.69970317763E+02  0.67600054956E+02  0.15840268175E+03  0.12500313625E+03 0.  0.
         25    2    1    2    0    0  0.11276969811E+00  0.69970317763E+02  0.26853131953E+02  0.14574087324E+03  0.12499381326E+03 0.  0.
          5    1    3    3  502    0  0.88962482847E+01 -0.93402473607E+02  0.85650934475E+02  0.12712725076E+03  0.47000000000E+01 0. -1.
         -5    1    3    3    0  502 -0.90090179828E+01  0.23432155844E+02 -0.18050879519E+02  0.31275430995E+02  0.47000000000E+01 0. -1.
          5    1    4    4  503    0 -0.15637739264E+02 -0.39779036906E+01  0.60544337150E+02  0.62833664290E+02  0.47000000000E+01 0.  1.
         -5    1    4    4    0  503  0.15750508962E+02  0.73948221454E+02 -0.33691205197E+02  0.82907208953E+02  0.47000000000E+01 0.  1.
<mgrwt>
<rscale>  0 0.14325173E+03</rscale>
<asrwt>0</asrwt>
<pdfrwt beam="2">  1        5 0.16130029E-01 0.14325377E+03</pdfrwt>
<pdfrwt beam="1">  1       -5 0.30661287E-01 0.14325377E+03</pdfrwt>
<totfact> 0.25957351E+02</totfact>
</mgrwt>
</event>
<event>
 8    1  0.3682083E-007  0.1461346E+03  0.7546771E-02  0.1205305E+00
         -5   -1    0    0    0  501 -0.00000000000E+00  0.00000000000E+00  0.74578668305E+02  0.74726620198E+02  0.47000000000E+01 0.  1.
          5   -1    0    0  501    0  0.00000000000E+00 -0.00000000000E+00 -0.28726000379E+03  0.28729845071E+03  0.47000000000E+01 0.  1.
         25    2    1    2    0    0 -0.65709986761E+02  0.37574817726E+02 -0.93856234164E+02  0.17367774613E+03  0.12500119008E+03 0.  0.
         25    2    1    2    0    0  0.65709986761E+02 -0.37574817726E+02 -0.11882510132E+03  0.18834732478E+03  0.12500256301E+03 0.  0.
          5    1    4    4  502    0  0.10181293294E+03 -0.14639509430E+02 -0.87485028813E+02  0.13511442861E+03  0.47000000000E+01 0. -1.
         -5    1    4    4    0  502 -0.36102946184E+02 -0.22935308296E+02 -0.31340072509E+02  0.53232896170E+02  0.47000000000E+01 0. -1.
          5    1    3    3  503    0 -0.59688643226E+02  0.78373899563E+02 -0.87183538154E+02  0.13163685498E+03  0.47000000000E+01 0.  1.
         -5    1    3    3    0  503 -0.60213435348E+01 -0.40799081838E+02 -0.66726960096E+01  0.42040891151E+02  0.47000000000E+01 0.  1.
<mgrwt>
<rscale>  0 0.14613427E+03</rscale>
<asrwt>0</asrwt>
<pdfrwt beam="2">  1        5 0.44208185E-01 0.14613456E+03</pdfrwt>
<pdfrwt beam="1">  1       -5 0.11487980E-01 0.14613456E+03</pdfrwt>
<totfact> 0.22927979E+02</totfact>
</mgrwt>
</event>
<event>
 8    1  0.3682083E-007  0.1347482E+03  0.7546771E-02  0.1220590E+00
         -5   -1    0    0    0  501 -0.00000000000E+00  0.00000000000E+00  0.16033746878E+03  0.16040633994E+03  0.47000000000E+01 0. -1.
          5   -1    0    0  501    0  0.00000000000E+00 -0.00000000000E+00 -0.11332030336E+03  0.11341772857E+03  0.47000000000E+01 0. -1.
         25    2    1    2    0    0 -0.87217610607E+00  0.50214168978E+02  0.29971508455E+02  0.13804122871E+03  0.12503945797E+03 0.  0.
         25    2    1    2    0    0  0.87217610607E+00 -0.50214168978E+02  0.17045656960E+02  0.13578283980E+03  0.12499680678E+03 0.  0.
          5    1    4    4  502    0 -0.40926359362E+02 -0.30421138557E+02  0.55453552000E+02  0.75482441608E+02  0.47000000000E+01 0. -1.
         -5    1    4    4    0  502  0.41798535468E+02 -0.19793030421E+02 -0.38407895039E+02  0.60300398190E+02  0.47000000000E+01 0. -1.
          5    1    3    3  503    0 -0.28529678006E+02  0.79691214424E+02  0.43337167503E+02  0.95209412721E+02  0.47000000000E+01 0. -1.
         -5    1    3    3    0  503  0.27657501900E+02 -0.29477045445E+02 -0.13365659048E+02  0.42831815994E+02  0.47000000000E+01 0. -1.
<mgrwt>
<rscale>  0 0.13473835E+03</rscale>
<asrwt>0</asrwt>
<pdfrwt beam="2">  1        5 0.17446685E-01 0.13474824E+03</pdfrwt>
<pdfrwt beam="1">  1       -5 0.24680095E-01 0.13474824E+03</pdfrwt>
<totfact> 0.33546297E+02</totfact>
</mgrwt>
</event>
<event>
 8    1  0.3682083E-007  0.1457650E+03  0.7546771E-02  0.1205778E+00
         -5   -1    0    0    0  501 -0.00000000000E+00  0.00000000000E+00  0.33838299962E+03  0.33841563858E+03  0.47000000000E+01 0. -1.
          5   -1    0    0  501    0  0.00000000000E+00 -0.00000000000E+00 -0.68816828535E+02  0.68977140341E+02  0.47000000000E+01 0. -1.
         25    2    1    2    0    0 -0.30067277047E+02  0.68690547045E+02  0.73964145188E+02  0.16345103046E+03  0.12499244850E+03 0.  0.
         25    2    1    2    0    0  0.30067277047E+02 -0.68690547045E+02  0.19560202590E+03  0.24394174846E+03  0.12499996681E+03 0.  0.
          5    1    4    4  502    0  0.52423664409E+02  0.15617809703E+01  0.25532415977E+02  0.58520714414E+02  0.47000000000E+01 0.  1.
         -5    1    4    4    0  502 -0.22356387362E+02 -0.70252328015E+02  0.17006960992E+03  0.18542103405E+03  0.47000000000E+01 0.  1.
          5    1    3    3  503    0 -0.35190283698E+02  0.67468917942E+02 -0.12016650333E+02  0.77180961644E+02  0.47000000000E+01 0.  1.
         -5    1    3    3    0  503  0.51230066510E+01  0.12216291031E+01  0.85980795521E+02  0.86270068814E+02  0.47000000000E+01 0.  1.
<mgrwt>
<rscale>  0 0.14576335E+03</rscale>
<asrwt>0</asrwt>
<pdfrwt beam="2">  1        5 0.10602047E-01 0.14576496E+03</pdfrwt>
<pdfrwt beam="1">  1       -5 0.52073765E-01 0.14576496E+03</pdfrwt>
<totfact> 0.18685453E+02</totfact>
</mgrwt>
</event>
<event>
 8    1  0.3682083E-007  0.1557415E+03  0.7546771E-02  0.1193595E+00
         -5   -1    0    0    0  501 -0.00000000000E+00  0.00000000000E+00  0.17188213169E+03  0.17194637883E+03  0.47000000000E+01 0.  1.
          5   -1    0    0  501    0  0.00000000000E+00 -0.00000000000E+00 -0.19416512600E+03  0.19422200224E+03  0.47000000000E+01 0.  1.
         25    2    1    2    0    0  0.31838907597E+02  0.87248430637E+02  0.84654350317E+02  0.17724776521E+03  0.12499762622E+03 0.  0.
         25    2    1    2    0    0 -0.31838907597E+02 -0.87248430637E+02 -0.10693734463E+03  0.18892061586E+03  0.12501759371E+03 0.  0.
          5    1    4    4  502    0 -0.68815151005E+01 -0.46884083704E+02  0.21253449122E+02  0.52146636079E+02  0.47000000000E+01 0. -1.
         -5    1    4    4    0  502 -0.24957392496E+02 -0.40364346933E+02 -0.12819079375E+03  0.13677397978E+03  0.47000000000E+01 0. -1.
          5    1    3    3  503    0  0.73672121829E+02  0.79351722409E+02  0.40412058194E+02  0.11566979654E+03  0.47000000000E+01 0.  1.
         -5    1    3    3    0  503 -0.41833214232E+02  0.78967082278E+01  0.44242292123E+02  0.61577968675E+02  0.47000000000E+01 0.  1.
<mgrwt>
<rscale>  0 0.15573746E+03</rscale>
<asrwt>0</asrwt>
<pdfrwt beam="2">  1        5 0.29880875E-01 0.15574146E+03</pdfrwt>
<pdfrwt beam="1">  1       -5 0.26452722E-01 0.15574146E+03</pdfrwt>
<totfact> 0.11089690E+02</totfact>
</mgrwt>
</event>
<event>
 8    1  0.3682083E-007  0.1371206E+03  0.7546771E-02  0.1217259E+00
         -5   -1    0    0    0  501 -0.00000000000E+00  0.00000000000E+00  0.87842144719E+02  0.87967791769E+02  0.47000000000E+01 0. -1.
          5   -1    0    0  501    0  0.00000000000E+00 -0.00000000000E+00 -0.21381057214E+03  0.21386222378E+03  0.47000000000E+01 0. -1.
         25    2    1    2    0    0 -0.41376678737E+02  0.38261056938E+02 -0.60079259302E+02  0.14970035824E+03  0.12499896735E+03 0.  0.
         25    2    1    2    0    0  0.41376678737E+02 -0.38261056938E+02 -0.65889168124E+02  0.15212965731E+03  0.12500444846E+03 0.  0.
          5    1    4    4  502    0 -0.15937573837E+02 -0.34733134948E+02  0.23993113935E+02  0.45366909079E+02  0.47000000000E+01 0. -1.
         -5    1    4    4    0  502  0.57314252574E+02 -0.35279219897E+01 -0.89882282058E+02  0.10676274823E+03  0.47000000000E+01 0. -1.
          5    1    3    3  503    0 -0.13443991705E+02 -0.35078965097E+02 -0.60158669469E+02  0.71080448912E+02  0.47000000000E+01 0.  1.
         -5    1    3    3    0  503 -0.27932687032E+02  0.73340022035E+02  0.79410167393E-01  0.78619909329E+02  0.47000000000E+01 0.  1.
<mgrwt>
<rscale>  0 0.13711932E+03</rscale>
<asrwt>0</asrwt>
<pdfrwt beam="2">  1        5 0.32907573E-01 0.13712057E+03</pdfrwt>
<pdfrwt beam="1">  1       -5 0.13527814E-01 0.13712057E+03</pdfrwt>
<totfact> 0.30564729E+02</totfact>
</mgrwt>
</event>
<event>
 8    1  0.3682083E-007  0.1359379E+03  0.7546771E-02  0.1218923E+00
         -5   -1    0    0    0  501 -0.00000000000E+00  0.00000000000E+00  0.34288845907E+03  0.34292066920E+03  0.47000000000E+01 0.  1.
          5   -1    0    0  501    0  0.00000000000E+00 -0.00000000000E+00 -0.53922075007E+02  0.54126520053E+02  0.47000000000E+01 0.  1.
         25    2    1    2    0    0  0.47969517297E+02 -0.23159574916E+02  0.13271683555E+03  0.18998120534E+03  0.12506662002E+03 0.  0.
         25    2    1    2    0    0 -0.47969517297E+02  0.23159574916E+02  0.15624954851E+03  0.20706598391E+03  0.12499983913E+03 0.  0.
          5    1    3    3  502    0 -0.38960776712E+02 -0.59058231946E+01  0.72751230638E+02  0.82871300394E+02  0.47000000000E+01 0. -1.
         -5    1    3    3    0  502  0.86930294009E+02 -0.17253751721E+02  0.59965604912E+02  0.10710990495E+03  0.47000000000E+01 0. -1.
          5    1    4    4  503    0  0.15977443509E+02  0.29359459583E+02 -0.43454413732E+01  0.34032769926E+02  0.47000000000E+01 0. -1.
         -5    1    4    4    0  503 -0.63946960806E+02 -0.61998846671E+01  0.16059498989E+03  0.17303321399E+03  0.47000000000E+01 0. -1.
<mgrwt>
<rscale>  0 0.13592249E+03</rscale>
<asrwt>0</asrwt>
<pdfrwt beam="2">  1        5 0.83139082E-02 0.13593785E+03</pdfrwt>
<pdfrwt beam="1">  1       -5 0.52770274E-01 0.13593785E+03</pdfrwt>
<totfact> 0.27066184E+02</totfact>
</mgrwt>
</event>
<event>
 8    1  0.3682083E-007  0.1445296E+03  0.7546771E-02  0.1207368E+00
          5   -1    0    0  501    0  0.00000000000E+00  0.00000000000E+00  0.37223087237E+03  0.37226054364E+03  0.47000000000E+01 0. -1.
         -5   -1    0    0    0  501 -0.00000000000E+00 -0.00000000000E+00 -0.58184703590E+02  0.58374221467E+02  0.47000000000E+01 0. -1.
         25    2    1    2    0    0  0.67633342711E+02 -0.26262689587E+02  0.11519460976E+03  0.18482048784E+03  0.12499926679E+03 0.  0.
         25    2    1    2    0    0 -0.67633342711E+02  0.26262689587E+02  0.19885155903E+03  0.24581427726E+03  0.12497487135E+03 0.  0.
          5    1    4    4  502    0 -0.83908902065E+02 -0.24444762207E+02  0.14850204898E+03  0.17237516874E+03  0.47000000000E+01 0.  1.
         -5    1    4    4    0  502  0.16275559354E+02  0.50707451794E+02  0.50349510045E+02  0.73439108529E+02  0.47000000000E+01 0.  1.
          5    1    3    3  503    0  0.21395588368E+02 -0.73734023502E+02  0.50008719906E+02  0.91746604788E+02  0.47000000000E+01 0. -1.
         -5    1    3    3    0  503  0.46237754343E+02  0.47471333915E+02  0.65185889850E+02  0.93073883049E+02  0.47000000000E+01 0. -1.
<mgrwt>
<rscale>  0 0.14452436E+03</rscale>
<asrwt>0</asrwt>
<pdfrwt beam="1">  1        5 0.57283150E-01 0.14452963E+03</pdfrwt>
<pdfrwt beam="2">  1       -5 0.89683533E-02 0.14452963E+03</pdfrwt>
<totfact> 0.20313846E+02</totfact>
</mgrwt>
</event>
<event>
 8    1  0.3682083E-007  0.1458258E+03  0.7546771E-02  0.1205699E+00
          5   -1    0    0  501    0  0.00000000000E+00  0.00000000000E+00  0.25855577108E+03  0.25859848560E+03  0.47000000000E+01 0.  1.
         -5   -1    0    0    0  501 -0.00000000000E+00 -0.00000000000E+00 -0.82224164184E+02  0.82358382547E+02  0.47000000000E+01 0.  1.
         25    2    1    2    0    0  0.42297117929E+02 -0.62061707659E+02  0.82344697471E+02  0.16746880889E+03  0.12499780401E+03 0.  0.
         25    2    1    2    0    0 -0.42297117929E+02  0.62061707659E+02  0.93986909420E+02  0.17348805926E+03  0.12499546320E+03 0.  0.
          5    1    3    3  502    0  0.47371566690E+02 -0.27756887866E+02  0.10989054803E+03  0.12293304153E+03  0.47000000000E+01 0. -1.
         -5    1    3    3    0  502 -0.50744487614E+01 -0.34304819793E+02 -0.27545850556E+02  0.44535767357E+02  0.47000000000E+01 0. -1.
          5    1    4    4  503    0 -0.59740245734E+02  0.72882961155E+02  0.11152379640E+03  0.14608377785E+03  0.47000000000E+01 0. -1.
         -5    1    4    4    0  503  0.17443127806E+02 -0.10821253497E+02 -0.17536886978E+02  0.27404281413E+02  0.47000000000E+01 0. -1.
<mgrwt>
<rscale>  0 0.14582526E+03</rscale>
<asrwt>0</asrwt>
<pdfrwt beam="1">  1        5 0.39791422E-01 0.14582576E+03</pdfrwt>
<pdfrwt beam="2">  1       -5 0.12663481E-01 0.14582576E+03</pdfrwt>
<totfact> 0.23946903E+02</totfact>
</mgrwt>
</event>
<event>
 8    1  0.3682083E-007  0.1557042E+03  0.7546771E-02  0.1193634E+00
          5   -1    0    0  501    0  0.00000000000E+00  0.00000000000E+00  0.19649623757E+03  0.19655243926E+03  0.47000000000E+01 0.  1.
         -5   -1    0    0    0  501 -0.00000000000E+00 -0.00000000000E+00 -0.13087725276E+03  0.13096161762E+03  0.47000000000E+01 0.  1.
         25    2    1    2    0    0  0.88919255133E+02  0.26685390640E+02 -0.66707198471E+01  0.15584692601E+03  0.12500008735E+03 0.  0.
         25    2    1    2    0    0 -0.88919255133E+02 -0.26685390640E+02  0.72289704656E+02  0.17166713088E+03  0.12500023367E+03 0.  0.
          5    1    3    3  502    0  0.71900324162E+02  0.63282006588E+02 -0.39395722548E+02  0.10367440343E+03  0.47000000000E+01 0.  1.
         -5    1    3    3    0  502  0.17018930970E+02 -0.36596615948E+02  0.32725002701E+02  0.52172522577E+02  0.47000000000E+01 0.  1.
          5    1    4    4  503    0 -0.97600893436E+02 -0.63704992830E+02  0.61487962358E+02  0.13186022913E+03  0.47000000000E+01 0. -1.
         -5    1    4    4    0  503  0.86816383038E+01  0.37019602190E+02  0.10801742298E+02  0.39806901746E+02  0.47000000000E+01 0. -1.
<mgrwt>
<rscale>  0 0.15570419E+03</rscale>
<asrwt>0</asrwt>
<pdfrwt beam="1">  1        5 0.30241003E-01 0.15570421E+03</pdfrwt>
<pdfrwt beam="2">  1       -5 0.20145775E-01 0.15570421E+03</pdfrwt>
<totfact> 0.18182707E+02</totfact>
</mgrwt>
</event>
<event>
 8    1  0.3682083E-007  0.1273032E+03  0.7546771E-02  0.1231514E+00
          5   -1    0    0  501    0  0.00000000000E+00  0.00000000000E+00  0.24438134695E+03  0.24442653853E+03  0.47000000000E+01 0.  1.
         -5   -1    0    0    0  501 -0.00000000000E+00 -0.00000000000E+00 -0.73886250920E+02  0.74035586544E+02  0.47000000000E+01 0.  1.
         25    2    1    2    0    0  0.90553753262E+01  0.22325604365E+02  0.33889858649E+02  0.13173482755E+03  0.12500043935E+03 0.  0.
         25    2    1    2    0    0 -0.90553753262E+01 -0.22325604365E+02  0.13660523738E+03  0.18672729752E+03  0.12500264128E+03 0.  0.
          5    1    4    4  502    0  0.62568195445E+01 -0.41649679310E+02  0.15165295850E+03  0.15746286356E+03  0.47000000000E+01 0.  1.
         -5    1    4    4    0  502 -0.15312194871E+02  0.19324074944E+02 -0.15047721121E+02  0.29264433963E+02  0.47000000000E+01 0.  1.
          5    1    3    3  503    0 -0.10977818699E+02  0.21462086131E+02  0.78686566173E+02  0.82430572851E+02  0.47000000000E+01 0.  1.
         -5    1    3    3    0  503  0.20033194025E+02  0.86351823467E+00 -0.44796707524E+02  0.49304254701E+02  0.47000000000E+01 0.  1.
<mgrwt>
<rscale>  0 0.12730261E+03</rscale>
<asrwt>0</asrwt>
<pdfrwt beam="1">  1        5 0.37612094E-01 0.12730315E+03</pdfrwt>
<pdfrwt beam="2">  1       -5 0.11382079E-01 0.12730315E+03</pdfrwt>
<totfact> 0.30951144E+02</totfact>
</mgrwt>
</event>
<event>
 8    1  0.3682083E-007  0.1263378E+03  0.7546771E-02  0.1233004E+00
         -5   -1    0    0    0  501 -0.00000000000E+00  0.00000000000E+00  0.28940525658E+02  0.29319686651E+02  0.47000000000E+01 0. -1.
          5   -1    0    0  501    0  0.00000000000E+00 -0.00000000000E+00 -0.54962701066E+03  0.54964710574E+03  0.47000000000E+01 0. -1.
         25    2    1    2    0    0  0.75742540345E+01  0.16652043219E+02 -0.24196499711E+03  0.27294897504E+03  0.12497769112E+03 0.  0.
         25    2    1    2    0    0 -0.75742540345E+01 -0.16652043219E+02 -0.27872148789E+03  0.30601781735E+03  0.12500630728E+03 0.  0.
          5    1    4    4  502    0 -0.33789566712E+01 -0.71179217102E+02 -0.16108529207E+03  0.17620573094E+03  0.47000000000E+01 0.  1.
         -5    1    4    4    0  502 -0.41952973633E+01  0.54527173883E+02 -0.11763619582E+03  0.12981208641E+03  0.47000000000E+01 0.  1.
          5    1    3    3  503    0 -0.38472293350E+02  0.54186683471E+02 -0.12239903931E+03  0.13935540479E+03  0.47000000000E+01 0.  1.
         -5    1    3    3    0  503  0.46046547385E+02 -0.37534640252E+02 -0.11956595781E+03  0.13359357025E+03  0.47000000000E+01 0.  1.
<mgrwt>
<rscale>  0 0.12633071E+03</rscale>
<asrwt>0</asrwt>
<pdfrwt beam="2">  1        5 0.84588706E-01 0.12633779E+03</pdfrwt>
<pdfrwt beam="1">  1       -5 0.44831010E-02 0.12633779E+03</pdfrwt>
<totfact> 0.25988771E+02</totfact>
</mgrwt>
</event>
<event>
 8    1  0.3682083E-007  0.1288507E+03  0.7546771E-02  0.1229171E+00
          5   -1    0    0  501    0  0.00000000000E+00  0.00000000000E+00  0.56250231805E+03  0.56252195319E+03  0.47000000000E+01 0.  1.
         -5   -1    0    0    0  501 -0.00000000000E+00 -0.00000000000E+00 -0.35478385937E+02  0.35788348225E+02  0.47000000000E+01 0.  1.
         25    2    1    2    0    0  0.26437413032E+02 -0.16687727076E+02  0.13938488481E+03  0.18981742669E+03  0.12500036927E+03 0.  0.
         25    2    1    2    0    0 -0.26437413032E+02  0.16687727076E+02  0.38763904731E+03  0.40849287472E+03  0.12499992264E+03 0.  0.
          5    1    3    3  502    0 -0.37267030912E+01  0.52560748529E+02  0.63440569941E+02  0.82603368674E+02  0.47000000000E+01 0. -1.
         -5    1    3    3    0  502  0.30164116124E+02 -0.69248475605E+02  0.75944314871E+02  0.10721405802E+03  0.47000000000E+01 0. -1.
          5    1    4    4  503    0  0.11109680699E+02  0.58985903394E+02  0.11287021893E+03  0.12792395446E+03  0.47000000000E+01 0. -1.
         -5    1    4    4    0  503 -0.37547093731E+02 -0.42298176319E+02  0.27476882838E+03  0.28056892026E+03  0.47000000000E+01 0. -1.
<mgrwt>
<rscale>  0 0.12885062E+03</rscale>
<asrwt>0</asrwt>
<pdfrwt beam="1">  1        5 0.86564169E-01 0.12885073E+03</pdfrwt>
<pdfrwt beam="2">  1       -5 0.54835671E-02 0.12885073E+03</pdfrwt>
<totfact> 0.17753437E+02</totfact>
</mgrwt>
</event>
<event>
 8    1  0.3682083E-007  0.1471907E+03  0.7546771E-02  0.1203981E+00
          5   -1    0    0  501    0  0.00000000000E+00  0.00000000000E+00  0.12378598577E+03  0.12387518022E+03  0.47000000000E+01 0.  1.
         -5   -1    0    0    0  501 -0.00000000000E+00 -0.00000000000E+00 -0.18406717234E+03  0.18412716783E+03  0.47000000000E+01 0.  1.
         25    2    1    2    0    0 -0.38297262119E+02 -0.67620027537E+02 -0.64704490460E+02  0.16078485706E+03  0.12500380300E+03 0.  0.
         25    2    1    2    0    0  0.38297262119E+02  0.67620027537E+02  0.44233038892E+01  0.14721749099E+03  0.12495709514E+03 0.  0.
          5    1    3    3  502    0  0.35728745126E+02 -0.56564490112E+02 -0.96664207379E+01  0.67761452610E+02  0.47000000000E+01 0.  1.
         -5    1    3    3    0  502 -0.74026007245E+02 -0.11055537424E+02 -0.55038069722E+02  0.93023404448E+02  0.47000000000E+01 0.  1.
          5    1    4    4  503    0  0.47286797805E+02  0.26059315740E+02 -0.52870826313E+02  0.75713561919E+02  0.47000000000E+01 0. -1.
         -5    1    4    4    0  503 -0.89895356856E+01  0.41560711797E+02  0.57294130202E+02  0.71503929071E+02  0.47000000000E+01 0. -1.
<mgrwt>
<rscale>  0 0.14718077E+03</rscale>
<asrwt>0</asrwt>
<pdfrwt beam="1">  1        5 0.19055474E-01 0.14719069E+03</pdfrwt>
<pdfrwt beam="2">  1       -5 0.28329503E-01 0.14719069E+03</pdfrwt>
<totfact> 0.22503675E+02</totfact>
</mgrwt>
</event>
<event>
 8    1  0.3682083E-007  0.1254194E+03  0.7546771E-02  0.1234416E+00
          5   -1    0    0  501    0  0.00000000000E+00  0.00000000000E+00  0.12888545158E+02  0.13718768032E+02  0.47000000000E+01 0.  1.
         -5   -1    0    0    0  501 -0.00000000000E+00 -0.00000000000E+00 -0.11892033241E+04  0.11892126118E+04  0.47000000000E+01 0.  1.
         25    2    1    2    0    0  0.15314413737E+01 -0.10064304075E+02 -0.63647399514E+03  0.64871292614E+03  0.12500271405E+03 0.  0.
         25    2    1    2    0    0 -0.15314413737E+01  0.10064304075E+02 -0.53984078381E+03  0.55421845370E+03  0.12500554797E+03 0.  0.
          5    1    4    4  502    0  0.38129237815E+02  0.45329497146E+02 -0.40324872342E+03  0.40760302382E+03  0.47000000000E+01 0. -1.
         -5    1    4    4    0  502 -0.39660679189E+02 -0.35265193071E+02 -0.13659206039E+03  0.14661542987E+03  0.47000000000E+01 0. -1.
          5    1    3    3  503    0 -0.55792161345E+02  0.84063039595E+01 -0.42584929300E+03  0.42959648690E+03  0.47000000000E+01 0. -1.
         -5    1    3    3    0  503  0.57323602719E+02 -0.18470608035E+02 -0.21062470214E+03  0.21911643924E+03  0.47000000000E+01 0. -1.
<mgrwt>
<rscale>  0 0.12541868E+03</rscale>
<asrwt>0</asrwt>
<pdfrwt beam="1">  1        5 0.20474318E-02 0.12541939E+03</pdfrwt>
<pdfrwt beam="2">  1       -5 0.18301885E+00 0.12541939E+03</pdfrwt>
<totfact> 0.12426388E+02</totfact>
</mgrwt>
</event>
<event>
 8    1  0.3682083E-007  0.1340805E+03  0.7546771E-02  0.1221525E+00
          5   -1    0    0  501    0  0.00000000000E+00  0.00000000000E+00  0.30108172813E+02  0.30472808701E+02  0.47000000000E+01 0. -1.
         -5   -1    0    0    0  501 -0.00000000000E+00 -0.00000000000E+00 -0.73884652188E+03  0.73886147071E+03  0.47000000000E+01 0. -1.
         25    2    1    2    0    0 -0.35964253851E+02 -0.32525879456E+02 -0.52516875017E+03  0.54201457468E+03  0.12500489037E+03 0.  0.
         25    2    1    2    0    0  0.35964253851E+02  0.32525879456E+02 -0.18356959890E+03  0.22731970473E+03  0.12500036052E+03 0.  0.
          5    1    3    3  502    0 -0.26182919607E+02  0.30216267985E+02 -0.39562582403E+03  0.39766877017E+03  0.47000000000E+01 0.  1.
         -5    1    3    3    0  502 -0.97813342442E+01 -0.62742147442E+02 -0.12954292614E+03  0.14434580451E+03  0.47000000000E+01 0.  1.
          5    1    4    4  503    0  0.69431069459E+02  0.41952432503E+02 -0.17224883354E+03  0.19045322433E+03  0.47000000000E+01 0.  1.
         -5    1    4    4    0  503 -0.33466815608E+02 -0.94265530464E+01 -0.11320765355E+02  0.36866480406E+02  0.47000000000E+01 0.  1.
<mgrwt>
<rscale>  0 0.13407945E+03</rscale>
<asrwt>0</asrwt>
<pdfrwt beam="1">  1        5 0.46612260E-02 0.13408051E+03</pdfrwt>
<pdfrwt beam="2">  1       -5 0.11369788E+00 0.13408051E+03</pdfrwt>
<totfact> 0.12162767E+02</totfact>
</mgrwt>
</event>
<event>
 8    1  0.3682083E-007  0.1415622E+03  0.7546771E-02  0.1211247E+00
         -5   -1    0    0    0  501 -0.00000000000E+00  0.00000000000E+00  0.13185303147E+03  0.13193677239E+03  0.47000000000E+01 0.  1.
          5   -1    0    0  501    0  0.00000000000E+00 -0.00000000000E+00 -0.15184824663E+03  0.15192096631E+03  0.47000000000E+01 0.  1.
         25    2    1    2    0    0  0.56589281691E+02  0.34773438219E+02 -0.12422381804E+02  0.14210621105E+03  0.12501328266E+03 0.  0.
         25    2    1    2    0    0 -0.56589281691E+02 -0.34773438219E+02 -0.75728333534E+01  0.14175152765E+03  0.12499843590E+03 0.  0.
          5    1    3    3  502    0  0.12102130756E+02  0.39076675896E+01 -0.65052450175E+02  0.66450302547E+02  0.47000000000E+01 0.  1.
         -5    1    3    3    0  502  0.44487150935E+02  0.30865770629E+02  0.52630068371E+02  0.75655908504E+02  0.47000000000E+01 0.  1.
          5    1    4    4  503    0 -0.82130088486E+02  0.15191227982E+02 -0.14881102993E+02  0.84968594602E+02  0.47000000000E+01 0. -1.
         -5    1    4    4    0  503  0.25540806795E+02 -0.49964666201E+02  0.73082696397E+01  0.56782933048E+02  0.47000000000E+01 0. -1.
<mgrwt>
<rscale>  0 0.14155893E+03</rscale>
<asrwt>0</asrwt>
<pdfrwt beam="2">  1        5 0.23373304E-01 0.14156221E+03</pdfrwt>
<pdfrwt beam="1">  1       -5 0.20297117E-01 0.14156221E+03</pdfrwt>
<totfact> 0.28589760E+02</totfact>
</mgrwt>
</event>
<event>
 8    1  0.3682083E-007  0.1367710E+03  0.7546771E-02  0.1217742E+00
          5   -1    0    0  501    0  0.00000000000E+00  0.00000000000E+00  0.92983340757E+02  0.93102049700E+02  0.47000000000E+01 0. -1.
         -5   -1    0    0    0  501 -0.00000000000E+00 -0.00000000000E+00 -0.20304331437E+03  0.20309770435E+03  0.47000000000E+01 0. -1.
         25    2    1    2    0    0  0.32334660927E+01 -0.55411481612E+02 -0.70242384451E+02  0.15375401993E+03  0.12500167389E+03 0.  0.
         25    2    1    2    0    0 -0.32334660927E+01  0.55411481612E+02 -0.39817589164E+02  0.14244573412E+03  0.12499783664E+03 0.  0.
          5    1    4    4  502    0  0.55059879826E+02 -0.12189702501E+01 -0.13624624536E+02  0.56927995299E+02  0.47000000000E+01 0. -1.
         -5    1    4    4    0  502 -0.58293345919E+02  0.56630451862E+02 -0.26192964628E+02  0.85517738818E+02  0.47000000000E+01 0. -1.
          5    1    3    3  503    0 -0.53278914714E+01 -0.79988499838E+02 -0.17382721859E+01  0.80322214387E+02  0.47000000000E+01 0.  1.
         -5    1    3    3    0  503  0.85613575641E+01  0.24577018226E+02 -0.68504112265E+02  0.73431805544E+02  0.47000000000E+01 0.  1.
<mgrwt>
<rscale>  0 0.13677012E+03</rscale>
<asrwt>0</asrwt>
<pdfrwt beam="1">  1        5 0.14318445E-01 0.13677100E+03</pdfrwt>
<pdfrwt beam="2">  1       -5 0.31250748E-01 0.13677100E+03</pdfrwt>
<totfact> 0.30544427E+02</totfact>
</mgrwt>
</event>
<event>
 8    1  0.3682083E-007  0.1446905E+03  0.7546771E-02  0.1207159E+00
          5   -1    0    0  501    0  0.00000000000E+00  0.00000000000E+00  0.24936490494E+03  0.24940919352E+03  0.47000000000E+01 0.  1.
         -5   -1    0    0    0  501 -0.00000000000E+00 -0.00000000000E+00 -0.84149925196E+02  0.84281076823E+02  0.47000000000E+01 0.  1.
         25    2    1    2    0    0 -0.13048172746E+02 -0.71684909471E+02  0.72271851047E+02  0.16173610972E+03  0.12500547059E+03 0.  0.
         25    2    1    2    0    0  0.13048172746E+02  0.71684909471E+02  0.92943128694E+02  0.17195416062E+03  0.12498330739E+03 0.  0.
          5    1    3    3  502    0 -0.73026057061E+01 -0.10335301137E+03  0.76580255127E+02  0.12892555404E+03  0.47000000000E+01 0.  1.
         -5    1    3    3    0  502 -0.57455670394E+01  0.31668101900E+02 -0.43084040796E+01  0.32810555684E+02  0.47000000000E+01 0.  1.
          5    1    4    4  503    0 -0.78027543594E+01  0.63621129609E+02  0.12025240303E+03  0.13634977646E+03  0.47000000000E+01 0.  1.
         -5    1    4    4    0  503  0.20850927105E+02  0.80637798620E+01 -0.27309274331E+02  0.35604384158E+02  0.47000000000E+01 0.  1.
<mgrwt>
<rscale>  0 0.14468574E+03</rscale>
<asrwt>0</asrwt>
<pdfrwt beam="1">  1        5 0.38377326E-01 0.14469053E+03</pdfrwt>
<pdfrwt beam="2">  1       -5 0.12959638E-01 0.14469053E+03</pdfrwt>
<totfact> 0.24674509E+02</totfact>
</mgrwt>
</event>
<event>
 8    1  0.3682083E-007  0.1555148E+03  0.7546771E-02  0.1193859E+00
         -5   -1    0    0    0  501 -0.00000000000E+00  0.00000000000E+00  0.95158132584E+02  0.95274131835E+02  0.47000000000E+01 0.  1.
          5   -1    0    0  501    0  0.00000000000E+00 -0.00000000000E+00 -0.27758333643E+03  0.27762312343E+03  0.47000000000E+01 0.  1.
         25    2    1    2    0    0  0.56634564434E+02  0.73159164446E+02 -0.36703426740E+02  0.15978736339E+03  0.12500049093E+03 0.  0.
         25    2    1    2    0    0 -0.56634564434E+02 -0.73159164446E+02 -0.14572177710E+03  0.21310989187E+03  0.12498500895E+03 0.  0.
          5    1    3    3  502    0 -0.39749510005E+02  0.25645325822E+02 -0.16672646868E+02  0.50376318203E+02  0.47000000000E+01 0.  1.
         -5    1    3    3    0  502  0.96384074440E+02  0.47513838625E+02 -0.20030779873E+02  0.10941104519E+03  0.47000000000E+01 0.  1.
          5    1    4    4  503    0 -0.85729902220E+02 -0.53168253228E+02 -0.14596705094E+03  0.17749633587E+03  0.47000000000E+01 0.  1.
         -5    1    4    4    0  503  0.29095337786E+02 -0.19990911219E+02  0.24527383665E+00  0.35613556007E+02  0.47000000000E+01 0.  1.
<mgrwt>
<rscale>  0 0.15551171E+03</rscale>
<asrwt>0</asrwt>
<pdfrwt beam="2">  1        5 0.42717112E-01 0.15551482E+03</pdfrwt>
<pdfrwt beam="1">  1       -5 0.14651696E-01 0.15551482E+03</pdfrwt>
<totfact> 0.16264084E+02</totfact>
</mgrwt>
</event>
<event>
 8    1  0.3682083E-007  0.2527640E+03  0.7546771E-02  0.1111570E+00
          5   -1    0    0  501    0  0.00000000000E+00  0.00000000000E+00  0.30632973085E+03  0.30636578465E+03  0.47000000000E+01 0.  1.
         -5   -1    0    0    0  501 -0.00000000000E+00 -0.00000000000E+00 -0.20865425832E+03  0.20870718606E+03  0.47000000000E+01 0.  1.
         25    2    1    2    0    0 -0.17076500531E+02 -0.21902857628E+03  0.56070202652E+02  0.25890833770E+03  0.12499814242E+03 0.  0.
         25    2    1    2    0    0  0.17076500531E+02  0.21902857628E+03  0.41605269883E+02  0.25616463302E+03  0.12499678649E+03 0.  0.
          5    1    4    4  502    0 -0.86741692833E+01  0.19881375425E+03 -0.48757191546E+01  0.19911808740E+03  0.47000000000E+01 0. -1.
         -5    1    4    4    0  502  0.25750669814E+02  0.20214822025E+02  0.46480989038E+02  0.57046545621E+02  0.47000000000E+01 0. -1.
          5    1    3    3  503    0  0.15687717064E+02 -0.62555902506E+02 -0.36359757586E+02  0.74185358237E+02  0.47000000000E+01 0. -1.
         -5    1    3    3    0  503 -0.32764217595E+02 -0.15647267377E+03  0.92429960238E+02  0.18472297946E+03  0.47000000000E+01 0. -1.
<mgrwt>
<rscale>  0 0.25276387E+03</rscale>
<asrwt>0</asrwt>
<pdfrwt beam="1">  1        5 0.47134495E-01 0.25276404E+03</pdfrwt>
<pdfrwt beam="2">  1       -5 0.32107500E-01 0.25276404E+03</pdfrwt>
<totfact> 0.34031627E+01</totfact>
</mgrwt>
</event>
<event>
 8    1  0.3682083E-007  0.1821042E+03  0.7546771E-02  0.1165782E+00
          5   -1    0    0  501    0  0.00000000000E+00  0.00000000000E+00  0.15823053650E+03  0.15830032433E+03  0.47000000000E+01 0. -1.
         -5   -1    0    0    0  501 -0.00000000000E+00 -0.00000000000E+00 -0.21066662519E+03  0.21071904747E+03  0.47000000000E+01 0. -1.
         25    2    1    2    0    0 -0.13152142192E+03 -0.15463993817E+02 -0.40308808850E+02  0.18651205529E+03  0.12499970868E+03 0.  0.
         25    2    1    2    0    0  0.13152142192E+03  0.15463993817E+02 -0.12127279832E+02  0.18250731651E+03  0.12499932053E+03 0.  0.
          5    1    3    3  502    0 -0.11332884203E+03  0.34126754668E+02  0.23197469417E+01  0.11847165503E+03  0.47000000000E+01 0.  1.
         -5    1    3    3    0  502 -0.18192579890E+02 -0.49590748485E+02 -0.42628555791E+02  0.68040400258E+02  0.47000000000E+01 0.  1.
          5    1    4    4  503    0  0.10748308760E+03  0.30729623201E+00 -0.62542325590E+02  0.12444412819E+03  0.47000000000E+01 0. -1.
         -5    1    4    4    0  503  0.24038334321E+02  0.15156697585E+02  0.50415045759E+02  0.58063188316E+02  0.47000000000E+01 0. -1.
<mgrwt>
<rscale>  0 0.18210415E+03</rscale>
<asrwt>0</asrwt>
<pdfrwt beam="1">  1        5 0.24352560E-01 0.18210422E+03</pdfrwt>
<pdfrwt beam="2">  1       -5 0.32419651E-01 0.18210422E+03</pdfrwt>
<totfact> 0.11597492E+02</totfact>
</mgrwt>
</event>
<event>
 8    1  0.3682083E-007  0.1307931E+03  0.7546771E-02  0.1226286E+00
         -5   -1    0    0    0  501 -0.00000000000E+00  0.00000000000E+00  0.64903663520E+01  0.80134172101E+01  0.47000000000E+01 0.  1.
          5   -1    0    0  501    0  0.00000000000E+00 -0.00000000000E+00 -0.24602336223E+04  0.24602381117E+04  0.47000000000E+01 0.  1.
         25    2    1    2    0    0  0.36705594483E+02  0.11571545105E+02 -0.97456734870E+03  0.98330480993E+03  0.12500252304E+03 0.  0.
         25    2    1    2    0    0 -0.36705594483E+02 -0.11571545105E+02 -0.14791759072E+04  0.14849467190E+04  0.12499676920E+03 0.  0.
          5    1    3    3  502    0 -0.30507743360E+02 -0.34704940652E+02 -0.26434888605E+03  0.26839817225E+03  0.47000000000E+01 0.  1.
         -5    1    3    3    0  502  0.67213337843E+02  0.46276485757E+02 -0.71021846265E+03  0.71490663769E+03  0.47000000000E+01 0.  1.
          5    1    4    4  503    0 -0.67731009489E+02 -0.46006530855E+02 -0.10667038472E+04  0.10698519889E+04  0.47000000000E+01 0.  1.
         -5    1    4    4    0  503  0.31025415006E+02  0.34434985750E+02 -0.41247206004E+03  0.41509473007E+03  0.47000000000E+01 0.  1.
<mgrwt>
<rscale>  0 0.13079171E+03</rscale>
<asrwt>0</asrwt>
<pdfrwt beam="2">  1        5 0.37861432E+00 0.13079309E+03</pdfrwt>
<pdfrwt beam="1">  1       -5 0.11160230E-02 0.13079309E+03</pdfrwt>
<totfact> 0.17591579E+01</totfact>
</mgrwt>
</event>
<event>
 8    1  0.3682083E-007  0.1470013E+03  0.7546771E-02  0.1204208E+00
          5   -1    0    0  501    0  0.00000000000E+00  0.00000000000E+00  0.22097861270E+02  0.22592155114E+02  0.47000000000E+01 0.  1.
         -5   -1    0    0    0  501 -0.00000000000E+00 -0.00000000000E+00 -0.96673951000E+03  0.96675093493E+03  0.47000000000E+01 0.  1.
         25    2    1    2    0    0  0.47626855340E+02  0.60962530922E+02 -0.46554657713E+03  0.48820384870E+03  0.12499853952E+03 0.  0.
         25    2    1    2    0    0 -0.47626855340E+02 -0.60962530922E+02 -0.47909507160E+03  0.50113924135E+03  0.12499481614E+03 0.  0.
          5    1    4    4  502    0 -0.59107382156E+02 -0.88237315301E+02 -0.27459053181E+03  0.29445128051E+03  0.47000000000E+01 0. -1.
         -5    1    4    4    0  502  0.11480526816E+02  0.27274784379E+02 -0.20450453979E+03  0.20668796084E+03  0.47000000000E+01 0. -1.
          5    1    3    3  503    0  0.19865380245E+02 -0.35971269003E+02 -0.85464262221E+02  0.94946277668E+02  0.47000000000E+01 0.  1.
         -5    1    3    3    0  503  0.27761475095E+02  0.96933799925E+02 -0.38008231491E+03  0.39325757103E+03  0.47000000000E+01 0.  1.
<mgrwt>
<rscale>  0 0.14700051E+03</rscale>
<asrwt>0</asrwt>
<pdfrwt beam="1">  1        5 0.34385732E-02 0.14700130E+03</pdfrwt>
<pdfrwt beam="2">  1       -5 0.14876802E+00 0.14700130E+03</pdfrwt>
<totfact> 0.10222721E+02</totfact>
</mgrwt>
</event>
<event>
 8    1  0.3682083E-007  0.1292760E+03  0.7546771E-02  0.1228537E+00
          5   -1    0    0  501    0  0.00000000000E+00  0.00000000000E+00  0.18865121514E+03  0.18870975326E+03  0.47000000000E+01 0. -1.
         -5   -1    0    0    0  501 -0.00000000000E+00 -0.00000000000E+00 -0.90188031089E+02  0.90310414414E+02  0.47000000000E+01 0. -1.
         25    2    1    2    0    0  0.32930084258E+02  0.13125113716E+01  0.29872488857E+02  0.13268256295E+03  0.12500473505E+03 0.  0.
         25    2    1    2    0    0 -0.32930084258E+02 -0.13125113716E+01  0.68590695194E+02  0.14633760472E+03  0.12499559173E+03 0.  0.
          5    1    4    4  502    0  0.18428740939E+02  0.37588038317E+02  0.70028309697E+02  0.81722293630E+02  0.47000000000E+01 0. -1.
         -5    1    4    4    0  502 -0.51358825197E+02 -0.38900549688E+02 -0.14376145030E+01  0.64615311089E+02  0.47000000000E+01 0. -1.
          5    1    3    3  503    0  0.78507843126E+02 -0.15563890416E+02  0.14363261998E+02  0.81450042434E+02  0.47000000000E+01 0. -1.
         -5    1    3    3    0  503 -0.45577758868E+02  0.16876401787E+02  0.15509226859E+02  0.51232520517E+02  0.47000000000E+01 0. -1.
<mgrwt>
<rscale>  0 0.12927384E+03</rscale>
<asrwt>0</asrwt>
<pdfrwt beam="1">  1        5 0.29037181E-01 0.12927605E+03</pdfrwt>
<pdfrwt beam="2">  1       -5 0.13888999E-01 0.12927605E+03</pdfrwt>
<totfact> 0.36529197E+02</totfact>
</mgrwt>
</event>
<event>
 8    1  0.3682083E-007  0.1305241E+03  0.7546771E-02  0.1226683E+00
          5   -1    0    0  501    0  0.00000000000E+00  0.00000000000E+00  0.46709139517E+02  0.46945007343E+02  0.47000000000E+01 0. -1.
         -5   -1    0    0    0  501 -0.00000000000E+00 -0.00000000000E+00 -0.45533530760E+03  0.45535956380E+03  0.47000000000E+01 0. -1.
         25    2    1    2    0    0 -0.15883418549E+02  0.34025796713E+02 -0.31705002548E+03  0.34286624727E+03  0.12500602800E+03 0.  0.
         25    2    1    2    0    0  0.15883418549E+02 -0.34025796713E+02 -0.91576142605E+02  0.15943832387E+03  0.12499740557E+03 0.  0.
          5    1    4    4  502    0  0.69141824027E+02 -0.62078446159E+01 -0.57070342818E+02  0.89990239437E+02  0.47000000000E+01 0.  1.
         -5    1    4    4    0  502 -0.53258405478E+02 -0.27817952097E+02 -0.34505799787E+02  0.69448084437E+02  0.47000000000E+01 0.  1.
          5    1    3    3  503    0  0.49599929408E+02  0.32342918719E+02 -0.20019300478E+03  0.20881941133E+03  0.47000000000E+01 0. -1.
         -5    1    3    3    0  503 -0.65483347957E+02  0.16828779938E+01 -0.11685702070E+03  0.13404683594E+03  0.47000000000E+01 0. -1.
<mgrwt>
<rscale>  0 0.13052205E+03</rscale>
<asrwt>0</asrwt>
<pdfrwt beam="1">  1        5 0.72060313E-02 0.13052412E+03</pdfrwt>
<pdfrwt beam="2">  1       -5 0.70071592E-01 0.13052412E+03</pdfrwt>
<totfact> 0.18300133E+02</totfact>
</mgrwt>
</event>
<event>
 8    1  0.3682083E-007  0.1660072E+03  0.7546771E-02  0.1182078E+00
          5   -1    0    0  501    0  0.00000000000E+00  0.00000000000E+00  0.68802242517E+03  0.68803847824E+03  0.47000000000E+01 0.  1.
         -5   -1    0    0    0  501 -0.00000000000E+00 -0.00000000000E+00 -0.85036799031E+02  0.85166584935E+02  0.47000000000E+01 0.  1.
         25    2    1    2    0    0  0.41945235180E+02 -0.10086404356E+03  0.20192598685E+02  0.16723075637E+03  0.12500170717E+03 0.  0.
         25    2    1    2    0    0 -0.41945235180E+02  0.10086404356E+03  0.58279302746E+03  0.60597430681E+03  0.12499675845E+03 0.  0.
          5    1    4    4  502    0 -0.71610697835E+02  0.10356236381E+03  0.53359774660E+03  0.54827173957E+03  0.47000000000E+01 0.  1.
         -5    1    4    4    0  502  0.29665462655E+02 -0.26983202462E+01  0.49195280864E+02  0.57702567239E+02  0.47000000000E+01 0.  1.
          5    1    3    3  503    0  0.73650176660E+02 -0.98874860628E+02  0.39756789887E+02  0.12962746209E+03  0.47000000000E+01 0. -1.
         -5    1    3    3    0  503 -0.31704941480E+02 -0.19891829340E+01 -0.19564191202E+02  0.37603294276E+02  0.47000000000E+01 0. -1.
<mgrwt>
<rscale>  0 0.16600625E+03</rscale>
<asrwt>0</asrwt>
<pdfrwt beam="1">  1        5 0.10586082E+00 0.16600718E+03</pdfrwt>
<pdfrwt beam="2">  1       -5 0.13093803E-01 0.16600718E+03</pdfrwt>
<totfact> 0.26285555E+01</totfact>
</mgrwt>
</event>
<event>
 8    1  0.3682083E-007  0.1257077E+03  0.7546771E-02  0.1233969E+00
          5   -1    0    0  501    0  0.00000000000E+00  0.00000000000E+00  0.67770161755E+02  0.67932943586E+02  0.47000000000E+01 0.  1.
         -5   -1    0    0    0  501 -0.00000000000E+00 -0.00000000000E+00 -0.31489285052E+03  0.31492792399E+03  0.47000000000E+01 0.  1.
         25    2    1    2    0    0  0.13330620060E+02  0.30933201760E+00 -0.22132802734E+03  0.25453393426E+03  0.12499450743E+03 0.  0.
         25    2    1    2    0    0 -0.13330620060E+02 -0.30933201760E+00 -0.25794661425E+02  0.12832693331E+03  0.12499854454E+03 0.  0.
          5    1    4    4  502    0  0.47768091546E+02  0.30629414143E+02 -0.14514293258E+02  0.58759733572E+02  0.47000000000E+01 0.  1.
         -5    1    4    4    0  502 -0.61098711606E+02 -0.30938746161E+02 -0.11280368167E+02  0.69567199741E+02  0.47000000000E+01 0.  1.
          5    1    3    3  503    0  0.31240990294E+02 -0.25029529796E+02 -0.10866070040E+02  0.41744919625E+02  0.47000000000E+01 0. -1.
         -5    1    3    3    0  503 -0.17910370234E+02  0.25338861814E+02 -0.21046195730E+03  0.21278901464E+03  0.47000000000E+01 0. -1.
<mgrwt>
<rscale>  0 0.12570674E+03</rscale>
<asrwt>0</asrwt>
<pdfrwt beam="1">  1        5 0.10441399E-01 0.12570775E+03</pdfrwt>
<pdfrwt beam="2">  1       -5 0.48460273E-01 0.12570775E+03</pdfrwt>
<totfact> 0.21251387E+02</totfact>
</mgrwt>
</event>
<event>
 8    1  0.3682083E-007  0.1301887E+03  0.7546771E-02  0.1227178E+00
          5   -1    0    0  501    0  0.00000000000E+00  0.00000000000E+00  0.21849811228E+03  0.21854865607E+03  0.47000000000E+01 0. -1.
         -5   -1    0    0    0  501 -0.00000000000E+00 -0.00000000000E+00 -0.93574682769E+02  0.93692642483E+02  0.47000000000E+01 0. -1.
         25    2    1    2    0    0 -0.34407094397E+02 -0.11871673064E+02 -0.23078417721E+01  0.13020917929E+03  0.12499727786E+03 0.  0.
         25    2    1    2    0    0  0.34407094397E+02  0.11871673064E+02  0.12723127128E+03  0.18203211926E+03  0.12499244491E+03 0.  0.
          5    1    4    4  502    0  0.65060489894E+02 -0.31068819055E+02  0.48057705145E+02  0.86774258202E+02  0.47000000000E+01 0.  1.
         -5    1    4    4    0  502 -0.30653395497E+02  0.42940492119E+02  0.79173566140E+02  0.95257861063E+02  0.47000000000E+01 0.  1.
          5    1    3    3  503    0 -0.15481032869E+02 -0.68182109985E+02  0.45580534716E+01  0.70223417406E+02  0.47000000000E+01 0. -1.
         -5    1    3    3    0  503 -0.18926061528E+02  0.56310436921E+02 -0.68658952436E+01  0.59985761883E+02  0.47000000000E+01 0. -1.
<mgrwt>
<rscale>  0 0.13018757E+03</rscale>
<asrwt>0</asrwt>
<pdfrwt beam="1">  1        5 0.33628056E-01 0.13018873E+03</pdfrwt>
<pdfrwt beam="2">  1       -5 0.14409067E-01 0.13018873E+03</pdfrwt>
<totfact> 0.25668015E+02</totfact>
</mgrwt>
</event>
<event>
 8    1  0.3682083E-007  0.1495296E+03  0.7546771E-02  0.1201057E+00
         -5   -1    0    0    0  501 -0.00000000000E+00  0.00000000000E+00  0.27075610370E+03  0.27079689380E+03  0.47000000000E+01 0.  1.
          5   -1    0    0  501    0  0.00000000000E+00 -0.00000000000E+00 -0.82461080293E+02  0.82594913663E+02  0.47000000000E+01 0.  1.
         25    2    1    2    0    0 -0.60264807797E+02 -0.55674222534E+02  0.92982926943E+02  0.17608218889E+03  0.12501058526E+03 0.  0.
         25    2    1    2    0    0  0.60264807797E+02  0.55674222534E+02  0.95312096462E+02  0.17730961857E+03  0.12499135567E+03 0.  0.
          5    1    3    3  502    0 -0.79950986649E+02  0.98549217291E+01  0.55352884568E+02  0.97853521032E+02  0.47000000000E+01 0. -1.
         -5    1    3    3    0  502  0.19686178851E+02 -0.65529144263E+02  0.37630042375E+02  0.78228667857E+02  0.47000000000E+01 0. -1.
          5    1    4    4  503    0  0.39839052398E+02  0.94630999975E+02  0.80842387657E+02  0.13076604259E+03  0.47000000000E+01 0. -1.
         -5    1    4    4    0  503  0.20425755399E+02 -0.38956777442E+02  0.14469708806E+02  0.46543575982E+02  0.47000000000E+01 0. -1.
<mgrwt>
<rscale>  0 0.14952562E+03</rscale>
<asrwt>0</asrwt>
<pdfrwt beam="2">  1        5 0.12699753E-01 0.14952964E+03</pdfrwt>
<pdfrwt beam="1">  1       -5 0.41668218E-01 0.14952964E+03</pdfrwt>
<totfact> 0.21855106E+02</totfact>
</mgrwt>
</event>
<event>
 8    1  0.3682083E-007  0.1474647E+03  0.7546771E-02  0.1203626E+00
          5   -1    0    0  501    0  0.00000000000E+00  0.00000000000E+00  0.39829392534E+03  0.39832165515E+03  0.47000000000E+01 0. -1.
         -5   -1    0    0    0  501 -0.00000000000E+00 -0.00000000000E+00 -0.57135950552E+02  0.57328935499E+02  0.47000000000E+01 0. -1.
         25    2    1    2    0    0 -0.30886747711E+02  0.71866085848E+02  0.12141039886E+03  0.19101390556E+03  0.12500840646E+03 0.  0.
         25    2    1    2    0    0  0.30886747711E+02 -0.71866085848E+02  0.21974757593E+03  0.26463668509E+03  0.12499940996E+03 0.  0.
          5    1    4    4  502    0  0.55104553889E+02 -0.42423542482E+02  0.21489902577E+03  0.22592022949E+03  0.47000000000E+01 0. -1.
         -5    1    4    4    0  502 -0.24217806179E+02 -0.29442543366E+02  0.48485501610E+01  0.38716455605E+02  0.47000000000E+01 0. -1.
          5    1    3    3  503    0  0.11896962481E+02  0.95557736604E+02  0.65349215425E+02  0.11647072035E+03  0.47000000000E+01 0. -1.
         -5    1    3    3    0  503 -0.42783710192E+02 -0.23691650756E+02  0.56061183436E+02  0.74543185212E+02  0.47000000000E+01 0. -1.
<mgrwt>
<rscale>  0 0.14746276E+03</rscale>
<asrwt>0</asrwt>
<pdfrwt beam="1">  1        5 0.61292965E-01 0.14746466E+03</pdfrwt>
<pdfrwt beam="2">  1       -5 0.88071245E-02 0.14746466E+03</pdfrwt>
<totfact> 0.18199611E+02</totfact>
</mgrwt>
</event>
<event>
 8    1  0.3682083E-007  0.1576948E+03  0.7546771E-02  0.1191328E+00
         -5   -1    0    0    0  501 -0.00000000000E+00  0.00000000000E+00  0.88112936522E+02  0.88238197979E+02  0.47000000000E+01 0. -1.
          5   -1    0    0  501    0  0.00000000000E+00 -0.00000000000E+00 -0.33401774121E+03  0.33405080668E+03  0.47000000000E+01 0. -1.
         25    2    1    2    0    0  0.71562084425E+02 -0.64192379829E+02 -0.39535522926E+02  0.16257522925E+03  0.12500341611E+03 0.  0.
         25    2    1    2    0    0 -0.71562084425E+02  0.64192379829E+02 -0.20636928176E+03  0.25971377540E+03  0.12498468356E+03 0.  0.
          5    1    4    4  502    0 -0.39584350912E+02  0.82613754422E+02 -0.20250498855E+03  0.22231129896E+03  0.47000000000E+01 0. -1.
         -5    1    4    4    0  502 -0.31977733513E+02 -0.18421374593E+02 -0.38642932153E+01  0.37402476450E+02  0.47000000000E+01 0. -1.
          5    1    3    3  503    0 -0.28920844254E+02  0.11754063520E+02 -0.58316081159E+01  0.32104063525E+02  0.47000000000E+01 0. -1.
         -5    1    3    3    0  503  0.10048292868E+03 -0.75946443348E+02 -0.33703914810E+02  0.13047116573E+03  0.47000000000E+01 0. -1.
<mgrwt>
<rscale>  0 0.15769108E+03</rscale>
<asrwt>0</asrwt>
<pdfrwt beam="2">  1        5 0.51399523E-01 0.15769479E+03</pdfrwt>
<pdfrwt beam="1">  1       -5 0.13568016E-01 0.15769479E+03</pdfrwt>
<totfact> 0.12717966E+02</totfact>
</mgrwt>
</event>
<event>
 8    1  0.3682083E-007  0.1537946E+03  0.7546771E-02  0.1195891E+00
         -5   -1    0    0    0  501 -0.00000000000E+00  0.00000000000E+00  0.50815588875E+03  0.50817762375E+03  0.47000000000E+01 0.  1.
          5   -1    0    0  501    0  0.00000000000E+00 -0.00000000000E+00 -0.51889469789E+02  0.52101891280E+02  0.47000000000E+01 0.  1.
         25    2    1    2    0    0 -0.61194449815E+02 -0.65444204655E+02  0.31902151194E+03  0.35415103857E+03  0.12498211243E+03 0.  0.
         25    2    1    2    0    0  0.61194449815E+02  0.65444204655E+02  0.13724490703E+03  0.20612847646E+03  0.12500031876E+03 0.  0.
          5    1    4    4  502    0  0.47703439882E+01 -0.25780671073E+02  0.80283718358E+02  0.84587023923E+02  0.47000000000E+01 0.  1.
         -5    1    4    4    0  502  0.56424105827E+02  0.91224875728E+02  0.56961188669E+02  0.12154145254E+03  0.47000000000E+01 0.  1.
          5    1    3    3  503    0 -0.66186085560E+02  0.19006238609E+02  0.14672004304E+03  0.16214405958E+03  0.47000000000E+01 0.  1.
         -5    1    3    3    0  503  0.49916357455E+01 -0.84450443264E+02  0.17230146890E+03  0.19200697898E+03  0.47000000000E+01 0.  1.
<mgrwt>
<rscale>  0 0.15379092E+03</rscale>
<asrwt>0</asrwt>
<pdfrwt beam="2">  1        5 0.80010077E-02 0.15379462E+03</pdfrwt>
<pdfrwt beam="1">  1       -5 0.78195838E-01 0.15379462E+03</pdfrwt>
<totfact> 0.12575445E+02</totfact>
</mgrwt>
</event>
<event>
 8    1  0.3682083E-007  0.1285810E+03  0.7546771E-02  0.1229579E+00
          5   -1    0    0  501    0  0.00000000000E+00  0.00000000000E+00  0.60117022657E+03  0.60118859879E+03  0.47000000000E+01 0.  1.
         -5   -1    0    0    0  501 -0.00000000000E+00 -0.00000000000E+00 -0.33700156905E+02  0.34026321803E+02  0.47000000000E+01 0.  1.
         25    2    1    2    0    0  0.15893067616E+00 -0.30099902227E+02  0.14589718045E+03  0.19447126194E+03  0.12500822006E+03 0.  0.
         25    2    1    2    0    0 -0.15893067616E+00  0.30099902227E+02  0.42157288921E+03  0.44074365866E+03  0.12500096941E+03 0.  0.
          5    1    3    3  502    0  0.59888948481E+02 -0.21203192090E+02  0.99607513510E+02  0.11823708493E+03  0.47000000000E+01 0.  1.
         -5    1    3    3    0  502 -0.59730017805E+02 -0.88967101373E+01  0.46289666943E+02  0.76234177007E+02  0.47000000000E+01 0.  1.
          5    1    4    4  503    0 -0.57548114095E+02  0.39872821044E+02  0.22999319790E+03  0.24045911996E+03  0.47000000000E+01 0.  1.
         -5    1    4    4    0  503  0.57389183418E+02 -0.97729188168E+01  0.19157969132E+03  0.20028453869E+03  0.47000000000E+01 0.  1.
<mgrwt>
<rscale>  0 0.12857928E+03</rscale>
<asrwt>0</asrwt>
<pdfrwt beam="1">  1        5 0.92514222E-01 0.12858104E+03</pdfrwt>
<pdfrwt beam="2">  1       -5 0.52111428E-02 0.12858104E+03</pdfrwt>
<totfact> 0.16502286E+02</totfact>
</mgrwt>
</event>
<event>
 8    1  0.3682083E-007  0.2927863E+03  0.7546771E-02  0.1088905E+00
          5   -1    0    0  501    0  0.00000000000E+00  0.00000000000E+00  0.51030911935E+03  0.51033076264E+03  0.47000000000E+01 0. -1.
         -5   -1    0    0    0  501 -0.00000000000E+00 -0.00000000000E+00 -0.21192022350E+03  0.21197233576E+03  0.47000000000E+01 0. -1.
         25    2    1    2    0    0 -0.25547014955E+03 -0.69469302636E+02 -0.15338831437E+02  0.29318784933E+03  0.12503141176E+03 0.  0.
         25    2    1    2    0    0  0.25547014955E+03  0.69469302636E+02  0.31372772729E+03  0.42911524906E+03  0.12499531506E+03 0.  0.
          5    1    3    3  502    0 -0.11595652157E+03  0.27406707088E+02 -0.29015270365E+02  0.12272334091E+03  0.47000000000E+01 0.  1.
         -5    1    3    3    0  502 -0.13951362798E+03 -0.96876009724E+02  0.13676438928E+02  0.17046450843E+03  0.47000000000E+01 0.  1.
          5    1    4    4  503    0  0.13201111856E+03  0.91936023523E+02  0.21920682300E+03  0.27194280482E+03  0.47000000000E+01 0. -1.
         -5    1    4    4    0  503  0.12345903100E+03 -0.22466720888E+02  0.94520904291E+02  0.15717244424E+03  0.47000000000E+01 0. -1.
<mgrwt>
<rscale>  0 0.29278248E+03</rscale>
<asrwt>0</asrwt>
<pdfrwt beam="1">  1        5 0.78514768E-01 0.29278633E+03</pdfrwt>
<pdfrwt beam="2">  1       -5 0.32608785E-01 0.29278633E+03</pdfrwt>
<totfact> 0.10936383E+01</totfact>
</mgrwt>
</event>
<event>
 8    1  0.3682083E-007  0.1311232E+03  0.7546771E-02  0.1225800E+00
         -5   -1    0    0    0  501 -0.00000000000E+00  0.00000000000E+00  0.18744398758E+03  0.18750290259E+03  0.47000000000E+01 0.  1.
          5   -1    0    0  501    0  0.00000000000E+00 -0.00000000000E+00 -0.11314601290E+03  0.11324358806E+03  0.47000000000E+01 0.  1.
         25    2    1    2    0    0 -0.49681248078E+01 -0.39291928335E+02  0.10273570019E+03  0.16657493562E+03  0.12499618869E+03 0.  0.
         25    2    1    2    0    0  0.49681248078E+01  0.39291928335E+02 -0.28437725517E+02  0.13417155502E+03  0.12499905619E+03 0.  0.
          5    1    3    3  502    0 -0.55499102823E+02 -0.92011938626E+01  0.11015193125E+02  0.57517274468E+02  0.47000000000E+01 0. -1.
         -5    1    3    3    0  502  0.50530978015E+02 -0.30090734472E+02  0.91720507065E+02  0.10905766115E+03  0.47000000000E+01 0. -1.
          5    1    4    4  503    0 -0.42007371492E+02  0.12668726215E+02  0.30851279377E+02  0.53842430506E+02  0.47000000000E+01 0.  1.
         -5    1    4    4    0  503  0.46975496300E+02  0.26623202119E+02 -0.59289004894E+02  0.80329124513E+02  0.47000000000E+01 0.  1.
<mgrwt>
<rscale>  0 0.13112255E+03</rscale>
<asrwt>0</asrwt>
<pdfrwt beam="2">  1        5 0.17419117E-01 0.13112323E+03</pdfrwt>
<pdfrwt beam="1">  1       -5 0.28849574E-01 0.13112323E+03</pdfrwt>
<totfact> 0.24651696E+02</totfact>
</mgrwt>
</event>
<event>
 8    1  0.3682083E-007  0.1365518E+03  0.7546771E-02  0.1218047E+00
          5   -1    0    0  501    0  0.00000000000E+00  0.00000000000E+00  0.35989179057E+02  0.36294779365E+02  0.47000000000E+01 0.  1.
         -5   -1    0    0    0  501 -0.00000000000E+00 -0.00000000000E+00 -0.58877836457E+03  0.58879712345E+03  0.47000000000E+01 0.  1.
         25    2    1    2    0    0 -0.49566071256E+02  0.23777457978E+02 -0.38655337893E+03  0.40996229452E+03  0.12499362079E+03 0.  0.
         25    2    1    2    0    0  0.49566071256E+02 -0.23777457978E+02 -0.16623580658E+03  0.21512960830E+03  0.12499696816E+03 0.  0.
          5    1    4    4  502    0  0.13201024620E+02  0.25114346705E+02  0.85209959933E+01  0.29994913472E+02  0.47000000000E+01 0.  1.
         -5    1    4    4    0  502  0.36365046636E+02 -0.48891804683E+02 -0.17475680258E+03  0.18513469483E+03  0.47000000000E+01 0.  1.
          5    1    3    3  503    0  0.33179897848E+02  0.28195413585E+02 -0.21464267614E+03  0.21906495701E+03  0.47000000000E+01 0.  1.
         -5    1    3    3    0  503 -0.82745969104E+02 -0.44179556072E+01 -0.17191070279E+03  0.19089733751E+03  0.47000000000E+01 0.  1.
<mgrwt>
<rscale>  0 0.13655107E+03</rscale>
<asrwt>0</asrwt>
<pdfrwt beam="1">  1        5 0.55617479E-02 0.13655184E+03</pdfrwt>
<pdfrwt beam="2">  1       -5 0.90606231E-01 0.13655184E+03</pdfrwt>
<totfact> 0.15876148E+02</totfact>
</mgrwt>
</event>
<event>
 8    1  0.3682083E-007  0.1280490E+03  0.7546771E-02  0.1230381E+00
         -5   -1    0    0    0  501 -0.00000000000E+00  0.00000000000E+00  0.42334821098E+02  0.42594918445E+02  0.47000000000E+01 0. -1.
          5   -1    0    0  501    0  0.00000000000E+00 -0.00000000000E+00 -0.40955438206E+03  0.40958134951E+03  0.47000000000E+01 0. -1.
         25    2    1    2    0    0 -0.26515197684E+02  0.82706677611E+01 -0.12922587019E+03  0.18192267969E+03  0.12500030482E+03 0.  0.
         25    2    1    2    0    0  0.26515197684E+02 -0.82706677611E+01 -0.23799369078E+03  0.27025358827E+03  0.12499818187E+03 0.  0.
          5    1    3    3  502    0 -0.54204925728E+02 -0.16836845443E+02 -0.11218822557E+02  0.58048301588E+02  0.47000000000E+01 0.  1.
         -5    1    3    3    0  502  0.27689728044E+02  0.25107513204E+02 -0.11800704763E+03  0.12387437810E+03  0.47000000000E+01 0.  1.
          5    1    4    4  503    0  0.38387211575E+02 -0.93376921306E+01 -0.24972917219E+03  0.25287846874E+03  0.47000000000E+01 0. -1.
         -5    1    4    4    0  503 -0.11872013891E+02  0.10670243696E+01  0.11735481414E+02  0.17375119535E+02  0.47000000000E+01 0. -1.
<mgrwt>
<rscale>  0 0.12804844E+03</rscale>
<asrwt>0</asrwt>
<pdfrwt beam="2">  1        5 0.63030446E-01 0.12804896E+03</pdfrwt>
<pdfrwt beam="1">  1       -5 0.65351316E-02 0.12804896E+03</pdfrwt>
<totfact> 0.27154145E+02</totfact>
</mgrwt>
</event>
<event>
 8    1  0.3682083E-007  0.1417291E+03  0.7546771E-02  0.1211029E+00
         -5   -1    0    0    0  501 -0.00000000000E+00  0.00000000000E+00  0.69677443766E+03  0.69679028910E+03  0.47000000000E+01 0. -1.
          5   -1    0    0  501    0  0.00000000000E+00 -0.00000000000E+00 -0.46345021447E+02  0.46582732991E+02  0.47000000000E+01 0. -1.
         25    2    1    2    0    0 -0.42784651975E+01 -0.66635486391E+02  0.55428067223E+03  0.57210793625E+03  0.12498733460E+03 0.  0.
         25    2    1    2    0    0  0.42784651975E+01  0.66635486391E+02  0.96148743990E+02  0.17126508583E+03  0.12501422057E+03 0.  0.
          5    1    3    3  502    0 -0.31676781740E+01  0.35300091463E+02  0.20997932429E+03  0.21300126120E+03  0.47000000000E+01 0.  1.
         -5    1    3    3    0  502 -0.11107870235E+01 -0.10193557785E+03  0.34430134794E+03  0.35910667506E+03  0.47000000000E+01 0.  1.
          5    1    4    4  503    0  0.54285239461E+02  0.13902176809E+02  0.78031623149E+01  0.56772679041E+02  0.47000000000E+01 0.  1.
         -5    1    4    4    0  503 -0.50006774263E+02  0.52733309582E+02  0.88345581676E+02  0.11449240679E+03  0.47000000000E+01 0.  1.
<mgrwt>
<rscale>  0 0.14172321E+03</rscale>
<asrwt>0</asrwt>
<pdfrwt beam="2">  1        5 0.71495092E-02 0.14172914E+03</pdfrwt>
<pdfrwt beam="1">  1       -5 0.10721556E+00 0.14172914E+03</pdfrwt>
<totfact> 0.69913698E+01</totfact>
</mgrwt>
</event>
<event>
 8    1  0.3682083E-007  0.1270468E+03  0.7546771E-02  0.1231925E+00
         -5   -1    0    0    0  501 -0.00000000000E+00  0.00000000000E+00  0.15761066085E+03  0.15768072303E+03  0.47000000000E+01 0.  1.
          5   -1    0    0  501    0  0.00000000000E+00 -0.00000000000E+00 -0.13909626664E+03  0.13917564943E+03  0.47000000000E+01 0.  1.
         25    2    1    2    0    0 -0.66501474857E+01 -0.21694264281E+02  0.85636722673E+02  0.15321405207E+03  0.12500412760E+03 0.  0.
         25    2    1    2    0    0  0.66501474857E+01  0.21694264281E+02 -0.67122328460E+02  0.14364232039E+03  0.12495136520E+03 0.  0.
          5    1    4    4  502    0  0.51768712415E+02 -0.77925704596E+01 -0.72193353590E+02  0.89301142445E+02  0.47000000000E+01 0.  1.
         -5    1    4    4    0  502 -0.45118564929E+02  0.29486834741E+02  0.50710251302E+01  0.54341177942E+02  0.47000000000E+01 0.  1.
          5    1    3    3  503    0 -0.52478627853E+01  0.39065140129E+02  0.83227775571E+02  0.92209423942E+02  0.47000000000E+01 0. -1.
         -5    1    3    3    0  503 -0.14022847004E+01 -0.60759404410E+02  0.24089471013E+01  0.61004628126E+02  0.47000000000E+01 0. -1.
<mgrwt>
<rscale>  0 0.12703385E+03</rscale>
<asrwt>0</asrwt>
<pdfrwt beam="2">  1        5 0.21410921E-01 0.12704683E+03</pdfrwt>
<pdfrwt beam="1">  1       -5 0.24259290E-01 0.12704683E+03</pdfrwt>
<totfact> 0.23205368E+02</totfact>
</mgrwt>
</event>
<event>
 8    1  0.3682083E-007  0.1280866E+03  0.7546771E-02  0.1230328E+00
         -5   -1    0    0    0  501 -0.00000000000E+00  0.00000000000E+00  0.85235424477E+01  0.97334873430E+01  0.47000000000E+01 0.  1.
          5   -1    0    0  501    0  0.00000000000E+00 -0.00000000000E+00 -0.18901401672E+04  0.18901460107E+04  0.47000000000E+01 0.  1.
         25    2    1    2    0    0  0.23570061603E+02  0.14930875288E+02 -0.72875327994E+03  0.73992400311E+03  0.12501083355E+03 0.  0.
         25    2    1    2    0    0 -0.23570061603E+02 -0.14930875288E+02 -0.11528633448E+04  0.11599554949E+04  0.12499751807E+03 0.  0.
          5    1    4    4  502    0 -0.55824465493E+02 -0.32992789634E+02 -0.10169473117E+04  0.10190234639E+04  0.47000000000E+01 0.  1.
         -5    1    4    4    0  502  0.32254403890E+02  0.18061914346E+02 -0.13591603308E+03  0.14093203102E+03  0.47000000000E+01 0.  1.
          5    1    3    3  503    0  0.43417691502E+02 -0.40706441261E+02 -0.22838986571E+03  0.23606382835E+03  0.47000000000E+01 0. -1.
         -5    1    3    3    0  503 -0.19847629898E+02  0.55637316549E+02 -0.50036341423E+03  0.50386017476E+03  0.47000000000E+01 0. -1.
<mgrwt>
<rscale>  0 0.12808339E+03</rscale>
<asrwt>0</asrwt>
<pdfrwt beam="2">  1        5 0.29088401E+00 0.12808664E+03</pdfrwt>
<pdfrwt beam="1">  1       -5 0.14048379E-02 0.12808664E+03</pdfrwt>
<totfact> 0.45424721E+01</totfact>
</mgrwt>
</event>
<event>
 8    1  0.3682083E-007  0.1315803E+03  0.7546771E-02  0.1225131E+00
          5   -1    0    0  501    0  0.00000000000E+00  0.00000000000E+00  0.91603753080E+03  0.91604958809E+03  0.47000000000E+01 0.  1.
         -5   -1    0    0    0  501 -0.00000000000E+00 -0.00000000000E+00 -0.23790375976E+02  0.24250195651E+02  0.47000000000E+01 0.  1.
         25    2    1    2    0    0  0.27712264913E+02 -0.30336960962E+02  0.22884724073E+03  0.26397677106E+03  0.12499750094E+03 0.  0.
         25    2    1    2    0    0 -0.27712264913E+02  0.30336960962E+02  0.66339991409E+03  0.67632301268E+03  0.12500028254E+03 0.  0.
          5    1    3    3  502    0  0.16232622648E+02  0.44081835282E+02  0.44872290968E+02  0.65133084808E+02  0.47000000000E+01 0. -1.
         -5    1    3    3    0  502  0.11479642265E+02 -0.74418796244E+02  0.18397494977E+03  0.19884368625E+03  0.47000000000E+01 0. -1.
          5    1    4    4  503    0 -0.24772423809E+02  0.25921725964E+02  0.44313452449E+02  0.57195986977E+02  0.47000000000E+01 0.  1.
         -5    1    4    4    0  503 -0.29398411047E+01  0.44152349981E+01  0.61908646164E+03  0.61912702570E+03  0.47000000000E+01 0.  1.
<mgrwt>
<rscale>  0 0.13157962E+03</rscale>
<asrwt>0</asrwt>
<pdfrwt beam="1">  1        5 0.14096515E+00 0.13158029E+03</pdfrwt>
<pdfrwt beam="2">  1       -5 0.36963561E-02 0.13158029E+03</pdfrwt>
<totfact> 0.10154546E+02</totfact>
</mgrwt>
</event>
<event>
 8    1  0.3682083E-007  0.1321057E+03  0.7546771E-02  0.1224368E+00
         -5   -1    0    0    0  501 -0.00000000000E+00  0.00000000000E+00  0.87982885510E+03  0.87984140858E+03  0.47000000000E+01 0. -1.
          5   -1    0    0  501    0  0.00000000000E+00 -0.00000000000E+00 -0.21920530685E+02  0.22418734700E+02  0.47000000000E+01 0. -1.
         25    2    1    2    0    0  0.42152197455E+02  0.69043798163E+01  0.57575776362E+03  0.59071898100E+03  0.12500973539E+03 0.  0.
         25    2    1    2    0    0 -0.42152197455E+02 -0.69043798163E+01  0.28215056079E+03  0.31154116228E+03  0.12499791449E+03 0.  0.
          5    1    3    3  502    0  0.65583754630E+02 -0.11628733074E+02  0.15368074343E+03  0.16755989140E+03  0.47000000000E+01 0. -1.
         -5    1    3    3    0  502 -0.23431557175E+02  0.18533112890E+02  0.42207702019E+03  0.42315908961E+03  0.47000000000E+01 0. -1.
          5    1    4    4  503    0 -0.25944551528E+02 -0.65697405030E+02  0.15840594849E+03  0.17350447631E+03  0.47000000000E+01 0.  1.
         -5    1    4    4    0  503 -0.16207645927E+02  0.58793025214E+02  0.12374461230E+03  0.13803668597E+03  0.47000000000E+01 0.  1.
<mgrwt>
<rscale>  0 0.13210289E+03</rscale>
<asrwt>0</asrwt>
<pdfrwt beam="2">  1        5 0.34116784E-02 0.13210569E+03</pdfrwt>
<pdfrwt beam="1">  1       -5 0.13539757E+00 0.13210569E+03</pdfrwt>
<totfact> 0.12892067E+02</totfact>
</mgrwt>
</event>
<event>
 8    1  0.3682083E-007  0.1295825E+03  0.7546771E-02  0.1228125E+00
         -5   -1    0    0    0  501 -0.00000000000E+00  0.00000000000E+00  0.20208237303E+03  0.20213702157E+03  0.47000000000E+01 0.  1.
          5   -1    0    0  501    0  0.00000000000E+00 -0.00000000000E+00 -0.91271440006E+02  0.91392372552E+02  0.47000000000E+01 0.  1.
         25    2    1    2    0    0 -0.33803103973E+02  0.74207047166E+00  0.99897224455E+02  0.16361870945E+03  0.12509366939E+03 0.  0.
         25    2    1    2    0    0  0.33803103973E+02 -0.74207047166E+00  0.10913708569E+02  0.12991068468E+03  0.12495789872E+03 0.  0.
          5    1    3    3  502    0 -0.49307787003E+02 -0.46706330487E+02  0.89438368705E+02  0.11240129431E+03  0.47000000000E+01 0. -1.
         -5    1    3    3    0  502  0.15504683030E+02  0.47448400958E+02  0.10458855750E+02  0.51217415134E+02  0.47000000000E+01 0. -1.
          5    1    4    4  503    0  0.18812128246E+01 -0.51186551159E+02 -0.27934157169E+02  0.58532120395E+02  0.47000000000E+01 0.  1.
         -5    1    4    4    0  503  0.31921891149E+02  0.50444480687E+02  0.38847865738E+02  0.71378564280E+02  0.47000000000E+01 0.  1.
<mgrwt>
<rscale>  0 0.12954973E+03</rscale>
<asrwt>0</asrwt>
<pdfrwt beam="2">  1        5 0.14055266E-01 0.12958251E+03</pdfrwt>
<pdfrwt beam="1">  1       -5 0.31103102E-01 0.12958251E+03</pdfrwt>
<totfact> 0.31276211E+02</totfact>
</mgrwt>
</event>
<event>
 8    1  0.3682083E-007  0.1289935E+03  0.7546771E-02  0.1228962E+00
         -5   -1    0    0    0  501 -0.00000000000E+00  0.00000000000E+00  0.65492510940E+02  0.65660939601E+02  0.47000000000E+01 0. -1.
          5   -1    0    0  501    0  0.00000000000E+00 -0.00000000000E+00 -0.25543079873E+03  0.25547403575E+03  0.47000000000E+01 0. -1.
         25    2    1    2    0    0 -0.30022192472E+02  0.10483962950E+02 -0.81083726913E+02  0.15234919251E+03  0.12499784065E+03 0.  0.
         25    2    1    2    0    0  0.30022192472E+02 -0.10483962950E+02 -0.10885456088E+03  0.16878578284E+03  0.12501231757E+03 0.  0.
          5    1    4    4  502    0  0.85559160579E+01 -0.65060413841E+02 -0.79012162283E+02  0.10281572320E+03  0.47000000000E+01 0.  1.
         -5    1    4    4    0  502  0.21466276414E+02  0.54576450891E+02 -0.29842398598E+02  0.65970059641E+02  0.47000000000E+01 0.  1.
          5    1    3    3  503    0  0.21119177814E+02 -0.39094330079E+02 -0.65493522146E+02  0.79283527664E+02  0.47000000000E+01 0. -1.
         -5    1    3    3    0  503 -0.51141370286E+02  0.49578293028E+02 -0.15590204767E+02  0.73065664843E+02  0.47000000000E+01 0. -1.
<mgrwt>
<rscale>  0 0.12899000E+03</rscale>
<asrwt>0</asrwt>
<pdfrwt beam="2">  1        5 0.39313327E-01 0.12899351E+03</pdfrwt>
<pdfrwt beam="1">  1       -5 0.10092053E-01 0.12899351E+03</pdfrwt>
<totfact> 0.35104196E+02</totfact>
</mgrwt>
</event>
<event>
 8    1  0.3682083E-007  0.1391469E+03  0.7546771E-02  0.1214482E+00
          5   -1    0    0  501    0  0.00000000000E+00  0.00000000000E+00  0.16308055522E+02  0.16971820023E+02  0.47000000000E+01 0.  1.
         -5   -1    0    0    0  501 -0.00000000000E+00 -0.00000000000E+00 -0.11757399926E+04  0.11757493866E+04  0.47000000000E+01 0.  1.
         25    2    1    2    0    0  0.59990883281E+02 -0.11727932803E+02 -0.64203866515E+03  0.65694359325E+03  0.12499914673E+03 0.  0.
         25    2    1    2    0    0 -0.59990883281E+02  0.11727932803E+02 -0.51739327190E+03  0.53577761339E+03  0.12500161085E+03 0.  0.
          5    1    3    3  502    0  0.63293121443E+02  0.37161768416E+02 -0.21832264757E+03  0.23037770009E+03  0.47000000000E+01 0.  1.
         -5    1    3    3    0  502 -0.33022381618E+01 -0.48889701219E+02 -0.42371601757E+03  0.42656589316E+03  0.47000000000E+01 0.  1.
          5    1    4    4  503    0 -0.37094134245E+02 -0.27071678493E+02 -0.46164407729E+03  0.46394632735E+03  0.47000000000E+01 0.  1.
         -5    1    4    4    0  503 -0.22896749036E+02  0.38799611296E+02 -0.55749194611E+02  0.71831286032E+02  0.47000000000E+01 0.  1.
<mgrwt>
<rscale>  0 0.13914632E+03</rscale>
<asrwt>0</asrwt>
<pdfrwt beam="1">  1        5 0.25607140E-02 0.13914688E+03</pdfrwt>
<pdfrwt beam="2">  1       -5 0.18093479E+00 0.13914688E+03</pdfrwt>
<totfact> 0.92966038E+01</totfact>
</mgrwt>
</event>
<event>
 8    1  0.3682083E-007  0.1346223E+03  0.7546771E-02  0.1220755E+00
         -5   -1    0    0    0  501 -0.00000000000E+00  0.00000000000E+00  0.13035636253E+04  0.13035720982E+04  0.47000000000E+01 0. -1.
          5   -1    0    0  501    0  0.00000000000E+00 -0.00000000000E+00 -0.13564982250E+02  0.14356139573E+02  0.47000000000E+01 0. -1.
         25    2    1    2    0    0  0.38964547446E+02 -0.31275747691E+02  0.69047450548E+03  0.70347580014E+03  0.12500700104E+03 0.  0.
         25    2    1    2    0    0 -0.38964547446E+02  0.31275747691E+02  0.59952413759E+03  0.61445243765E+03  0.12500479286E+03 0.  0.
          5    1    3    3  502    0  0.72318399587E+02 -0.32510733645E+02  0.62308202671E+03  0.62812435133E+03  0.47000000000E+01 0.  1.
         -5    1    3    3    0  502 -0.33353852141E+02  0.12349859539E+01  0.67392478770E+02  0.75351448810E+02  0.47000000000E+01 0.  1.
          5    1    4    4  503    0  0.27295540104E+01 -0.21769878985E+02  0.44750185326E+03  0.44806403200E+03  0.47000000000E+01 0. -1.
         -5    1    4    4    0  503 -0.41694101456E+02  0.53045626676E+02  0.15202228432E+03  0.16638840566E+03  0.47000000000E+01 0. -1.
<mgrwt>
<rscale>  0 0.13462177E+03</rscale>
<asrwt>0</asrwt>
<pdfrwt beam="2">  1        5 0.21484302E-02 0.13462228E+03</pdfrwt>
<pdfrwt beam="1">  1       -5 0.20060977E+00 0.13462228E+03</pdfrwt>
<totfact> 0.89109515E+01</totfact>
</mgrwt>
</event>
<event>
 8    1  0.3682083E-007  0.1534157E+03  0.7546771E-02  0.1196340E+00
          5   -1    0    0  501    0  0.00000000000E+00  0.00000000000E+00  0.72727072980E+03  0.72728591656E+03  0.47000000000E+01 0. -1.
         -5   -1    0    0    0  501 -0.00000000000E+00 -0.00000000000E+00 -0.41722480925E+02  0.41986371771E+02  0.47000000000E+01 0. -1.
         25    2    1    2    0    0 -0.61135981454E+02 -0.64580515417E+02  0.15947653251E+03  0.22128969139E+03  0.12501244696E+03 0.  0.
         25    2    1    2    0    0  0.61135981454E+02  0.64580515417E+02  0.52607171637E+03  0.54798259694E+03  0.12500089835E+03 0.  0.
          5    1    3    3  502    0 -0.31594905796E+02  0.48380800511E+01 -0.11545369885E+02  0.34307880387E+02  0.47000000000E+01 0.  1.
         -5    1    3    3    0  502 -0.29541075658E+02 -0.69418595469E+02  0.17102190239E+03  0.18698181100E+03  0.47000000000E+01 0.  1.
          5    1    4    4  503    0  0.86153846384E+01 -0.28349200196E+02  0.38327748122E+02  0.48672459156E+02  0.47000000000E+01 0. -1.
         -5    1    4    4    0  503  0.52520596816E+02  0.92929715613E+02  0.48774396825E+03  0.49931013778E+03  0.47000000000E+01 0. -1.
<mgrwt>
<rscale>  0 0.15341330E+03</rscale>
<asrwt>0</asrwt>
<pdfrwt beam="1">  1        5 0.11190926E+00 0.15341565E+03</pdfrwt>
<pdfrwt beam="2">  1       -5 0.64403112E-02 0.15341565E+03</pdfrwt>
<totfact> 0.76865410E+01</totfact>
</mgrwt>
</event>
<event>
 8    1  0.3682083E-007  0.1332118E+03  0.7546771E-02  0.1222768E+00
         -5   -1    0    0    0  501 -0.00000000000E+00  0.00000000000E+00  0.18769535893E+03  0.18775419506E+03  0.47000000000E+01 0.  1.
          5   -1    0    0  501    0  0.00000000000E+00 -0.00000000000E+00 -0.94410007612E+02  0.94526924933E+02  0.47000000000E+01 0.  1.
         25    2    1    2    0    0 -0.57252083408E+01 -0.45681564082E+02  0.46089919748E+02  0.14095975981E+03  0.12500315946E+03 0.  0.
         25    2    1    2    0    0  0.57252083408E+01  0.45681564082E+02  0.47195431569E+02  0.14132136019E+03  0.12499893911E+03 0.  0.
          5    1    4    4  502    0  0.22561402100E+02  0.13620389231E+02  0.84787466878E+02  0.88913083442E+02  0.47000000000E+01 0.  1.
         -5    1    4    4    0  502 -0.16836193759E+02  0.32061174851E+02 -0.37592035309E+02  0.52408276749E+02  0.47000000000E+01 0.  1.
          5    1    3    3  503    0 -0.33520005088E+02 -0.75212740977E+02  0.43790142710E+01  0.82594266825E+02  0.47000000000E+01 0. -1.
         -5    1    3    3    0  503  0.27794796747E+02  0.29531176895E+02  0.41710905477E+02  0.58365492980E+02  0.47000000000E+01 0. -1.
<mgrwt>
<rscale>  0 0.13321077E+03</rscale>
<asrwt>0</asrwt>
<pdfrwt beam="2">  1        5 0.14538136E-01 0.13321176E+03</pdfrwt>
<pdfrwt beam="1">  1       -5 0.28889728E-01 0.13321176E+03</pdfrwt>
<totfact> 0.34355624E+02</totfact>
</mgrwt>
</event>
<event>
 8    1  0.3682083E-007  0.1276209E+03  0.7546771E-02  0.1231032E+00
          5   -1    0    0  501    0  0.00000000000E+00  0.00000000000E+00  0.15402154528E+03  0.15409323935E+03  0.47000000000E+01 0.  1.
         -5   -1    0    0    0  501 -0.00000000000E+00 -0.00000000000E+00 -0.10746062653E+03  0.10756335926E+03  0.47000000000E+01 0.  1.
         25    2    1    2    0    0  0.25531260969E+02  0.31425298250E+01  0.60337600521E+01  0.12776341250E+03  0.12500145013E+03 0.  0.
         25    2    1    2    0    0 -0.25531260969E+02 -0.31425298250E+01  0.40527158698E+02  0.13389318610E+03  0.12499285544E+03 0.  0.
          5    1    4    4  502    0 -0.70430385509E+02  0.23505724582E+02  0.16396811639E+02  0.76183355945E+02  0.47000000000E+01 0. -1.
         -5    1    4    4    0  502  0.44899124541E+02 -0.26648254407E+02  0.24130347058E+02  0.57709830156E+02  0.47000000000E+01 0. -1.
          5    1    3    3  503    0 -0.50370595328E+02 -0.49839680261E+01  0.67454397681E+01  0.51279896340E+02  0.47000000000E+01 0. -1.
         -5    1    3    3    0  503  0.75901856297E+02  0.81264978511E+01 -0.71167971598E+00  0.76483516163E+02  0.47000000000E+01 0. -1.
<mgrwt>
<rscale>  0 0.12761875E+03</rscale>
<asrwt>0</asrwt>
<pdfrwt beam="1">  1        5 0.23709040E-01 0.12762086E+03</pdfrwt>
<pdfrwt beam="2">  1       -5 0.16545822E-01 0.12762086E+03</pdfrwt>
<totfact> 0.39130171E+02</totfact>
</mgrwt>
</event>
<event>
 8    1  0.3682083E-007  0.2109889E+03  0.7546771E-02  0.1140787E+00
          5   -1    0    0  501    0  0.00000000000E+00  0.00000000000E+00  0.18917890515E+03  0.18923728003E+03  0.47000000000E+01 0. -1.
         -5   -1    0    0    0  501 -0.00000000000E+00 -0.00000000000E+00 -0.23667521481E+03  0.23672187753E+03  0.47000000000E+01 0. -1.
         25    2    1    2    0    0 -0.17245531033E+02  0.16909274720E+03 -0.40656824202E+02  0.21485947644E+03  0.12498740643E+03 0.  0.
         25    2    1    2    0    0  0.17245531033E+02 -0.16909274720E+03 -0.68394854513E+01  0.21109968112E+03  0.12500612510E+03 0.  0.
          5    1    4    4  502    0  0.35015026386E+02 -0.12275277933E+02  0.31183014551E+02  0.48695019434E+02  0.47000000000E+01 0. -1.
         -5    1    4    4    0  502 -0.17769495353E+02 -0.15681746927E+03 -0.38022500002E+02  0.16240466169E+03  0.47000000000E+01 0. -1.
          5    1    3    3  503    0 -0.38245178182E+01  0.10237092485E+03  0.39238835031E+02  0.10980077125E+03  0.47000000000E+01 0.  1.
         -5    1    3    3    0  503 -0.13421013215E+02  0.66721822348E+02 -0.79895659233E+02  0.10505870520E+03  0.47000000000E+01 0.  1.
<mgrwt>
<rscale>  0 0.21098608E+03</rscale>
<asrwt>0</asrwt>
<pdfrwt beam="1">  1        5 0.29112527E-01 0.21098885E+03</pdfrwt>
<pdfrwt beam="2">  1       -5 0.36419651E-01 0.21098885E+03</pdfrwt>
<totfact> 0.67542371E+01</totfact>
</mgrwt>
</event>
<event>
 8    1  0.3682083E-007  0.1256029E+03  0.7546771E-02  0.1234132E+00
         -5   -1    0    0    0  501 -0.00000000000E+00  0.00000000000E+00  0.13800832681E+03  0.13808833503E+03  0.47000000000E+01 0.  1.
          5   -1    0    0  501    0  0.00000000000E+00 -0.00000000000E+00 -0.12179564423E+03  0.12188629518E+03  0.47000000000E+01 0.  1.
         25    2    1    2    0    0  0.81608797162E+01  0.91503790586E+01  0.40659689969E+02  0.13201473396E+03  0.12499740077E+03 0.  0.
         25    2    1    2    0    0 -0.81608797162E+01 -0.91503790586E+01 -0.24447007381E+02  0.12795989625E+03  0.12500299790E+03 0.  0.
          5    1    3    3  502    0 -0.57241725397E+02 -0.61721745289E+01  0.24621016639E+02  0.62793274522E+02  0.47000000000E+01 0. -1.
         -5    1    3    3    0  502  0.65402605114E+02  0.15322553588E+02  0.16038673330E+02  0.69221459435E+02  0.47000000000E+01 0. -1.
          5    1    4    4  503    0  0.17778049334E+02  0.91863120470E+01 -0.69589174727E+02  0.72561633156E+02  0.47000000000E+01 0.  1.
         -5    1    4    4    0  503 -0.25938929050E+02 -0.18336691106E+02  0.45142167345E+02  0.55398263092E+02  0.47000000000E+01 0.  1.
<mgrwt>
<rscale>  0 0.12560147E+03</rscale>
<asrwt>0</asrwt>
<pdfrwt beam="2">  1        5 0.18750919E-01 0.12560286E+03</pdfrwt>
<pdfrwt beam="1">  1       -5 0.21245178E-01 0.12560286E+03</pdfrwt>
<totfact> 0.38028070E+02</totfact>
</mgrwt>
</event>
<event>
 8    1  0.3682083E-007  0.1278390E+03  0.7546771E-02  0.1230699E+00
         -5   -1    0    0    0  501 -0.00000000000E+00  0.00000000000E+00  0.32516231202E+02  0.32854151817E+02  0.47000000000E+01 0.  1.
          5   -1    0    0  501    0  0.00000000000E+00 -0.00000000000E+00 -0.63512504612E+03  0.63514243616E+03  0.47000000000E+01 0.  1.
         25    2    1    2    0    0  0.14303994243E+02 -0.22619314560E+02 -0.14708341501E+03  0.19487270099E+03  0.12500240388E+03 0.  0.
         25    2    1    2    0    0 -0.14303994243E+02  0.22619314560E+02 -0.45552539991E+03  0.47312388699E+03  0.12500633920E+03 0.  0.
          5    1    3    3  502    0  0.28286218581E+02 -0.39825623050E+02 -0.16097576935E+03  0.16828986520E+03  0.47000000000E+01 0. -1.
         -5    1    3    3    0  502 -0.13982224338E+02  0.17206308490E+02  0.13892354334E+02  0.26582835782E+02  0.47000000000E+01 0. -1.
          5    1    4    4  503    0 -0.33993810621E+02  0.58003125920E+02 -0.39124471911E+03  0.39700687904E+03  0.47000000000E+01 0. -1.
         -5    1    4    4    0  503  0.19689816378E+02 -0.35383811360E+02 -0.64280680800E+02  0.76117007952E+02  0.47000000000E+01 0. -1.
<mgrwt>
<rscale>  0 0.12783809E+03</rscale>
<asrwt>0</asrwt>
<pdfrwt beam="2">  1        5 0.97738868E-01 0.12783905E+03</pdfrwt>
<pdfrwt beam="1">  1       -5 0.50298292E-02 0.12783905E+03</pdfrwt>
<totfact> 0.15311550E+02</totfact>
</mgrwt>
</event>
<event>
 8    1  0.3682083E-007  0.1314322E+03  0.7546771E-02  0.1225347E+00
         -5   -1    0    0    0  501 -0.00000000000E+00  0.00000000000E+00  0.80277196230E+03  0.80278572076E+03  0.47000000000E+01 0.  1.
          5   -1    0    0  501    0  0.00000000000E+00 -0.00000000000E+00 -0.21715449552E+02  0.22218252615E+02  0.47000000000E+01 0.  1.
         25    2    1    2    0    0 -0.36502838798E+02 -0.17822156599E+02  0.45037361598E+03  0.46915907819E+03  0.12499504060E+03 0.  0.
         25    2    1    2    0    0  0.36502838798E+02  0.17822156599E+02  0.33068289677E+03  0.35584489518E+03  0.12499729879E+03 0.  0.
          5    1    3    3  502    0 -0.10123930284E+02  0.42345675478E+02  0.66156115722E+02  0.79337077357E+02  0.47000000000E+01 0.  1.
         -5    1    3    3    0  502 -0.26378908515E+02 -0.60167832077E+02  0.38421750026E+03  0.38982200084E+03  0.47000000000E+01 0.  1.
          5    1    4    4  503    0  0.19516905093E+02 -0.53128341158E+02  0.17192782494E+03  0.18106572621E+03  0.47000000000E+01 0.  1.
         -5    1    4    4    0  503  0.16985933705E+02  0.70950497757E+02  0.15875507183E+03  0.17477916897E+03  0.47000000000E+01 0.  1.
<mgrwt>
<rscale>  0 0.13143162E+03</rscale>
<asrwt>0</asrwt>
<pdfrwt beam="2">  1        5 0.33805733E-02 0.13143215E+03</pdfrwt>
<pdfrwt beam="1">  1       -5 0.12354314E+00 0.13143215E+03</pdfrwt>
<totfact> 0.16570010E+02</totfact>
</mgrwt>
</event>
<event>
 8    1  0.3682083E-007  0.1254202E+03  0.7546771E-02  0.1234424E+00
         -5   -1    0    0    0  501 -0.00000000000E+00  0.00000000000E+00  0.10319680561E+03  0.10330377867E+03  0.47000000000E+01 0.  1.
          5   -1    0    0  501    0  0.00000000000E+00 -0.00000000000E+00 -0.15305584106E+03  0.15312798726E+03  0.47000000000E+01 0.  1.
         25    2    1    2    0    0  0.89964305214E+01 -0.41645115165E+01 -0.15215245318E+02  0.12631484213E+03  0.12500262691E+03 0.  0.
         25    2    1    2    0    0 -0.89964305214E+01  0.41645115165E+01 -0.34643790137E+02  0.13011692380E+03  0.12502776790E+03 0.  0.
          5    1    4    4  502    0  0.41099255474E+02  0.43725462444E+02 -0.25855012900E+02  0.65510583561E+02  0.47000000000E+01 0. -1.
         -5    1    4    4    0  502 -0.50095685996E+02 -0.39560950927E+02 -0.87887772373E+01  0.64606340238E+02  0.47000000000E+01 0. -1.
          5    1    3    3  503    0  0.31689850674E+02  0.23313074277E+02  0.42637249386E+02  0.58204562563E+02  0.47000000000E+01 0. -1.
         -5    1    3    3    0  503 -0.22693420153E+02 -0.27477585793E+02 -0.57852494705E+02  0.68110279568E+02  0.47000000000E+01 0. -1.
<mgrwt>
<rscale>  0 0.12541391E+03</rscale>
<asrwt>0</asrwt>
<pdfrwt beam="2">  1        5 0.23560831E-01 0.12542018E+03</pdfrwt>
<pdfrwt beam="1">  1       -5 0.15890210E-01 0.12542018E+03</pdfrwt>
<totfact> 0.42350710E+02</totfact>
</mgrwt>
</event>
<event>
 8    1  0.3682083E-007  0.1258295E+03  0.7546771E-02  0.1233787E+00
          5   -1    0    0  501    0  0.00000000000E+00  0.00000000000E+00  0.20130950127E+03  0.20136435956E+03  0.47000000000E+01 0. -1.
         -5   -1    0    0    0  501 -0.00000000000E+00 -0.00000000000E+00 -0.98354430794E+02  0.98466664699E+02  0.47000000000E+01 0. -1.
         25    2    1    2    0    0 -0.40829332681E+01  0.13852393391E+02 -0.15811696915E+02  0.12681909405E+03  0.12499805483E+03 0.  0.
         25    2    1    2    0    0  0.40829332681E+01 -0.13852393391E+02  0.11876676739E+03  0.17301193021E+03  0.12497609296E+03 0.  0.
          5    1    3    3  502    0  0.22511192430E+02 -0.31279131378E+02  0.36032633382E+02  0.52967711984E+02  0.47000000000E+01 0. -1.
         -5    1    3    3    0  502 -0.26594125698E+02  0.45131524769E+02 -0.51844330297E+02  0.73851382069E+02  0.47000000000E+01 0. -1.
          5    1    4    4  503    0 -0.43916938900E+02 -0.46553236120E+02  0.81948679656E+02  0.10408447249E+03  0.47000000000E+01 0. -1.
         -5    1    4    4    0  503  0.47999872168E+02  0.32700842729E+02  0.36818087735E+02  0.68927457720E+02  0.47000000000E+01 0. -1.
<mgrwt>
<rscale>  0 0.12582408E+03</rscale>
<asrwt>0</asrwt>
<pdfrwt beam="1">  1        5 0.30983546E-01 0.12582954E+03</pdfrwt>
<pdfrwt beam="2">  1       -5 0.15144304E-01 0.12582954E+03</pdfrwt>
<totfact> 0.27252980E+02</totfact>
</mgrwt>
</event>
<event>
 8    1  0.3682083E-007  0.1327922E+03  0.7546771E-02  0.1223371E+00
          5   -1    0    0  501    0  0.00000000000E+00  0.00000000000E+00  0.11337515642E+02  0.12273111298E+02  0.47000000000E+01 0.  1.
         -5   -1    0    0    0  501 -0.00000000000E+00 -0.00000000000E+00 -0.14995474827E+04  0.14995548483E+04  0.47000000000E+01 0.  1.
         25    2    1    2    0    0 -0.44448820551E+02  0.57536342072E+01 -0.79496168642E+03  0.80597603718E+03  0.12499795067E+03 0.  0.
         25    2    1    2    0    0  0.44448820551E+02 -0.57536342072E+01 -0.69324828067E+03  0.70585192239E+03  0.12499982294E+03 0.  0.
          5    1    3    3  502    0 -0.31252023183E+02  0.42947657852E+02 -0.71191056149E+03  0.71390470501E+03  0.47000000000E+01 0. -1.
         -5    1    3    3    0  502 -0.13196797368E+02 -0.37194023644E+02 -0.83051124927E+02  0.92071332169E+02  0.47000000000E+01 0. -1.
          5    1    4    4  503    0 -0.17524354302E+02  0.47070562067E+02 -0.22875999611E+03  0.23425619869E+03  0.47000000000E+01 0.  1.
         -5    1    4    4    0  503  0.61973174852E+02 -0.52824196274E+02 -0.46448828456E+03  0.47159572370E+03  0.47000000000E+01 0.  1.
<mgrwt>
<rscale>  0 0.13279172E+03</rscale>
<asrwt>0</asrwt>
<pdfrwt beam="1">  1        5 0.18167698E-02 0.13279216E+03</pdfrwt>
<pdfrwt beam="2">  1       -5 0.23077200E+00 0.13279216E+03</pdfrwt>
<totfact> 0.73390313E+01</totfact>
</mgrwt>
</event>
<event>
 8    1  0.3682083E-007  0.1785979E+03  0.7546771E-02  0.1169169E+00
         -5   -1    0    0    0  501 -0.00000000000E+00  0.00000000000E+00  0.15918664532E+03  0.15925601417E+03  0.47000000000E+01 0.  1.
          5   -1    0    0  501    0  0.00000000000E+00 -0.00000000000E+00 -0.20158500422E+03  0.20163978756E+03  0.47000000000E+01 0.  1.
         25    2    1    2    0    0 -0.11742276975E+03 -0.49824544284E+02 -0.64001531593E+01  0.17870613017E+03  0.12499730769E+03 0.  0.
         25    2    1    2    0    0  0.11742276975E+03  0.49824544284E+02 -0.35998205744E+02  0.18218967156E+03  0.12500645397E+03 0.  0.
          5    1    3    3  502    0  0.15953956087E+02  0.83944573190E+01  0.23574713947E+02  0.30047508485E+02  0.47000000000E+01 0.  1.
         -5    1    3    3    0  502 -0.13337672584E+03 -0.58219001603E+02 -0.29974867106E+02  0.14865862169E+03  0.47000000000E+01 0.  1.
          5    1    4    4  503    0  0.59534179059E+02 -0.28630204068E+02  0.20596808897E+02  0.69356510855E+02  0.47000000000E+01 0. -1.
         -5    1    4    4    0  503  0.57888590696E+02  0.78454748352E+02 -0.56595014642E+02  0.11283316070E+03  0.47000000000E+01 0. -1.
<mgrwt>
<rscale>  0 0.17859629E+03</rscale>
<asrwt>0</asrwt>
<pdfrwt beam="2">  1        5 0.31022628E-01 0.17859789E+03</pdfrwt>
<pdfrwt beam="1">  1       -5 0.24499803E-01 0.17859789E+03</pdfrwt>
<totfact> 0.12441288E+02</totfact>
</mgrwt>
</event>
<event>
 8    1  0.3682083E-007  0.1458214E+03  0.7546771E-02  0.1205704E+00
          5   -1    0    0  501    0  0.00000000000E+00  0.00000000000E+00  0.24212853277E+03  0.24217414474E+03  0.47000000000E+01 0. -1.
         -5   -1    0    0    0  501 -0.00000000000E+00 -0.00000000000E+00 -0.97796921584E+02  0.97909794563E+02  0.47000000000E+01 0. -1.
         25    2    1    2    0    0  0.20816057832E+02  0.72150458707E+02  0.17584251343E+02  0.14687736866E+03  0.12499903429E+03 0.  0.
         25    2    1    2    0    0 -0.20816057832E+02 -0.72150458707E+02  0.12674735984E+03  0.19320657064E+03  0.12499955503E+03 0.  0.
          5    1    3    3  502    0  0.15724177476E+02  0.98604481941E+02  0.43670762980E+02  0.10908400046E+03  0.47000000000E+01 0.  1.
         -5    1    3    3    0  502  0.50918803558E+01 -0.26454023234E+02 -0.26086511637E+02  0.37793368204E+02  0.47000000000E+01 0.  1.
          5    1    4    4  503    0  0.43189324191E+02  0.61502048295E+01  0.47272825322E+02  0.64497695753E+02  0.47000000000E+01 0. -1.
         -5    1    4    4    0  503 -0.64005382023E+02 -0.78300663537E+02  0.79474534519E+02  0.12870887489E+03  0.47000000000E+01 0. -1.
<mgrwt>
<rscale>  0 0.14582131E+03</rscale>
<asrwt>0</asrwt>
<pdfrwt beam="1">  1        5 0.37262735E-01 0.14582142E+03</pdfrwt>
<pdfrwt beam="2">  1       -5 0.15057871E-01 0.14582142E+03</pdfrwt>
<totfact> 0.20047578E+02</totfact>
</mgrwt>
</event>
<event>
 8    1  0.3682083E-007  0.1992450E+03  0.7546771E-02  0.1150379E+00
          5   -1    0    0  501    0  0.00000000000E+00  0.00000000000E+00  0.87817487510E+03  0.87818745223E+03  0.47000000000E+01 0. -1.
         -5   -1    0    0    0  501 -0.00000000000E+00 -0.00000000000E+00 -0.45631722465E+02  0.45873130426E+02  0.47000000000E+01 0. -1.
         25    2    1    2    0    0 -0.15342604827E+03  0.23078114010E+02  0.36511229729E+03  0.41593641604E+03  0.12499584362E+03 0.  0.
         25    2    1    2    0    0  0.15342604827E+03 -0.23078114010E+02  0.46743085534E+03  0.50812416662E+03  0.12500565003E+03 0.  0.
          5    1    4    4  502    0  0.75973595438E+02  0.37344177645E+02  0.11923780579E+03  0.14630898516E+03  0.47000000000E+01 0. -1.
         -5    1    4    4    0  502  0.77452452828E+02 -0.60422291654E+02  0.34819304955E+03  0.36181518146E+03  0.47000000000E+01 0. -1.
          5    1    3    3  503    0 -0.13246652147E+03  0.68108013397E+01  0.36564276490E+03  0.38898648801E+03  0.47000000000E+01 0. -1.
         -5    1    3    3    0  503 -0.20959526798E+02  0.16267312670E+02 -0.53046761384E+00  0.26949928033E+02  0.47000000000E+01 0. -1.
<mgrwt>
<rscale>  0 0.19924345E+03</rscale>
<asrwt>0</asrwt>
<pdfrwt beam="1">  1        5 0.13512337E+00 0.19924499E+03</pdfrwt>
<pdfrwt beam="2">  1       -5 0.70398023E-02 0.19924499E+03</pdfrwt>
<totfact> 0.43663347E+01</totfact>
</mgrwt>
</event>
<event>
 8    1  0.3682083E-007  0.1263576E+03  0.7546771E-02  0.1232968E+00
          5   -1    0    0  501    0  0.00000000000E+00  0.00000000000E+00  0.33260930655E+02  0.33591360616E+02  0.47000000000E+01 0.  1.
         -5   -1    0    0    0  501 -0.00000000000E+00 -0.00000000000E+00 -0.60860156558E+03  0.60861971347E+03  0.47000000000E+01 0.  1.
         25    2    1    2    0    0  0.12494313627E+02 -0.13602315838E+02 -0.43680422172E+03  0.45471328181E+03  0.12500043870E+03 0.  0.
         25    2    1    2    0    0 -0.12494313627E+02  0.13602315838E+02 -0.13853641321E+03  0.18749779228E+03  0.12498781323E+03 0.  0.
          5    1    3    3  502    0  0.51190979694E+02  0.35923372133E+02 -0.24030406153E+03  0.24835284789E+03  0.47000000000E+01 0.  1.
         -5    1    3    3    0  502 -0.38696666067E+02 -0.49525687971E+02 -0.19650016019E+03  0.20636043392E+03  0.47000000000E+01 0.  1.
          5    1    4    4  503    0  0.55169990616E+02  0.18152594969E+02 -0.60309299348E+02  0.83860277584E+02  0.47000000000E+01 0.  1.
         -5    1    4    4    0  503 -0.67664304244E+02 -0.45502791306E+01 -0.78227113858E+02  0.10363751469E+03  0.47000000000E+01 0.  1.
<mgrwt>
<rscale>  0 0.12635447E+03</rscale>
<asrwt>0</asrwt>
<pdfrwt beam="1">  1        5 0.51438804E-02 0.12635759E+03</pdfrwt>
<pdfrwt beam="2">  1       -5 0.93657815E-01 0.12635759E+03</pdfrwt>
<totfact> 0.16276061E+02</totfact>
</mgrwt>
</event>
<event>
 8    1  0.3682083E-007  0.1267140E+03  0.7546771E-02  0.1232418E+00
          5   -1    0    0  501    0  0.00000000000E+00  0.00000000000E+00  0.25540724742E+03  0.25545048842E+03  0.47000000000E+01 0. -1.
         -5   -1    0    0    0  501 -0.00000000000E+00 -0.00000000000E+00 -0.64327160682E+02  0.64498632554E+02  0.47000000000E+01 0. -1.
         25    2    1    2    0    0  0.20683087147E+02  0.15509256371E+01  0.70337080128E+02  0.14491967565E+03  0.12499684831E+03 0.  0.
         25    2    1    2    0    0 -0.20683087147E+02 -0.15509256371E+01  0.12074300661E+03  0.17502944532E+03  0.12500495038E+03 0.  0.
          5    1    4    4  502    0 -0.11191197093E+02 -0.62909558860E+02  0.67982569943E+02  0.93416140491E+02  0.47000000000E+01 0. -1.
         -5    1    4    4    0  502 -0.94918900542E+01  0.61358633222E+02  0.52760436663E+02  0.81613304826E+02  0.47000000000E+01 0. -1.
          5    1    3    3  503    0  0.13942194962E+02 -0.48151246555E+02 -0.87964780497E+01  0.51111597228E+02  0.47000000000E+01 0.  1.
         -5    1    3    3    0  503  0.67408921853E+01  0.49702172192E+02  0.79133558178E+02  0.93808078426E+02  0.47000000000E+01 0.  1.
<mgrwt>
<rscale>  0 0.12671198E+03</rscale>
<asrwt>0</asrwt>
<pdfrwt beam="1">  1        5 0.39309940E-01 0.12671398E+03</pdfrwt>
<pdfrwt beam="2">  1       -5 0.99130024E-02 0.12671398E+03</pdfrwt>
<totfact> 0.35986107E+02</totfact>
</mgrwt>
</event>
<event>
 8    1  0.3682083E-007  0.1378761E+03  0.7546771E-02  0.1216216E+00
         -5   -1    0    0    0  501 -0.00000000000E+00  0.00000000000E+00  0.17457876888E+02  0.18079476360E+02  0.47000000000E+01 0. -1.
          5   -1    0    0  501    0  0.00000000000E+00 -0.00000000000E+00 -0.10693167409E+04  0.10693270699E+04  0.47000000000E+01 0. -1.
         25    2    1    2    0    0 -0.87710693409E+01 -0.57523063628E+02 -0.53145967644E+03  0.54905244249E+03  0.12499344950E+03 0.  0.
         25    2    1    2    0    0  0.87710693409E+01  0.57523063628E+02 -0.52039918762E+03  0.53835410379E+03  0.12499596829E+03 0.  0.
          5    1    4    4  502    0  0.49013145189E+02  0.37891161307E+02 -0.45337778735E+03  0.45761505282E+03  0.47000000000E+01 0.  1.
         -5    1    4    4    0  502 -0.40242075848E+02  0.19631902321E+02 -0.67021400263E+02  0.80739050964E+02  0.47000000000E+01 0.  1.
          5    1    3    3  503    0  0.10030046456E+02 -0.79641699449E+02 -0.49823871587E+03  0.50468535754E+03  0.47000000000E+01 0. -1.
         -5    1    3    3    0  503 -0.18801115797E+02  0.22118635822E+02 -0.33220960563E+02  0.44367084945E+02  0.47000000000E+01 0. -1.
<mgrwt>
<rscale>  0 0.13787556E+03</rscale>
<asrwt>0</asrwt>
<pdfrwt beam="2">  1        5 0.16455883E+00 0.13787613E+03</pdfrwt>
<pdfrwt beam="1">  1       -5 0.27344379E-02 0.13787613E+03</pdfrwt>
<totfact> 0.10975158E+02</totfact>
</mgrwt>
</event>
<event>
 8    1  0.3682083E-007  0.1462595E+03  0.7546771E-02  0.1205147E+00
         -5   -1    0    0    0  501 -0.00000000000E+00  0.00000000000E+00  0.27968977501E+03  0.27972926241E+03  0.47000000000E+01 0.  1.
          5   -1    0    0  501    0  0.00000000000E+00 -0.00000000000E+00 -0.76693654443E+02  0.76837534004E+02  0.47000000000E+01 0.  1.
         25    2    1    2    0    0 -0.34510443988E+02  0.67643842735E+02  0.89852425777E+02  0.17165458541E+03  0.12500071228E+03 0.  0.
         25    2    1    2    0    0  0.34510443988E+02 -0.67643842735E+02  0.11314369479E+03  0.18491221100E+03  0.12499747958E+03 0.  0.
          5    1    3    3  502    0 -0.11151585471E+02 -0.80354128426E+01  0.91152190952E+02  0.92302424851E+02  0.47000000000E+01 0. -1.
         -5    1    3    3    0  502 -0.23358858517E+02  0.75679255577E+02 -0.12997651752E+01  0.79352160559E+02  0.47000000000E+01 0. -1.
          5    1    4    4  503    0  0.62717208943E+01  0.24558748505E+02  0.78033971706E+02  0.82181855366E+02  0.47000000000E+01 0.  1.
         -5    1    4    4    0  503  0.28238723094E+02 -0.92202591240E+02  0.35109723086E+02  0.10273035563E+03  0.47000000000E+01 0.  1.
<mgrwt>
<rscale>  0 0.14625880E+03</rscale>
<asrwt>0</asrwt>
<pdfrwt beam="2">  1        5 0.11813129E-01 0.14625949E+03</pdfrwt>
<pdfrwt beam="1">  1       -5 0.43043301E-01 0.14625949E+03</pdfrwt>
<totfact> 0.23073191E+02</totfact>
</mgrwt>
</event>
<event>
 8    1  0.3682083E-007  0.1308634E+03  0.7546771E-02  0.1226184E+00
         -5   -1    0    0    0  501 -0.00000000000E+00  0.00000000000E+00  0.10059300352E+04  0.10059410150E+04  0.47000000000E+01 0. -1.
          5   -1    0    0  501    0  0.00000000000E+00 -0.00000000000E+00 -0.16848581752E+02  0.17491846874E+02  0.47000000000E+01 0. -1.
         25    2    1    2    0    0 -0.33056543988E+02  0.20191383492E+02  0.44543739631E+03  0.46426252417E+03  0.12499916100E+03 0.  0.
         25    2    1    2    0    0  0.33056543988E+02 -0.20191383492E+02  0.54364405715E+03  0.55917033774E+03  0.12498871418E+03 0.  0.
          5    1    4    4  502    0  0.76412562504E+02 -0.89272345987E+01  0.23653542239E+03  0.24877634789E+03  0.47000000000E+01 0.  1.
         -5    1    4    4    0  502 -0.43356018516E+02 -0.11264148893E+02  0.30710863475E+03  0.31039398985E+03  0.47000000000E+01 0.  1.
          5    1    3    3  503    0 -0.15889443603E+02  0.47103945752E+02  0.42057529136E+03  0.42352912749E+03  0.47000000000E+01 0.  1.
         -5    1    3    3    0  503 -0.17167100385E+02 -0.26912562260E+02  0.24862104946E+02  0.40733396683E+02  0.47000000000E+01 0.  1.
<mgrwt>
<rscale>  0 0.13086086E+03</rscale>
<asrwt>0</asrwt>
<pdfrwt beam="2">  1        5 0.26424143E-02 0.13086335E+03</pdfrwt>
<pdfrwt beam="1">  1       -5 0.15480890E+00 0.13086335E+03</pdfrwt>
<totfact> 0.13530971E+02</totfact>
</mgrwt>
</event>
<event>
 8    1  0.3682083E-007  0.1401871E+03  0.7546771E-02  0.1213079E+00
         -5   -1    0    0    0  501 -0.00000000000E+00  0.00000000000E+00  0.49170624825E+03  0.49172871034E+03  0.47000000000E+01 0. -1.
          5   -1    0    0  501    0  0.00000000000E+00 -0.00000000000E+00 -0.42444569006E+02  0.42703997917E+02  0.47000000000E+01 0. -1.
         25    2    1    2    0    0 -0.62945471925E+02  0.79254993591E+01  0.29103798205E+03  0.32303932691E+03  0.12500541493E+03 0.  0.
         25    2    1    2    0    0  0.62945471925E+02 -0.79254993591E+01  0.15822369720E+03  0.21139338134E+03  0.12500990898E+03 0.  0.
          5    1    3    3  502    0 -0.90469977421E+02 -0.10779870799E+01  0.27513544335E+03  0.28966805322E+03  0.47000000000E+01 0. -1.
         -5    1    3    3    0  502  0.27524505495E+02  0.90034864390E+01  0.15902538701E+02  0.33371273694E+02  0.47000000000E+01 0. -1.
          5    1    4    4  503    0  0.76843670588E+02  0.31571186984E+02  0.54579327029E+02  0.99512222847E+02  0.47000000000E+01 0. -1.
         -5    1    4    4    0  503 -0.13898198663E+02 -0.39496686344E+02  0.10364437017E+03  0.11188115850E+03  0.47000000000E+01 0. -1.
<mgrwt>
<rscale>  0 0.14018610E+03</rscale>
<asrwt>0</asrwt>
<pdfrwt beam="2">  1        5 0.65516177E-02 0.14018710E+03</pdfrwt>
<pdfrwt beam="1">  1       -5 0.75668799E-01 0.14018710E+03</pdfrwt>
<totfact> 0.18502989E+02</totfact>
</mgrwt>
</event>
<event>
 8    1  0.3682083E-007  0.1504695E+03  0.7546771E-02  0.1199901E+00
         -5   -1    0    0    0  501 -0.00000000000E+00  0.00000000000E+00  0.95426447838E+02  0.95542121323E+02  0.47000000000E+01 0.  1.
          5   -1    0    0  501    0  0.00000000000E+00 -0.00000000000E+00 -0.25954914530E+03  0.25959169637E+03  0.47000000000E+01 0.  1.
         25    2    1    2    0    0 -0.81242058958E+02  0.20378404833E+02 -0.29692825035E+02  0.15336051065E+03  0.12498892287E+03 0.  0.
         25    2    1    2    0    0  0.81242058958E+02 -0.20378404833E+02 -0.13442987243E+03  0.20177330705E+03  0.12500210122E+03 0.  0.
          5    1    3    3  502    0 -0.42073077354E+02 -0.32277513997E+02 -0.60604728591E+02  0.80666008179E+02  0.47000000000E+01 0. -1.
         -5    1    3    3    0  502 -0.39168981603E+02  0.52655918830E+02  0.30911903557E+02  0.72694502469E+02  0.47000000000E+01 0. -1.
          5    1    4    4  503    0  0.48472834384E+02 -0.47505285709E+02 -0.82485068395E+01  0.68530983567E+02  0.47000000000E+01 0.  1.
         -5    1    4    4    0  503  0.32769224573E+02  0.27126880876E+02 -0.12618136559E+03  0.13324232348E+03  0.47000000000E+01 0.  1.
<mgrwt>
<rscale>  0 0.15046678E+03</rscale>
<asrwt>0</asrwt>
<pdfrwt beam="2">  1        5 0.39942808E-01 0.15046952E+03</pdfrwt>
<pdfrwt beam="1">  1       -5 0.14693163E-01 0.15046952E+03</pdfrwt>
<totfact> 0.18382719E+02</totfact>
</mgrwt>
</event>
<event>
 8    1  0.3682083E-007  0.1344590E+03  0.7546771E-02  0.1220987E+00
          5   -1    0    0  501    0  0.00000000000E+00  0.00000000000E+00  0.46332229900E+02  0.46570006737E+02  0.47000000000E+01 0. -1.
         -5   -1    0    0    0  501 -0.00000000000E+00 -0.00000000000E+00 -0.39031768362E+03  0.39034598006E+03  0.47000000000E+01 0. -1.
         25    2    1    2    0    0 -0.44134458346E+02  0.22489774955E+02 -0.18493137424E+03  0.22864352963E+03  0.12499844028E+03 0.  0.
         25    2    1    2    0    0  0.44134458346E+02 -0.22489774955E+02 -0.15905407948E+03  0.20827245717E+03  0.12500230327E+03 0.  0.
          5    1    3    3  502    0 -0.40775048093E+02  0.80577729078E+01  0.12179702765E+01  0.41846214916E+02  0.47000000000E+01 0. -1.
         -5    1    3    3    0  502 -0.33594102530E+01  0.14432002048E+02 -0.18614934451E+03  0.18679731471E+03  0.47000000000E+01 0. -1.
          5    1    4    4  503    0  0.40886376394E+02 -0.55200012563E+02 -0.16090258850E+03  0.17501562830E+03  0.47000000000E+01 0. -1.
         -5    1    4    4    0  503  0.32480819516E+01  0.32710237608E+02  0.18485090215E+01  0.33256828867E+02  0.47000000000E+01 0. -1.
<mgrwt>
<rscale>  0 0.13445808E+03</rscale>
<asrwt>0</asrwt>
<pdfrwt beam="1">  1        5 0.71485028E-02 0.13445898E+03</pdfrwt>
<pdfrwt beam="2">  1       -5 0.60069339E-01 0.13445898E+03</pdfrwt>
<totfact> 0.26378624E+02</totfact>
</mgrwt>
</event>
<event>
 8    1  0.3682083E-007  0.1297277E+03  0.7546771E-02  0.1227861E+00
         -5   -1    0    0    0  501 -0.00000000000E+00  0.00000000000E+00  0.10793068178E+03  0.10803296751E+03  0.47000000000E+01 0.  1.
          5   -1    0    0  501    0  0.00000000000E+00 -0.00000000000E+00 -0.15586386897E+03  0.15593471598E+03  0.47000000000E+01 0.  1.
         25    2    1    2    0    0  0.59962416055E+01 -0.34175081050E+02 -0.19868064295E+02  0.13123891359E+03  0.12500008553E+03 0.  0.
         25    2    1    2    0    0 -0.59962416055E+01  0.34175081050E+02 -0.28065122890E+02  0.13272876991E+03  0.12500153664E+03 0.  0.
          5    1    4    4  502    0  0.38031359908E+02 -0.30416209543E+02 -0.23524849720E+02  0.54286634578E+02  0.47000000000E+01 0. -1.
         -5    1    4    4    0  502 -0.44027601514E+02  0.64591290593E+02 -0.45402731708E+01  0.78442135336E+02  0.47000000000E+01 0. -1.
          5    1    3    3  503    0 -0.34825770393E+02 -0.31843441883E+00  0.38572691825E+02  0.52181205798E+02  0.47000000000E+01 0.  1.
         -5    1    3    3    0  503  0.40822011998E+02 -0.33856646631E+02 -0.58440756120E+02  0.79057707787E+02  0.47000000000E+01 0.  1.
<mgrwt>
<rscale>  0 0.12972735E+03</rscale>
<asrwt>0</asrwt>
<pdfrwt beam="2">  1        5 0.23992375E-01 0.12972770E+03</pdfrwt>
<pdfrwt beam="1">  1       -5 0.16618038E-01 0.12972770E+03</pdfrwt>
<totfact> 0.38183037E+02</totfact>
</mgrwt>
</event>
<event>
 8    1  0.3682083E-007  0.1387056E+03  0.7546771E-02  0.1215086E+00
         -5   -1    0    0    0  501 -0.00000000000E+00  0.00000000000E+00  0.98536063989E+02  0.98648091246E+02  0.47000000000E+01 0.  1.
          5   -1    0    0  501    0  0.00000000000E+00 -0.00000000000E+00 -0.21056501039E+03  0.21061745796E+03  0.47000000000E+01 0.  1.
         25    2    1    2    0    0  0.46218030076E+02 -0.38410074721E+02 -0.13964736228E+02  0.13940681977E+03  0.12501122908E+03 0.  0.
         25    2    1    2    0    0 -0.46218030076E+02  0.38410074721E+02 -0.98064210170E+02  0.16985872944E+03  0.12499583395E+03 0.  0.
          5    1    3    3  502    0 -0.35829019524E+02 -0.41936627691E+02 -0.14196957444E+02  0.57149304307E+02  0.47000000000E+01 0. -1.
         -5    1    3    3    0  502  0.82047049600E+02  0.35265529699E+01  0.23222121572E+00  0.82257515466E+02  0.47000000000E+01 0. -1.
          5    1    4    4  503    0 -0.69893091793E+02  0.22777191642E+02 -0.65720273624E+01  0.73953541383E+02  0.47000000000E+01 0.  1.
         -5    1    4    4    0  503  0.23675061716E+02  0.15632883079E+02 -0.91492182807E+02  0.95905188053E+02  0.47000000000E+01 0.  1.
<mgrwt>
<rscale>  0 0.13870215E+03</rscale>
<asrwt>0</asrwt>
<pdfrwt beam="2">  1        5 0.32407269E-01 0.13870561E+03</pdfrwt>
<pdfrwt beam="1">  1       -5 0.15172046E-01 0.13870561E+03</pdfrwt>
<totfact> 0.25724316E+02</totfact>
</mgrwt>
</event>
<event>
 8    1  0.3682083E-007  0.1359212E+03  0.7546771E-02  0.1218926E+00
         -5   -1    0    0    0  501 -0.00000000000E+00  0.00000000000E+00  0.13356989498E+03  0.13365256019E+03  0.47000000000E+01 0.  1.
          5   -1    0    0  501    0  0.00000000000E+00 -0.00000000000E+00 -0.13884319024E+03  0.13892271764E+03  0.47000000000E+01 0.  1.
         25    2    1    2    0    0  0.44745509863E+02 -0.29114605066E+02  0.70093855064E+01  0.13610179601E+03  0.12499898604E+03 0.  0.
         25    2    1    2    0    0 -0.44745509863E+02  0.29114605066E+02 -0.12282680765E+02  0.13647348181E+03  0.12499730441E+03 0.  0.
          5    1    3    3  502    0  0.25771937322E+01 -0.18874663775E+02  0.62496868240E+02  0.65504529614E+02  0.47000000000E+01 0. -1.
         -5    1    3    3    0  502  0.42168316131E+02 -0.10239941290E+02 -0.55487482733E+02  0.70597266399E+02  0.47000000000E+01 0. -1.
          5    1    4    4  503    0 -0.97274956240E+01  0.69631819122E+02 -0.34313724231E+02  0.78375608935E+02  0.47000000000E+01 0. -1.
         -5    1    4    4    0  503 -0.35018014239E+02 -0.40517214057E+02  0.22031043465E+02  0.58097872873E+02  0.47000000000E+01 0. -1.
<mgrwt>
<rscale>  0 0.13592079E+03</rscale>
<asrwt>0</asrwt>
<pdfrwt beam="2">  1        5 0.21372967E-01 0.13592118E+03</pdfrwt>
<pdfrwt beam="1">  1       -5 0.20561691E-01 0.13592118E+03</pdfrwt>
<totfact> 0.32591289E+02</totfact>
</mgrwt>
</event>
<event>
 8    1  0.3682083E-007  0.1364182E+03  0.7546771E-02  0.1218232E+00
          5   -1    0    0  501    0  0.00000000000E+00  0.00000000000E+00  0.17664441721E+03  0.17670693289E+03  0.47000000000E+01 0. -1.
         -5   -1    0    0    0  501 -0.00000000000E+00 -0.00000000000E+00 -0.11478399635E+03  0.11488018027E+03  0.47000000000E+01 0. -1.
         25    2    1    2    0    0  0.20415987092E+02 -0.50688062312E+02 -0.11131908605E+02  0.13686860811E+03  0.12499201697E+03 0.  0.
         25    2    1    2    0    0 -0.20415987092E+02  0.50688062312E+02  0.72992329467E+02  0.15471850505E+03  0.12499537373E+03 0.  0.
          5    1    3    3  502    0  0.43767782735E+01 -0.53687417400E+02  0.49864277796E+02  0.73552914118E+02  0.47000000000E+01 0. -1.
         -5    1    3    3    0  502  0.16039208819E+02  0.29993550884E+01 -0.60996186400E+02  0.63315693993E+02  0.47000000000E+01 0. -1.
          5    1    4    4  503    0 -0.65162414978E+02  0.61627394426E+02  0.52994480843E+02  0.10428125943E+03  0.47000000000E+01 0.  1.
         -5    1    4    4    0  503  0.44746427886E+02 -0.10939332114E+02  0.19997848623E+02  0.50437245615E+02  0.47000000000E+01 0.  1.
<mgrwt>
<rscale>  0 0.13641747E+03</rscale>
<asrwt>0</asrwt>
<pdfrwt beam="1">  1        5 0.27188272E-01 0.13641824E+03</pdfrwt>
<pdfrwt beam="2">  1       -5 0.17671284E-01 0.13641824E+03</pdfrwt>
<totfact> 0.27314512E+02</totfact>
</mgrwt>
</event>
<event>
 8    1  0.3682083E-007  0.1282808E+03  0.7546771E-02  0.1230030E+00
          5   -1    0    0  501    0  0.00000000000E+00  0.00000000000E+00  0.34157446671E+03  0.34160680074E+03  0.47000000000E+01 0.  1.
         -5   -1    0    0    0  501 -0.00000000000E+00 -0.00000000000E+00 -0.51885540131E+02  0.52097977645E+02  0.47000000000E+01 0.  1.
         25    2    1    2    0    0 -0.27473126372E+02 -0.87092864421E+01  0.91287076404E+02  0.15744376858E+03  0.12499834240E+03 0.  0.
         25    2    1    2    0    0  0.27473126372E+02  0.87092864421E+01  0.19840185018E+03  0.23626100980E+03  0.12500138501E+03 0.  0.
          5    1    3    3  502    0 -0.58068948829E+02 -0.21948367642E+02  0.22974343061E+01  0.62298490067E+02  0.47000000000E+01 0.  1.
         -5    1    3    3    0  502  0.30595822457E+02  0.13239081199E+02  0.88989642098E+02  0.95145278514E+02  0.47000000000E+01 0.  1.
          5    1    4    4  503    0  0.34785150434E+02  0.33889013973E+02  0.20338983222E+03  0.20916019175E+03  0.47000000000E+01 0.  1.
         -5    1    4    4    0  503 -0.73120240622E+01 -0.25179727531E+02 -0.49879820459E+01  0.27100818056E+02  0.47000000000E+01 0.  1.
<mgrwt>
<rscale>  0 0.12828009E+03</rscale>
<asrwt>0</asrwt>
<pdfrwt beam="1">  1        5 0.52568745E-01 0.12828083E+03</pdfrwt>
<pdfrwt beam="2">  1       -5 0.80012197E-02 0.12828083E+03</pdfrwt>
<totfact> 0.28553608E+02</totfact>
</mgrwt>
</event>
<event>
 8    1  0.3682083E-007  0.1359892E+03  0.7546771E-02  0.1218834E+00
          5   -1    0    0  501    0  0.00000000000E+00  0.00000000000E+00  0.58035770665E+02  0.58225773303E+02  0.47000000000E+01 0.  1.
         -5   -1    0    0    0  501 -0.00000000000E+00 -0.00000000000E+00 -0.36851491142E+03  0.36854488186E+03  0.47000000000E+01 0.  1.
         25    2    1    2    0    0  0.33266143186E+02 -0.41938072805E+02 -0.23429582193E+03  0.27089583270E+03  0.12499832706E+03 0.  0.
         25    2    1    2    0    0 -0.33266143186E+02  0.41938072805E+02 -0.76183318833E+02  0.15587482246E+03  0.12501049546E+03 0.  0.
          5    1    3    3  502    0 -0.27837582711E+02  0.26228495574E+02 -0.10927974492E+03  0.11587500870E+03  0.47000000000E+01 0.  1.
         -5    1    3    3    0  502  0.61103725897E+02 -0.68166568379E+02 -0.12501607701E+03  0.15502082400E+03  0.47000000000E+01 0.  1.
          5    1    4    4  503    0  0.44488159096E+02  0.35246584682E+01 -0.45115379249E+02  0.63632593550E+02  0.47000000000E+01 0. -1.
         -5    1    4    4    0  503 -0.77754302282E+02  0.38413414337E+02 -0.31067939584E+02  0.92242228911E+02  0.47000000000E+01 0. -1.
<mgrwt>
<rscale>  0 0.13598640E+03</rscale>
<asrwt>0</asrwt>
<pdfrwt beam="1">  1        5 0.89455014E-02 0.13598920E+03</pdfrwt>
<pdfrwt beam="2">  1       -5 0.56711521E-01 0.13598920E+03</pdfrwt>
<totfact> 0.20433856E+02</totfact>
</mgrwt>
</event>
<event>
 8    1  0.3682083E-007  0.1446061E+03  0.7546771E-02  0.1207262E+00
          5   -1    0    0  501    0  0.00000000000E+00  0.00000000000E+00  0.26566806953E+03  0.26570964072E+03  0.47000000000E+01 0.  1.
         -5   -1    0    0    0  501 -0.00000000000E+00 -0.00000000000E+00 -0.78907243412E+02  0.79047093956E+02  0.47000000000E+01 0.  1.
         25    2    1    2    0    0 -0.25189702582E+01  0.72659835181E+02  0.82508577612E+02  0.16648883010E+03  0.12500027323E+03 0.  0.
         25    2    1    2    0    0  0.25189702582E+01 -0.72659835181E+02  0.10425224851E+03  0.17826790458E+03  0.12500047049E+03 0.  0.
          5    1    3    3  502    0  0.35918226007E+02  0.93745088733E+02  0.58392490138E+02  0.11623266979E+03  0.47000000000E+01 0. -1.
         -5    1    3    3    0  502 -0.38437196265E+02 -0.21085253552E+02  0.24116087473E+02  0.50256160310E+02  0.47000000000E+01 0. -1.
          5    1    4    4  503    0  0.19003145444E+02  0.67540008661E+01  0.94148910400E+02  0.96399395195E+02  0.47000000000E+01 0.  1.
         -5    1    4    4    0  503 -0.16484175186E+02 -0.79413836047E+02  0.10103338109E+02  0.81868509381E+02  0.47000000000E+01 0.  1.
<mgrwt>
<rscale>  0 0.14460602E+03</rscale>
<asrwt>0</asrwt>
<pdfrwt beam="1">  1        5 0.40885967E-01 0.14460607E+03</pdfrwt>
<pdfrwt beam="2">  1       -5 0.12153531E-01 0.14460607E+03</pdfrwt>
<totfact> 0.24301436E+02</totfact>
</mgrwt>
</event>
<event>
 8    1  0.3682083E-007  0.1309453E+03  0.7546771E-02  0.1226062E+00
          5   -1    0    0  501    0  0.00000000000E+00  0.00000000000E+00  0.34727759242E+02  0.35044361344E+02  0.47000000000E+01 0. -1.
         -5   -1    0    0    0  501 -0.00000000000E+00 -0.00000000000E+00 -0.49117380036E+03  0.49119628679E+03  0.47000000000E+01 0. -1.
         25    2    1    2    0    0  0.30012313951E+02 -0.24924109131E+02 -0.22988603656E+03  0.26456125121E+03  0.12499246231E+03 0.  0.
         25    2    1    2    0    0 -0.30012313951E+02  0.24924109131E+02 -0.22656000456E+03  0.26167939692E+03  0.12499888361E+03 0.  0.
          5    1    3    3  502    0  0.40988372082E+02 -0.18591395060E+02 -0.24213123895E+03  0.24632359508E+03  0.47000000000E+01 0.  1.
         -5    1    3    3    0  502 -0.10976058131E+02 -0.63327140716E+01  0.12245202394E+02  0.18237656134E+02  0.47000000000E+01 0.  1.
          5    1    4    4  503    0 -0.20020776503E+02  0.76316686801E+01 -0.23744339752E+03  0.23845446292E+03  0.47000000000E+01 0.  1.
         -5    1    4    4    0  503 -0.99915374483E+01  0.17292440451E+02  0.10883392961E+02  0.23224934008E+02  0.47000000000E+01 0.  1.
<mgrwt>
<rscale>  0 0.13094377E+03</rscale>
<asrwt>0</asrwt>
<pdfrwt beam="1">  1        5 0.53688163E-02 0.13094530E+03</pdfrwt>
<pdfrwt beam="2">  1       -5 0.75591279E-01 0.13094530E+03</pdfrwt>
<totfact> 0.25317086E+02</totfact>
</mgrwt>
</event>
<event>
 8    1  0.3682083E-007  0.1275049E+03  0.7546771E-02  0.1231211E+00
         -5   -1    0    0    0  501 -0.00000000000E+00  0.00000000000E+00  0.61795799629E+02  0.61974275726E+02  0.47000000000E+01 0. -1.
          5   -1    0    0  501    0  0.00000000000E+00 -0.00000000000E+00 -0.29922280991E+03  0.29925971992E+03  0.47000000000E+01 0. -1.
         25    2    1    2    0    0 -0.22661152669E+02 -0.10889799984E+02 -0.55445665510E+02  0.13903857192E+03  0.12500154829E+03 0.  0.
         25    2    1    2    0    0  0.22661152669E+02  0.10889799984E+02 -0.18198134477E+03  0.22219542373E+03  0.12498592280E+03 0.  0.
          5    1    3    3  502    0 -0.42805325036E+02 -0.10996179095E+02 -0.89080382293E+02  0.99552078409E+02  0.47000000000E+01 0. -1.
         -5    1    3    3    0  502  0.20144172367E+02  0.10637911124E+00  0.33634716783E+02  0.39486493513E+02  0.47000000000E+01 0. -1.
          5    1    4    4  503    0  0.40195556009E+02  0.15654735997E+02 -0.43879417024E+01  0.43613042939E+02  0.47000000000E+01 0.  1.
         -5    1    4    4    0  503 -0.17534403340E+02 -0.47649360127E+01 -0.17759340306E+03  0.17858238079E+03  0.47000000000E+01 0.  1.
<mgrwt>
<rscale>  0 0.12750108E+03</rscale>
<asrwt>0</asrwt>
<pdfrwt beam="2">  1        5 0.46050846E-01 0.12750491E+03</pdfrwt>
<pdfrwt beam="1">  1       -5 0.95236145E-02 0.12750491E+03</pdfrwt>
<totfact> 0.27903343E+02</totfact>
</mgrwt>
</event>
<event>
 8    1  0.3682083E-007  0.1926529E+03  0.7546771E-02  0.1156094E+00
          5   -1    0    0  501    0  0.00000000000E+00  0.00000000000E+00  0.13312724973E+03  0.13321018963E+03  0.47000000000E+01 0. -1.
         -5   -1    0    0    0  501 -0.00000000000E+00 -0.00000000000E+00 -0.27921385751E+03  0.27925341220E+03  0.47000000000E+01 0. -1.
         25    2    1    2    0    0 -0.32520270411E+02  0.14293874355E+03 -0.82892606142E+02  0.20972916842E+03  0.12500435007E+03 0.  0.
         25    2    1    2    0    0  0.32520270411E+02 -0.14293874355E+03 -0.63194001630E+02  0.20273443341E+03  0.12497486249E+03 0.  0.
          5    1    3    3  502    0 -0.32545303234E+02  0.16516768425E+03 -0.63929690790E+02  0.18013510499E+03  0.47000000000E+01 0. -1.
         -5    1    3    3    0  502  0.25032823063E-01 -0.22228940706E+02 -0.18962915352E+02  0.29594063428E+02  0.47000000000E+01 0. -1.
          5    1    4    4  503    0  0.30106291788E+02 -0.61479609211E+02 -0.93225634166E+02  0.11575508637E+03  0.47000000000E+01 0.  1.
         -5    1    4    4    0  503  0.24139786226E+01 -0.81459134337E+02  0.30031632536E+02  0.86979347046E+02  0.47000000000E+01 0.  1.
<mgrwt>
<rscale>  0 0.19264812E+03</rscale>
<asrwt>0</asrwt>
<pdfrwt beam="1">  1        5 0.20490538E-01 0.19265290E+03</pdfrwt>
<pdfrwt beam="2">  1       -5 0.42965400E-01 0.19265290E+03</pdfrwt>
<totfact> 0.92254674E+01</totfact>
</mgrwt>
</event>
<event>
 8    1  0.3682083E-007  0.1479059E+03  0.7546771E-02  0.1203073E+00
          5   -1    0    0  501    0  0.00000000000E+00  0.00000000000E+00  0.21935350681E+04  0.21935401033E+04  0.47000000000E+01 0. -1.
         -5   -1    0    0    0  501 -0.00000000000E+00 -0.00000000000E+00 -0.48317836341E+02  0.48545888690E+02  0.47000000000E+01 0. -1.
         25    2    1    2    0    0 -0.76104508510E+02  0.21367175589E+02  0.73606628269E+02  0.16520211457E+03  0.12500140209E+03 0.  0.
         25    2    1    2    0    0  0.76104508510E+02 -0.21367175589E+02  0.20716106034E+04  0.20768838774E+04  0.12501078185E+03 0.  0.
          5    1    4    4  502    0  0.13459260915E+02 -0.55562202580E+02  0.44230547410E+03  0.44600956546E+03  0.47000000000E+01 0.  1.
         -5    1    4    4    0  502  0.62645247595E+02  0.34195026991E+02  0.16293051293E+04  0.16308743120E+04  0.47000000000E+01 0.  1.
          5    1    3    3  503    0  0.10974621232E+02  0.15829686163E+02 -0.26001282087E+02  0.32698286581E+02  0.47000000000E+01 0.  1.
         -5    1    3    3    0  503 -0.87079129742E+02  0.55374894260E+01  0.99607910356E+02  0.13250382799E+03  0.47000000000E+01 0.  1.
<mgrwt>
<rscale>  0 0.14790389E+03</rscale>
<asrwt>0</asrwt>
<pdfrwt beam="1">  1        5 0.33748487E+00 0.14790588E+03</pdfrwt>
<pdfrwt beam="2">  1       -5 0.74514429E-02 0.14790588E+03</pdfrwt>
<totfact> 0.15693742E+00</totfact>
</mgrwt>
</event>
<event>
 8    1  0.3682083E-007  0.1413417E+03  0.7546771E-02  0.1211535E+00
          5   -1    0    0  501    0  0.00000000000E+00  0.00000000000E+00  0.17590580268E+03  0.17596858077E+03  0.47000000000E+01 0. -1.
         -5   -1    0    0    0  501 -0.00000000000E+00 -0.00000000000E+00 -0.11365470937E+03  0.11375184816E+03  0.47000000000E+01 0. -1.
         25    2    1    2    0    0 -0.58182048066E+02  0.31101546893E+02  0.24779170761E+02  0.14349585721E+03  0.12499838718E+03 0.  0.
         25    2    1    2    0    0  0.58182048066E+02 -0.31101546893E+02  0.37471922558E+02  0.14622457172E+03  0.12500009384E+03 0.  0.
          5    1    4    4  502    0  0.67578409296E+02  0.24567803541E+02  0.50626116423E+02  0.88065385015E+02  0.47000000000E+01 0.  1.
         -5    1    4    4    0  502 -0.93963612302E+01 -0.55669350434E+02 -0.13154193865E+02  0.58159186706E+02  0.47000000000E+01 0.  1.
          5    1    3    3  503    0 -0.58321566351E+02  0.34524989758E+02  0.70207747459E+02  0.97696457575E+02  0.47000000000E+01 0.  1.
         -5    1    3    3    0  503  0.13951828445E+00 -0.34234428654E+01 -0.45428576698E+02  0.45799399638E+02  0.47000000000E+01 0.  1.
<mgrwt>
<rscale>  0 0.14134134E+03</rscale>
<asrwt>0</asrwt>
<pdfrwt beam="1">  1        5 0.27074733E-01 0.14134171E+03</pdfrwt>
<pdfrwt beam="2">  1       -5 0.17497641E-01 0.14134171E+03</pdfrwt>
<totfact> 0.28382293E+02</totfact>
</mgrwt>
</event>
<event>
 8    1  0.3682083E-007  0.1844121E+03  0.7546771E-02  0.1163600E+00
         -5   -1    0    0    0  501 -0.00000000000E+00  0.00000000000E+00  0.46393872194E+03  0.46396252836E+03  0.47000000000E+01 0. -1.
          5   -1    0    0  501    0  0.00000000000E+00 -0.00000000000E+00 -0.73482040145E+02  0.73632195566E+02  0.47000000000E+01 0. -1.
         25    2    1    2    0    0  0.11348880926E+03  0.74181610832E+02  0.21183141458E+03  0.28085596124E+03  0.12499960619E+03 0.  0.
         25    2    1    2    0    0 -0.11348880926E+03 -0.74181610832E+02  0.17862526722E+03  0.25673876269E+03  0.12500073984E+03 0.  0.
          5    1    3    3  502    0  0.10290917065E+03  0.82533716532E+02  0.22537016355E+03  0.26118176121E+03  0.47000000000E+01 0.  1.
         -5    1    3    3    0  502  0.10579638612E+02 -0.83521057009E+01 -0.13538748978E+02  0.19674200027E+02  0.47000000000E+01 0.  1.
          5    1    4    4  503    0 -0.74731382661E+02 -0.12112857900E+02  0.14842635143E+02  0.77290974239E+02  0.47000000000E+01 0.  1.
         -5    1    4    4    0  503 -0.38757426600E+02 -0.62068752932E+02  0.16378263208E+03  0.17944778845E+03  0.47000000000E+01 0.  1.
<mgrwt>
<rscale>  0 0.18441186E+03</rscale>
<asrwt>0</asrwt>
<pdfrwt beam="2">  1        5 0.11318311E-01 0.18441206E+03</pdfrwt>
<pdfrwt beam="1">  1       -5 0.71388569E-01 0.18441206E+03</pdfrwt>
<totfact> 0.89277728E+01</totfact>
</mgrwt>
</event>
<event>
 8    1  0.3682083E-007  0.1342664E+03  0.7546771E-02  0.1221273E+00
          5   -1    0    0  501    0  0.00000000000E+00  0.00000000000E+00  0.23549819498E+02  0.24014245739E+02  0.47000000000E+01 0. -1.
         -5   -1    0    0    0  501 -0.00000000000E+00 -0.00000000000E+00 -0.75761317784E+03  0.75762775638E+03  0.47000000000E+01 0. -1.
         25    2    1    2    0    0 -0.62592613575E+01  0.48596327870E+02 -0.37445965379E+03  0.39780333959E+03  0.12500673276E+03 0.  0.
         25    2    1    2    0    0  0.62592613575E+01 -0.48596327870E+02 -0.35960370455E+03  0.38383866253E+03  0.12496604775E+03 0.  0.
          5    1    4    4  502    0  0.18531841341E+02 -0.31731150903E+02 -0.36053912458E+03  0.36243736761E+03  0.47000000000E+01 0.  1.
         -5    1    4    4    0  502 -0.12272579983E+02 -0.16865176967E+02  0.93542003618E+00  0.21401294920E+02  0.47000000000E+01 0.  1.
          5    1    3    3  503    0 -0.15822720628E+02  0.85095105666E+02 -0.18154123112E+03  0.20117366650E+03  0.47000000000E+01 0. -1.
         -5    1    3    3    0  503  0.95634592703E+01 -0.36498777796E+02 -0.19291842267E+03  0.19662967309E+03  0.47000000000E+01 0. -1.
<mgrwt>
<rscale>  0 0.13425692E+03</rscale>
<asrwt>0</asrwt>
<pdfrwt beam="1">  1        5 0.36598963E-02 0.13426639E+03</pdfrwt>
<pdfrwt beam="2">  1       -5 0.11659270E+00 0.13426639E+03</pdfrwt>
<totfact> 0.16994530E+02</totfact>
</mgrwt>
</event>
<event>
 8    1  0.3682083E-007  0.1342475E+03  0.7546771E-02  0.1221293E+00
         -5   -1    0    0    0  501 -0.00000000000E+00  0.00000000000E+00  0.13833977340E+02  0.14610575931E+02  0.47000000000E+01 0.  1.
          5   -1    0    0  501    0  0.00000000000E+00 -0.00000000000E+00 -0.13047571397E+04  0.13047656048E+04  0.47000000000E+01 0.  1.
         25    2    1    2    0    0  0.23743246008E+02  0.42809964562E+02 -0.75874645147E+03  0.77052789595E+03  0.12498250284E+03 0.  0.
         25    2    1    2    0    0 -0.23743246008E+02 -0.42809964562E+02 -0.53217671085E+03  0.54884828479E+03  0.12500381336E+03 0.  0.
          5    1    4    4  502    0  0.27850908292E+02 -0.67718280571E+01 -0.26717350863E+02  0.39464383754E+02  0.47000000000E+01 0.  1.
         -5    1    4    4    0  502 -0.51594154301E+02 -0.36038136505E+02 -0.50545935999E+03  0.50938390104E+03  0.47000000000E+01 0.  1.
          5    1    3    3  503    0  0.55116103366E+02 -0.23666918341E+02 -0.37103924826E+03  0.37588578268E+03  0.47000000000E+01 0.  1.
         -5    1    3    3    0  503 -0.31372857358E+02  0.66476882903E+02 -0.38770720322E+03  0.39464211327E+03  0.47000000000E+01 0.  1.
<mgrwt>
<rscale>  0 0.13424253E+03</rscale>
<asrwt>0</asrwt>
<pdfrwt beam="2">  1        5 0.20079216E+00 0.13424749E+03</pdfrwt>
<pdfrwt beam="1">  1       -5 0.21886948E-02 0.13424749E+03</pdfrwt>
<totfact> 0.86202147E+01</totfact>
</mgrwt>
</event>
<event>
 8    1  0.3682083E-007  0.1319866E+03  0.7546771E-02  0.1224544E+00
         -5   -1    0    0    0  501 -0.00000000000E+00  0.00000000000E+00  0.14222531503E+03  0.14230295231E+03  0.47000000000E+01 0.  1.
          5   -1    0    0  501    0  0.00000000000E+00 -0.00000000000E+00 -0.14839943170E+03  0.14847384055E+03  0.47000000000E+01 0.  1.
         25    2    1    2    0    0 -0.76972055869E+00 -0.42345340246E+02  0.57837725593E+02  0.14408675900E+03  0.12498828468E+03 0.  0.
         25    2    1    2    0    0  0.76972055869E+00  0.42345340246E+02 -0.64011842260E+02  0.14669003387E+03  0.12500691891E+03 0.  0.
          5    1    4    4  502    0  0.32879645223E+02 -0.49294057767E+01  0.24262763330E+02  0.41426341809E+02  0.47000000000E+01 0.  1.
         -5    1    4    4    0  502 -0.32109924665E+02  0.47274746023E+02 -0.88274605590E+02  0.10526369206E+03  0.47000000000E+01 0.  1.
          5    1    3    3  503    0 -0.44080129103E+02 -0.67172452105E+02  0.25515327166E+02  0.84429367071E+02  0.47000000000E+01 0.  1.
         -5    1    3    3    0  503  0.43310408545E+02  0.24827111859E+02  0.32322398428E+02  0.59657391928E+02  0.47000000000E+01 0.  1.
<mgrwt>
<rscale>  0 0.13198214E+03</rscale>
<asrwt>0</asrwt>
<pdfrwt beam="2">  1        5 0.22842378E-01 0.13198655E+03</pdfrwt>
<pdfrwt beam="1">  1       -5 0.21892513E-01 0.13198655E+03</pdfrwt>
<totfact> 0.25295736E+02</totfact>
</mgrwt>
</event>
<event>
 8    1  0.3682083E-007  0.1627478E+03  0.7546771E-02  0.1185631E+00
          5   -1    0    0  501    0  0.00000000000E+00  0.00000000000E+00  0.63154724163E+03  0.63156473018E+03  0.47000000000E+01 0.  1.
         -5   -1    0    0    0  501 -0.00000000000E+00 -0.00000000000E+00 -0.46518625476E+02  0.46755454401E+02  0.47000000000E+01 0.  1.
         25    2    1    2    0    0 -0.71505719547E+02  0.75818586188E+02  0.18466822607E+03  0.24614513474E+03  0.12499419066E+03 0.  0.
         25    2    1    2    0    0  0.71505719547E+02 -0.75818586188E+02  0.40036039008E+03  0.43217504984E+03  0.12500122326E+03 0.  0.
          5    1    4    4  502    0  0.26760863160E+02 -0.68472450530E+02  0.80645129915E+02  0.10922612901E+03  0.47000000000E+01 0. -1.
         -5    1    4    4    0  502  0.44744856388E+02 -0.73461356580E+01  0.31971526017E+03  0.32294892083E+03  0.47000000000E+01 0. -1.
          5    1    3    3  503    0 -0.60251403340E+02 -0.21517534811E+02  0.63758494373E+02  0.90445959078E+02  0.47000000000E+01 0.  1.
         -5    1    3    3    0  503 -0.11254316207E+02  0.97336120998E+02  0.12090973170E+03  0.15569917567E+03  0.47000000000E+01 0.  1.
<mgrwt>
<rscale>  0 0.16274640E+03</rscale>
<asrwt>0</asrwt>
<pdfrwt beam="1">  1        5 0.97180678E-01 0.16274775E+03</pdfrwt>
<pdfrwt beam="2">  1       -5 0.71762744E-02 0.16274775E+03</pdfrwt>
<totfact> 0.92220291E+01</totfact>
</mgrwt>
</event>
<event>
 8    1  0.3682083E-007  0.1387370E+03  0.7546771E-02  0.1215040E+00
         -5   -1    0    0    0  501 -0.00000000000E+00  0.00000000000E+00  0.44103779817E+03  0.44106284067E+03  0.47000000000E+01 0. -1.
          5   -1    0    0  501    0  0.00000000000E+00 -0.00000000000E+00 -0.44537994040E+02  0.44785297957E+02  0.47000000000E+01 0. -1.
         25    2    1    2    0    0  0.38185971038E+02  0.46532766281E+02  0.23543125409E+03  0.27326631481E+03  0.12499254652E+03 0.  0.
         25    2    1    2    0    0 -0.38185971038E+02 -0.46532766281E+02  0.16106855005E+03  0.21258182382E+03  0.12499794911E+03 0.  0.
          5    1    4    4  502    0  0.32330144277E+02  0.80107501740E+01  0.67600279945E+01  0.34310323895E+02  0.47000000000E+01 0. -1.
         -5    1    4    4    0  502 -0.70516115315E+02 -0.54543516455E+02  0.15430852205E+03  0.17827149992E+03  0.47000000000E+01 0. -1.
          5    1    3    3  503    0  0.16997153929E+02 -0.42726652554E+02  0.66707371128E+02  0.81156844708E+02  0.47000000000E+01 0.  1.
         -5    1    3    3    0  503  0.21188817109E+02  0.89259418835E+02  0.16872388296E+03  0.19210947010E+03  0.47000000000E+01 0.  1.
<mgrwt>
<rscale>  0 0.13873578E+03</rscale>
<asrwt>0</asrwt>
<pdfrwt beam="2">  1        5 0.68729490E-02 0.13873700E+03</pdfrwt>
<pdfrwt beam="1">  1       -5 0.67872917E-01 0.13873700E+03</pdfrwt>
<totfact> 0.21747928E+02</totfact>
</mgrwt>
</event>
<event>
 8    1  0.3682083E-007  0.1380322E+03  0.7546771E-02  0.1216010E+00
         -5   -1    0    0    0  501 -0.00000000000E+00  0.00000000000E+00  0.12472990581E+03  0.12481842573E+03  0.47000000000E+01 0. -1.
          5   -1    0    0  501    0  0.00000000000E+00 -0.00000000000E+00 -0.16481436856E+03  0.16488136973E+03  0.47000000000E+01 0. -1.
         25    2    1    2    0    0  0.11314827552E+02 -0.57436441310E+02  0.19455031229E+02  0.13939652848E+03  0.12500369515E+03 0.  0.
         25    2    1    2    0    0 -0.11314827552E+02  0.57436441310E+02 -0.59539493982E+02  0.15030326698E+03  0.12497660024E+03 0.  0.
          5    1    4    4  502    0 -0.52238473266E+02  0.21855357315E+01 -0.62130066480E+02  0.81337997371E+02  0.47000000000E+01 0.  1.
         -5    1    4    4    0  502  0.40923645714E+02  0.55250905578E+02  0.25905724977E+01  0.68965269604E+02  0.47000000000E+01 0.  1.
          5    1    3    3  503    0 -0.75666549106E+01 -0.77042896404E+02 -0.29670248489E+02  0.83037797407E+02  0.47000000000E+01 0. -1.
         -5    1    3    3    0  503  0.18881482463E+02  0.19606455094E+02  0.49125279718E+02  0.56358731078E+02  0.47000000000E+01 0. -1.
<mgrwt>
<rscale>  0 0.13802609E+03</rscale>
<asrwt>0</asrwt>
<pdfrwt beam="2">  1        5 0.25368020E-01 0.13803222E+03</pdfrwt>
<pdfrwt beam="1">  1       -5 0.19201179E-01 0.13803222E+03</pdfrwt>
<totfact> 0.26882838E+02</totfact>
</mgrwt>
</event>
<event>
 8    1  0.3682083E-007  0.1342679E+03  0.7546771E-02  0.1221263E+00
         -5   -1    0    0    0  501 -0.00000000000E+00  0.00000000000E+00  0.72572214893E+03  0.72573736810E+03  0.47000000000E+01 0. -1.
          5   -1    0    0  501    0  0.00000000000E+00 -0.00000000000E+00 -0.34031375923E+02  0.34354396331E+02  0.47000000000E+01 0. -1.
         25    2    1    2    0    0  0.18747984267E+02 -0.45278013387E+02  0.54476332506E+03  0.56106589423E+03  0.12500508758E+03 0.  0.
         25    2    1    2    0    0 -0.18747984267E+02  0.45278013387E+02  0.14692744795E+03  0.19902587020E+03  0.12498814599E+03 0.  0.
          5    1    3    3  502    0  0.71166561070E+02 -0.37689442227E+02  0.30609658850E+03  0.31654760299E+03  0.47000000000E+01 0. -1.
         -5    1    3    3    0  502 -0.52418576803E+02 -0.75885711600E+01  0.23866673656E+03  0.24451829123E+03  0.47000000000E+01 0. -1.
          5    1    4    4  503    0 -0.51428406284E+02  0.64204980169E+02  0.53755984857E+02  0.98381687114E+02  0.47000000000E+01 0.  1.
         -5    1    4    4    0  503  0.32680422017E+02 -0.18926966781E+02  0.93171463092E+02  0.10064418309E+03  0.47000000000E+01 0.  1.
<mgrwt>
<rscale>  0 0.13426391E+03</rscale>
<asrwt>0</asrwt>
<pdfrwt beam="2">  1        5 0.52616155E-02 0.13426786E+03</pdfrwt>
<pdfrwt beam="1">  1       -5 0.11167556E+00 0.13426786E+03</pdfrwt>
<totfact> 0.10407939E+02</totfact>
</mgrwt>
</event>
<event>
 8    1  0.3682083E-007  0.1678836E+03  0.7546771E-02  0.1180080E+00
          5   -1    0    0  501    0  0.00000000000E+00  0.00000000000E+00  0.18645303193E+03  0.18651225996E+03  0.47000000000E+01 0.  1.
         -5   -1    0    0    0  501 -0.00000000000E+00 -0.00000000000E+00 -0.17085898450E+03  0.17092361623E+03  0.47000000000E+01 0.  1.
         25    2    1    2    0    0 -0.10793845379E+03  0.30150999516E+02 -0.53081932063E+02  0.17604872543E+03  0.12496267297E+03 0.  0.
         25    2    1    2    0    0  0.10793845379E+03 -0.30150999516E+02  0.68675979489E+02  0.18138715076E+03  0.12500046290E+03 0.  0.
          5    1    3    3  502    0 -0.84623458586E+02 -0.40031948770E+02 -0.28310794333E+02  0.97914645182E+02  0.47000000000E+01 0. -1.
         -5    1    3    3    0  502 -0.23314995200E+02  0.70182948286E+02 -0.24771137729E+02  0.78134080245E+02  0.47000000000E+01 0. -1.
          5    1    4    4  503    0  0.17619740850E+02 -0.64062469330E+02  0.74391807212E+01  0.67021538733E+02  0.47000000000E+01 0.  1.
         -5    1    4    4    0  503  0.90318712936E+02  0.33911469814E+02  0.61236798767E+02  0.11436561203E+03  0.47000000000E+01 0.  1.
<mgrwt>
<rscale>  0 0.16787658E+03</rscale>
<asrwt>0</asrwt>
<pdfrwt beam="1">  1        5 0.28694609E-01 0.16788362E+03</pdfrwt>
<pdfrwt beam="2">  1       -5 0.26295525E-01 0.16788362E+03</pdfrwt>
<totfact> 0.12427707E+02</totfact>
</mgrwt>
</event>
<event>
 8    1  0.3682083E-007  0.1495030E+03  0.7546771E-02  0.1201087E+00
         -5   -1    0    0    0  501 -0.00000000000E+00  0.00000000000E+00  0.16397719237E+04  0.16397786594E+04  0.47000000000E+01 0. -1.
          5   -1    0    0  501    0  0.00000000000E+00 -0.00000000000E+00 -0.13230959351E+02  0.14040950300E+02  0.47000000000E+01 0. -1.
         25    2    1    2    0    0  0.65598571067E+02  0.49223580303E+02  0.83837564365E+03  0.85160135161E+03  0.12500003524E+03 0.  0.
         25    2    1    2    0    0 -0.65598571067E+02 -0.49223580303E+02  0.78816532072E+03  0.80221825810E+03  0.12499370963E+03 0.  0.
          5    1    3    3  502    0  0.80519625733E+01  0.27290589836E+02  0.32856724473E+02  0.43718013884E+02  0.47000000000E+01 0. -1.
         -5    1    3    3    0  502  0.57546608494E+02  0.21932990467E+02  0.80551891918E+03  0.80788333772E+03  0.47000000000E+01 0. -1.
          5    1    4    4  503    0 -0.52578620985E+02 -0.22702656542E+02  0.75641406798E+03  0.75859360282E+03  0.47000000000E+01 0. -1.
         -5    1    4    4    0  503 -0.13019950082E+02 -0.26520923761E+02  0.31751252741E+02  0.43624655276E+02  0.47000000000E+01 0. -1.
<mgrwt>
<rscale>  0 0.14950166E+03</rscale>
<asrwt>0</asrwt>
<pdfrwt beam="2">  1        5 0.20983581E-02 0.14950298E+03</pdfrwt>
<pdfrwt beam="1">  1       -5 0.25233534E+00 0.14950298E+03</pdfrwt>
<totfact> 0.43950220E+01</totfact>
</mgrwt>
</event>
<event>
 8    1  0.3682083E-007  0.1514820E+03  0.7546771E-02  0.1198664E+00
          5   -1    0    0  501    0  0.00000000000E+00  0.00000000000E+00  0.13340018686E+03  0.13348295717E+03  0.47000000000E+01 0. -1.
         -5   -1    0    0    0  501 -0.00000000000E+00 -0.00000000000E+00 -0.27149539219E+03  0.27153607123E+03  0.47000000000E+01 0. -1.
         25    2    1    2    0    0  0.85557796828E+02  0.12452956970E+01 -0.19170562449E+03  0.24433027021E+03  0.12499818848E+03 0.  0.
         25    2    1    2    0    0 -0.85557796828E+02 -0.12452956970E+01  0.53610419165E+02  0.16068875819E+03  0.12500045042E+03 0.  0.
          5    1    4    4  502    0 -0.67711728057E+02  0.51573484378E+02  0.30844030221E+01  0.85301265813E+02  0.47000000000E+01 0. -1.
         -5    1    4    4    0  502 -0.17846068771E+02 -0.52818780075E+02  0.50526016142E+02  0.75387492374E+02  0.47000000000E+01 0. -1.
          5    1    3    3  503    0  0.10090533520E+03 -0.38647054826E+02 -0.14420687242E+03  0.18025868515E+03  0.47000000000E+01 0.  1.
         -5    1    3    3    0  503 -0.15347538374E+02  0.39892350523E+02 -0.47498752070E+02  0.64071585064E+02  0.47000000000E+01 0.  1.
<mgrwt>
<rscale>  0 0.15148155E+03</rscale>
<asrwt>0</asrwt>
<pdfrwt beam="1">  1        5 0.20532602E-01 0.15148201E+03</pdfrwt>
<pdfrwt beam="2">  1       -5 0.41778018E-01 0.15148201E+03</pdfrwt>
<totfact> 0.90712924E+01</totfact>
</mgrwt>
</event>
<event>
 8    1  0.3682083E-007  0.1261810E+03  0.7546771E-02  0.1233271E+00
         -5   -1    0    0    0  501 -0.00000000000E+00  0.00000000000E+00  0.18275620370E+04  0.18275680806E+04  0.47000000000E+01 0. -1.
          5   -1    0    0  501    0  0.00000000000E+00 -0.00000000000E+00 -0.11026066837E+02  0.11985998077E+02  0.47000000000E+01 0. -1.
         25    2    1    2    0    0 -0.16465282447E+02  0.49673830746E+01  0.13621561887E+04  0.13679794422E+04  0.12490993331E+03 0.  0.
         25    2    1    2    0    0  0.16465282447E+02 -0.49673830746E+01  0.45437978150E+03  0.47157463648E+03  0.12500348600E+03 0.  0.
          5    1    3    3  502    0 -0.47532920309E+02  0.93714178620E+01  0.21735279083E+03  0.22273645338E+03  0.47000000000E+01 0. -1.
         -5    1    3    3    0  502  0.31067637862E+02 -0.44040347874E+01  0.11448033979E+04  0.11452429888E+04  0.47000000000E+01 0. -1.
          5    1    4    4  503    0  0.45542769341E+02 -0.48241401105E+02  0.32987379276E+03  0.33651179143E+03  0.47000000000E+01 0.  1.
         -5    1    4    4    0  503 -0.29077486895E+02  0.43274018030E+02  0.12450598874E+03  0.13506284505E+03  0.47000000000E+01 0.  1.
<mgrwt>
<rscale>  0 0.12615785E+03</rscale>
<asrwt>0</asrwt>
<pdfrwt beam="2">  1        5 0.17706242E-02 0.12618103E+03</pdfrwt>
<pdfrwt beam="1">  1       -5 0.28123762E+00 0.12618103E+03</pdfrwt>
<totfact> 0.36182707E+01</totfact>
</mgrwt>
</event>
<event>
 8    1  0.3682083E-007  0.1505047E+03  0.7546771E-02  0.1199855E+00
          5   -1    0    0  501    0  0.00000000000E+00  0.00000000000E+00  0.11371792681E+04  0.11371889807E+04  0.47000000000E+01 0. -1.
         -5   -1    0    0    0  501 -0.00000000000E+00 -0.00000000000E+00 -0.48047478683E+02  0.48276808178E+02  0.47000000000E+01 0. -1.
         25    2    1    2    0    0 -0.61879302360E+02 -0.56547305997E+02  0.90627670532E+02  0.17568258101E+03  0.12499739489E+03 0.  0.
         25    2    1    2    0    0  0.61879302360E+02  0.56547305997E+02  0.99850411892E+03  0.10097832079E+04  0.12500002222E+03 0.  0.
          5    1    3    3  502    0  0.31839089873E+02 -0.45873991727E+02  0.32255706513E+02  0.64658111352E+02  0.47000000000E+01 0.  1.
         -5    1    3    3    0  502 -0.93718392232E+02 -0.10673314270E+02  0.58371964019E+02  0.11102446966E+03  0.47000000000E+01 0.  1.
          5    1    4    4  503    0  0.35282461963E+02  0.49186819737E+02  0.96134057083E+03  0.96325592574E+03  0.47000000000E+01 0.  1.
         -5    1    4    4    0  503  0.26596840397E+02  0.73604862604E+01  0.37163548097E+02  0.46527282149E+02  0.47000000000E+01 0.  1.
<mgrwt>
<rscale>  0 0.15050411E+03</rscale>
<asrwt>0</asrwt>
<pdfrwt beam="1">  1        5 0.17496902E+00 0.15050466E+03</pdfrwt>
<pdfrwt beam="2">  1       -5 0.74103085E-02 0.15050466E+03</pdfrwt>
<totfact> 0.18144932E+01</totfact>
</mgrwt>
</event>
<event>
 8    1  0.3682083E-007  0.1303664E+03  0.7546771E-02  0.1226917E+00
         -5   -1    0    0    0  501 -0.00000000000E+00  0.00000000000E+00  0.25672300098E+03  0.25676602040E+03  0.47000000000E+01 0.  1.
          5   -1    0    0  501    0  0.00000000000E+00 -0.00000000000E+00 -0.97557577320E+02  0.97670726897E+02  0.47000000000E+01 0.  1.
         25    2    1    2    0    0 -0.29691300975E+02  0.22058776798E+02  0.18018176319E+03  0.22239796932E+03  0.12500890363E+03 0.  0.
         25    2    1    2    0    0  0.29691300975E+02 -0.22058776798E+02 -0.21016339523E+02  0.13203877798E+03  0.12499755748E+03 0.  0.
          5    1    3    3  502    0  0.16068405638E+02  0.59557640243E+02  0.13263062649E+03  0.14634985225E+03  0.47000000000E+01 0.  1.
         -5    1    3    3    0  502 -0.45759706613E+02 -0.37498863446E+02  0.47551136696E+02  0.76048117071E+02  0.47000000000E+01 0.  1.
          5    1    4    4  503    0  0.61948320224E+02  0.20526235539E+02  0.15395908800E+02  0.67216402253E+02  0.47000000000E+01 0. -1.
         -5    1    4    4    0  503 -0.32257019249E+02 -0.42585012336E+02 -0.36412248323E+02  0.64822375724E+02  0.47000000000E+01 0. -1.
<mgrwt>
<rscale>  0 0.13036364E+03</rscale>
<asrwt>0</asrwt>
<pdfrwt beam="2">  1        5 0.15020871E-01 0.13036636E+03</pdfrwt>
<pdfrwt beam="1">  1       -5 0.39507859E-01 0.13036636E+03</pdfrwt>
<totfact> 0.17219487E+02</totfact>
</mgrwt>
</event>
<event>
 8    1  0.3682083E-007  0.1579153E+03  0.7546771E-02  0.1191080E+00
          5   -1    0    0  501    0  0.00000000000E+00  0.00000000000E+00  0.41960621514E+02  0.42223024026E+02  0.47000000000E+01 0.  1.
         -5   -1    0    0    0  501 -0.00000000000E+00 -0.00000000000E+00 -0.61160053025E+03  0.61161858915E+03  0.47000000000E+01 0.  1.
         25    2    1    2    0    0 -0.69159320914E+02 -0.67259208418E+02 -0.22635319160E+03  0.27597522295E+03  0.12497897242E+03 0.  0.
         25    2    1    2    0    0  0.69159320914E+02  0.67259208418E+02 -0.34328671713E+03  0.37786639023E+03  0.12502170180E+03 0.  0.
          5    1    4    4  502    0  0.93096548940E+02  0.58342202009E+02 -0.33164946383E+03  0.34940554778E+03  0.47000000000E+01 0.  1.
         -5    1    4    4    0  502 -0.23937228026E+02  0.89170064090E+01 -0.11637253305E+02  0.28460842457E+02  0.47000000000E+01 0.  1.
          5    1    3    3  503    0 -0.58970479583E+02 -0.40068402820E+02 -0.23475207744E+03  0.24538464139E+03  0.47000000000E+01 0. -1.
         -5    1    3    3    0  503 -0.10188841331E+02 -0.27190805598E+02  0.83988858396E+01  0.30590581558E+02  0.47000000000E+01 0. -1.
<mgrwt>
<rscale>  0 0.15790683E+03</rscale>
<asrwt>0</asrwt>
<pdfrwt beam="1">  1        5 0.64770546E-02 0.15791529E+03</pdfrwt>
<pdfrwt beam="2">  1       -5 0.94113957E-01 0.15791529E+03</pdfrwt>
<totfact> 0.11753835E+02</totfact>
</mgrwt>
</event>
<event>
 8    1  0.3682083E-007  0.1785179E+03  0.7546771E-02  0.1169246E+00
          5   -1    0    0  501    0  0.00000000000E+00  0.00000000000E+00  0.13131695109E+03  0.13140103365E+03  0.47000000000E+01 0. -1.
         -5   -1    0    0    0  501 -0.00000000000E+00 -0.00000000000E+00 -0.25613240433E+03  0.25617552293E+03  0.47000000000E+01 0. -1.
         25    2    1    2    0    0 -0.12637097813E+03 -0.16535703525E+02 -0.10710703040E+03  0.20818397499E+03  0.12500239149E+03 0.  0.
         25    2    1    2    0    0  0.12637097813E+03  0.16535703525E+02 -0.17708422830E+02  0.17939258158E+03  0.12500022594E+03 0.  0.
          5    1    4    4  502    0  0.71925433482E+02  0.30716088615E+02  0.48681415559E+02  0.92242703246E+02  0.47000000000E+01 0. -1.
         -5    1    4    4    0  502  0.54445544644E+02 -0.14180385090E+02 -0.66389838389E+02  0.87149878337E+02  0.47000000000E+01 0. -1.
          5    1    3    3  503    0 -0.60940179112E+02  0.54393814777E+02 -0.52300424303E+02  0.97107244315E+02  0.47000000000E+01 0.  1.
         -5    1    3    3    0  503 -0.65430799013E+02 -0.70929518303E+02 -0.54806606100E+02  0.11107673068E+03  0.47000000000E+01 0.  1.
<mgrwt>
<rscale>  0 0.17851755E+03</rscale>
<asrwt>0</asrwt>
<pdfrwt beam="1">  1        5 0.20212393E-01 0.17851793E+03</pdfrwt>
<pdfrwt beam="2">  1       -5 0.39414770E-01 0.17851793E+03</pdfrwt>
<totfact> 0.11064877E+02</totfact>
</mgrwt>
</event>
<event>
 8    1  0.3682083E-007  0.1520299E+03  0.7546771E-02  0.1198006E+00
          5   -1    0    0  501    0  0.00000000000E+00  0.00000000000E+00  0.15106360874E+04  0.15106433989E+04  0.47000000000E+01 0. -1.
         -5   -1    0    0    0  501 -0.00000000000E+00 -0.00000000000E+00 -0.15058473498E+02  0.15774904884E+02  0.47000000000E+01 0. -1.
         25    2    1    2    0    0 -0.80748760602E+02  0.31100149266E+02  0.67898901688E+03  0.69580109630E+03  0.12500199577E+03 0.  0.
         25    2    1    2    0    0  0.80748760602E+02 -0.31100149266E+02  0.81658859706E+03  0.83061720749E+03  0.12498170631E+03 0.  0.
          5    1    3    3  502    0 -0.73760633674E+00  0.53970089186E+02  0.42610732460E+03  0.42953795719E+03  0.47000000000E+01 0. -1.
         -5    1    3    3    0  502 -0.80011154265E+02 -0.22869939920E+02  0.25288169228E+03  0.26626313911E+03  0.47000000000E+01 0. -1.
          5    1    4    4  503    0  0.10407174622E+03 -0.10268690221E+02  0.74548071943E+03  0.75279477110E+03  0.47000000000E+01 0.  1.
         -5    1    4    4    0  503 -0.23322985622E+02 -0.20831459044E+02  0.71107877626E+02  0.77822436384E+02  0.47000000000E+01 0.  1.
<mgrwt>
<rscale>  0 0.15202570E+03</rscale>
<asrwt>0</asrwt>
<pdfrwt beam="1">  1        5 0.23246131E+00 0.15202987E+03</pdfrwt>
<pdfrwt beam="2">  1       -5 0.23723599E-02 0.15202987E+03</pdfrwt>
<totfact> 0.48612750E+01</totfact>
</mgrwt>
</event>
<event>
 8    1  0.3682083E-007  0.1486537E+03  0.7546771E-02  0.1202137E+00
          5   -1    0    0  501    0  0.00000000000E+00  0.00000000000E+00  0.27212467515E+02  0.27615365075E+02  0.47000000000E+01 0.  1.
         -5   -1    0    0    0  501 -0.00000000000E+00 -0.00000000000E+00 -0.83697362583E+03  0.83698682208E+03  0.47000000000E+01 0.  1.
         25    2    1    2    0    0  0.73608447007E+02  0.32485932456E+02 -0.48846460947E+03  0.51058357840E+03  0.12499750617E+03 0.  0.
         25    2    1    2    0    0 -0.73608447007E+02 -0.32485932456E+02 -0.32129654884E+03  0.35401860875E+03  0.12499665502E+03 0.  0.
          5    1    3    3  502    0  0.29365263732E+02  0.23528151267E+02 -0.26188479413E+02  0.46084911523E+02  0.47000000000E+01 0.  1.
         -5    1    3    3    0  502  0.44243183276E+02  0.89577811888E+01 -0.46227613006E+03  0.46449866688E+03  0.47000000000E+01 0.  1.
          5    1    4    4  503    0 -0.68679805962E+02 -0.73994327840E+02 -0.26592181738E+03  0.28447948829E+03  0.47000000000E+01 0. -1.
         -5    1    4    4    0  503 -0.49286410457E+01  0.41508395384E+02 -0.55374731459E+02  0.69539120458E+02  0.47000000000E+01 0. -1.
<mgrwt>
<rscale>  0 0.14865350E+03</rscale>
<asrwt>0</asrwt>
<pdfrwt beam="1">  1        5 0.42185413E-02 0.14865368E+03</pdfrwt>
<pdfrwt beam="2">  1       -5 0.12879716E+00 0.14865368E+03</pdfrwt>
<totfact> 0.10772984E+02</totfact>
</mgrwt>
</event>
<event>
 8    1  0.3682083E-007  0.1280705E+03  0.7546771E-02  0.1230353E+00
          5   -1    0    0  501    0  0.00000000000E+00  0.00000000000E+00  0.72311980238E+03  0.72313507631E+03  0.47000000000E+01 0. -1.
         -5   -1    0    0    0  501 -0.00000000000E+00 -0.00000000000E+00 -0.22472944765E+02  0.22959164758E+02  0.47000000000E+01 0. -1.
         25    2    1    2    0    0 -0.23746212051E+02 -0.14568463873E+02  0.33252940504E+03  0.35633954432E+03  0.12500377155E+03 0.  0.
         25    2    1    2    0    0  0.23746212051E+02  0.14568463873E+02  0.36811745257E+03  0.38975469675E+03  0.12498856758E+03 0.  0.
          5    1    3    3  502    0  0.20993343155E+02 -0.60163183156E+02  0.15818308393E+03  0.17059984498E+03  0.47000000000E+01 0. -1.
         -5    1    3    3    0  502 -0.44739555206E+02  0.45594719282E+02  0.17434632111E+03  0.18573969934E+03  0.47000000000E+01 0. -1.
          5    1    4    4  503    0  0.93761272933E+01 -0.30634097370E+02  0.19299095354E+02  0.37694890452E+02  0.47000000000E+01 0.  1.
         -5    1    4    4    0  503  0.14370084758E+02  0.45202561244E+02  0.34881835722E+03  0.35205980630E+03  0.47000000000E+01 0.  1.
<mgrwt>
<rscale>  0 0.12806684E+03</rscale>
<asrwt>0</asrwt>
<pdfrwt beam="1">  1        5 0.11128776E+00 0.12807055E+03</pdfrwt>
<pdfrwt beam="2">  1       -5 0.34959530E-02 0.12807055E+03</pdfrwt>
<totfact> 0.20242660E+02</totfact>
</mgrwt>
</event>
<event>
 8    1  0.3682083E-007  0.1254141E+03  0.7546771E-02  0.1234427E+00
         -5   -1    0    0    0  501 -0.00000000000E+00  0.00000000000E+00  0.38603501569E+03  0.38606362602E+03  0.47000000000E+01 0. -1.
          5   -1    0    0  501    0  0.00000000000E+00 -0.00000000000E+00 -0.73871371300E+02  0.74020736944E+02  0.47000000000E+01 0. -1.
         25    2    1    2    0    0  0.41431641007E+01  0.92447972317E+01  0.31027682773E+03  0.33466460731E+03  0.12500422983E+03 0.  0.
         25    2    1    2    0    0 -0.41431641007E+01 -0.92447972317E+01  0.18868166601E+01  0.12541975566E+03  0.12499569171E+03 0.  0.
          5    1    3    3  502    0 -0.20627467975E+02  0.13374853184E+02  0.30799936287E+03  0.30901468681E+03  0.47000000000E+01 0. -1.
         -5    1    3    3    0  502  0.24770632076E+02 -0.41300559525E+01  0.22774648563E+01  0.25649920502E+02  0.47000000000E+01 0. -1.
          5    1    4    4  503    0  0.37604714397E+02  0.31899860077E+02  0.32380115991E+02  0.59180043337E+02  0.47000000000E+01 0.  1.
         -5    1    4    4    0  503 -0.41747878498E+02 -0.41144657309E+02 -0.30493299330E+02  0.66239712320E+02  0.47000000000E+01 0.  1.
<mgrwt>
<rscale>  0 0.12541194E+03</rscale>
<asrwt>0</asrwt>
<pdfrwt beam="2">  1        5 0.11378517E-01 0.12541407E+03</pdfrwt>
<pdfrwt beam="1">  1       -5 0.59403692E-01 0.12541407E+03</pdfrwt>
<totfact> 0.11807209E+02</totfact>
</mgrwt>
</event>
<event>
 8    1  0.3682083E-007  0.1720535E+03  0.7546771E-02  0.1175725E+00
         -5   -1    0    0    0  501 -0.00000000000E+00  0.00000000000E+00  0.53166357290E+02  0.53373697150E+02  0.47000000000E+01 0.  1.
          5   -1    0    0  501    0  0.00000000000E+00 -0.00000000000E+00 -0.65756703528E+03  0.65758383183E+03  0.47000000000E+01 0.  1.
         25    2    1    2    0    0  0.11446894543E+03  0.29536626958E+02 -0.16215215132E+03  0.23642280749E+03  0.12500748747E+03 0.  0.
         25    2    1    2    0    0 -0.11446894543E+03 -0.29536626958E+02 -0.44224852667E+03  0.47453472149E+03  0.12499556296E+03 0.  0.
          5    1    4    4  502    0 -0.11600423478E+03 -0.17634887871E+02 -0.44592864438E+03  0.46113167060E+03  0.47000000000E+01 0.  1.
         -5    1    4    4    0  502  0.15352893514E+01 -0.11901739087E+02  0.36801177095E+01  0.13403050886E+02  0.47000000000E+01 0.  1.
          5    1    3    3  503    0  0.58274022603E+02  0.70252857230E+02 -0.49266551521E+02  0.10382971038E+03  0.47000000000E+01 0.  1.
         -5    1    3    3    0  503  0.56194922827E+02 -0.40716230271E+02 -0.11288559980E+03  0.13259309711E+03  0.47000000000E+01 0.  1.
<mgrwt>
<rscale>  0 0.17205138E+03</rscale>
<asrwt>0</asrwt>
<pdfrwt beam="2">  1        5 0.10118139E+00 0.17205355E+03</pdfrwt>
<pdfrwt beam="1">  1       -5 0.81966813E-02 0.17205355E+03</pdfrwt>
<totfact> 0.67599049E+01</totfact>
</mgrwt>
</event>
<event>
 8    1  0.3682083E-007  0.1729662E+03  0.7546771E-02  0.1174791E+00
          5   -1    0    0  501    0  0.00000000000E+00  0.00000000000E+00  0.75262219315E+02  0.75408830095E+02  0.47000000000E+01 0.  1.
         -5   -1    0    0    0  501 -0.00000000000E+00 -0.00000000000E+00 -0.49892878606E+03  0.49895092300E+03  0.47000000000E+01 0.  1.
         25    2    1    2    0    0  0.17519836750E+02 -0.11825844489E+03 -0.34164600084E+03  0.38293178928E+03  0.12499104322E+03 0.  0.
         25    2    1    2    0    0 -0.17519836750E+02  0.11825844489E+03 -0.82020565911E+02  0.19142796381E+03  0.12500115051E+03 0.  0.
          5    1    4    4  502    0 -0.67145505683E+02  0.67167321427E+02 -0.20680510777E+02  0.97312596960E+02  0.47000000000E+01 0. -1.
         -5    1    4    4    0  502  0.49625668933E+02  0.51091123467E+02 -0.61340055134E+02  0.94115366854E+02  0.47000000000E+01 0. -1.
          5    1    3    3  503    0  0.41850619515E+02  0.78196721824E+01 -0.10984068437E+03  0.11789693622E+03  0.47000000000E+01 0. -1.
         -5    1    3    3    0  503 -0.24330782765E+02 -0.12607811708E+03 -0.23180531647E+03  0.26503485307E+03  0.47000000000E+01 0. -1.
<mgrwt>
<rscale>  0 0.17296433E+03</rscale>
<asrwt>0</asrwt>
<pdfrwt beam="1">  1        5 0.11591784E-01 0.17296616E+03</pdfrwt>
<pdfrwt beam="2">  1       -5 0.76771253E-01 0.17296616E+03</pdfrwt>
<totfact> 0.71143413E+01</totfact>
</mgrwt>
</event>
<event>
 8    1  0.3682083E-007  0.1438081E+03  0.7546771E-02  0.1208297E+00
          5   -1    0    0  501    0  0.00000000000E+00  0.00000000000E+00  0.22294872639E+03  0.22299826143E+03  0.47000000000E+01 0.  1.
         -5   -1    0    0    0  501 -0.00000000000E+00 -0.00000000000E+00 -0.10767650323E+03  0.10777903019E+03  0.47000000000E+01 0.  1.
         25    2    1    2    0    0  0.70615065354E+02  0.83330070144E+01 -0.41299747234E+01  0.14386735642E+03  0.12499933236E+03 0.  0.
         25    2    1    2    0    0 -0.70615065354E+02 -0.83330070144E+01  0.11940219788E+03  0.18690993519E+03  0.12499004982E+03 0.  0.
          5    1    4    4  502    0 -0.96164463148E+02  0.74418263194E+01  0.12291934258E+03  0.15631455317E+03  0.47000000000E+01 0.  1.
         -5    1    4    4    0  502  0.25549397795E+02 -0.15774833334E+02 -0.35171447003E+01  0.30595382025E+02  0.47000000000E+01 0.  1.
          5    1    3    3  503    0  0.34825512202E+02 -0.75756274279E+01  0.59198100713E+02  0.69258295958E+02  0.47000000000E+01 0. -1.
         -5    1    3    3    0  503  0.35789553152E+02  0.15908634442E+02 -0.63328075436E+02  0.74609060462E+02  0.47000000000E+01 0. -1.
<mgrwt>
<rscale>  0 0.14380605E+03</rscale>
<asrwt>0</asrwt>
<pdfrwt beam="1">  1        5 0.34311501E-01 0.14380806E+03</pdfrwt>
<pdfrwt beam="2">  1       -5 0.16577313E-01 0.14380806E+03</pdfrwt>
<totfact> 0.19776473E+02</totfact>
</mgrwt>
</event>
<event>
 8    1  0.3682083E-007  0.1788289E+03  0.7546771E-02  0.1168945E+00
          5   -1    0    0  501    0  0.00000000000E+00  0.00000000000E+00  0.12308121684E+03  0.12317092165E+03  0.47000000000E+01 0. -1.
         -5   -1    0    0    0  501 -0.00000000000E+00 -0.00000000000E+00 -0.28818594513E+03  0.28822426853E+03  0.47000000000E+01 0. -1.
         25    2    1    2    0    0  0.61640595354E+02 -0.11203079425E+03 -0.14731918035E+03  0.23168405046E+03  0.12499638589E+03 0.  0.
         25    2    1    2    0    0 -0.61640595354E+02  0.11203079425E+03 -0.17785547934E+02  0.17971113971E+03  0.12501722348E+03 0.  0.
          5    1    4    4  502    0 -0.72893990724E+02  0.15221130906E+02  0.16263351264E+02  0.76366244533E+02  0.47000000000E+01 0. -1.
         -5    1    4    4    0  502  0.11253395369E+02  0.96809663340E+02 -0.34048899198E+02  0.10334489518E+03  0.47000000000E+01 0. -1.
          5    1    3    3  503    0  0.24542880770E+01 -0.72228993882E+02 -0.52096863262E+01  0.72610480778E+02  0.47000000000E+01 0. -1.
         -5    1    3    3    0  503  0.59186307277E+02 -0.39801800364E+02 -0.14210949402E+03  0.15907356969E+03  0.47000000000E+01 0. -1.
<mgrwt>
<rscale>  0 0.17882524E+03</rscale>
<asrwt>0</asrwt>
<pdfrwt beam="1">  1        5 0.18945420E-01 0.17882888E+03</pdfrwt>
<pdfrwt beam="2">  1       -5 0.44346147E-01 0.17882888E+03</pdfrwt>
<totfact> 0.97905646E+01</totfact>
</mgrwt>
</event>
<event>
 8    1  0.3682083E-007  0.1381174E+03  0.7546771E-02  0.1215887E+00
         -5   -1    0    0    0  501 -0.00000000000E+00  0.00000000000E+00  0.12588867016E+03  0.12597637586E+03  0.47000000000E+01 0.  1.
          5   -1    0    0  501    0  0.00000000000E+00 -0.00000000000E+00 -0.15173767538E+03  0.15181044802E+03  0.47000000000E+01 0.  1.
         25    2    1    2    0    0  0.39686684141E+02  0.43275439857E+02 -0.19954308807E+02  0.13955138509E+03  0.12501447135E+03 0.  0.
         25    2    1    2    0    0 -0.39686684141E+02 -0.43275439857E+02 -0.58946964090E+01  0.13823543880E+03  0.12500596986E+03 0.  0.
          5    1    3    3  502    0  0.19700444178E+02  0.32824349123E+02 -0.72531067632E+02  0.82148592002E+02  0.47000000000E+01 0.  1.
         -5    1    3    3    0  502  0.19986239963E+02  0.10451090734E+02  0.52576758825E+02  0.57402793085E+02  0.47000000000E+01 0.  1.
          5    1    4    4  503    0 -0.66121335632E+02 -0.34211205360E+01 -0.41629144278E+02  0.78350563143E+02  0.47000000000E+01 0.  1.
         -5    1    4    4    0  503  0.26434651491E+02 -0.39854319321E+02  0.35734447869E+02  0.59884875657E+02  0.47000000000E+01 0.  1.
<mgrwt>
<rscale>  0 0.13811547E+03</rscale>
<asrwt>0</asrwt>
<pdfrwt beam="2">  1        5 0.23356602E-01 0.13811739E+03</pdfrwt>
<pdfrwt beam="1">  1       -5 0.19379832E-01 0.13811739E+03</pdfrwt>
<totfact> 0.30946371E+02</totfact>
</mgrwt>
</event>
<event>
 8    1  0.3682083E-007  0.1268875E+03  0.7546771E-02  0.1232150E+00
         -5   -1    0    0    0  501 -0.00000000000E+00  0.00000000000E+00  0.96484987729E+02  0.96599393668E+02  0.47000000000E+01 0.  1.
          5   -1    0    0  501    0  0.00000000000E+00 -0.00000000000E+00 -0.16687888387E+03  0.16694505648E+03  0.47000000000E+01 0.  1.
         25    2    1    2    0    0  0.12475353654E+02  0.17871695921E+02 -0.40393833417E+02  0.13315870313E+03  0.12499818589E+03 0.  0.
         25    2    1    2    0    0 -0.12475353654E+02 -0.17871695921E+02 -0.30000062723E+02  0.13038574702E+03  0.12500162918E+03 0.  0.
          5    1    4    4  502    0  0.43140355690E+02 -0.15110109004E+02 -0.52831820186E+02  0.70019260974E+02  0.47000000000E+01 0. -1.
         -5    1    4    4    0  502 -0.55615709345E+02 -0.27615869173E+01  0.22831757462E+02  0.60366486042E+02  0.47000000000E+01 0. -1.
          5    1    3    3  503    0  0.53581442249E+02  0.62658764497E+01 -0.64236982591E+02  0.84016141863E+02  0.47000000000E+01 0.  1.
         -5    1    3    3    0  503 -0.41106088595E+02  0.11605819472E+02  0.23843149174E+02  0.49142561265E+02  0.47000000000E+01 0.  1.
<mgrwt>
<rscale>  0 0.12688666E+03</rscale>
<asrwt>0</asrwt>
<pdfrwt beam="2">  1        5 0.25687565E-01 0.12688751E+03</pdfrwt>
<pdfrwt beam="1">  1       -5 0.14857735E-01 0.12688751E+03</pdfrwt>
<totfact> 0.40733176E+02</totfact>
</mgrwt>
</event>
<event>
 8    1  0.3682083E-007  0.1547465E+03  0.7546771E-02  0.1194782E+00
          5   -1    0    0  501    0  0.00000000000E+00  0.00000000000E+00  0.51188383346E+02  0.51403702100E+02  0.47000000000E+01 0.  1.
         -5   -1    0    0    0  501 -0.00000000000E+00 -0.00000000000E+00 -0.56330782374E+03  0.56332743080E+03  0.47000000000E+01 0.  1.
         25    2    1    2    0    0  0.83648433933E+02 -0.36112023000E+02 -0.38359657726E+03  0.41363366499E+03  0.12508131765E+03 0.  0.
         25    2    1    2    0    0 -0.83648433933E+02  0.36112023000E+02 -0.12852286314E+03  0.20109746791E+03  0.12498370512E+03 0.  0.
          5    1    3    3  502    0 -0.10218259040E+02 -0.63826851257E+01 -0.23474940016E+03  0.23510534312E+03  0.47000000000E+01 0. -1.
         -5    1    3    3    0  502  0.93866692973E+02 -0.29729337874E+02 -0.14884717710E+03  0.17852832187E+03  0.47000000000E+01 0. -1.
          5    1    4    4  503    0 -0.10917001583E+03  0.29579290582E+02 -0.61281148726E+02  0.12872643853E+03  0.47000000000E+01 0.  1.
         -5    1    4    4    0  503  0.25521581900E+02  0.65327324185E+01 -0.67241714411E+02  0.72371029373E+02  0.47000000000E+01 0.  1.
<mgrwt>
<rscale>  0 0.15472676E+03</rscale>
<asrwt>0</asrwt>
<pdfrwt beam="1">  1        5 0.78932075E-02 0.15474649E+03</pdfrwt>
<pdfrwt beam="2">  1       -5 0.86680809E-01 0.15474649E+03</pdfrwt>
<totfact> 0.10141543E+02</totfact>
</mgrwt>
</event>
<event>
 8    1  0.3682083E-007  0.1284366E+03  0.7546771E-02  0.1229797E+00
         -5   -1    0    0    0  501 -0.00000000000E+00  0.00000000000E+00  0.84285687371E+03  0.84286997785E+03  0.47000000000E+01 0. -1.
          5   -1    0    0  501    0  0.00000000000E+00 -0.00000000000E+00 -0.22555232455E+02  0.23039715951E+02  0.47000000000E+01 0. -1.
         25    2    1    2    0    0  0.22639592786E+02 -0.18966007538E+02  0.57334287877E+03  0.58755255453E+03  0.12499474827E+03 0.  0.
         25    2    1    2    0    0 -0.22639592786E+02  0.18966007538E+02  0.24695876248E+03  0.27835713927E+03  0.12498722339E+03 0.  0.
          5    1    3    3  502    0 -0.35210728801E+02  0.20594249526E+02  0.37299803771E+03  0.37525130869E+03  0.47000000000E+01 0. -1.
         -5    1    3    3    0  502  0.57850321587E+02 -0.39560257064E+02  0.20034484106E+03  0.21230124585E+03  0.47000000000E+01 0. -1.
          5    1    4    4  503    0 -0.64686748108E+02 -0.20892821409E+02  0.15829955903E+03  0.17234188625E+03  0.47000000000E+01 0.  1.
         -5    1    4    4    0  503  0.42047155322E+02  0.39858828947E+02  0.88659203452E+02  0.10601525302E+03  0.47000000000E+01 0.  1.
<mgrwt>
<rscale>  0 0.12843472E+03</rscale>
<asrwt>0</asrwt>
<pdfrwt beam="2">  1        5 0.35083115E-02 0.12843655E+03</pdfrwt>
<pdfrwt beam="1">  1       -5 0.12970857E+00 0.12843655E+03</pdfrwt>
<totfact> 0.13650075E+02</totfact>
</mgrwt>
</event>
<event>
 8    1  0.3682083E-007  0.1544785E+03  0.7546771E-02  0.1195077E+00
         -5   -1    0    0    0  501 -0.00000000000E+00  0.00000000000E+00  0.21044042069E+03  0.21049289931E+03  0.47000000000E+01 0. -1.
          5   -1    0    0  501    0  0.00000000000E+00 -0.00000000000E+00 -0.17234212480E+03  0.17240620053E+03  0.47000000000E+01 0. -1.
         25    2    1    2    0    0  0.29159712011E+02  0.85955703129E+02  0.13108341504E+03  0.20259428744E+03  0.12499164731E+03 0.  0.
         25    2    1    2    0    0 -0.29159712011E+02 -0.85955703129E+02 -0.92985119157E+02  0.18030481239E+03  0.12499968513E+03 0.  0.
          5    1    4    4  502    0  0.25094636249E+02 -0.95560250181E+02 -0.64691831609E+02  0.11818893882E+03  0.47000000000E+01 0.  1.
         -5    1    4    4    0  502 -0.54254348260E+02  0.96045470518E+01 -0.28293287548E+02  0.62115873571E+02  0.47000000000E+01 0.  1.
          5    1    3    3  503    0  0.47534098719E+02  0.33021558434E+02 -0.20169911078E+01  0.58103976762E+02  0.47000000000E+01 0. -1.
         -5    1    3    3    0  503 -0.18374386708E+02  0.52934144695E+02  0.13310040615E+03  0.14449031068E+03  0.47000000000E+01 0. -1.
<mgrwt>
<rscale>  0 0.15447683E+03</rscale>
<asrwt>0</asrwt>
<pdfrwt beam="2">  1        5 0.26523139E-01 0.15447845E+03</pdfrwt>
<pdfrwt beam="1">  1       -5 0.32384415E-01 0.15447845E+03</pdfrwt>
<totfact> 0.93866229E+01</totfact>
</mgrwt>
</event>
<event>
 8    1  0.3682083E-007  0.1365915E+03  0.7546771E-02  0.1218000E+00
         -5   -1    0    0    0  501 -0.00000000000E+00  0.00000000000E+00  0.31311659692E+03  0.31315186933E+03  0.47000000000E+01 0.  1.
          5   -1    0    0  501    0  0.00000000000E+00 -0.00000000000E+00 -0.61161407604E+02  0.61341729517E+02  0.47000000000E+01 0.  1.
         25    2    1    2    0    0 -0.39041232442E+02  0.38798119189E+02  0.94624083530E+02  0.16614215566E+03  0.12497994567E+03 0.  0.
         25    2    1    2    0    0  0.39041232442E+02 -0.38798119189E+02  0.15733110578E+03  0.20835144319E+03  0.12501094012E+03 0.  0.
          5    1    3    3  502    0  0.26131600820E+02  0.24680190217E+02  0.92398840674E+02  0.99255267409E+02  0.47000000000E+01 0.  1.
         -5    1    3    3    0  502 -0.65172833263E+02  0.14117928972E+02  0.22252428560E+01  0.66886888250E+02  0.47000000000E+01 0.  1.
          5    1    4    4  503    0  0.53962460892E+02 -0.37073431766E+02  0.17367294293E+03  0.18566304866E+03  0.47000000000E+01 0.  1.
         -5    1    4    4    0  503 -0.14921228449E+02 -0.17246874229E+01 -0.16341837150E+02  0.22688394535E+02  0.47000000000E+01 0.  1.
<mgrwt>
<rscale>  0 0.13658444E+03</rscale>
<asrwt>0</asrwt>
<pdfrwt beam="2">  1        5 0.94260317E-02 0.13659153E+03</pdfrwt>
<pdfrwt beam="1">  1       -5 0.48188367E-01 0.13659153E+03</pdfrwt>
<totfact> 0.26463488E+02</totfact>
</mgrwt>
</event>
<event>
 8    1  0.3682083E-007  0.1403598E+03  0.7546771E-02  0.1212853E+00
         -5   -1    0    0    0  501 -0.00000000000E+00  0.00000000000E+00  0.24039521794E+03  0.24044115873E+03  0.47000000000E+01 0.  1.
          5   -1    0    0  501    0  0.00000000000E+00 -0.00000000000E+00 -0.95081370720E+02  0.95197463506E+02  0.47000000000E+01 0.  1.
         25    2    1    2    0    0  0.43027330112E+02  0.47116825067E+02  0.13527457354E+03  0.19492023003E+03  0.12499335778E+03 0.  0.
         25    2    1    2    0    0 -0.43027330112E+02 -0.47116825067E+02  0.10039273686E+02  0.14071839220E+03  0.12501812887E+03 0.  0.
          5    1    4    4  502    0 -0.43196312792E+01  0.41278995803E+02  0.13916529608E+02  0.44026974745E+02  0.47000000000E+01 0.  1.
         -5    1    4    4    0  502 -0.38707698832E+02 -0.88395820870E+02 -0.38772559215E+01  0.96691417456E+02  0.47000000000E+01 0.  1.
          5    1    3    3  503    0 -0.30200025058E+02  0.58095343429E+02  0.55339051472E+02  0.85858086744E+02  0.47000000000E+01 0.  1.
         -5    1    3    3    0  503  0.73227355169E+02 -0.10978518362E+02  0.79935522067E+02  0.10906214329E+03  0.47000000000E+01 0.  1.
<mgrwt>
<rscale>  0 0.14035430E+03</rscale>
<asrwt>0</asrwt>
<pdfrwt beam="2">  1        5 0.14640367E-01 0.14035982E+03</pdfrwt>
<pdfrwt beam="1">  1       -5 0.36996344E-01 0.14035982E+03</pdfrwt>
<totfact> 0.21132387E+02</totfact>
</mgrwt>
</event>
<event>
 8    1  0.3682083E-007  0.1421758E+03  0.7546771E-02  0.1210436E+00
          5   -1    0    0  501    0  0.00000000000E+00  0.00000000000E+00  0.42059036042E+03  0.42061662031E+03  0.47000000000E+01 0. -1.
         -5   -1    0    0    0  501 -0.00000000000E+00 -0.00000000000E+00 -0.47994308288E+02  0.48223890636E+02  0.47000000000E+01 0. -1.
         25    2    1    2    0    0 -0.26103912912E+02  0.62484241798E+02  0.17669972951E+03  0.22679672981E+03  0.12501306931E+03 0.  0.
         25    2    1    2    0    0  0.26103912912E+02 -0.62484241798E+02  0.19589632263E+03  0.24204378114E+03  0.12499651206E+03 0.  0.
          5    1    4    4  502    0  0.69403448572E+01  0.24041815409E+02  0.12744896506E+03  0.12996732655E+03  0.47000000000E+01 0. -1.
         -5    1    4    4    0  502  0.19163568055E+02 -0.86526057207E+02  0.68447357566E+02  0.11207645459E+03  0.47000000000E+01 0. -1.
          5    1    3    3  503    0  0.28387268739E+01  0.77522421908E+02  0.42434951950E+02  0.88547159275E+02  0.47000000000E+01 0. -1.
         -5    1    3    3    0  503 -0.28942639786E+02 -0.15038180110E+02  0.13426477756E+03  0.13824957053E+03  0.47000000000E+01 0. -1.
<mgrwt>
<rscale>  0 0.14217217E+03</rscale>
<asrwt>0</asrwt>
<pdfrwt beam="1">  1        5 0.64725888E-01 0.14217581E+03</pdfrwt>
<pdfrwt beam="2">  1       -5 0.74034201E-02 0.14217581E+03</pdfrwt>
<totfact> 0.21478948E+02</totfact>
</mgrwt>
</event>
<event>
 8    1  0.3682083E-007  0.1327906E+03  0.7546771E-02  0.1223374E+00
         -5   -1    0    0    0  501 -0.00000000000E+00  0.00000000000E+00  0.96105662180E+03  0.96106811429E+03  0.47000000000E+01 0.  1.
          5   -1    0    0  501    0  0.00000000000E+00 -0.00000000000E+00 -0.38912314065E+02  0.39195129619E+02  0.47000000000E+01 0.  1.
         25    2    1    2    0    0 -0.57642325327E+01 -0.44438409875E+02  0.82528850136E+03  0.83590268423E+03  0.12499675344E+03 0.  0.
         25    2    1    2    0    0  0.57642325327E+01  0.44438409875E+02  0.96855806371E+02  0.16436055968E+03  0.12500139080E+03 0.  0.
          5    1    3    3  502    0  0.15917319802E+02  0.19726959639E+02  0.39384964433E+02  0.47072066341E+02  0.47000000000E+01 0. -1.
         -5    1    3    3    0  502 -0.21681552335E+02 -0.64165369514E+02  0.78590353693E+03  0.78883061789E+03  0.47000000000E+01 0. -1.
          5    1    4    4  503    0  0.32506874167E+02  0.38092720680E+02  0.11871438269E+03  0.12893000773E+03  0.47000000000E+01 0. -1.
         -5    1    4    4    0  503 -0.26742641634E+02  0.63456891952E+01 -0.21858576315E+02  0.35430551949E+02  0.47000000000E+01 0. -1.
<mgrwt>
<rscale>  0 0.13278952E+03</rscale>
<asrwt>0</asrwt>
<pdfrwt beam="2">  1        5 0.60091495E-02 0.13279061E+03</pdfrwt>
<pdfrwt beam="1">  1       -5 0.14787749E+00 0.13279061E+03</pdfrwt>
<totfact> 0.40069125E+01</totfact>
</mgrwt>
</event>
<event>
 8    1  0.3682083E-007  0.1504006E+03  0.7546771E-02  0.1199983E+00
         -5   -1    0    0    0  501 -0.00000000000E+00  0.00000000000E+00  0.39751821982E+03  0.39754600374E+03  0.47000000000E+01 0. -1.
          5   -1    0    0  501    0  0.00000000000E+00 -0.00000000000E+00 -0.84801746410E+02  0.84931891502E+02  0.47000000000E+01 0. -1.
         25    2    1    2    0    0 -0.65513399829E+02  0.51977590457E+02  0.29488668329E+03  0.33102417343E+03  0.12500068778E+03 0.  0.
         25    2    1    2    0    0  0.65513399829E+02 -0.51977590457E+02  0.17829790124E+02  0.15145372182E+03  0.12500661170E+03 0.  0.
          5    1    3    3  502    0  0.24967831940E+02  0.54058728289E+02  0.11355828538E+03  0.12830944203E+03  0.47000000000E+01 0. -1.
         -5    1    3    3    0  502 -0.90481231769E+02 -0.20811378315E+01  0.18132839791E+03  0.20271473140E+03  0.47000000000E+01 0. -1.
          5    1    4    4  503    0 -0.25903251304E+02  0.13419833485E+02  0.25029380518E+02  0.38725059690E+02  0.47000000000E+01 0.  1.
         -5    1    4    4    0  503  0.91416651133E+02 -0.65397423942E+02 -0.71995903947E+01  0.11272866213E+03  0.47000000000E+01 0.  1.
<mgrwt>
<rscale>  0 0.15039933E+03</rscale>
<asrwt>0</asrwt>
<pdfrwt beam="2">  1        5 0.13058571E-01 0.15040056E+03</pdfrwt>
<pdfrwt beam="1">  1       -5 0.61168797E-01 0.15040056E+03</pdfrwt>
<totfact> 0.92039774E+01</totfact>
</mgrwt>
</event>
<event>
 8    1  0.3682083E-007  0.1281594E+03  0.7546771E-02  0.1230213E+00
         -5   -1    0    0    0  501 -0.00000000000E+00  0.00000000000E+00  0.87533013183E+02  0.87659103332E+02  0.47000000000E+01 0.  1.
          5   -1    0    0  501    0  0.00000000000E+00 -0.00000000000E+00 -0.18735080910E+03  0.18740975341E+03  0.47000000000E+01 0.  1.
         25    2    1    2    0    0 -0.20551052093E+02 -0.19430046662E+02 -0.49887166444E+02  0.13752650594E+03  0.12499975202E+03 0.  0.
         25    2    1    2    0    0  0.20551052093E+02  0.19430046662E+02 -0.49930629476E+02  0.13754235079E+03  0.12499983219E+03 0.  0.
          5    1    3    3  502    0 -0.59599293655E+02  0.28435962608E+02 -0.25154704087E+02  0.70820398977E+02  0.47000000000E+01 0.  1.
         -5    1    3    3    0  502  0.39048241562E+02 -0.47866009270E+02 -0.24732462357E+02  0.66706106967E+02  0.47000000000E+01 0.  1.
          5    1    4    4  503    0  0.53091923653E+02 -0.31135617000E+02 -0.46219096062E+02  0.77113383040E+02  0.47000000000E+01 0. -1.
         -5    1    4    4    0  503 -0.32540871560E+02  0.50565663662E+02 -0.37115334143E+01  0.60428967753E+02  0.47000000000E+01 0. -1.
<mgrwt>
<rscale>  0 0.12815938E+03</rscale>
<asrwt>0</asrwt>
<pdfrwt beam="2">  1        5 0.28837435E-01 0.12815939E+03</pdfrwt>
<pdfrwt beam="1">  1       -5 0.13480851E-01 0.12815939E+03</pdfrwt>
<totfact> 0.38932493E+02</totfact>
</mgrwt>
</event>
<event>
 8    1  0.3682083E-007  0.1280807E+03  0.7546771E-02  0.1230348E+00
          5   -1    0    0  501    0  0.00000000000E+00  0.00000000000E+00  0.18926656409E+02  0.19501495400E+02  0.47000000000E+01 0.  1.
         -5   -1    0    0    0  501 -0.00000000000E+00 -0.00000000000E+00 -0.88458011015E+03  0.88459259621E+03  0.47000000000E+01 0.  1.
         25    2    1    2    0    0  0.13003039546E+02 -0.24485628379E+02 -0.51825325043E+03  0.53383531277E+03  0.12500033816E+03 0.  0.
         25    2    1    2    0    0 -0.13003039546E+02  0.24485628379E+02 -0.34740020331E+03  0.37025877884E+03  0.12504414027E+03 0.  0.
          5    1    3    3  502    0  0.38008451507E+02  0.13113843958E+02 -0.45027528390E+03  0.45209129231E+03  0.47000000000E+01 0. -1.
         -5    1    3    3    0  502 -0.25005411961E+02 -0.37599472336E+02 -0.67977966530E+02  0.81744020459E+02  0.47000000000E+01 0. -1.
          5    1    4    4  503    0 -0.11193623007E+02 -0.47707327181E+02 -0.20110826651E+03  0.20704567400E+03  0.47000000000E+01 0. -1.
         -5    1    4    4    0  503 -0.18094165395E+01  0.72192955560E+02 -0.14629193679E+03  0.16321310484E+03  0.47000000000E+01 0. -1.
<mgrwt>
<rscale>  0 0.12806999E+03</rscale>
<asrwt>0</asrwt>
<pdfrwt beam="1">  1        5 0.29569728E-02 0.12808069E+03</pdfrwt>
<pdfrwt beam="2">  1       -5 0.13613440E+00 0.12808069E+03</pdfrwt>
<totfact> 0.15853122E+02</totfact>
</mgrwt>
</event>
<event>
 8    1  0.3682083E-007  0.1831615E+03  0.7546771E-02  0.1164779E+00
         -5   -1    0    0    0  501 -0.00000000000E+00  0.00000000000E+00  0.23478974870E+04  0.23479021912E+04  0.47000000000E+01 0. -1.
          5   -1    0    0  501    0  0.00000000000E+00 -0.00000000000E+00 -0.14054217868E+02  0.14819279331E+02  0.47000000000E+01 0. -1.
         25    2    1    2    0    0  0.67353753483E+01  0.13370374769E+03  0.10452278011E+04  0.10611539690E+04  0.12499812886E+03 0.  0.
         25    2    1    2    0    0 -0.67353753483E+01 -0.13370374769E+03  0.12886154680E+04  0.13015675015E+04  0.12500431703E+03 0.  0.
          5    1    4    4  502    0 -0.91839031365E+01  0.23575753691E+02  0.16996644833E+03  0.17190358866E+03  0.47000000000E+01 0. -1.
         -5    1    4    4    0  502  0.24485277882E+01 -0.15727950138E+03  0.11186490196E+04  0.11296639129E+04  0.47000000000E+01 0. -1.
          5    1    3    3  503    0 -0.23519922853E+02  0.12029785707E+03  0.49720934047E+03  0.51211715401E+03  0.47000000000E+01 0.  1.
         -5    1    3    3    0  503  0.30255298201E+02  0.13405890625E+02  0.54801846066E+03  0.54903681497E+03  0.47000000000E+01 0.  1.
<mgrwt>
<rscale>  0 0.18316045E+03</rscale>
<asrwt>0</asrwt>
<pdfrwt beam="2">  1        5 0.22214013E-02 0.18316150E+03</pdfrwt>
<pdfrwt beam="1">  1       -5 0.36127401E+00 0.18316150E+03</pdfrwt>
<totfact> 0.83363133E+00</totfact>
</mgrwt>
</event>
<event>
 8    1  0.3682083E-007  0.1250031E+03  0.7546771E-02  0.1235068E+00
         -5   -1    0    0    0  501 -0.00000000000E+00  0.00000000000E+00  0.18824470629E+03  0.18830337078E+03  0.47000000000E+01 0. -1.
          5   -1    0    0  501    0  0.00000000000E+00 -0.00000000000E+00 -0.94068891996E+02  0.94186232759E+02  0.47000000000E+01 0. -1.
         25    2    1    2    0    0 -0.84856268882E-03 -0.17212380168E+00  0.95789197303E+02  0.15748443217E+03  0.12500298568E+03 0.  0.
         25    2    1    2    0    0  0.84856268882E-03  0.17212380168E+00 -0.16133830108E+01  0.12500517137E+03  0.12499464083E+03 0.  0.
          5    1    3    3  502    0  0.91475282540E+01  0.61201579893E+01 -0.29386206057E+02  0.31729681899E+02  0.47000000000E+01 0. -1.
         -5    1    3    3    0  502 -0.91483768167E+01 -0.62922817909E+01  0.12517540336E+03  0.12575475027E+03  0.47000000000E+01 0. -1.
          5    1    4    4  503    0 -0.61639068828E+02  0.83413111531E+01  0.32244988690E+01  0.62461505511E+02  0.47000000000E+01 0.  1.
         -5    1    4    4    0  503  0.61639917390E+02 -0.81691873514E+01 -0.48378818799E+01  0.62543665858E+02  0.47000000000E+01 0.  1.
<mgrwt>
<rscale>  0 0.12500102E+03</rscale>
<asrwt>0</asrwt>
<pdfrwt beam="2">  1        5 0.14485676E-01 0.12500310E+03</pdfrwt>
<pdfrwt beam="1">  1       -5 0.28974263E-01 0.12500310E+03</pdfrwt>
<totfact> 0.33593215E+02</totfact>
</mgrwt>
</event>
<event>
 8    1  0.3682083E-007  0.1493597E+03  0.7546771E-02  0.1201262E+00
         -5   -1    0    0    0  501 -0.00000000000E+00  0.00000000000E+00  0.44840820693E+02  0.45086463606E+02  0.47000000000E+01 0.  1.
          5   -1    0    0  501    0  0.00000000000E+00 -0.00000000000E+00 -0.54705650527E+03  0.54707669477E+03  0.47000000000E+01 0.  1.
         25    2    1    2    0    0 -0.76242702194E+02 -0.29501682203E+02 -0.16057204676E+03  0.21929765055E+03  0.12499911377E+03 0.  0.
         25    2    1    2    0    0  0.76242702194E+02  0.29501682203E+02 -0.34164363781E+03  0.37286550783E+03  0.12500005111E+03 0.  0.
          5    1    3    3  502    0  0.17775675172E+02 -0.48343709539E+02 -0.72190438072E+02  0.88806746528E+02  0.47000000000E+01 0.  1.
         -5    1    3    3    0  502 -0.94018377366E+02  0.18842027337E+02 -0.88381608691E+02  0.13049090402E+03  0.47000000000E+01 0.  1.
          5    1    4    4  503    0  0.90547157925E+02 -0.23985183214E+02 -0.21615571526E+03  0.23562567785E+03  0.47000000000E+01 0. -1.
         -5    1    4    4    0  503 -0.14304455732E+02  0.53486865416E+02 -0.12548792255E+03  0.13723982998E+03  0.47000000000E+01 0. -1.
<mgrwt>
<rscale>  0 0.14935948E+03</rscale>
<asrwt>0</asrwt>
<pdfrwt beam="2">  1        5 0.84182983E-01 0.14935967E+03</pdfrwt>
<pdfrwt beam="1">  1       -5 0.69190368E-02 0.14935967E+03</pdfrwt>
<totfact> 0.13452246E+02</totfact>
</mgrwt>
</event>
<event>
 8    1  0.3682083E-007  0.1411454E+03  0.7546771E-02  0.1211799E+00
         -5   -1    0    0    0  501 -0.00000000000E+00  0.00000000000E+00  0.42922861419E+02  0.43179416767E+02  0.47000000000E+01 0.  1.
          5   -1    0    0  501    0  0.00000000000E+00 -0.00000000000E+00 -0.49478059072E+03  0.49480291324E+03  0.47000000000E+01 0.  1.
         25    2    1    2    0    0 -0.34083945318E+02  0.55987151628E+02 -0.15719985181E+03  0.21126715825E+03  0.12500296903E+03 0.  0.
         25    2    1    2    0    0  0.34083945318E+02 -0.55987151628E+02 -0.29465787749E+03  0.32671517176E+03  0.12499304868E+03 0.  0.
          5    1    3    3  502    0  0.13729955262E+02  0.79930480327E+02 -0.62833115117E+02  0.10270094309E+03  0.47000000000E+01 0.  1.
         -5    1    3    3    0  502 -0.47813900580E+02 -0.23943328700E+02 -0.94366736696E+02  0.10856621515E+03  0.47000000000E+01 0.  1.
          5    1    4    4  503    0  0.43792915940E+02 -0.28320436071E+02 -0.29227048216E+03  0.29692421816E+03  0.47000000000E+01 0.  1.
         -5    1    4    4    0  503 -0.97089706219E+01 -0.27666715557E+02 -0.23873953251E+01  0.29790953605E+02  0.47000000000E+01 0.  1.
<mgrwt>
<rscale>  0 0.14114319E+03</rscale>
<asrwt>0</asrwt>
<pdfrwt beam="2">  1        5 0.76141539E-01 0.14114538E+03</pdfrwt>
<pdfrwt beam="1">  1       -5 0.66249696E-02 0.14114538E+03</pdfrwt>
<totfact> 0.17940752E+02</totfact>
</mgrwt>
</event>
<event>
 8    1  0.3682083E-007  0.1372724E+03  0.7546771E-02  0.1217048E+00
         -5   -1    0    0    0  501 -0.00000000000E+00  0.00000000000E+00  0.17640686595E+02  0.18256062652E+02  0.47000000000E+01 0.  1.
          5   -1    0    0  501    0  0.00000000000E+00 -0.00000000000E+00 -0.11797354877E+04  0.11797448500E+04  0.47000000000E+01 0.  1.
         25    2    1    2    0    0  0.56061590816E+02  0.86540096205E+01 -0.38187532355E+03  0.40579757181E+03  0.12500045080E+03 0.  0.
         25    2    1    2    0    0 -0.56061590816E+02 -0.86540096205E+01 -0.78021947757E+03  0.79220334079E+03  0.12500362449E+03 0.  0.
          5    1    4    4  502    0  0.26095920841E+02 -0.93882669078E+01 -0.48250101705E+03  0.48332024383E+03  0.47000000000E+01 0. -1.
         -5    1    4    4    0  502 -0.82157511657E+02  0.73425728737E+00 -0.29771846052E+03  0.30888309697E+03  0.47000000000E+01 0. -1.
          5    1    3    3  503    0  0.49475603472E+02  0.39951329616E+02 -0.80507575104E+02  0.10270104053E+03  0.47000000000E+01 0. -1.
         -5    1    3    3    0  503  0.65859873443E+01 -0.31297319995E+02 -0.30136774845E+03  0.30309653128E+03  0.47000000000E+01 0. -1.
<mgrwt>
<rscale>  0 0.13727163E+03</rscale>
<asrwt>0</asrwt>
<pdfrwt beam="2">  1        5 0.18154576E+00 0.13727236E+03</pdfrwt>
<pdfrwt beam="1">  1       -5 0.27620095E-02 0.13727236E+03</pdfrwt>
<totfact> 0.81186949E+01</totfact>
</mgrwt>
</event>
<event>
 8    1  0.3682083E-007  0.1429298E+03  0.7546771E-02  0.1209441E+00
         -5   -1    0    0    0  501 -0.00000000000E+00  0.00000000000E+00  0.52206672359E+03  0.52208787946E+03  0.47000000000E+01 0. -1.
          5   -1    0    0  501    0  0.00000000000E+00 -0.00000000000E+00 -0.13013361602E+03  0.13021846267E+03  0.47000000000E+01 0. -1.
         25    2    1    2    0    0  0.44173092077E+02 -0.53422007345E+02  0.46874173679E+03  0.49004871833E+03  0.12499503028E+03 0.  0.
         25    2    1    2    0    0 -0.44173092077E+02  0.53422007345E+02 -0.76808629231E+02  0.16225762379E+03  0.12499119178E+03 0.  0.
          5    1    3    3  502    0 -0.34934404795E+02 -0.49197396201E+02  0.15424345584E+03  0.16569227532E+03  0.47000000000E+01 0. -1.
         -5    1    3    3    0  502  0.79107496872E+02 -0.42246111434E+01  0.31449828095E+03  0.32435644301E+03  0.47000000000E+01 0. -1.
          5    1    4    4  503    0 -0.69364479804E+01 -0.38222757235E+02 -0.39864261004E+01  0.39332875236E+02  0.47000000000E+01 0.  1.
         -5    1    4    4    0  503 -0.37236644096E+02  0.91644764580E+02 -0.72822203130E+02  0.12292474855E+03  0.47000000000E+01 0.  1.
<mgrwt>
<rscale>  0 0.14292897E+03</rscale>
<asrwt>0</asrwt>
<pdfrwt beam="2">  1        5 0.20028710E-01 0.14292981E+03</pdfrwt>
<pdfrwt beam="1">  1       -5 0.80326112E-01 0.14292981E+03</pdfrwt>
<totfact> 0.22431704E+01</totfact>
</mgrwt>
</event>
<event>
 8    1  0.3682083E-007  0.1329808E+03  0.7546771E-02  0.1223101E+00
          5   -1    0    0  501    0  0.00000000000E+00  0.00000000000E+00  0.90265465437E+02  0.90387743918E+02  0.47000000000E+01 0.  1.
         -5   -1    0    0    0  501 -0.00000000000E+00 -0.00000000000E+00 -0.23540796450E+03  0.23545487837E+03  0.47000000000E+01 0.  1.
         25    2    1    2    0    0  0.17668823164E+01 -0.45316811820E+02 -0.13952785235E+03  0.19274335636E+03  0.12500097813E+03 0.  0.
         25    2    1    2    0    0 -0.17668823164E+01  0.45316811820E+02 -0.56146467077E+01  0.13309926593E+03  0.12500861981E+03 0.  0.
          5    1    3    3  502    0  0.53775141975E+02  0.18381197238E+01 -0.27901021935E+02  0.60792282434E+02  0.47000000000E+01 0. -1.
         -5    1    3    3    0  502 -0.52008259659E+02 -0.47154931544E+02 -0.11162683042E+03  0.13195107393E+03  0.47000000000E+01 0. -1.
          5    1    4    4  503    0  0.41772146979E+02 -0.10719437272E+02  0.30797607623E+02  0.53201515335E+02  0.47000000000E+01 0.  1.
         -5    1    4    4    0  503 -0.43539029295E+02  0.56036249092E+02 -0.36412254330E+02  0.79897750592E+02  0.47000000000E+01 0.  1.
<mgrwt>
<rscale>  0 0.13297899E+03</rscale>
<asrwt>0</asrwt>
<pdfrwt beam="1">  1        5 0.13900010E-01 0.13298079E+03</pdfrwt>
<pdfrwt beam="2">  1       -5 0.36229624E-01 0.13298079E+03</pdfrwt>
<totfact> 0.23767371E+02</totfact>
</mgrwt>
</event>
<event>
 8    1  0.3682083E-007  0.1464446E+03  0.7546771E-02  0.1204913E+00
          5   -1    0    0  501    0  0.00000000000E+00  0.00000000000E+00  0.21483617162E+03  0.21488757674E+03  0.47000000000E+01 0. -1.
         -5   -1    0    0    0  501 -0.00000000000E+00 -0.00000000000E+00 -0.10039771219E+03  0.10050766445E+03  0.47000000000E+01 0. -1.
         25    2    1    2    0    0 -0.16795972383E+02  0.74421848686E+02  0.44095966096E+02  0.15293268593E+03  0.12499294360E+03 0.  0.
         25    2    1    2    0    0  0.16795972383E+02 -0.74421848686E+02  0.70342493335E+02  0.16246255526E+03  0.12500119696E+03 0.  0.
          5    1    3    3  502    0  0.30383886372E+02  0.48970158426E+02 -0.26961007373E+02  0.63798455200E+02  0.47000000000E+01 0.  1.
         -5    1    3    3    0  502 -0.47179858756E+02  0.25451690261E+02  0.71056973469E+02  0.89134230730E+02  0.47000000000E+01 0.  1.
          5    1    4    4  503    0  0.22924035096E+02 -0.36943419502E+02  0.10316328638E+03  0.11204945911E+03  0.47000000000E+01 0. -1.
         -5    1    4    4    0  503 -0.61280627122E+01 -0.37478429184E+02 -0.32820793047E+02  0.50413096145E+02  0.47000000000E+01 0. -1.
<mgrwt>
<rscale>  0 0.14644282E+03</rscale>
<asrwt>0</asrwt>
<pdfrwt beam="1">  1        5 0.33064131E-01 0.14644458E+03</pdfrwt>
<pdfrwt beam="2">  1       -5 0.15458214E-01 0.14644458E+03</pdfrwt>
<totfact> 0.24335343E+02</totfact>
</mgrwt>
</event>
<event>
 8    1  0.3682083E-007  0.1368046E+03  0.7546771E-02  0.1217697E+00
          5   -1    0    0  501    0  0.00000000000E+00  0.00000000000E+00  0.29493357448E+03  0.29497102121E+03  0.47000000000E+01 0. -1.
         -5   -1    0    0    0  501 -0.00000000000E+00 -0.00000000000E+00 -0.63390185703E+02  0.63564185226E+02  0.47000000000E+01 0. -1.
         25    2    1    2    0    0 -0.16367320511E+02 -0.53124125852E+02  0.11002740481E+03  0.17556060329E+03  0.12500173474E+03 0.  0.
         25    2    1    2    0    0  0.16367320511E+02  0.53124125852E+02  0.12151598396E+03  0.18297460315E+03  0.12499403630E+03 0.  0.
          5    1    4    4  502    0  0.20208990819E+02  0.56515868334E+02 -0.10482738926E+01  0.60213250715E+02  0.47000000000E+01 0.  1.
         -5    1    4    4    0  502 -0.38416703075E+01 -0.33917424818E+01  0.12256425785E+03  0.12276135243E+03  0.47000000000E+01 0.  1.
          5    1    3    3  503    0  0.28382855038E+02 -0.40491958135E+02  0.11811108385E+03  0.12813080528E+03  0.47000000000E+01 0.  1.
         -5    1    3    3    0  503 -0.44750175549E+02 -0.12632167717E+02 -0.80836790309E+01  0.47429798013E+02  0.47000000000E+01 0.  1.
<mgrwt>
<rscale>  0 0.13680283E+03</rscale>
<asrwt>0</asrwt>
<pdfrwt beam="1">  1        5 0.45390662E-01 0.13680459E+03</pdfrwt>
<pdfrwt beam="2">  1       -5 0.97686012E-02 0.13680459E+03</pdfrwt>
<totfact> 0.28207262E+02</totfact>
</mgrwt>
</event>
<event>
 8    1  0.3682083E-007  0.1722628E+03  0.7546771E-02  0.1175509E+00
         -5   -1    0    0    0  501 -0.00000000000E+00  0.00000000000E+00  0.19670737358E+03  0.19676351497E+03  0.47000000000E+01 0. -1.
          5   -1    0    0  501    0  0.00000000000E+00 -0.00000000000E+00 -0.16926168749E+03  0.16932692890E+03  0.47000000000E+01 0. -1.
         25    2    1    2    0    0  0.82909558637E+02  0.84703282196E+02  0.74249599783E+02  0.18758328765E+03  0.12500338319E+03 0.  0.
         25    2    1    2    0    0 -0.82909558637E+02 -0.84703282196E+02 -0.46803913686E+02  0.17850715622E+03  0.12500223020E+03 0.  0.
          5    1    3    3  502    0  0.90048109001E+02  0.97321656010E+01  0.15627596401E+02  0.92030911933E+02  0.47000000000E+01 0. -1.
         -5    1    3    3    0  502 -0.71385503637E+01  0.74971116595E+02  0.58622003382E+02  0.95552375718E+02  0.47000000000E+01 0. -1.
          5    1    4    4  503    0 -0.87403089203E+02 -0.21282015647E+02  0.13098281838E+02  0.91026804730E+02  0.47000000000E+01 0.  1.
         -5    1    4    4    0  503  0.44935305659E+01 -0.63421266549E+02 -0.59902195524E+02  0.87480351486E+02  0.47000000000E+01 0.  1.
<mgrwt>
<rscale>  0 0.17226263E+03</rscale>
<asrwt>0</asrwt>
<pdfrwt beam="2">  1        5 0.26049597E-01 0.17226284E+03</pdfrwt>
<pdfrwt beam="1">  1       -5 0.30272010E-01 0.17226284E+03</pdfrwt>
<totfact> 0.11479677E+02</totfact>
</mgrwt>
</event>
<event>
 8    1  0.3682083E-007  0.1273537E+03  0.7546771E-02  0.1231438E+00
         -5   -1    0    0    0  501 -0.00000000000E+00  0.00000000000E+00  0.11900949477E+04  0.11901042284E+04  0.47000000000E+01 0. -1.
          5   -1    0    0  501    0  0.00000000000E+00 -0.00000000000E+00 -0.13838249624E+02  0.14614621195E+02  0.47000000000E+01 0. -1.
         25    2    1    2    0    0 -0.24190511924E+02  0.29547208812E+01  0.71259345077E+03  0.72388357619E+03  0.12499637814E+03 0.  0.
         25    2    1    2    0    0  0.24190511924E+02 -0.29547208812E+01  0.46366324728E+03  0.48083527342E+03  0.12500016818E+03 0.  0.
          5    1    4    4  502    0 -0.11791625873E+02  0.65701417718E+01 -0.13078777911E+01  0.14353039676E+02  0.47000000000E+01 0.  1.
         -5    1    4    4    0  502  0.35982137796E+02 -0.95248626530E+01  0.46497112507E+03  0.46648223375E+03  0.47000000000E+01 0.  1.
          5    1    3    3  503    0  0.29826133776E+02 -0.28134135023E+02  0.51476487640E+03  0.51641659132E+03  0.47000000000E+01 0.  1.
         -5    1    3    3    0  503 -0.54016645699E+02  0.31088855904E+02  0.19782857437E+03  0.20746698487E+03  0.47000000000E+01 0.  1.
<mgrwt>
<rscale>  0 0.12735272E+03</rscale>
<asrwt>0</asrwt>
<pdfrwt beam="2">  1        5 0.21893961E-02 0.12735365E+03</pdfrwt>
<pdfrwt beam="1">  1       -5 0.18315198E+00 0.12735365E+03</pdfrwt>
<totfact> 0.11203854E+02</totfact>
</mgrwt>
</event>
<event>
 8    1  0.3682083E-007  0.1838954E+03  0.7546771E-02  0.1164086E+00
         -5   -1    0    0    0  501 -0.00000000000E+00  0.00000000000E+00  0.48574636747E+03  0.48576910514E+03  0.47000000000E+01 0. -1.
          5   -1    0    0  501    0  0.00000000000E+00 -0.00000000000E+00 -0.69552103733E+02  0.69710724668E+02  0.47000000000E+01 0. -1.
         25    2    1    2    0    0 -0.30539255167E+01 -0.13481685861E+03  0.20168368290E+03  0.27293370805E+03  0.12502635408E+03 0.  0.
         25    2    1    2    0    0  0.30539255167E+01  0.13481685861E+03  0.21451058083E+03  0.28254612176E+03  0.12503043552E+03 0.  0.
          5    1    4    4  502    0 -0.42378129483E+02  0.53466757637E+02  0.16117093508E+03  0.17507929730E+03  0.47000000000E+01 0. -1.
         -5    1    4    4    0  502  0.45432054999E+02  0.81350100971E+02  0.53339645754E+02  0.10746682446E+03  0.47000000000E+01 0. -1.
          5    1    3    3  503    0  0.46532098483E+02 -0.21970886247E+02  0.24870557552E+02  0.57346234965E+02  0.47000000000E+01 0.  1.
         -5    1    3    3    0  503 -0.49586023999E+02 -0.11284597236E+03  0.17681312535E+03  0.21558747308E+03  0.47000000000E+01 0.  1.
<mgrwt>
<rscale>  0 0.18389472E+03</rscale>
<asrwt>0</asrwt>
<pdfrwt beam="2">  1        5 0.10714274E-01 0.18389541E+03</pdfrwt>
<pdfrwt beam="1">  1       -5 0.74744163E-01 0.18389541E+03</pdfrwt>
<totfact> 0.88497071E+01</totfact>
</mgrwt>
</event>
<event>
 8    1  0.3682083E-007  0.1887161E+03  0.7546771E-02  0.1159626E+00
         -5   -1    0    0    0  501 -0.00000000000E+00  0.00000000000E+00  0.33013634746E+03  0.33016980164E+03  0.47000000000E+01 0.  1.
          5   -1    0    0  501    0  0.00000000000E+00 -0.00000000000E+00 -0.26098219901E+03  0.26102451648E+03  0.47000000000E+01 0.  1.
         25    2    1    2    0    0  0.22785500119E+02 -0.13952846960E+03  0.26100803877E+03  0.32208530547E+03  0.12500549927E+03 0.  0.
         25    2    1    2    0    0 -0.22785500119E+02  0.13952846960E+03 -0.19185389033E+03  0.26910901265E+03  0.12499749040E+03 0.  0.
          5    1    3    3  502    0 -0.46300952684E+02 -0.67077481930E+02  0.16092199217E+03  0.18044706805E+03  0.47000000000E+01 0. -1.
         -5    1    3    3    0  502  0.69086452802E+02 -0.72450987674E+02  0.10008604660E+03  0.14163823742E+03  0.47000000000E+01 0. -1.
          5    1    4    4  503    0 -0.25493402570E+02  0.90172338120E+02 -0.28024573798E+02  0.97920533460E+02  0.47000000000E+01 0.  1.
         -5    1    4    4    0  503  0.27079024516E+01  0.49356131485E+02 -0.16382931653E+03  0.17118847919E+03  0.47000000000E+01 0.  1.
<mgrwt>
<rscale>  0 0.18871472E+03</rscale>
<asrwt>0</asrwt>
<pdfrwt beam="2">  1        5 0.40156936E-01 0.18871605E+03</pdfrwt>
<pdfrwt beam="1">  1       -5 0.50796036E-01 0.18871605E+03</pdfrwt>
<totfact> 0.17183262E+01</totfact>
</mgrwt>
</event>
<event>
 8    1  0.3682083E-007  0.1678405E+03  0.7546771E-02  0.1180119E+00
          5   -1    0    0  501    0  0.00000000000E+00  0.00000000000E+00  0.49542446496E+02  0.49764887269E+02  0.47000000000E+01 0.  1.
         -5   -1    0    0    0  501 -0.00000000000E+00 -0.00000000000E+00 -0.59594617708E+03  0.59596471034E+03  0.47000000000E+01 0.  1.
         25    2    1    2    0    0 -0.10595459354E+03  0.36305725887E+02 -0.34421672544E+03  0.38295636870E+03  0.12500377846E+03 0.  0.
         25    2    1    2    0    0  0.10595459354E+03 -0.36305725887E+02 -0.20218700514E+03  0.26277322891E+03  0.12500281261E+03 0.  0.
          5    1    4    4  502    0  0.11623115137E+03 -0.67614276301E+02 -0.16126167213E+03  0.21002092231E+03  0.47000000000E+01 0.  1.
         -5    1    4    4    0  502 -0.10276557832E+02  0.31308550414E+02 -0.40925333003E+02  0.52752306597E+02  0.47000000000E+01 0.  1.
          5    1    3    3  503    0 -0.44407979225E+02  0.87127817581E+00 -0.29017135233E+03  0.29358871139E+03  0.47000000000E+01 0. -1.
         -5    1    3    3    0  503 -0.61546614314E+02  0.35434447711E+02 -0.54045373117E+02  0.89367657313E+02  0.47000000000E+01 0. -1.
<mgrwt>
<rscale>  0 0.16784030E+03</rscale>
<asrwt>0</asrwt>
<pdfrwt beam="1">  1        5 0.76404517E-02 0.16784048E+03</pdfrwt>
<pdfrwt beam="2">  1       -5 0.91702559E-01 0.16784048E+03</pdfrwt>
<totfact> 0.96118656E+01</totfact>
</mgrwt>
</event>
<event>
 8    1  0.3682083E-007  0.1322708E+03  0.7546771E-02  0.1224126E+00
         -5   -1    0    0    0  501 -0.00000000000E+00  0.00000000000E+00  0.46311838882E+03  0.46314223740E+03  0.47000000000E+01 0.  1.
          5   -1    0    0  501    0  0.00000000000E+00 -0.00000000000E+00 -0.38023917023E+02  0.38313290981E+02  0.47000000000E+01 0.  1.
         25    2    1    2    0    0  0.23856970163E+02  0.36046267298E+02  0.18634322471E+03  0.22851282769E+03  0.12500330641E+03 0.  0.
         25    2    1    2    0    0 -0.23856970163E+02 -0.36046267298E+02  0.23875124708E+03  0.27294270068E+03  0.12500828558E+03 0.  0.
          5    1    4    4  502    0 -0.59565634272E+02  0.14994264012E+01  0.19809013342E+03  0.20691086009E+03  0.47000000000E+01 0.  1.
         -5    1    4    4    0  502  0.35708664109E+02 -0.37545693699E+02  0.40661113662E+02  0.66031840592E+02  0.47000000000E+01 0.  1.
          5    1    3    3  503    0  0.70372539920E+02  0.37777764973E+02  0.84126881409E+02  0.11609856191E+03  0.47000000000E+01 0.  1.
         -5    1    3    3    0  503 -0.46515569757E+02 -0.17314976752E+01  0.10221634331E+03  0.11241426579E+03  0.47000000000E+01 0.  1.
<mgrwt>
<rscale>  0 0.13226961E+03</rscale>
<asrwt>0</asrwt>
<pdfrwt beam="2">  1        5 0.58739271E-02 0.13227078E+03</pdfrwt>
<pdfrwt beam="1">  1       -5 0.71273081E-01 0.13227078E+03</pdfrwt>
<totfact> 0.24987519E+02</totfact>
</mgrwt>
</event>
<event>
 8    1  0.3682083E-007  0.1263426E+03  0.7546771E-02  0.1232992E+00
         -5   -1    0    0    0  501 -0.00000000000E+00  0.00000000000E+00  0.33906669154E+02  0.34230866380E+02  0.47000000000E+01 0. -1.
          5   -1    0    0  501    0  0.00000000000E+00 -0.00000000000E+00 -0.46918501729E+03  0.46920855752E+03  0.47000000000E+01 0. -1.
         25    2    1    2    0    0  0.64131366096E+01  0.17148919219E+02 -0.22947626312E+03  0.26195041563E+03  0.12499380449E+03 0.  0.
         25    2    1    2    0    0 -0.64131366096E+01 -0.17148919219E+02 -0.20580208501E+03  0.24148900827E+03  0.12500891635E+03 0.  0.
          5    1    3    3  502    0  0.54287579233E+02 -0.22766426800E+02 -0.76104651439E+02  0.96329950788E+02  0.47000000000E+01 0.  1.
         -5    1    3    3    0  502 -0.47874442623E+02  0.39915346018E+02 -0.15337161169E+03  0.16562046484E+03  0.47000000000E+01 0.  1.
          5    1    4    4  503    0  0.45203529203E+02 -0.46758641855E+02 -0.12553177962E+03  0.14145687447E+03  0.47000000000E+01 0.  1.
         -5    1    4    4    0  503 -0.51616665812E+02  0.29609722637E+02 -0.80270305392E+02  0.10003213380E+03  0.47000000000E+01 0.  1.
<mgrwt>
<rscale>  0 0.12633882E+03</rscale>
<asrwt>0</asrwt>
<pdfrwt beam="2">  1        5 0.72209054E-01 0.12634256E+03</pdfrwt>
<pdfrwt beam="1">  1       -5 0.52431600E-02 0.12634256E+03</pdfrwt>
<totfact> 0.28849837E+02</totfact>
</mgrwt>
</event>
<event>
 8    1  0.3682083E-007  0.1489494E+03  0.7546771E-02  0.1201774E+00
          5   -1    0    0  501    0  0.00000000000E+00  0.00000000000E+00  0.27424327306E+02  0.27824157277E+02  0.47000000000E+01 0. -1.
         -5   -1    0    0    0  501 -0.00000000000E+00 -0.00000000000E+00 -0.11865867341E+04  0.11865960423E+04  0.47000000000E+01 0. -1.
         25    2    1    2    0    0  0.60863123007E+01 -0.80745778172E+02 -0.92493433916E+03  0.93685081689E+03  0.12501598883E+03 0.  0.
         25    2    1    2    0    0 -0.60863123007E+01  0.80745778172E+02 -0.23422806762E+03  0.27756938265E+03  0.12500020253E+03 0.  0.
          5    1    3    3  502    0 -0.71205427091E+01  0.29543910505E+02 -0.10490334762E+03  0.10931764322E+03  0.47000000000E+01 0. -1.
         -5    1    3    3    0  502  0.13206855010E+02 -0.11028968868E+03 -0.82003099153E+03  0.82753317367E+03  0.47000000000E+01 0. -1.
          5    1    4    4  503    0 -0.27877382819E+02  0.10532384037E+03 -0.13866536160E+03  0.17640984194E+03  0.47000000000E+01 0.  1.
         -5    1    4    4    0  503  0.21791070518E+02 -0.24578062198E+02 -0.95562706016E+02  0.10115954071E+03  0.47000000000E+01 0.  1.
<mgrwt>
<rscale>  0 0.14894608E+03</rscale>
<asrwt>0</asrwt>
<pdfrwt beam="1">  1        5 0.42506004E-02 0.14894939E+03</pdfrwt>
<pdfrwt beam="2">  1       -5 0.18258324E+00 0.14894939E+03</pdfrwt>
<totfact> 0.40519548E+01</totfact>
</mgrwt>
</event>
<event>
 8    1  0.3682083E-007  0.1589179E+03  0.7546771E-02  0.1189924E+00
         -5   -1    0    0    0  501 -0.00000000000E+00  0.00000000000E+00  0.87702722768E+02  0.87828569275E+02  0.47000000000E+01 0.  1.
          5   -1    0    0  501    0  0.00000000000E+00 -0.00000000000E+00 -0.28917204193E+03  0.28921023467E+03  0.47000000000E+01 0.  1.
         25    2    1    2    0    0  0.76407831475E+02 -0.61579961494E+02 -0.11460357234E+03  0.19593076829E+03  0.12499855519E+03 0.  0.
         25    2    1    2    0    0 -0.76407831475E+02  0.61579961494E+02 -0.86865746824E+02  0.18110803565E+03  0.12499685692E+03 0.  0.
          5    1    3    3  502    0 -0.30238579880E+02 -0.93766649790E+01 -0.17548083500E+01  0.32054062326E+02  0.47000000000E+01 0. -1.
         -5    1    3    3    0  502  0.10664641135E+03 -0.52203296515E+02 -0.11284876399E+03  0.16387670596E+03  0.47000000000E+01 0. -1.
          5    1    4    4  503    0  0.10356769892E+01  0.26258368238E+02 -0.91912516360E+02  0.95710893805E+02  0.47000000000E+01 0. -1.
         -5    1    4    4    0  503 -0.77443508464E+02  0.35321593256E+02  0.50467695358E+01  0.85397141850E+02  0.47000000000E+01 0. -1.
<mgrwt>
<rscale>  0 0.15891753E+03</rscale>
<asrwt>0</asrwt>
<pdfrwt beam="2">  1        5 0.44500624E-01 0.15891786E+03</pdfrwt>
<pdfrwt beam="1">  1       -5 0.13505345E-01 0.15891786E+03</pdfrwt>
<totfact> 0.17424576E+02</totfact>
</mgrwt>
</event>
<event>
 8    1  0.3682083E-007  0.1564193E+03  0.7546771E-02  0.1192805E+00
         -5   -1    0    0    0  501 -0.00000000000E+00  0.00000000000E+00  0.20108417985E+03  0.20113909960E+03  0.47000000000E+01 0.  1.
          5   -1    0    0  501    0  0.00000000000E+00 -0.00000000000E+00 -0.12158961121E+03  0.12168041566E+03  0.47000000000E+01 0.  1.
         25    2    1    2    0    0 -0.93535806184E+02  0.93500585637E+01  0.42879484047E+02  0.16219020214E+03  0.12502256150E+03 0.  0.
         25    2    1    2    0    0  0.93535806184E+02 -0.93500585637E+01  0.36615084589E+02  0.16062931312E+03  0.12499896471E+03 0.  0.
          5    1    4    4  502    0  0.58038562509E+01 -0.50620785647E+02 -0.11265749767E+02  0.52394234461E+02  0.47000000000E+01 0. -1.
         -5    1    4    4    0  502  0.87731949933E+02  0.41270727084E+02  0.47880834356E+02  0.10823507866E+03  0.47000000000E+01 0. -1.
          5    1    3    3  503    0 -0.32088167182E+02 -0.15948146702E+02  0.78664983786E+02  0.86569414520E+02  0.47000000000E+01 0. -1.
         -5    1    3    3    0  503 -0.61447639001E+02  0.25298205266E+02 -0.35785499739E+02  0.75620787619E+02  0.47000000000E+01 0. -1.
<mgrwt>
<rscale>  0 0.15641463E+03</rscale>
<asrwt>0</asrwt>
<pdfrwt beam="2">  1        5 0.18717304E-01 0.15641935E+03</pdfrwt>
<pdfrwt beam="1">  1       -5 0.30947237E-01 0.15641935E+03</pdfrwt>
<totfact> 0.19956803E+02</totfact>
</mgrwt>
</event>
<event>
 8    1  0.3682083E-007  0.1438132E+03  0.7546771E-02  0.1208288E+00
         -5   -1    0    0    0  501 -0.00000000000E+00  0.00000000000E+00  0.39722587263E+02  0.39999674234E+02  0.47000000000E+01 0. -1.
          5   -1    0    0  501    0  0.00000000000E+00 -0.00000000000E+00 -0.51924703707E+03  0.51926830782E+03  0.47000000000E+01 0. -1.
         25    2    1    2    0    0 -0.71112705283E+02 -0.23466314432E+00 -0.22965001946E+03  0.27096377227E+03  0.12500065010E+03 0.  0.
         25    2    1    2    0    0  0.71112705283E+02  0.23466314432E+00 -0.24987443035E+03  0.28830420978E+03  0.12500005807E+03 0.  0.
          5    1    3    3  502    0  0.25651436461E+02 -0.32443100489E+02 -0.71074150019E+02  0.82366108095E+02  0.47000000000E+01 0.  1.
         -5    1    3    3    0  502 -0.96764141744E+02  0.32208437344E+02 -0.15857586944E+03  0.18859766418E+03  0.47000000000E+01 0.  1.
          5    1    4    4  503    0  0.32588209676E+02  0.49065458783E+02 -0.45367298611E+02  0.74496257884E+02  0.47000000000E+01 0.  1.
         -5    1    4    4    0  503  0.38524495607E+02 -0.48830795638E+02 -0.20450713174E+03  0.21380795190E+03  0.47000000000E+01 0.  1.
<mgrwt>
<rscale>  0 0.14381306E+03</rscale>
<asrwt>0</asrwt>
<pdfrwt beam="2">  1        5 0.79907105E-01 0.14381319E+03</pdfrwt>
<pdfrwt beam="1">  1       -5 0.61341182E-02 0.14381319E+03</pdfrwt>
<totfact> 0.18393771E+02</totfact>
</mgrwt>
</event>
<event>
 8    1  0.3682083E-007  0.1287456E+03  0.7546771E-02  0.1229332E+00
         -5   -1    0    0    0  501 -0.00000000000E+00  0.00000000000E+00  0.18337293441E+03  0.18343315696E+03  0.47000000000E+01 0.  1.
          5   -1    0    0  501    0  0.00000000000E+00 -0.00000000000E+00 -0.90403680374E+02  0.90525772160E+02  0.47000000000E+01 0.  1.
         25    2    1    2    0    0 -0.30437412045E+02 -0.47864806170E+01  0.52132083955E+02  0.13889190499E+03  0.12499544250E+03 0.  0.
         25    2    1    2    0    0  0.30437412045E+02  0.47864806170E+01  0.40837170077E+02  0.13506702413E+03  0.12500432032E+03 0.  0.
          5    1    4    4  502    0 -0.36130884741E+01 -0.25716109844E+02  0.73888668165E+02  0.78460168219E+02  0.47000000000E+01 0.  1.
         -5    1    4    4    0  502  0.34050500519E+02  0.30502590461E+02 -0.33051498087E+02  0.56606855912E+02  0.47000000000E+01 0.  1.
          5    1    3    3  503    0 -0.44524900147E+02  0.51483355572E+02  0.41123545000E+02  0.79663282554E+02  0.47000000000E+01 0.  1.
         -5    1    3    3    0  503  0.14087488102E+02 -0.56269836189E+02  0.11008538956E+02  0.59228622436E+02  0.47000000000E+01 0.  1.
<mgrwt>
<rscale>  0 0.12874343E+03</rscale>
<asrwt>0</asrwt>
<pdfrwt beam="2">  1        5 0.13922283E-01 0.12874559E+03</pdfrwt>
<pdfrwt beam="1">  1       -5 0.28225245E-01 0.12874559E+03</pdfrwt>
<totfact> 0.38380111E+02</totfact>
</mgrwt>
</event>
<event>
 8    1  0.3682083E-007  0.1485606E+03  0.7546771E-02  0.1202253E+00
         -5   -1    0    0    0  501 -0.00000000000E+00  0.00000000000E+00  0.70087482366E+02  0.70244894365E+02  0.47000000000E+01 0. -1.
          5   -1    0    0  501    0  0.00000000000E+00 -0.00000000000E+00 -0.39443310502E+03  0.39446110624E+03  0.47000000000E+01 0. -1.
         25    2    1    2    0    0 -0.51338604739E+02 -0.61721559620E+02 -0.57511565607E+02  0.15930420037E+03  0.12500017927E+03 0.  0.
         25    2    1    2    0    0  0.51338604739E+02  0.61721559620E+02 -0.26683405704E+03  0.30540180023E+03  0.12499856931E+03 0.  0.
          5    1    4    4  502    0  0.59787083929E+02 -0.61481569978E+01 -0.20287952446E+03  0.21164708050E+03  0.47000000000E+01 0. -1.
         -5    1    4    4    0  502 -0.84484791892E+01  0.67869716618E+02 -0.63954532588E+02  0.93754719737E+02  0.47000000000E+01 0. -1.
          5    1    3    3  503    0  0.30868151033E+02  0.93990072699E+01 -0.35673532617E+02  0.48330890900E+02  0.47000000000E+01 0. -1.
         -5    1    3    3    0  503 -0.82206755772E+02 -0.71120566890E+02 -0.21838032990E+02  0.11097330947E+03  0.47000000000E+01 0. -1.
<mgrwt>
<rscale>  0 0.14856025E+03</rscale>
<asrwt>0</asrwt>
<pdfrwt beam="2">  1        5 0.60696278E-01 0.14856059E+03</pdfrwt>
<pdfrwt beam="1">  1       -5 0.10796952E-01 0.14856059E+03</pdfrwt>
<totfact> 0.13066580E+02</totfact>
</mgrwt>
</event>
<event>
 8    1  0.3682083E-007  0.1265921E+03  0.7546771E-02  0.1232606E+00
         -5   -1    0    0    0  501 -0.00000000000E+00  0.00000000000E+00  0.49861367596E+02  0.50082391902E+02  0.47000000000E+01 0.  1.
          5   -1    0    0  501    0  0.00000000000E+00 -0.00000000000E+00 -0.34079271260E+03  0.34082512079E+03  0.47000000000E+01 0.  1.
         25    2    1    2    0    0 -0.13546345255E+02 -0.14668187256E+02 -0.97708006820E+02  0.15991376974E+03  0.12500759965E+03 0.  0.
         25    2    1    2    0    0  0.13546345255E+02  0.14668187256E+02 -0.19322333818E+03  0.23099374295E+03  0.12499676666E+03 0.  0.
          5    1    4    4  502    0 -0.54374873705E+02  0.13504239715E+00 -0.63187485079E+02  0.83494870486E+02  0.47000000000E+01 0.  1.
         -5    1    4    4    0  502  0.67921218960E+02  0.14533144859E+02 -0.13003585310E+03  0.14749887246E+03  0.47000000000E+01 0.  1.
          5    1    3    3  503    0 -0.32918984584E+02 -0.21921692434E+02  0.16967932543E+02  0.43292272752E+02  0.47000000000E+01 0. -1.
         -5    1    3    3    0  503  0.19372639329E+02  0.72535051787E+01 -0.11467593936E+03  0.11662149699E+03  0.47000000000E+01 0. -1.
<mgrwt>
<rscale>  0 0.12658942E+03</rscale>
<asrwt>0</asrwt>
<pdfrwt beam="2">  1        5 0.52449142E-01 0.12659210E+03</pdfrwt>
<pdfrwt beam="1">  1       -5 0.76904746E-02 0.12659210E+03</pdfrwt>
<totfact> 0.30555508E+02</totfact>
</mgrwt>
</event>
<event>
 8    1  0.3682083E-007  0.1309535E+03  0.7546771E-02  0.1226050E+00
          5   -1    0    0  501    0  0.00000000000E+00  0.00000000000E+00  0.62902147893E+02  0.63077493685E+02  0.47000000000E+01 0.  1.
         -5   -1    0    0    0  501 -0.00000000000E+00 -0.00000000000E+00 -0.29476880737E+03  0.29480627503E+03  0.47000000000E+01 0.  1.
         25    2    1    2    0    0 -0.38082200965E+02  0.84918188150E+01 -0.16560735780E+03  0.21112704193E+03  0.12500586330E+03 0.  0.
         25    2    1    2    0    0  0.38082200965E+02 -0.84918188150E+01 -0.66259301675E+02  0.14675672679E+03  0.12499950713E+03 0.  0.
          5    1    3    3  502    0 -0.57067100404E+02 -0.41981078341E+02 -0.62128779882E+02  0.94345854052E+02  0.47000000000E+01 0. -1.
         -5    1    3    3    0  502  0.18984899439E+02  0.50472897156E+02 -0.10347857792E+03  0.11678118788E+03  0.47000000000E+01 0. -1.
          5    1    4    4  503    0  0.31295472113E+02 -0.12512542927E+02  0.32805088297E+02  0.47267685827E+02  0.47000000000E+01 0.  1.
         -5    1    4    4    0  503  0.67867288525E+01  0.40207241116E+01 -0.99064389971E+02  0.99489040961E+02  0.47000000000E+01 0.  1.
<mgrwt>
<rscale>  0 0.13095203E+03</rscale>
<asrwt>0</asrwt>
<pdfrwt beam="1">  1        5 0.96936240E-02 0.13095354E+03</pdfrwt>
<pdfrwt beam="2">  1       -5 0.45365417E-01 0.13095354E+03</pdfrwt>
<totfact> 0.28189816E+02</totfact>
</mgrwt>
</event>
<event>
 8    1  0.3682083E-007  0.1260500E+03  0.7546771E-02  0.1233438E+00
          5   -1    0    0  501    0  0.00000000000E+00  0.00000000000E+00  0.64598490481E+03  0.64600200251E+03  0.47000000000E+01 0. -1.
         -5   -1    0    0    0  501 -0.00000000000E+00 -0.00000000000E+00 -0.24507620739E+02  0.24954227584E+02  0.47000000000E+01 0. -1.
         25    2    1    2    0    0  0.15649680787E+02 -0.43189862750E+01  0.28440074283E+03  0.31108237703E+03  0.12499958650E+03 0.  0.
         25    2    1    2    0    0 -0.15649680787E+02  0.43189862750E+01  0.33707654124E+03  0.35987385306E+03  0.12500011724E+03 0.  0.
          5    1    3    3  502    0 -0.33929491590E+02 -0.40083185218E+01  0.24543949040E+03  0.24785058092E+03  0.47000000000E+01 0. -1.
         -5    1    3    3    0  502  0.49579172376E+02 -0.31066775319E+00  0.38961252435E+02  0.63231796110E+02  0.47000000000E+01 0. -1.
          5    1    4    4  503    0  0.24874585732E+02  0.20867791858E+00  0.30933314490E+03  0.31036731963E+03  0.47000000000E+01 0. -1.
         -5    1    4    4    0  503 -0.40524266518E+02  0.41103083564E+01  0.27743396341E+02  0.49506533429E+02  0.47000000000E+01 0. -1.
<mgrwt>
<rscale>  0 0.12604984E+03</rscale>
<asrwt>0</asrwt>
<pdfrwt beam="1">  1        5 0.99417965E-01 0.12604997E+03</pdfrwt>
<pdfrwt beam="2">  1       -5 0.38060727E-02 0.12604997E+03</pdfrwt>
<totfact> 0.23134068E+02</totfact>
</mgrwt>
</event>
<event>
 8    1  0.3682083E-007  0.1262294E+03  0.7546771E-02  0.1233164E+00
          5   -1    0    0  501    0  0.00000000000E+00  0.00000000000E+00  0.21921540818E+03  0.21926578662E+03  0.47000000000E+01 0. -1.
         -5   -1    0    0    0  501 -0.00000000000E+00 -0.00000000000E+00 -0.91904114077E+02  0.92024215206E+02  0.47000000000E+01 0. -1.
         25    2    1    2    0    0  0.53402180044E+00  0.17481763842E+02 -0.77038812400E+01  0.12646424127E+03  0.12501182859E+03 0.  0.
         25    2    1    2    0    0 -0.53402180044E+00 -0.17481763842E+02  0.13501517534E+03  0.18482576056E+03  0.12500226777E+03 0.  0.
          5    1    4    4  502    0  0.17332972720E+02  0.51638003446E+02  0.57981851126E+02  0.79692536684E+02  0.47000000000E+01 0.  1.
         -5    1    4    4    0  502 -0.17866994520E+02 -0.69119767287E+02  0.77033324217E+02  0.10513322388E+03  0.47000000000E+01 0.  1.
          5    1    3    3  503    0  0.55761732375E+02 -0.18503617443E+02  0.50688201201E+01  0.59156889652E+02  0.47000000000E+01 0. -1.
         -5    1    3    3    0  503 -0.55227710574E+02  0.35985381285E+02 -0.12772701360E+02  0.67307351616E+02  0.47000000000E+01 0. -1.
<mgrwt>
<rscale>  0 0.12622701E+03</rscale>
<asrwt>0</asrwt>
<pdfrwt beam="1">  1        5 0.33738561E-01 0.12622937E+03</pdfrwt>
<pdfrwt beam="2">  1       -5 0.14152208E-01 0.12622937E+03</pdfrwt>
<totfact> 0.26046584E+02</totfact>
</mgrwt>
</event>
<event>
 8    1  0.3682083E-007  0.1419904E+03  0.7546771E-02  0.1210677E+00
         -5   -1    0    0    0  501 -0.00000000000E+00  0.00000000000E+00  0.12515544243E+03  0.12524366160E+03  0.47000000000E+01 0.  1.
          5   -1    0    0  501    0  0.00000000000E+00 -0.00000000000E+00 -0.21022010072E+03  0.21027263433E+03  0.47000000000E+01 0.  1.
         25    2    1    2    0    0 -0.58334124560E+02  0.33666475730E+02  0.38690343532E+02  0.14716401388E+03  0.12499601042E+03 0.  0.
         25    2    1    2    0    0  0.58334124560E+02 -0.33666475730E+02 -0.12375500182E+03  0.18835228205E+03  0.12499992000E+03 0.  0.
          5    1    4    4  502    0  0.81257017539E+02 -0.54763893748E+02 -0.54396796919E+02  0.11217347491E+03  0.47000000000E+01 0.  1.
         -5    1    4    4    0  502 -0.22922892979E+02  0.21097418018E+02 -0.69358204906E+02  0.76178807140E+02  0.47000000000E+01 0.  1.
          5    1    3    3  503    0 -0.73256607829E+02  0.43733365719E+02 -0.18152518450E+02  0.87354117211E+02  0.47000000000E+01 0. -1.
         -5    1    3    3    0  503  0.14922483269E+02 -0.10066889989E+02  0.56842861982E+02  0.59809896666E+02  0.47000000000E+01 0. -1.
<mgrwt>
<rscale>  0 0.14198957E+03</rscale>
<asrwt>0</asrwt>
<pdfrwt beam="2">  1        5 0.32352381E-01 0.14199043E+03</pdfrwt>
<pdfrwt beam="1">  1       -5 0.19265511E-01 0.14199043E+03</pdfrwt>
<totfact> 0.16780824E+02</totfact>
</mgrwt>
</event>
<event>
 8    1  0.3682083E-007  0.1389008E+03  0.7546771E-02  0.1214818E+00
          5   -1    0    0  501    0  0.00000000000E+00  0.00000000000E+00  0.32429477657E+03  0.32432883330E+03  0.47000000000E+01 0. -1.
         -5   -1    0    0    0  501 -0.00000000000E+00 -0.00000000000E+00 -0.65532136269E+02  0.65700463347E+02  0.47000000000E+01 0. -1.
         25    2    1    2    0    0 -0.59559187594E+02  0.11017192505E+02  0.69624587149E+02  0.15536646495E+03  0.12498991935E+03 0.  0.
         25    2    1    2    0    0  0.59559187594E+02 -0.11017192505E+02  0.18913805315E+03  0.23466283169E+03  0.12499906428E+03 0.  0.
          5    1    4    4  502    0  0.86670074578E+01  0.54561229999E+02  0.83477087016E+02  0.10021256854E+03  0.47000000000E+01 0. -1.
         -5    1    4    4    0  502  0.50892180137E+02 -0.65578422504E+02  0.10566096613E+03  0.13445026315E+03  0.47000000000E+01 0. -1.
          5    1    3    3  503    0 -0.29360159619E+02  0.39851876704E+01  0.10434938292E+03  0.10857616870E+03  0.47000000000E+01 0.  1.
         -5    1    3    3    0  503 -0.30199027975E+02  0.70320048348E+01 -0.34724795768E+02  0.46790296256E+02  0.47000000000E+01 0.  1.
<mgrwt>
<rscale>  0 0.13889878E+03</rscale>
<asrwt>0</asrwt>
<pdfrwt beam="1">  1        5 0.49907073E-01 0.13890083E+03</pdfrwt>
<pdfrwt beam="2">  1       -5 0.10097435E-01 0.13890083E+03</pdfrwt>
<totfact> 0.21923181E+02</totfact>
</mgrwt>
</event>
<event>
 8    1  0.3682083E-007  0.1636475E+03  0.7546771E-02  0.1184641E+00
         -5   -1    0    0    0  501 -0.00000000000E+00  0.00000000000E+00  0.43720148497E+02  0.43972052313E+02  0.47000000000E+01 0. -1.
          5   -1    0    0  501    0  0.00000000000E+00 -0.00000000000E+00 -0.61624608902E+03  0.61626401180E+03  0.47000000000E+01 0. -1.
         25    2    1    2    0    0 -0.54063233023E+02  0.90721277364E+02 -0.31813114298E+03  0.35775101715E+03  0.12500073124E+03 0.  0.
         25    2    1    2    0    0  0.54063233023E+02 -0.90721277364E+02 -0.25439479755E+03  0.30248504696E+03  0.12500922879E+03 0.  0.
          5    1    4    4  502    0  0.83001517853E+02 -0.76787952097E+02 -0.24303829544E+03  0.26809577505E+03  0.47000000000E+01 0. -1.
         -5    1    4    4    0  502 -0.28938284830E+02 -0.13933325267E+02 -0.11356502112E+02  0.34389271904E+02  0.47000000000E+01 0. -1.
          5    1    3    3  503    0  0.23406639862E+02  0.72875325032E+02 -0.10344266716E+03  0.12876784994E+03  0.47000000000E+01 0.  1.
         -5    1    3    3    0  503 -0.77469872885E+02  0.17845952332E+02 -0.21468847581E+03  0.22898316721E+03  0.47000000000E+01 0.  1.
<mgrwt>
<rscale>  0 0.16364584E+03</rscale>
<asrwt>0</asrwt>
<pdfrwt beam="2">  1        5 0.94827840E-01 0.16364746E+03</pdfrwt>
<pdfrwt beam="1">  1       -5 0.67469330E-02 0.16364746E+03</pdfrwt>
<totfact> 0.10885759E+02</totfact>
</mgrwt>
</event>
<event>
 8    1  0.3682083E-007  0.1335743E+03  0.7546771E-02  0.1222253E+00
         -5   -1    0    0    0  501 -0.00000000000E+00  0.00000000000E+00  0.11886498619E+04  0.11886591539E+04  0.47000000000E+01 0.  1.
          5   -1    0    0  501    0  0.00000000000E+00 -0.00000000000E+00 -0.14661286052E+02  0.15396210855E+02  0.47000000000E+01 0.  1.
         25    2    1    2    0    0  0.44071145948E+02 -0.16592969251E+02  0.56017202640E+03  0.57587317890E+03  0.12497850407E+03 0.  0.
         25    2    1    2    0    0 -0.44071145948E+02  0.16592969251E+02  0.61381654946E+03  0.62818218589E+03  0.12499803895E+03 0.  0.
          5    1    3    3  502    0  0.12216709549E+02 -0.69761466284E+02  0.32125610106E+03  0.32900377299E+03  0.47000000000E+01 0. -1.
         -5    1    3    3    0  502  0.31854436400E+02  0.53168497033E+02  0.23891592534E+03  0.24686940591E+03  0.47000000000E+01 0. -1.
          5    1    4    4  503    0 -0.80022803758E+02 -0.25173591334E+01  0.51493418500E+03  0.52114229448E+03  0.47000000000E+01 0. -1.
         -5    1    4    4    0  503  0.35951657810E+02  0.19110328385E+02  0.98882364461E+02  0.10703989140E+03  0.47000000000E+01 0. -1.
<mgrwt>
<rscale>  0 0.13356976E+03</rscale>
<asrwt>0</asrwt>
<pdfrwt beam="2">  1        5 0.23128299E-02 0.13357433E+03</pdfrwt>
<pdfrwt beam="1">  1       -5 0.18292646E+00 0.13357433E+03</pdfrwt>
<totfact> 0.10462122E+02</totfact>
</mgrwt>
</event>
<event>
 8    1  0.3682083E-007  0.1288930E+03  0.7546771E-02  0.1229109E+00
         -5   -1    0    0    0  501 -0.00000000000E+00  0.00000000000E+00  0.14166810913E+03  0.14174605160E+03  0.47000000000E+01 0. -1.
          5   -1    0    0  501    0  0.00000000000E+00 -0.00000000000E+00 -0.13755064946E+03  0.13763092373E+03  0.47000000000E+01 0. -1.
         25    2    1    2    0    0  0.72158060505E+01 -0.30602642968E+02  0.55876903985E+02  0.14047968339E+03  0.12499489363E+03 0.  0.
         25    2    1    2    0    0 -0.72158060505E+01  0.30602642968E+02 -0.51759444314E+02  0.13889729194E+03  0.12499931207E+03 0.  0.
          5    1    3    3  502    0 -0.42823580334E+02  0.20086639168E+02 -0.34550916872E+01  0.47658784754E+02  0.47000000000E+01 0. -1.
         -5    1    3    3    0  502  0.50039386384E+02 -0.50689282136E+02  0.59331995672E+02  0.92820898636E+02  0.47000000000E+01 0. -1.
          5    1    4    4  503    0 -0.59586268946E+02 -0.41211727583E+01 -0.46167942023E+02  0.75637797314E+02  0.47000000000E+01 0.  1.
         -5    1    4    4    0  503  0.52370462896E+02  0.34723815726E+02 -0.55915022913E+01  0.63259494626E+02  0.47000000000E+01 0.  1.
<mgrwt>
<rscale>  0 0.12889198E+03</rscale>
<asrwt>0</asrwt>
<pdfrwt beam="2">  1        5 0.21173809E-01 0.12889305E+03</pdfrwt>
<pdfrwt beam="1">  1       -5 0.21807264E-01 0.12889305E+03</pdfrwt>
<totfact> 0.29147447E+02</totfact>
</mgrwt>
</event>
<event>
 8    1  0.3682083E-007  0.1380335E+03  0.7546771E-02  0.1216000E+00
         -5   -1    0    0    0  501 -0.00000000000E+00  0.00000000000E+00  0.64977361334E+03  0.64979061135E+03  0.47000000000E+01 0.  1.
          5   -1    0    0  501    0  0.00000000000E+00 -0.00000000000E+00 -0.29236096172E+02  0.29611472767E+02  0.47000000000E+01 0.  1.
         25    2    1    2    0    0  0.83837389494E+01  0.57945473768E+02  0.33183841006E+03  0.35940223448E+03  0.12500108300E+03 0.  0.
         25    2    1    2    0    0 -0.83837389494E+01 -0.57945473768E+02  0.28869910711E+03  0.31999984963E+03  0.12499905723E+03 0.  0.
          5    1    4    4  502    0  0.16895726347E+02  0.33074037715E+02  0.44669500941E+02  0.58282174409E+02  0.47000000000E+01 0.  1.
         -5    1    4    4    0  502 -0.25279465296E+02 -0.91019511483E+02  0.24402960617E+03  0.26171767523E+03  0.47000000000E+01 0.  1.
          5    1    3    3  503    0  0.42167071442E+02  0.79550731520E+02  0.27700282791E+03  0.29130574569E+03  0.47000000000E+01 0. -1.
         -5    1    3    3    0  503 -0.33783332493E+02 -0.21605257752E+02  0.54835582145E+02  0.68096488794E+02  0.47000000000E+01 0. -1.
<mgrwt>
<rscale>  0 0.13803300E+03</rscale>
<asrwt>0</asrwt>
<pdfrwt beam="2">  1        5 0.45280437E-02 0.13803346E+03</pdfrwt>
<pdfrwt beam="1">  1       -5 0.99995352E-01 0.13803346E+03</pdfrwt>
<totfact> 0.17692439E+02</totfact>
</mgrwt>
</event>
<event>
 8    1  0.3682083E-007  0.1344465E+03  0.7546771E-02  0.1221007E+00
         -5   -1    0    0    0  501 -0.00000000000E+00  0.00000000000E+00  0.55948427909E+02  0.56145494793E+02  0.47000000000E+01 0. -1.
          5   -1    0    0  501    0  0.00000000000E+00 -0.00000000000E+00 -0.33978562245E+03  0.33981812668E+03  0.47000000000E+01 0. -1.
         25    2    1    2    0    0  0.46017508701E+02 -0.18207240700E+02 -0.18684356137E+03  0.23018174503E+03  0.12499601832E+03 0.  0.
         25    2    1    2    0    0 -0.46017508701E+02  0.18207240700E+02 -0.96993633164E+02  0.16578187645E+03  0.12500700366E+03 0.  0.
          5    1    4    4  502    0 -0.30328744089E+01  0.63669234087E+02 -0.76699802855E+02  0.99839468420E+02  0.47000000000E+01 0. -1.
         -5    1    4    4    0  502 -0.42984634292E+02 -0.45461993387E+02 -0.20293830309E+02  0.65942408028E+02  0.47000000000E+01 0. -1.
          5    1    3    3  503    0 -0.82581634071E+01 -0.47376470859E+02 -0.20060960515E+02  0.52318824439E+02  0.47000000000E+01 0. -1.
         -5    1    3    3    0  503  0.54275672108E+02  0.29169230159E+02 -0.16678260086E+03  0.17786292059E+03  0.47000000000E+01 0. -1.
<mgrwt>
<rscale>  0 0.13444396E+03</rscale>
<asrwt>0</asrwt>
<pdfrwt beam="2">  1        5 0.52292369E-01 0.13444652E+03</pdfrwt>
<pdfrwt beam="1">  1       -5 0.86251100E-02 0.13444652E+03</pdfrwt>
<totfact> 0.25808770E+02</totfact>
</mgrwt>
</event>
<event>
 8    1  0.3682083E-007  0.1307603E+03  0.7546771E-02  0.1226335E+00
          5   -1    0    0  501    0  0.00000000000E+00  0.00000000000E+00  0.97167171451E+01  0.10793729294E+02  0.47000000000E+01 0.  1.
         -5   -1    0    0    0  501 -0.00000000000E+00 -0.00000000000E+00 -0.18832905607E+04  0.18832964254E+04  0.47000000000E+01 0.  1.
         25    2    1    2    0    0 -0.34796368660E+02  0.16163916762E+02 -0.12582924501E+04  0.12650675493E+04  0.12499581924E+03 0.  0.
         25    2    1    2    0    0  0.34796368660E+02 -0.16163916762E+02 -0.61528139342E+03  0.62902260539E+03  0.12500474201E+03 0.  0.
          5    1    3    3  502    0 -0.34246857832E+02 -0.38143700124E+02 -0.24701076340E+03  0.25231764973E+03  0.47000000000E+01 0.  1.
         -5    1    3    3    0  502 -0.54951082875E+00  0.54307616887E+02 -0.10112816867E+04  0.10127498996E+04  0.47000000000E+01 0.  1.
          5    1    4    4  503    0 -0.30302165529E+02 -0.43125650457E+02 -0.16613810828E+03  0.17436170447E+03  0.47000000000E+01 0.  1.
         -5    1    4    4    0  503  0.65098534189E+02  0.26961733695E+02 -0.44914328515E+03  0.45466090093E+03  0.47000000000E+01 0.  1.
<mgrwt>
<rscale>  0 0.13075813E+03</rscale>
<asrwt>0</asrwt>
<pdfrwt beam="1">  1        5 0.15781793E-02 0.13076026E+03</pdfrwt>
<pdfrwt beam="2">  1       -5 0.28982003E+00 0.13076026E+03</pdfrwt>
<totfact> 0.38666328E+01</totfact>
</mgrwt>
</event>
<event>
 8    1  0.3682083E-007  0.1272581E+03  0.7546771E-02  0.1231584E+00
          5   -1    0    0  501    0  0.00000000000E+00  0.00000000000E+00  0.10681063811E+04  0.10681167217E+04  0.47000000000E+01 0. -1.
         -5   -1    0    0    0  501 -0.00000000000E+00 -0.00000000000E+00 -0.16058623223E+02  0.16732285553E+02  0.47000000000E+01 0. -1.
         25    2    1    2    0    0 -0.10217577090E+02 -0.21541841053E+02  0.37664129926E+03  0.39755918274E+03  0.12500474262E+03 0.  0.
         25    2    1    2    0    0  0.10217577090E+02  0.21541841053E+02  0.67540645857E+03  0.68728982455E+03  0.12499987539E+03 0.  0.
          5    1    3    3  502    0  0.26075769026E+02  0.37429058750E+02  0.73963713211E+02  0.87026438748E+02  0.47000000000E+01 0.  1.
         -5    1    3    3    0  502 -0.36293346116E+02 -0.58970899803E+02  0.30267758605E+03  0.31053274400E+03  0.47000000000E+01 0.  1.
          5    1    4    4  503    0  0.37886799492E+02 -0.36535946331E+02  0.44154283477E+03  0.44469365847E+03  0.47000000000E+01 0. -1.
         -5    1    4    4    0  503 -0.27669222402E+02  0.58077787384E+02  0.23386362381E+03  0.24259616608E+03  0.47000000000E+01 0. -1.
<mgrwt>
<rscale>  0 0.12725695E+03</rscale>
<asrwt>0</asrwt>
<pdfrwt beam="1">  1        5 0.16437669E+00 0.12725815E+03</pdfrwt>
<pdfrwt beam="2">  1       -5 0.25231728E-02 0.12725815E+03</pdfrwt>
<totfact> 0.12209867E+02</totfact>
</mgrwt>
</event>
<event>
 8    1  0.3682083E-007  0.1840047E+03  0.7546771E-02  0.1163983E+00
         -5   -1    0    0    0  501 -0.00000000000E+00  0.00000000000E+00  0.46228195257E+03  0.46230584429E+03  0.47000000000E+01 0. -1.
          5   -1    0    0  501    0  0.00000000000E+00 -0.00000000000E+00 -0.80929604169E+02  0.81065965923E+02  0.47000000000E+01 0. -1.
         25    2    1    2    0    0  0.12619820314E+03  0.48022545900E+02  0.27488492443E+03  0.33078522133E+03  0.12499995833E+03 0.  0.
         25    2    1    2    0    0 -0.12619820314E+03 -0.48022545900E+02  0.10646742397E+03  0.21258658888E+03  0.12500237605E+03 0.  0.
          5    1    4    4  502    0  0.22220922606E+02  0.51481569865E+01  0.28002971020E+02  0.36421550046E+02  0.47000000000E+01 0. -1.
         -5    1    4    4    0  502 -0.14841912574E+03 -0.53170702887E+02  0.78464452945E+02  0.17616503884E+03  0.47000000000E+01 0. -1.
          5    1    3    3  503    0  0.12518005236E+03  0.73395837279E+01  0.25717361946E+03  0.28615428626E+03  0.47000000000E+01 0. -1.
         -5    1    3    3    0  503  0.10181507797E+01  0.40682962172E+02  0.17711304975E+02  0.44630935079E+02  0.47000000000E+01 0. -1.
<mgrwt>
<rscale>  0 0.18400433E+03</rscale>
<asrwt>0</asrwt>
<pdfrwt beam="2">  1        5 0.12463036E-01 0.18400474E+03</pdfrwt>
<pdfrwt beam="1">  1       -5 0.71132627E-01 0.18400474E+03</pdfrwt>
<totfact> 0.75778188E+01</totfact>
</mgrwt>
</event>
<event>
 8    1  0.3682083E-007  0.1253494E+03  0.7546771E-02  0.1234530E+00
         -5   -1    0    0    0  501 -0.00000000000E+00  0.00000000000E+00  0.32057699584E+03  0.32061144749E+03  0.47000000000E+01 0. -1.
          5   -1    0    0  501    0  0.00000000000E+00 -0.00000000000E+00 -0.58160527502E+02  0.58350123901E+02  0.47000000000E+01 0. -1.
         25    2    1    2    0    0  0.91156713458E+01  0.16411249178E+01  0.20683682092E+03  0.24185521833E+03  0.12500674938E+03 0.  0.
         25    2    1    2    0    0 -0.91156713458E+01 -0.16411249178E+01  0.55579647415E+02  0.13710635306E+03  0.12499306416E+03 0.  0.
          5    1    3    3  502    0 -0.56268110556E+01 -0.56970766657E+02  0.60325726603E+02  0.83298334596E+02  0.47000000000E+01 0. -1.
         -5    1    3    3    0  502  0.14742482401E+02  0.58611891575E+02  0.14651109431E+03  0.15855688373E+03  0.47000000000E+01 0. -1.
          5    1    4    4  503    0  0.42943932244E+02  0.39631270265E+02  0.28882584989E+02  0.65353749816E+02  0.47000000000E+01 0.  1.
         -5    1    4    4    0  503 -0.52059603590E+02 -0.41272395183E+02  0.26697062426E+02  0.71752603243E+02  0.47000000000E+01 0.  1.
<mgrwt>
<rscale>  0 0.12534600E+03</rscale>
<asrwt>0</asrwt>
<pdfrwt beam="2">  1        5 0.89650080E-02 0.12534942E+03</pdfrwt>
<pdfrwt beam="1">  1       -5 0.49336772E-01 0.12534942E+03</pdfrwt>
<totfact> 0.26642611E+02</totfact>
</mgrwt>
</event>
<event>
 8    1  0.3682083E-007  0.1530105E+03  0.7546771E-02  0.1196822E+00
          5   -1    0    0  501    0  0.00000000000E+00  0.00000000000E+00  0.73572666542E+03  0.73574167764E+03  0.47000000000E+01 0. -1.
         -5   -1    0    0    0  501 -0.00000000000E+00 -0.00000000000E+00 -0.31671288241E+02  0.32018127660E+02  0.47000000000E+01 0. -1.
         25    2    1    2    0    0 -0.16398090219E+01 -0.88233598073E+02  0.33871604961E+03  0.37167262749E+03  0.12499649179E+03 0.  0.
         25    2    1    2    0    0  0.16398090219E+01  0.88233598073E+02  0.36533932756E+03  0.39608717780E+03  0.12499748538E+03 0.  0.
          5    1    4    4  502    0 -0.56900400853E+02  0.68201230098E+02  0.18281945359E+03  0.20330790938E+03  0.47000000000E+01 0.  1.
         -5    1    4    4    0  502  0.58540209875E+02  0.20032367975E+02  0.18251987397E+03  0.19277926842E+03  0.47000000000E+01 0.  1.
          5    1    3    3  503    0 -0.62565926058E+02 -0.53501740039E+02  0.17189086721E+03  0.19064493573E+03  0.47000000000E+01 0.  1.
         -5    1    3    3    0  503  0.60926117036E+02 -0.34731858033E+02  0.16682518241E+03  0.18102769176E+03  0.47000000000E+01 0.  1.
<mgrwt>
<rscale>  0 0.15301035E+03</rscale>
<asrwt>0</asrwt>
<pdfrwt beam="1">  1        5 0.11321654E+00 0.15301055E+03</pdfrwt>
<pdfrwt beam="2">  1       -5 0.49003411E-02 0.15301055E+03</pdfrwt>
<totfact> 0.11795441E+02</totfact>
</mgrwt>
</event>
<event>
 8    1  0.3682083E-007  0.1350046E+03  0.7546771E-02  0.1220215E+00
         -5   -1    0    0    0  501 -0.00000000000E+00  0.00000000000E+00  0.53467686729E+03  0.53469752423E+03  0.47000000000E+01 0.  1.
          5   -1    0    0  501    0  0.00000000000E+00 -0.00000000000E+00 -0.36804117927E+02  0.37103006568E+02  0.47000000000E+01 0.  1.
         25    2    1    2    0    0  0.48443677627E+02 -0.15911844367E+02  0.32883793108E+03  0.35547240078E+03  0.12500506432E+03 0.  0.
         25    2    1    2    0    0 -0.48443677627E+02  0.15911844367E+02  0.16903481828E+03  0.21632813002E+03  0.12500045340E+03 0.  0.
          5    1    3    3  502    0  0.47728516040E+02 -0.50608361022E+02  0.88840766676E+02  0.11293356132E+03  0.47000000000E+01 0.  1.
         -5    1    3    3    0  502  0.71516158683E+00  0.34696516655E+02  0.23999716440E+03  0.24253883946E+03  0.47000000000E+01 0.  1.
          5    1    4    4  503    0  0.13006552439E+02  0.57197713115E+02  0.93367440884E+02  0.11036447712E+03  0.47000000000E+01 0.  1.
         -5    1    4    4    0  503 -0.61450230066E+02 -0.41285868748E+02  0.75667377398E+02  0.10596365290E+03  0.47000000000E+01 0.  1.
<mgrwt>
<rscale>  0 0.13500354E+03</rscale>
<asrwt>0</asrwt>
<pdfrwt beam="2">  1        5 0.56867529E-02 0.13500460E+03</pdfrwt>
<pdfrwt beam="1">  1       -5 0.82282554E-01 0.13500460E+03</pdfrwt>
<totfact> 0.19112303E+02</totfact>
</mgrwt>
</event>
<event>
 8    1  0.3682083E-007  0.1253729E+03  0.7546771E-02  0.1234491E+00
         -5   -1    0    0    0  501 -0.00000000000E+00  0.00000000000E+00  0.25380791235E+02  0.25812294817E+02  0.47000000000E+01 0.  1.
          5   -1    0    0  501    0  0.00000000000E+00 -0.00000000000E+00 -0.81568295501E+03  0.81569649570E+03  0.47000000000E+01 0.  1.
         25    2    1    2    0    0 -0.94711241220E+01 -0.14266088775E+01 -0.18576770636E+03  0.22411080029E+03  0.12499709068E+03 0.  0.
         25    2    1    2    0    0  0.94711241220E+01  0.14266088775E+01 -0.60453445742E+03  0.61739799022E+03  0.12500652270E+03 0.  0.
          5    1    3    3  502    0 -0.48781548488E+02  0.34736367997E+02 -0.14437277716E+03  0.15637085253E+03  0.47000000000E+01 0. -1.
         -5    1    3    3    0  502  0.39310424366E+02 -0.36162976875E+02 -0.41394929194E+02  0.67739947766E+02  0.47000000000E+01 0. -1.
          5    1    4    4  503    0  0.55180599065E+02  0.49228634968E+01 -0.50093994791E+03  0.50401592684E+03  0.47000000000E+01 0.  1.
         -5    1    4    4    0  503 -0.45709474943E+02 -0.34962546193E+01 -0.10359450951E+03  0.11338206338E+03  0.47000000000E+01 0.  1.
<mgrwt>
<rscale>  0 0.12537057E+03</rscale>
<asrwt>0</asrwt>
<pdfrwt beam="2">  1        5 0.12552390E+00 0.12537292E+03</pdfrwt>
<pdfrwt beam="1">  1       -5 0.39389719E-02 0.12537292E+03</pdfrwt>
<totfact> 0.12201000E+02</totfact>
</mgrwt>
</event>
<event>
 8    1  0.3682083E-007  0.1402578E+03  0.7546771E-02  0.1212983E+00
         -5   -1    0    0    0  501 -0.00000000000E+00  0.00000000000E+00  0.10653860707E+03  0.10664222802E+03  0.47000000000E+01 0. -1.
          5   -1    0    0  501    0  0.00000000000E+00 -0.00000000000E+00 -0.23706141208E+03  0.23710799881E+03  0.47000000000E+01 0. -1.
         25    2    1    2    0    0 -0.57261062437E+02 -0.27705816838E+02  0.15701143624E+02  0.14113311188E+03  0.12500235118E+03 0.  0.
         25    2    1    2    0    0  0.57261062437E+02  0.27705816838E+02 -0.14622394864E+03  0.20261711494E+03  0.12500324218E+03 0.  0.
          5    1    3    3  502    0 -0.54533038738E+02 -0.16832118326E+02 -0.48958608586E+02  0.75340612395E+02  0.47000000000E+01 0.  1.
         -5    1    3    3    0  502 -0.27280236989E+01 -0.10873698512E+02  0.64659752210E+02  0.65792499485E+02  0.47000000000E+01 0.  1.
          5    1    4    4  503    0  0.56277005891E+02 -0.41987764237E+02 -0.75380968064E+02  0.10312348949E+03  0.47000000000E+01 0. -1.
         -5    1    4    4    0  503  0.98405654596E+00  0.69693581074E+02 -0.70842980573E+02  0.99493625458E+02  0.47000000000E+01 0. -1.
<mgrwt>
<rscale>  0 0.14025761E+03</rscale>
<asrwt>0</asrwt>
<pdfrwt beam="2">  1        5 0.36482541E-01 0.14025781E+03</pdfrwt>
<pdfrwt beam="1">  1       -5 0.16402109E-01 0.14025781E+03</pdfrwt>
<totfact> 0.17678865E+02</totfact>
</mgrwt>
</event>
<event>
 8    1  0.3682083E-007  0.1398568E+03  0.7546771E-02  0.1213546E+00
          5   -1    0    0  501    0  0.00000000000E+00  0.00000000000E+00  0.42578353621E+03  0.42580947583E+03  0.47000000000E+01 0. -1.
         -5   -1    0    0    0  501 -0.00000000000E+00 -0.00000000000E+00 -0.53881259243E+02  0.54085858573E+02  0.47000000000E+01 0. -1.
         25    2    1    2    0    0 -0.16003364577E+02 -0.60481406720E+02  0.93092473504E+02  0.16800632802E+03  0.12508320989E+03 0.  0.
         25    2    1    2    0    0  0.16003364577E+02  0.60481406720E+02  0.27880980346E+03  0.31188900638E+03  0.12500295020E+03 0.  0.
          5    1    3    3  502    0 -0.37477204330E+02  0.17364375739E+01  0.94732017037E+02  0.10199902505E+03  0.47000000000E+01 0. -1.
         -5    1    3    3    0  502  0.21473839753E+02 -0.62217844294E+02 -0.16395435333E+01  0.66007302969E+02  0.47000000000E+01 0. -1.
          5    1    4    4  503    0  0.32819232296E+01  0.97676769240E+02  0.22240551480E+03  0.24297700566E+03  0.47000000000E+01 0. -1.
         -5    1    4    4    0  503  0.12721441348E+02 -0.37195362520E+02  0.56404288662E+02  0.68912000714E+02  0.47000000000E+01 0. -1.
<mgrwt>
<rscale>  0 0.13983883E+03</rscale>
<asrwt>0</asrwt>
<pdfrwt beam="1">  1        5 0.65522891E-01 0.13985678E+03</pdfrwt>
<pdfrwt beam="2">  1       -5 0.83071585E-02 0.13985678E+03</pdfrwt>
<totfact> 0.17067062E+02</totfact>
</mgrwt>
</event>
<event>
 8    1  0.3682083E-007  0.1377385E+03  0.7546771E-02  0.1216409E+00
         -5   -1    0    0    0  501 -0.00000000000E+00  0.00000000000E+00  0.25933442677E+03  0.25937701307E+03  0.47000000000E+01 0.  1.
          5   -1    0    0  501    0  0.00000000000E+00 -0.00000000000E+00 -0.74093603178E+02  0.74242521724E+02  0.47000000000E+01 0.  1.
         25    2    1    2    0    0  0.20935084987E+02 -0.53900535426E+02  0.11262151990E+03  0.17790996453E+03  0.12499921293E+03 0.  0.
         25    2    1    2    0    0 -0.20935084987E+02  0.53900535426E+02  0.72619303693E+02  0.15570957026E+03  0.12501344528E+03 0.  0.
          5    1    3    3  502    0 -0.14666875001E+02 -0.54752294581E+02  0.12704941771E+03  0.13919976841E+03  0.47000000000E+01 0.  1.
         -5    1    3    3    0  502  0.35601959988E+02  0.85175915569E+00 -0.14427897810E+02  0.38710196123E+02  0.47000000000E+01 0.  1.
          5    1    4    4  503    0 -0.61688046907E+02  0.67967145503E+02  0.35159581361E+02  0.98403425552E+02  0.47000000000E+01 0.  1.
         -5    1    4    4    0  503  0.40752961920E+02 -0.14066610077E+02  0.37459722332E+02  0.57306144710E+02  0.47000000000E+01 0.  1.
<mgrwt>
<rscale>  0 0.13773532E+03</rscale>
<asrwt>0</asrwt>
<pdfrwt beam="2">  1        5 0.11413747E-01 0.13773855E+03</pdfrwt>
<pdfrwt beam="1">  1       -5 0.39912336E-01 0.13773855E+03</pdfrwt>
<totfact> 0.28068886E+02</totfact>
</mgrwt>
</event>
<event>
 8    1  0.3682083E-007  0.1579780E+03  0.7546771E-02  0.1190999E+00
          5   -1    0    0  501    0  0.00000000000E+00  0.00000000000E+00  0.38500322698E+03  0.38503191398E+03  0.47000000000E+01 0. -1.
         -5   -1    0    0    0  501 -0.00000000000E+00 -0.00000000000E+00 -0.64718087865E+02  0.64888526697E+02  0.47000000000E+01 0. -1.
         25    2    1    2    0    0  0.62015136857E+01  0.96399569020E+02  0.15708581816E+03  0.22278465977E+03  0.12500285869E+03 0.  0.
         25    2    1    2    0    0 -0.62015136857E+01 -0.96399569020E+02  0.16319932095E+03  0.22713578091E+03  0.12500123572E+03 0.  0.
          5    1    4    4  502    0  0.39913619602E+02 -0.54150405928E+02  0.14794394041E+03  0.16258801615E+03  0.47000000000E+01 0. -1.
         -5    1    4    4    0  502 -0.46115133287E+02 -0.42249163092E+02  0.15255380542E+02  0.64547764760E+02  0.47000000000E+01 0. -1.
          5    1    3    3  503    0  0.49380327706E+02  0.57737265730E+01  0.86827697592E+02  0.10016432375E+03  0.47000000000E+01 0. -1.
         -5    1    3    3    0  503 -0.43178814021E+02  0.90625842447E+02  0.70258120570E+02  0.12262033602E+03  0.47000000000E+01 0. -1.
<mgrwt>
<rscale>  0 0.15797768E+03</rscale>
<asrwt>0</asrwt>
<pdfrwt beam="1">  1        5 0.59246584E-01 0.15797801E+03</pdfrwt>
<pdfrwt beam="2">  1       -5 0.99719462E-02 0.15797801E+03</pdfrwt>
<totfact> 0.16154834E+02</totfact>
</mgrwt>
</event>
<event>
 8    1  0.3682083E-007  0.1259426E+03  0.7546771E-02  0.1233605E+00
         -5   -1    0    0    0  501 -0.00000000000E+00  0.00000000000E+00  0.58631440604E+02  0.58819519101E+02  0.47000000000E+01 0. -1.
          5   -1    0    0  501    0  0.00000000000E+00 -0.00000000000E+00 -0.30607943840E+03  0.30611552168E+03  0.47000000000E+01 0. -1.
         25    2    1    2    0    0  0.13716165518E+01 -0.15326111867E+02 -0.60994436132E+02  0.13993179336E+03  0.12499525797E+03 0.  0.
         25    2    1    2    0    0 -0.13716165518E+01  0.15326111867E+02 -0.18645356167E+03  0.22500324742E+03  0.12499903862E+03 0.  0.
          5    1    4    4  502    0  0.28659727171E+02  0.49641817033E+02 -0.16432544339E+03  0.17409948680E+03  0.47000000000E+01 0.  1.
         -5    1    4    4    0  502 -0.30031343722E+02 -0.34315705166E+02 -0.22128118276E+02  0.50903760620E+02  0.47000000000E+01 0.  1.
          5    1    3    3  503    0  0.50731880674E+02  0.19472831257E+02 -0.82309711636E+00  0.54549815424E+02  0.47000000000E+01 0.  1.
         -5    1    3    3    0  503 -0.49360264122E+02 -0.34798943124E+02 -0.60171339015E+02  0.85381977932E+02  0.47000000000E+01 0.  1.
<mgrwt>
<rscale>  0 0.12594163E+03</rscale>
<asrwt>0</asrwt>
<pdfrwt beam="2">  1        5 0.47106387E-01 0.12594257E+03</pdfrwt>
<pdfrwt beam="1">  1       -5 0.90374650E-02 0.12594257E+03</pdfrwt>
<totfact> 0.29009136E+02</totfact>
</mgrwt>
</event>
<event>
 8    1  0.3682083E-007  0.1637727E+03  0.7546771E-02  0.1184504E+00
          5   -1    0    0  501    0  0.00000000000E+00  0.00000000000E+00  0.80194124381E+02  0.80331734608E+02  0.47000000000E+01 0. -1.
         -5   -1    0    0    0  501 -0.00000000000E+00 -0.00000000000E+00 -0.33710651879E+03  0.33713928133E+03  0.47000000000E+01 0. -1.
         25    2    1    2    0    0  0.27530054773E+02  0.10216735547E+03 -0.14848463908E+03  0.22105803166E+03  0.12499157123E+03 0.  0.
         25    2    1    2    0    0 -0.27530054773E+02 -0.10216735547E+03 -0.10842775533E+03  0.19641298428E+03  0.12500163930E+03 0.  0.
          5    1    4    4  502    0  0.39803356616E+02 -0.60922071569E+02 -0.15818175130E+02  0.74619773965E+02  0.47000000000E+01 0.  1.
         -5    1    4    4    0  502 -0.67333411388E+02 -0.41245283898E+02 -0.92609580204E+02  0.12179321031E+03  0.47000000000E+01 0.  1.
          5    1    3    3  503    0 -0.67428936247E+01 -0.43375304011E+01  0.18092255201E+02  0.20339628381E+02  0.47000000000E+01 0.  1.
         -5    1    3    3    0  503  0.34272948397E+02  0.10650488587E+03 -0.16657689428E+03  0.20071840328E+03  0.47000000000E+01 0.  1.
<mgrwt>
<rscale>  0 0.16377073E+03</rscale>
<asrwt>0</asrwt>
<pdfrwt beam="1">  1        5 0.12350663E-01 0.16377265E+03</pdfrwt>
<pdfrwt beam="2">  1       -5 0.51875646E-01 0.16377265E+03</pdfrwt>
<totfact> 0.14927464E+02</totfact>
</mgrwt>
</event>
<event>
 8    1  0.3682083E-007  0.1466003E+03  0.7546771E-02  0.1204720E+00
         -5   -1    0    0    0  501 -0.00000000000E+00  0.00000000000E+00  0.61770958476E+03  0.61772746507E+03  0.47000000000E+01 0. -1.
          5   -1    0    0  501    0  0.00000000000E+00 -0.00000000000E+00 -0.36668245110E+02  0.36968232301E+02  0.47000000000E+01 0. -1.
         25    2    1    2    0    0 -0.45650009882E+02 -0.61477581998E+02  0.36773715409E+03  0.39588163169E+03  0.12501294062E+03 0.  0.
         25    2    1    2    0    0  0.45650009882E+02  0.61477581998E+02  0.21330418556E+03  0.25881406568E+03  0.12499051374E+03 0.  0.
          5    1    3    3  502    0  0.16549568151E+02 -0.72627403497E+02  0.26376810872E+03  0.27412466712E+03  0.47000000000E+01 0.  1.
         -5    1    3    3    0  502 -0.62199578034E+02  0.11149821499E+02  0.10396904537E+03  0.12175696457E+03  0.47000000000E+01 0.  1.
          5    1    4    4  503    0  0.60309357857E+02 -0.66604120895E+01  0.15926517963E+03  0.17049653128E+03  0.47000000000E+01 0.  1.
         -5    1    4    4    0  503 -0.14659347974E+02  0.68137994087E+02  0.54039005925E+02  0.88317534401E+02  0.47000000000E+01 0.  1.
<mgrwt>
<rscale>  0 0.14659553E+03</rscale>
<asrwt>0</asrwt>
<pdfrwt beam="2">  1        5 0.56657206E-02 0.14660031E+03</pdfrwt>
<pdfrwt beam="1">  1       -5 0.95056681E-01 0.14660031E+03</pdfrwt>
<totfact> 0.14043667E+02</totfact>
</mgrwt>
</event>
<event>
 8    1  0.3682083E-007  0.1307033E+03  0.7546771E-02  0.1226437E+00
          5   -1    0    0  501    0  0.00000000000E+00  0.00000000000E+00  0.25314168873E+03  0.25318531666E+03  0.47000000000E+01 0. -1.
         -5   -1    0    0    0  501 -0.00000000000E+00 -0.00000000000E+00 -0.83236342432E+02  0.83368931272E+02  0.47000000000E+01 0. -1.
         25    2    1    2    0    0  0.84570401244E+01  0.37035144389E+02  0.11477937598E+02  0.13120629551E+03  0.12506088710E+03 0.  0.
         25    2    1    2    0    0 -0.84570401244E+01 -0.37035144389E+02  0.15842740870E+03  0.20534795243E+03  0.12500165716E+03 0.  0.
          5    1    3    3  502    0  0.43069029369E+02  0.44367309811E+02  0.49286559093E+02  0.79212716011E+02  0.47000000000E+01 0. -1.
         -5    1    3    3    0  502 -0.34611989245E+02 -0.73321654222E+01 -0.37808621495E+02  0.51993579494E+02  0.47000000000E+01 0. -1.
          5    1    4    4  503    0 -0.30049240462E+02 -0.70384865309E+02  0.54739672675E+02  0.94209913923E+02  0.47000000000E+01 0.  1.
         -5    1    4    4    0  503  0.21592200337E+02  0.33349720920E+02  0.10368773603E+03  0.11113803851E+03  0.47000000000E+01 0.  1.
<mgrwt>
<rscale>  0 0.13068912E+03</rscale>
<asrwt>0</asrwt>
<pdfrwt beam="1">  1        5 0.38958430E-01 0.13070329E+03</pdfrwt>
<pdfrwt beam="2">  1       -5 0.12819146E-01 0.13070329E+03</pdfrwt>
<totfact> 0.23570744E+02</totfact>
</mgrwt>
</event>
<event>
 8    1  0.3682083E-007  0.1353435E+03  0.7546771E-02  0.1219755E+00
          5   -1    0    0  501    0  0.00000000000E+00  0.00000000000E+00  0.34189542920E+02  0.34511082931E+02  0.47000000000E+01 0.  1.
         -5   -1    0    0    0  501 -0.00000000000E+00 -0.00000000000E+00 -0.55737713296E+03  0.55739694863E+03  0.47000000000E+01 0.  1.
         25    2    1    2    0    0  0.16577320504E+02 -0.49171396034E+02 -0.32377406595E+03  0.35090259960E+03  0.12494140580E+03 0.  0.
         25    2    1    2    0    0 -0.16577320504E+02  0.49171396034E+02 -0.19941352409E+03  0.24100543196E+03  0.12500092360E+03 0.  0.
          5    1    3    3  502    0 -0.21111608671E+02 -0.62889625033E+02 -0.81052348433E+02  0.10484454275E+03  0.47000000000E+01 0. -1.
         -5    1    3    3    0  502  0.37688929175E+02  0.13718228999E+02 -0.24272171752E+03  0.24605805686E+03  0.47000000000E+01 0. -1.
          5    1    4    4  503    0 -0.48814471724E+02  0.76651367360E+02 -0.11697029415E+03  0.14819724856E+03  0.47000000000E+01 0.  1.
         -5    1    4    4    0  503  0.32237151220E+02 -0.27479971326E+02 -0.82443229938E+02  0.92808183397E+02  0.47000000000E+01 0.  1.
<mgrwt>
<rscale>  0 0.13532976E+03</rscale>
<asrwt>0</asrwt>
<pdfrwt beam="1">  1        5 0.52861882E-02 0.13534351E+03</pdfrwt>
<pdfrwt beam="2">  1       -5 0.85776580E-01 0.13534351E+03</pdfrwt>
<totfact> 0.19609235E+02</totfact>
</mgrwt>
</event>
<event>
 8    1  0.3682083E-007  0.1756968E+03  0.7546771E-02  0.1172038E+00
          5   -1    0    0  501    0  0.00000000000E+00  0.00000000000E+00  0.22683477413E+03  0.22688346073E+03  0.47000000000E+01 0.  1.
         -5   -1    0    0    0  501 -0.00000000000E+00 -0.00000000000E+00 -0.15730023647E+03  0.15737043685E+03  0.47000000000E+01 0.  1.
         25    2    1    2    0    0  0.11165763280E+03 -0.52706184224E+02 -0.35949947168E+02  0.17933706168E+03  0.12499605663E+03 0.  0.
         25    2    1    2    0    0 -0.11165763280E+03  0.52706184224E+02  0.10548448482E+03  0.20491683590E+03  0.12497425446E+03 0.  0.
          5    1    3    3  502    0  0.24289250287E+02  0.38374458733E+02  0.64526150969E+01  0.46111744753E+02  0.47000000000E+01 0. -1.
         -5    1    3    3    0  502  0.87368382511E+02 -0.91080642957E+02 -0.42402562264E+02  0.13322531693E+03  0.47000000000E+01 0. -1.
          5    1    4    4  503    0  0.14107562223E+02  0.30601512058E+02  0.60573651763E+02  0.69474694242E+02  0.47000000000E+01 0.  1.
         -5    1    4    4    0  503 -0.12576519502E+03  0.22104672165E+02  0.44910833061E+02  0.13544214166E+03  0.47000000000E+01 0.  1.
<mgrwt>
<rscale>  0 0.17569297E+03</rscale>
<asrwt>0</asrwt>
<pdfrwt beam="1">  1        5 0.34906803E-01 0.17569685E+03</pdfrwt>
<pdfrwt beam="2">  1       -5 0.24209182E-01 0.17569685E+03</pdfrwt>
<totfact> 0.10009872E+02</totfact>
</mgrwt>
</event>
<event>
 8    1  0.3682083E-007  0.1823021E+03  0.7546771E-02  0.1165593E+00
         -5   -1    0    0    0  501 -0.00000000000E+00  0.00000000000E+00  0.50101361788E+03  0.50103566271E+03  0.47000000000E+01 0. -1.
          5   -1    0    0  501    0  0.00000000000E+00 -0.00000000000E+00 -0.73493181604E+02  0.73643314308E+02  0.47000000000E+01 0. -1.
         25    2    1    2    0    0 -0.37219281216E+02 -0.12737227059E+03  0.30399968454E+03  0.35447123525E+03  0.12500031285E+03 0.  0.
         25    2    1    2    0    0  0.37219281216E+02  0.12737227059E+03  0.12352075174E+03  0.22020774176E+03  0.12500041285E+03 0.  0.
          5    1    4    4  502    0 -0.91427376330E+01 -0.13981249163E+02 -0.10195186507E+02  0.20127016856E+02  0.47000000000E+01 0.  1.
         -5    1    4    4    0  502  0.46362018849E+02  0.14135351975E+03  0.13371593825E+03  0.20008072491E+03  0.47000000000E+01 0.  1.
          5    1    3    3  503    0 -0.57932106085E+02 -0.12499415045E+03  0.30322247170E+03  0.33308501003E+03  0.47000000000E+01 0. -1.
         -5    1    3    3    0  503  0.20712824870E+02 -0.23781201347E+01  0.77721283958E+00  0.21386225222E+02  0.47000000000E+01 0. -1.
<mgrwt>
<rscale>  0 0.18230213E+03</rscale>
<asrwt>0</asrwt>
<pdfrwt beam="2">  1        5 0.11319888E-01 0.18230215E+03</pdfrwt>
<pdfrwt beam="1">  1       -5 0.77092264E-01 0.18230215E+03</pdfrwt>
<totfact> 0.74594236E+01</totfact>
</mgrwt>
</event>
<event>
 8    1  0.3682083E-007  0.1339114E+03  0.7546771E-02  0.1221765E+00
         -5   -1    0    0    0  501 -0.00000000000E+00  0.00000000000E+00  0.21624705431E+02  0.22129570375E+02  0.47000000000E+01 0. -1.
          5   -1    0    0  501    0  0.00000000000E+00 -0.00000000000E+00 -0.84792225329E+03  0.84793527915E+03  0.47000000000E+01 0. -1.
         25    2    1    2    0    0 -0.42672754771E+02 -0.22038539142E+02 -0.49324582679E+03  0.51110007045E+03  0.12500070065E+03 0.  0.
         25    2    1    2    0    0  0.42672754771E+02  0.22038539142E+02 -0.33305172107E+03  0.35896477907E+03  0.12500240998E+03 0.  0.
          5    1    3    3  502    0  0.15663281316E+02  0.14382426582E+02 -0.36374041049E+03  0.36439177927E+03  0.47000000000E+01 0.  1.
         -5    1    3    3    0  502 -0.58336036086E+02 -0.36420965724E+02 -0.12950541630E+03  0.14670829118E+03  0.47000000000E+01 0.  1.
          5    1    4    4  503    0  0.73530531848E+02 -0.17682080801E+02 -0.25475951916E+03  0.26578919786E+03  0.47000000000E+01 0.  1.
         -5    1    4    4    0  503 -0.30857777077E+02  0.39720619943E+02 -0.78292201905E+02  0.93175581210E+02  0.47000000000E+01 0.  1.
<mgrwt>
<rscale>  0 0.13391100E+03</rscale>
<asrwt>0</asrwt>
<pdfrwt beam="2">  1        5 0.13048939E+00 0.13391140E+03</pdfrwt>
<pdfrwt beam="1">  1       -5 0.33667162E-02 0.13391140E+03</pdfrwt>
<totfact> 0.14570904E+02</totfact>
</mgrwt>
</event>
<event>
 8    1  0.3682083E-007  0.1331712E+03  0.7546771E-02  0.1222829E+00
          5   -1    0    0  501    0  0.00000000000E+00  0.00000000000E+00  0.37365856647E+03  0.37368812438E+03  0.47000000000E+01 0. -1.
         -5   -1    0    0    0  501 -0.00000000000E+00 -0.00000000000E+00 -0.72051801959E+02  0.72204931726E+02  0.47000000000E+01 0. -1.
         25    2    1    2    0    0  0.18942955579E+02 -0.41840198815E+02  0.20355587638E+02  0.13470693289E+03  0.12498867956E+03 0.  0.
         25    2    1    2    0    0 -0.18942955579E+02  0.41840198815E+02  0.28125117688E+03  0.31118612321E+03  0.12500056392E+03 0.  0.
          5    1    4    4  502    0 -0.20584498092E+02  0.82844841469E+02  0.22991393469E+03  0.24529471393E+03  0.47000000000E+01 0. -1.
         -5    1    4    4    0  502  0.16415425134E+01 -0.41004642654E+02  0.51337242189E+02  0.65891409277E+02  0.47000000000E+01 0. -1.
          5    1    3    3  503    0  0.10976733664E+02 -0.47217467533E+02 -0.46299272618E+02  0.67198888139E+02  0.47000000000E+01 0.  1.
         -5    1    3    3    0  503  0.79662219145E+01  0.53772687186E+01  0.66654860256E+02  0.67508044752E+02  0.47000000000E+01 0.  1.
<mgrwt>
<rscale>  0 0.13316845E+03</rscale>
<asrwt>0</asrwt>
<pdfrwt beam="1">  1        5 0.57499986E-01 0.13317124E+03</pdfrwt>
<pdfrwt beam="2">  1       -5 0.11098945E-01 0.13317124E+03</pdfrwt>
<totfact> 0.13519363E+02</totfact>
</mgrwt>
</event>
<event>
 8    1  0.3682083E-007  0.1347531E+03  0.7546771E-02  0.1220569E+00
          5   -1    0    0  501    0  0.00000000000E+00  0.00000000000E+00  0.80487700363E+03  0.80489072610E+03  0.47000000000E+01 0. -1.
         -5   -1    0    0    0  501 -0.00000000000E+00 -0.00000000000E+00 -0.35842313747E+02  0.36149155658E+02  0.47000000000E+01 0. -1.
         25    2    1    2    0    0 -0.36930148896E+02 -0.34197165944E+02  0.12751853616E+03  0.18552375926E+03  0.12499922451E+03 0.  0.
         25    2    1    2    0    0  0.36930148896E+02  0.34197165944E+02  0.64151615372E+03  0.65551612251E+03  0.12500051731E+03 0.  0.
          5    1    4    4  502    0  0.92856303034E+01  0.19185012947E+02  0.11448997561E+02  0.24646646771E+02  0.47000000000E+01 0.  1.
         -5    1    4    4    0  502  0.27644518592E+02  0.15012152997E+02  0.63006715616E+03  0.63086947573E+03  0.47000000000E+01 0.  1.
          5    1    3    3  503    0 -0.18959077772E+02  0.25386429180E+02 -0.10778302544E+02  0.33796142121E+02  0.47000000000E+01 0. -1.
         -5    1    3    3    0  503 -0.17971071124E+02 -0.59583595125E+02  0.13829683871E+03  0.15172761713E+03  0.47000000000E+01 0. -1.
<mgrwt>
<rscale>  0 0.13475285E+03</rscale>
<asrwt>0</asrwt>
<pdfrwt beam="1">  1        5 0.12385189E+00 0.13475315E+03</pdfrwt>
<pdfrwt beam="2">  1       -5 0.55388610E-02 0.13475315E+03</pdfrwt>
<totfact> 0.73621990E+01</totfact>
</mgrwt>
</event>
<event>
 8    1  0.3682083E-007  0.1318725E+03  0.7546771E-02  0.1224707E+00
         -5   -1    0    0    0  501 -0.00000000000E+00  0.00000000000E+00  0.20975429900E+04  0.20975482556E+04  0.47000000000E+01 0. -1.
          5   -1    0    0  501    0  0.00000000000E+00 -0.00000000000E+00 -0.76187680043E+01  0.89518504178E+01  0.47000000000E+01 0. -1.
         25    2    1    2    0    0 -0.40385206294E+02 -0.11437901091E+02  0.10524217631E+04  0.10606503579E+04  0.12500329507E+03 0.  0.
         25    2    1    2    0    0  0.40385206294E+02  0.11437901091E+02  0.10375024589E+04  0.10458497482E+04  0.12501421174E+03 0.  0.
          5    1    4    4  502    0 -0.44942787193E+02 -0.81475845092E+00  0.32139164186E+03  0.32455384054E+03  0.47000000000E+01 0. -1.
         -5    1    4    4    0  502  0.85327993486E+02  0.12252659542E+02  0.71611081705E+03  0.72129590768E+03  0.47000000000E+01 0. -1.
          5    1    3    3  503    0 -0.80119735438E+02 -0.16384475750E+02  0.49126425510E+03  0.49804646510E+03  0.47000000000E+01 0. -1.
         -5    1    3    3    0  503  0.39734529144E+02  0.49465746587E+01  0.56115750796E+03  0.56260389276E+03  0.47000000000E+01 0. -1.
<mgrwt>
<rscale>  0 0.13186986E+03</rscale>
<asrwt>0</asrwt>
<pdfrwt beam="2">  1        5 0.12750675E-02 0.13187245E+03</pdfrwt>
<pdfrwt beam="1">  1       -5 0.32280201E+00 0.13187245E+03</pdfrwt>
<totfact> 0.33418043E+01</totfact>
</mgrwt>
</event>
<event>
 8    1  0.3682083E-007  0.1672058E+03  0.7546771E-02  0.1180796E+00
         -5   -1    0    0    0  501 -0.00000000000E+00  0.00000000000E+00  0.72811974827E+02  0.72963509224E+02  0.47000000000E+01 0. -1.
          5   -1    0    0  501    0  0.00000000000E+00 -0.00000000000E+00 -0.41245794893E+03  0.41248472655E+03  0.47000000000E+01 0. -1.
         25    2    1    2    0    0 -0.10725075918E+03 -0.28796478006E+02 -0.10539549510E+03  0.19764435640E+03  0.12499247474E+03 0.  0.
         25    2    1    2    0    0  0.10725075918E+03  0.28796478006E+02 -0.23425047900E+03  0.28780387937E+03  0.12500329426E+03 0.  0.
          5    1    3    3  502    0 -0.54771021620E+02  0.46217561244E+02 -0.26027562045E+02  0.76390128699E+02  0.47000000000E+01 0. -1.
         -5    1    3    3    0  502 -0.52479737558E+02 -0.75014039250E+02 -0.79367933052E+02  0.12125422770E+03  0.47000000000E+01 0. -1.
          5    1    4    4  503    0  0.31287236470E+02  0.72736686527E+02 -0.11014246327E+03  0.13573123792E+03  0.47000000000E+01 0.  1.
         -5    1    4    4    0  503  0.75963522709E+02 -0.43940208521E+02 -0.12410801574E+03  0.15207264145E+03  0.47000000000E+01 0.  1.
<mgrwt>
<rscale>  0 0.16720380E+03</rscale>
<asrwt>0</asrwt>
<pdfrwt beam="2">  1        5 0.63468784E-01 0.16720582E+03</pdfrwt>
<pdfrwt beam="1">  1       -5 0.11215559E-01 0.16720582E+03</pdfrwt>
<totfact> 0.11485117E+02</totfact>
</mgrwt>
</event>
<event>
 8    1  0.3682083E-007  0.1342700E+03  0.7546771E-02  0.1221255E+00
         -5   -1    0    0    0  501 -0.00000000000E+00  0.00000000000E+00  0.37348922932E+02  0.37643486079E+02  0.47000000000E+01 0.  1.
          5   -1    0    0  501    0  0.00000000000E+00 -0.00000000000E+00 -0.48766165104E+03  0.48768429942E+03  0.47000000000E+01 0.  1.
         25    2    1    2    0    0 -0.25208685819E+02  0.42045671897E+02 -0.19332124847E+03  0.23537528747E+03  0.12500041791E+03 0.  0.
         25    2    1    2    0    0  0.25208685819E+02 -0.42045671897E+02 -0.25699147964E+03  0.28995249802E+03  0.12499805652E+03 0.  0.
          5    1    4    4  502    0  0.70629141800E+02 -0.44707240678E+01 -0.10356280731E+03  0.12552214188E+03  0.47000000000E+01 0. -1.
         -5    1    4    4    0  502 -0.45420455982E+02 -0.37574947829E+02 -0.15342867234E+03  0.16443035614E+03  0.47000000000E+01 0. -1.
          5    1    3    3  503    0 -0.29624100533E+02  0.47720033308E+01 -0.19515425631E+03  0.19750350149E+03  0.47000000000E+01 0.  1.
         -5    1    3    3    0  503  0.44154147145E+01  0.37273668566E+02  0.18330078386E+01  0.37871785979E+02  0.47000000000E+01 0.  1.
<mgrwt>
<rscale>  0 0.13426941E+03</rscale>
<asrwt>0</asrwt>
<pdfrwt beam="2">  1        5 0.75049266E-01 0.13426996E+03</pdfrwt>
<pdfrwt beam="1">  1       -5 0.57703894E-02 0.13426996E+03</pdfrwt>
<totfact> 0.23013227E+02</totfact>
</mgrwt>
</event>
<event>
 8    1  0.3682083E-007  0.2891697E+03  0.7546771E-02  0.1090784E+00
          5   -1    0    0  501    0  0.00000000000E+00  0.00000000000E+00  0.44212170043E+03  0.44214668154E+03  0.47000000000E+01 0.  1.
         -5   -1    0    0    0  501 -0.00000000000E+00 -0.00000000000E+00 -0.19871622476E+03  0.19877179876E+03  0.47000000000E+01 0.  1.
         25    2    1    2    0    0 -0.20237417199E+03 -0.16443199956E+03  0.51113689147E+02  0.29365024330E+03  0.12499867281E+03 0.  0.
         25    2    1    2    0    0  0.20237417199E+03  0.16443199956E+03  0.19229178653E+03  0.34726823699E+03  0.12500363711E+03 0.  0.
          5    1    4    4  502    0  0.18900772606E+02  0.59593197496E+02  0.96805513988E+02  0.11533423573E+03  0.47000000000E+01 0. -1.
         -5    1    4    4    0  502  0.18347339938E+03  0.10483880207E+03  0.95486272542E+02  0.23193400127E+03  0.47000000000E+01 0. -1.
          5    1    3    3  503    0 -0.18120156602E+03 -0.83779934045E+02  0.84487829461E+01  0.19986634736E+03  0.47000000000E+01 0. -1.
         -5    1    3    3    0  503 -0.21172605970E+02 -0.80652065520E+02  0.42664906201E+02  0.93783895938E+02  0.47000000000E+01 0. -1.
<mgrwt>
<rscale>  0 0.28916913E+03</rscale>
<asrwt>0</asrwt>
<pdfrwt beam="1">  1        5 0.68024920E-01 0.28916967E+03</pdfrwt>
<pdfrwt beam="2">  1       -5 0.30577923E-01 0.28916967E+03</pdfrwt>
<totfact> 0.17271560E+01</totfact>
</mgrwt>
</event>
<event>
 8    1  0.3682083E-007  0.1565280E+03  0.7546771E-02  0.1192674E+00
         -5   -1    0    0    0  501 -0.00000000000E+00  0.00000000000E+00  0.27082880909E+03  0.27086958824E+03  0.47000000000E+01 0. -1.
          5   -1    0    0  501    0  0.00000000000E+00 -0.00000000000E+00 -0.93013895498E+02  0.93132565495E+02  0.47000000000E+01 0. -1.
         25    2    1    2    0    0  0.74856030043E+02 -0.57201986712E+02  0.11964452690E+03  0.19701470643E+03  0.12499795683E+03 0.  0.
         25    2    1    2    0    0 -0.74856030043E+02  0.57201986712E+02  0.58170386691E+02  0.16698744731E+03  0.12500208460E+03 0.  0.
          5    1    4    4  502    0 -0.58714359483E+02  0.96835716410E+02  0.45210336073E+02  0.12202703172E+03  0.47000000000E+01 0. -1.
         -5    1    4    4    0  502 -0.16141670560E+02 -0.39633729699E+02  0.12960050618E+02  0.44960415593E+02  0.47000000000E+01 0. -1.
          5    1    3    3  503    0  0.25216366291E+01 -0.79579834783E+02  0.50735284672E+02  0.94527603725E+02  0.47000000000E+01 0.  1.
         -5    1    3    3    0  503  0.72334393414E+02  0.22377848071E+02  0.68909242233E+02  0.10248710270E+03  0.47000000000E+01 0.  1.
<mgrwt>
<rscale>  0 0.15652717E+03</rscale>
<asrwt>0</asrwt>
<pdfrwt beam="2">  1        5 0.14322095E-01 0.15652800E+03</pdfrwt>
<pdfrwt beam="1">  1       -5 0.41678236E-01 0.15652800E+03</pdfrwt>
<totfact> 0.17869577E+02</totfact>
</mgrwt>
</event>
<event>
 8    1  0.3682083E-007  0.1370165E+03  0.7546771E-02  0.1217407E+00
          5   -1    0    0  501    0  0.00000000000E+00  0.00000000000E+00  0.17767061694E+03  0.17773277166E+03  0.47000000000E+01 0. -1.
         -5   -1    0    0    0  501 -0.00000000000E+00 -0.00000000000E+00 -0.10563504981E+03  0.10573955621E+03  0.47000000000E+01 0. -1.
         25    2    1    2    0    0 -0.24205044819E+02  0.50559745402E+02  0.40753876103E+02  0.14294896093E+03  0.12502541727E+03 0.  0.
         25    2    1    2    0    0  0.24205044819E+02 -0.50559745402E+02  0.31281691030E+02  0.14052336695E+03  0.12500440158E+03 0.  0.
          5    1    3    3  502    0 -0.34282629693E+02  0.54797295802E+02 -0.29847841268E+02  0.71351425734E+02  0.47000000000E+01 0.  1.
         -5    1    3    3    0  502  0.10077584874E+02 -0.42375504002E+01  0.70601717371E+02  0.71597535195E+02  0.47000000000E+01 0.  1.
          5    1    4    4  503    0  0.73510371794E+00 -0.22443878776E+02 -0.47924580077E+02  0.53133073011E+02  0.47000000000E+01 0. -1.
         -5    1    4    4    0  503  0.23469941101E+02 -0.28115866626E+02  0.79206271107E+02  0.87390293936E+02  0.47000000000E+01 0. -1.
<mgrwt>
<rscale>  0 0.13701173E+03</rscale>
<asrwt>0</asrwt>
<pdfrwt beam="1">  1        5 0.27346761E-01 0.13701652E+03</pdfrwt>
<pdfrwt beam="2">  1       -5 0.16264366E-01 0.13701652E+03</pdfrwt>
<totfact> 0.31490608E+02</totfact>
</mgrwt>
</event>
<event>
 8    1  0.3682083E-007  0.1593235E+03  0.7546771E-02  0.1189464E+00
          5   -1    0    0  501    0  0.00000000000E+00  0.00000000000E+00  0.87842954983E+02  0.87968600876E+02  0.47000000000E+01 0. -1.
         -5   -1    0    0    0  501 -0.00000000000E+00 -0.00000000000E+00 -0.29747803196E+03  0.29751515843E+03  0.47000000000E+01 0. -1.
         25    2    1    2    0    0  0.98554586967E+02 -0.67742149410E+01 -0.13809349263E+03  0.21084063772E+03  0.12500026083E+03 0.  0.
         25    2    1    2    0    0 -0.98554586967E+02  0.67742149410E+01 -0.71541584347E+02  0.17464312159E+03  0.12499249989E+03 0.  0.
          5    1    3    3  502    0 -0.28439096928E+02 -0.41786011048E+01 -0.11114948169E+02  0.31174910009E+02  0.47000000000E+01 0. -1.
         -5    1    3    3    0  502  0.12699368390E+03 -0.25956138362E+01 -0.12697854446E+03  0.17966572771E+03  0.47000000000E+01 0. -1.
          5    1    4    4  503    0 -0.17703896075E+02  0.50236259674E+02 -0.62552546218E+02  0.82292288586E+02  0.47000000000E+01 0. -1.
         -5    1    4    4    0  503 -0.80850690892E+02 -0.43462044734E+02 -0.89890381290E+01  0.92350833005E+02  0.47000000000E+01 0. -1.
<mgrwt>
<rscale>  0 0.15932193E+03</rscale>
<asrwt>0</asrwt>
<pdfrwt beam="1">  1        5 0.13526822E-01 0.15932345E+03</pdfrwt>
<pdfrwt beam="2">  1       -5 0.45778372E-01 0.15932345E+03</pdfrwt>
<totfact> 0.16390182E+02</totfact>
</mgrwt>
</event>
<event>
 8    1  0.3682083E-007  0.1502324E+03  0.7546771E-02  0.1200189E+00
         -5   -1    0    0    0  501 -0.00000000000E+00  0.00000000000E+00  0.51100433939E+02  0.51316121724E+02  0.47000000000E+01 0.  1.
          5   -1    0    0  501    0  0.00000000000E+00 -0.00000000000E+00 -0.44116017398E+03  0.44118520953E+03  0.47000000000E+01 0.  1.
         25    2    1    2    0    0 -0.50191490477E+02 -0.66529597154E+02 -0.18555265701E+03  0.23874370693E+03  0.12499358408E+03 0.  0.
         25    2    1    2    0    0  0.50191490477E+02  0.66529597154E+02 -0.20450708303E+03  0.25375762433E+03  0.12499764749E+03 0.  0.
          5    1    3    3  502    0  0.17764766949E+02  0.57786899307E+01 -0.11572342315E+03  0.11731573155E+03  0.47000000000E+01 0. -1.
         -5    1    3    3    0  502 -0.67956257426E+02 -0.72308287085E+02 -0.69829233855E+02  0.12142797538E+03  0.47000000000E+01 0. -1.
          5    1    4    4  503    0  0.10249021222E+02  0.97614421784E+02 -0.14908528035E+03  0.17855567365E+03  0.47000000000E+01 0. -1.
         -5    1    4    4    0  503  0.39942469254E+02 -0.31084824629E+02 -0.55421802681E+02  0.75201950672E+02  0.47000000000E+01 0. -1.
<mgrwt>
<rscale>  0 0.15023159E+03</rscale>
<asrwt>0</asrwt>
<pdfrwt beam="2">  1        5 0.67889311E-01 0.15023244E+03</pdfrwt>
<pdfrwt beam="1">  1       -5 0.78801227E-02 0.15023244E+03</pdfrwt>
<totfact> 0.17671251E+02</totfact>
</mgrwt>
</event>
<event>
 8    1  0.3682083E-007  0.1333656E+03  0.7546771E-02  0.1222547E+00
          5   -1    0    0  501    0  0.00000000000E+00  0.00000000000E+00  0.55041569222E+02  0.55241871279E+02  0.47000000000E+01 0. -1.
         -5   -1    0    0    0  501 -0.00000000000E+00 -0.00000000000E+00 -0.34419304037E+03  0.34422512843E+03  0.47000000000E+01 0. -1.
         25    2    1    2    0    0 -0.41368255980E+02  0.21187042843E+02 -0.19489464123E+03  0.23615523883E+03  0.12500060904E+03 0.  0.
         25    2    1    2    0    0  0.41368255980E+02 -0.21187042843E+02 -0.94256829922E+02  0.16331176087E+03  0.12500463138E+03 0.  0.
          5    1    3    3  502    0  0.15768220871E+02  0.83281551684E+01 -0.17217782471E+03  0.17316260647E+03  0.47000000000E+01 0. -1.
         -5    1    3    3    0  502 -0.57136476851E+02  0.12858887675E+02 -0.22716816520E+02  0.62992632363E+02  0.47000000000E+01 0. -1.
          5    1    4    4  503    0  0.32892466550E+02 -0.65800145161E+02 -0.20400525107E+02  0.76484278670E+02  0.47000000000E+01 0.  1.
         -5    1    4    4    0  503  0.84757894302E+01  0.44613102318E+02 -0.73856304815E+02  0.86827482204E+02  0.47000000000E+01 0.  1.
<mgrwt>
<rscale>  0 0.13336465E+03</rscale>
<asrwt>0</asrwt>
<pdfrwt beam="1">  1        5 0.84858101E-02 0.13336559E+03</pdfrwt>
<pdfrwt beam="2">  1       -5 0.52970650E-01 0.13336559E+03</pdfrwt>
<totfact> 0.25750977E+02</totfact>
</mgrwt>
</event>
<event>
 8    1  0.3682083E-007  0.1303401E+03  0.7546771E-02  0.1226953E+00
         -5   -1    0    0    0  501 -0.00000000000E+00  0.00000000000E+00  0.10904238396E+04  0.10904339687E+04  0.47000000000E+01 0. -1.
          5   -1    0    0  501    0  0.00000000000E+00 -0.00000000000E+00 -0.15365630141E+02  0.16068372339E+02  0.47000000000E+01 0. -1.
         25    2    1    2    0    0 -0.33391118173E+02  0.15768501342E+02  0.59113618164E+03  0.60533504515E+03  0.12499967693E+03 0.  0.
         25    2    1    2    0    0  0.33391118173E+02 -0.15768501342E+02  0.48392202785E+03  0.50116729586E+03  0.12499806797E+03 0.  0.
          5    1    4    4  502    0 -0.39531223786E+02 -0.18283159305E+02  0.85261935706E+02  0.95857598804E+02  0.47000000000E+01 0. -1.
         -5    1    4    4    0  502  0.72922341959E+02  0.25146579624E+01  0.39866009214E+03  0.40530969706E+03  0.47000000000E+01 0. -1.
          5    1    3    3  503    0  0.20360208467E+01  0.33966275163E+02  0.53629902910E+03  0.53739798273E+03  0.47000000000E+01 0. -1.
         -5    1    3    3    0  503 -0.35427139020E+02 -0.18197773821E+02  0.54837152536E+02  0.67937062414E+02  0.47000000000E+01 0. -1.
<mgrwt>
<rscale>  0 0.13033968E+03</rscale>
<asrwt>0</asrwt>
<pdfrwt beam="2">  1        5 0.24187793E-02 0.13034006E+03</pdfrwt>
<pdfrwt beam="1">  1       -5 0.16781235E+00 0.13034006E+03</pdfrwt>
<totfact> 0.12416255E+02</totfact>
</mgrwt>
</event>
<event>
 8    1  0.3682083E-007  0.1361828E+03  0.7546771E-02  0.1218564E+00
          5   -1    0    0  501    0  0.00000000000E+00  0.00000000000E+00  0.70431515035E+03  0.70433083208E+03  0.47000000000E+01 0. -1.
         -5   -1    0    0    0  501 -0.00000000000E+00 -0.00000000000E+00 -0.27739207994E+02  0.28134563443E+02  0.47000000000E+01 0. -1.
         25    2    1    2    0    0  0.39249370426E+02  0.37105014935E+02  0.25003952302E+03  0.28472004612E+03  0.12501378475E+03 0.  0.
         25    2    1    2    0    0 -0.39249370426E+02 -0.37105014935E+02  0.42653641934E+03  0.44774534940E+03  0.12500114271E+03 0.  0.
          5    1    4    4  502    0 -0.57948967865E+02  0.13775354898E+02  0.98332888292E+02  0.11506211453E+03  0.47000000000E+01 0. -1.
         -5    1    4    4    0  502  0.18699597439E+02 -0.50880369833E+02  0.32820353104E+03  0.33268323488E+03  0.47000000000E+01 0. -1.
          5    1    3    3  503    0  0.53428745024E+02  0.62413255989E+02  0.23991617415E+03  0.25363735123E+03  0.47000000000E+01 0. -1.
         -5    1    3    3    0  503 -0.14179374599E+02 -0.25308241054E+02  0.10123348868E+02  0.31082694889E+02  0.47000000000E+01 0. -1.
<mgrwt>
<rscale>  0 0.13617985E+03</rscale>
<asrwt>0</asrwt>
<pdfrwt beam="1">  1        5 0.10838778E+00 0.13618275E+03</pdfrwt>
<pdfrwt beam="2">  1       -5 0.42991894E-02 0.13618275E+03</pdfrwt>
<totfact> 0.15734838E+02</totfact>
</mgrwt>
</event>
<event>
 8    1  0.3682083E-007  0.1379164E+03  0.7546771E-02  0.1216161E+00
          5   -1    0    0  501    0  0.00000000000E+00  0.00000000000E+00  0.23886610225E+02  0.24344612300E+02  0.47000000000E+01 0. -1.
         -5   -1    0    0    0  501 -0.00000000000E+00 -0.00000000000E+00 -0.80419311188E+03  0.80420684602E+03  0.47000000000E+01 0. -1.
         25    2    1    2    0    0 -0.93452322329E+01 -0.57511356912E+02 -0.44843737166E+03  0.46916578111E+03  0.12500225730E+03 0.  0.
         25    2    1    2    0    0  0.93452322329E+01  0.57511356912E+02 -0.33186912999E+03  0.35938567721E+03  0.12500422393E+03 0.  0.
          5    1    4    4  502    0  0.17044608021E+02  0.29686998651E+02 -0.32807616054E+03  0.32989072989E+03  0.47000000000E+01 0.  1.
         -5    1    4    4    0  502 -0.76993757877E+01  0.27824358261E+02 -0.37929694523E+01  0.29494947320E+02  0.47000000000E+01 0.  1.
          5    1    3    3  503    0 -0.39288283081E+02 -0.83347132729E+02 -0.36825879829E+03  0.37964054873E+03  0.47000000000E+01 0.  1.
         -5    1    3    3    0  503  0.29943050848E+02  0.25835775817E+02 -0.80178573368E+02  0.89525232384E+02  0.47000000000E+01 0.  1.
<mgrwt>
<rscale>  0 0.13791600E+03</rscale>
<asrwt>0</asrwt>
<pdfrwt beam="1">  1        5 0.37111511E-02 0.13791644E+03</pdfrwt>
<pdfrwt beam="2">  1       -5 0.12375828E+00 0.13791644E+03</pdfrwt>
<totfact> 0.14394951E+02</totfact>
</mgrwt>
</event>
<event>
 8    1  0.3682083E-007  0.1278236E+03  0.7546771E-02  0.1230725E+00
          5   -1    0    0  501    0  0.00000000000E+00  0.00000000000E+00  0.13890829640E+03  0.13898778655E+03  0.47000000000E+01 0. -1.
         -5   -1    0    0    0  501 -0.00000000000E+00 -0.00000000000E+00 -0.16065896916E+03  0.16072770257E+03  0.47000000000E+01 0. -1.
         25    2    1    2    0    0 -0.22832371505E+02  0.13780688666E+02 -0.88549111102E+02  0.15549030442E+03  0.12500026049E+03 0.  0.
         25    2    1    2    0    0  0.22832371505E+02 -0.13780688666E+02  0.66798438339E+02  0.14422518469E+03  0.12501059142E+03 0.  0.
          5    1    4    4  502    0 -0.34303173951E+02  0.33296829976E+02  0.47543007915E+02  0.67585606687E+02  0.47000000000E+01 0.  1.
         -5    1    4    4    0  502  0.57135545457E+02 -0.47077518642E+02  0.19255430424E+02  0.76639578006E+02  0.47000000000E+01 0.  1.
          5    1    3    3  503    0  0.33083028177E+02  0.43939516911E+02 -0.13082422636E+02  0.56731011640E+02  0.47000000000E+01 0.  1.
         -5    1    3    3    0  503 -0.55915399682E+02 -0.30158828244E+02 -0.75466688466E+02  0.98759292781E+02  0.47000000000E+01 0.  1.
<mgrwt>
<rscale>  0 0.12782107E+03</rscale>
<asrwt>0</asrwt>
<pdfrwt beam="1">  1        5 0.21381909E-01 0.12782360E+03</pdfrwt>
<pdfrwt beam="2">  1       -5 0.24728166E-01 0.12782360E+03</pdfrwt>
<totfact> 0.22479315E+02</totfact>
</mgrwt>
</event>
<event>
 8    1  0.3682083E-007  0.1269015E+03  0.7546771E-02  0.1232129E+00
          5   -1    0    0  501    0  0.00000000000E+00  0.00000000000E+00  0.24053352934E+03  0.24057944371E+03  0.47000000000E+01 0.  1.
         -5   -1    0    0    0  501 -0.00000000000E+00 -0.00000000000E+00 -0.70088109559E+02  0.70245520153E+02  0.47000000000E+01 0.  1.
         25    2    1    2    0    0  0.18685887509E+02 -0.11365670498E+02  0.51682058617E+02  0.13701840016E+03  0.12499866376E+03 0.  0.
         25    2    1    2    0    0 -0.18685887509E+02  0.11365670498E+02  0.11876336116E+03  0.17380656370E+03  0.12500257907E+03 0.  0.
          5    1    4    4  502    0  0.50095818007E+02  0.13594698419E+02  0.77603347641E+02  0.93481422603E+02  0.47000000000E+01 0. -1.
         -5    1    4    4    0  502 -0.68781705516E+02 -0.22290279203E+01  0.41160013521E+02  0.80325141097E+02  0.47000000000E+01 0. -1.
          5    1    3    3  503    0 -0.53042821794E+02 -0.44500804480E+01  0.31529736951E+02  0.62044810194E+02  0.47000000000E+01 0.  1.
         -5    1    3    3    0  503  0.71728709303E+02 -0.69155900505E+01  0.20152321666E+02  0.74973589967E+02  0.47000000000E+01 0.  1.
<mgrwt>
<rscale>  0 0.12690052E+03</rscale>
<asrwt>0</asrwt>
<pdfrwt beam="1">  1        5 0.37020799E-01 0.12690148E+03</pdfrwt>
<pdfrwt beam="2">  1       -5 0.10798426E-01 0.12690148E+03</pdfrwt>
<totfact> 0.35015423E+02</totfact>
</mgrwt>
</event>
<event>
 8    1  0.3682083E-007  0.1513659E+03  0.7546771E-02  0.1198805E+00
          5   -1    0    0  501    0  0.00000000000E+00  0.00000000000E+00  0.77812260936E+03  0.77813680366E+03  0.47000000000E+01 0. -1.
         -5   -1    0    0    0  501 -0.00000000000E+00 -0.00000000000E+00 -0.33587321921E+02  0.33914571998E+02  0.47000000000E+01 0. -1.
         25    2    1    2    0    0  0.58649189527E+02 -0.62018239707E+02  0.22701372440E+03  0.27284806762E+03  0.12499938980E+03 0.  0.
         25    2    1    2    0    0 -0.58649189527E+02  0.62018239707E+02  0.51752156305E+03  0.53920330804E+03  0.12500259874E+03 0.  0.
          5    1    3    3  502    0 -0.17996611804E+02  0.23977287866E+02  0.21451512369E+02  0.37162423935E+02  0.47000000000E+01 0. -1.
         -5    1    3    3    0  502  0.76645801332E+02 -0.85995527572E+02  0.20556221203E+03  0.23568564368E+03  0.47000000000E+01 0. -1.
          5    1    4    4  503    0  0.36041717520E+02  0.32245223688E+01  0.18199676061E+03  0.18561873241E+03  0.47000000000E+01 0.  1.
         -5    1    4    4    0  503 -0.94690907048E+02  0.58793717338E+02  0.33552480243E+03  0.35358457563E+03  0.47000000000E+01 0.  1.
<mgrwt>
<rscale>  0 0.15136525E+03</rscale>
<asrwt>0</asrwt>
<pdfrwt beam="1">  1        5 0.11973742E+00 0.15136591E+03</pdfrwt>
<pdfrwt beam="2">  1       -5 0.51935460E-02 0.15136591E+03</pdfrwt>
<totfact> 0.92649856E+01</totfact>
</mgrwt>
</event>
<event>
 8    1  0.3682083E-007  0.1275906E+03  0.7546771E-02  0.1231086E+00
          5   -1    0    0  501    0  0.00000000000E+00  0.00000000000E+00  0.49465274857E+02  0.49688061108E+02  0.47000000000E+01 0.  1.
         -5   -1    0    0    0  501 -0.00000000000E+00 -0.00000000000E+00 -0.34132214789E+03  0.34135450581E+03  0.47000000000E+01 0.  1.
         25    2    1    2    0    0 -0.15906099963E+02 -0.19843107926E+02 -0.18444832385E+03  0.22426141166E+03  0.12500097456E+03 0.  0.
         25    2    1    2    0    0  0.15906099963E+02  0.19843107926E+02 -0.10740854919E+03  0.16678115526E+03  0.12503041376E+03 0.  0.
          5    1    4    4  502    0 -0.62466195485E+01 -0.41800178444E+02 -0.88906522311E+02  0.98553208386E+02  0.47000000000E+01 0. -1.
         -5    1    4    4    0  502  0.22152719512E+02  0.61643286371E+02 -0.18502026874E+02  0.68227946875E+02  0.47000000000E+01 0. -1.
          5    1    3    3  503    0 -0.44745275214E+02 -0.29340655394E+01 -0.18508339965E+03  0.19049594017E+03  0.47000000000E+01 0. -1.
         -5    1    3    3    0  503  0.28839175251E+02 -0.16909042387E+02  0.63507580714E+00  0.33765471489E+02  0.47000000000E+01 0. -1.
<mgrwt>
<rscale>  0 0.12758337E+03</rscale>
<asrwt>0</asrwt>
<pdfrwt beam="1">  1        5 0.76296690E-02 0.12759058E+03</pdfrwt>
<pdfrwt beam="2">  1       -5 0.52530725E-01 0.12759058E+03</pdfrwt>
<totfact> 0.30958399E+02</totfact>
</mgrwt>
</event>
<event>
 8    1  0.3682083E-007  0.1341049E+03  0.7546771E-02  0.1221489E+00
          5   -1    0    0  501    0  0.00000000000E+00  0.00000000000E+00  0.82188782839E+02  0.82323058887E+02  0.47000000000E+01 0.  1.
         -5   -1    0    0    0  501 -0.00000000000E+00 -0.00000000000E+00 -0.25267737514E+03  0.25272108323E+03  0.47000000000E+01 0.  1.
         25    2    1    2    0    0  0.16018261358E+01  0.48541191071E+02 -0.14685467648E+03  0.19887262904E+03  0.12500085400E+03 0.  0.
         25    2    1    2    0    0 -0.16018261358E+01 -0.48541191071E+02 -0.23633915818E+02  0.13617151307E+03  0.12500122366E+03 0.  0.
          5    1    4    4  502    0  0.15022956253E+02  0.35054738467E+02  0.16531222062E+02  0.41831748785E+02  0.47000000000E+01 0. -1.
         -5    1    4    4    0  502 -0.16624782388E+02 -0.83595929537E+02 -0.40165137879E+02  0.94339764286E+02  0.47000000000E+01 0. -1.
          5    1    3    3  503    0 -0.23895852722E+02  0.49557987034E+02 -0.16037446865E+03  0.16961446298E+03  0.47000000000E+01 0.  1.
         -5    1    3    3    0  503  0.25497678857E+02 -0.10167959630E+01  0.13519792170E+02  0.29258166064E+02  0.47000000000E+01 0.  1.
<mgrwt>
<rscale>  0 0.13410479E+03</rscale>
<asrwt>0</asrwt>
<pdfrwt beam="1">  1        5 0.12658119E-01 0.13410488E+03</pdfrwt>
<pdfrwt beam="2">  1       -5 0.38887133E-01 0.13410488E+03</pdfrwt>
<totfact> 0.24416185E+02</totfact>
</mgrwt>
</event>
<event>
 8    1  0.3682083E-007  0.1335829E+03  0.7546771E-02  0.1222247E+00
          5   -1    0    0  501    0  0.00000000000E+00  0.00000000000E+00  0.26388773032E+03  0.26392958192E+03  0.47000000000E+01 0.  1.
         -5   -1    0    0    0  501 -0.00000000000E+00 -0.00000000000E+00 -0.67483141732E+02  0.67646614239E+02  0.47000000000E+01 0.  1.
         25    2    1    2    0    0 -0.20443199679E+02 -0.42448757905E+02  0.96294228071E+02  0.16467227633E+03  0.12499823507E+03 0.  0.
         25    2    1    2    0    0  0.20443199679E+02  0.42448757905E+02  0.10011036052E+03  0.16690391983E+03  0.12496004446E+03 0.  0.
          5    1    3    3  502    0  0.32819902230E+01  0.14018214291E+02  0.10187122517E+03  0.10299086518E+03  0.47000000000E+01 0.  1.
         -5    1    3    3    0  502 -0.23725189903E+02 -0.56466972196E+02 -0.55769971032E+01  0.61681411151E+02  0.47000000000E+01 0.  1.
          5    1    4    4  503    0 -0.42053456584E+02 -0.18419809656E+02  0.32925587389E+02  0.56691859234E+02  0.47000000000E+01 0. -1.
         -5    1    4    4    0  503  0.62496656264E+02  0.60868567561E+02  0.67184773126E+02  0.11021206060E+03  0.47000000000E+01 0. -1.
<mgrwt>
<rscale>  0 0.13357392E+03</rscale>
<asrwt>0</asrwt>
<pdfrwt beam="1">  1        5 0.40613906E-01 0.13358286E+03</pdfrwt>
<pdfrwt beam="2">  1       -5 0.10397816E-01 0.13358286E+03</pdfrwt>
<totfact> 0.31572940E+02</totfact>
</mgrwt>
</event>
<event>
 8    1  0.3682083E-007  0.1287168E+03  0.7546771E-02  0.1229373E+00
          5   -1    0    0  501    0  0.00000000000E+00  0.00000000000E+00  0.73747781635E+03  0.73749279292E+03  0.47000000000E+01 0.  1.
         -5   -1    0    0    0  501 -0.00000000000E+00 -0.00000000000E+00 -0.45386404273E+02  0.45629110148E+02  0.47000000000E+01 0.  1.
         25    2    1    2    0    0  0.30364918052E+02  0.45285911922E+01  0.67374492029E+02  0.14528239266E+03  0.12500046021E+03 0.  0.
         25    2    1    2    0    0 -0.30364918052E+02 -0.45285911922E+01  0.62471692005E+03  0.63783951041E+03  0.12500189783E+03 0.  0.
          5    1    3    3  502    0 -0.17699612180E+02  0.13882415182E+02  0.88728542068E+02  0.91656106726E+02  0.47000000000E+01 0.  1.
         -5    1    3    3    0  502  0.48064530231E+02 -0.93538239897E+01 -0.21354050039E+02  0.53626285930E+02  0.47000000000E+01 0.  1.
          5    1    4    4  503    0 -0.23477734308E+01 -0.62327369271E+02  0.36055231530E+03  0.36593752892E+03  0.47000000000E+01 0.  1.
         -5    1    4    4    0  503 -0.28017144621E+02  0.57798778079E+02  0.26416460475E+03  0.27190198149E+03  0.47000000000E+01 0.  1.
<mgrwt>
<rscale>  0 0.12871644E+03</rscale>
<asrwt>0</asrwt>
<pdfrwt beam="1">  1        5 0.11347795E+00 0.12871679E+03</pdfrwt>
<pdfrwt beam="2">  1       -5 0.70023455E-02 0.12871679E+03</pdfrwt>
<totfact> 0.61016763E+01</totfact>
</mgrwt>
</event>
<event>
 8    1  0.3682083E-007  0.1562108E+03  0.7546771E-02  0.1193043E+00
         -5   -1    0    0    0  501 -0.00000000000E+00  0.00000000000E+00  0.14200327969E+04  0.14200405749E+04  0.47000000000E+01 0. -1.
          5   -1    0    0  501    0  0.00000000000E+00 -0.00000000000E+00 -0.18329997576E+02  0.18922970463E+02  0.47000000000E+01 0. -1.
         25    2    1    2    0    0  0.83025804705E+01  0.93315544411E+02  0.90158230714E+03  0.91501476959E+03  0.12499859342E+03 0.  0.
         25    2    1    2    0    0 -0.83025804705E+01 -0.93315544411E+02  0.50012049219E+03  0.52394877575E+03  0.12500035689E+03 0.  0.
          5    1    3    3  502    0 -0.54302550380E+02  0.54316686602E+02  0.34055472550E+03  0.34913991534E+03  0.47000000000E+01 0. -1.
         -5    1    3    3    0  502  0.62605130851E+02  0.38998857809E+02  0.56102758164E+03  0.56587485426E+03  0.47000000000E+01 0. -1.
          5    1    4    4  503    0  0.11631024350E+02 -0.10030588062E+03  0.21042993772E+03  0.23345106362E+03  0.47000000000E+01 0.  1.
         -5    1    4    4    0  503 -0.19933604820E+02  0.69903362128E+01  0.28969055447E+03  0.29049771213E+03  0.47000000000E+01 0.  1.
<mgrwt>
<rscale>  0 0.15621044E+03</rscale>
<asrwt>0</asrwt>
<pdfrwt beam="2">  1        5 0.28662103E-02 0.15621080E+03</pdfrwt>
<pdfrwt beam="1">  1       -5 0.21851287E+00 0.15621080E+03</pdfrwt>
<totfact> 0.44517640E+01</totfact>
</mgrwt>
</event>
<event>
 8    1  0.3682083E-007  0.1380392E+03  0.7546771E-02  0.1215993E+00
         -5   -1    0    0    0  501 -0.00000000000E+00  0.00000000000E+00  0.21192271689E+03  0.21197482854E+03  0.47000000000E+01 0.  1.
          5   -1    0    0  501    0  0.00000000000E+00 -0.00000000000E+00 -0.10079827013E+03  0.10090778593E+03  0.47000000000E+01 0.  1.
         25    2    1    2    0    0 -0.51006357770E+02  0.28793929312E+02  0.10722668066E+03  0.17479238883E+03  0.12499631694E+03 0.  0.
         25    2    1    2    0    0  0.51006357770E+02 -0.28793929312E+02  0.38977661059E+01  0.13809022564E+03  0.12499191549E+03 0.  0.
          5    1    3    3  502    0 -0.25818237411E+02  0.62565109862E+02  0.11320767464E+03  0.13198121818E+03  0.47000000000E+01 0. -1.
         -5    1    3    3    0  502 -0.25188120359E+02 -0.33771180550E+02 -0.59809939842E+01  0.42811170645E+02  0.47000000000E+01 0. -1.
          5    1    4    4  503    0 -0.14511442243E+02  0.39685791927E+02  0.73031885018E+01  0.43138968452E+02  0.47000000000E+01 0. -1.
         -5    1    4    4    0  503  0.65517800014E+02 -0.68479721238E+02 -0.34054223959E+01  0.94951257186E+02  0.47000000000E+01 0. -1.
<mgrwt>
<rscale>  0 0.13803819E+03</rscale>
<asrwt>0</asrwt>
<pdfrwt beam="2">  1        5 0.15519859E-01 0.13803919E+03</pdfrwt>
<pdfrwt beam="1">  1       -5 0.32615928E-01 0.13803919E+03</pdfrwt>
<totfact> 0.24335670E+02</totfact>
</mgrwt>
</event>
<event>
 8    1  0.3682083E-007  0.1438313E+03  0.7546771E-02  0.1208265E+00
         -5   -1    0    0    0  501 -0.00000000000E+00  0.00000000000E+00  0.39024353488E+03  0.39027183669E+03  0.47000000000E+01 0.  1.
          5   -1    0    0  501    0  0.00000000000E+00 -0.00000000000E+00 -0.52948077018E+02  0.53156268303E+02  0.47000000000E+01 0.  1.
         25    2    1    2    0    0 -0.29030337741E+02  0.64954928076E+02  0.17676189444E+03  0.22788585335E+03  0.12500116655E+03 0.  0.
         25    2    1    2    0    0  0.29030337741E+02 -0.64954928076E+02  0.16053356341E+03  0.21554225164E+03  0.12500213627E+03 0.  0.
          5    1    4    4  502    0  0.63428501962E+02 -0.50634825562E+02  0.42617202795E+02  0.91789849084E+02  0.47000000000E+01 0.  1.
         -5    1    4    4    0  502 -0.34398164221E+02 -0.14320102514E+02  0.11791636062E+03  0.12375240256E+03  0.47000000000E+01 0.  1.
          5    1    3    3  503    0 -0.60682882620E+02  0.82447350995E+02  0.15371874308E+03  0.18474717834E+03  0.47000000000E+01 0.  1.
         -5    1    3    3    0  503  0.31652544879E+02 -0.17492422919E+02  0.23043151363E+02  0.43138675010E+02  0.47000000000E+01 0.  1.
<mgrwt>
<rscale>  0 0.14383107E+03</rscale>
<asrwt>0</asrwt>
<pdfrwt beam="2">  1        5 0.81640498E-02 0.14383128E+03</pdfrwt>
<pdfrwt beam="1">  1       -5 0.60055658E-01 0.14383128E+03</pdfrwt>
<totfact> 0.21512769E+02</totfact>
</mgrwt>
</event>
<event>
 8    1  0.3682083E-007  0.1392601E+03  0.7546771E-02  0.1214330E+00
         -5   -1    0    0    0  501 -0.00000000000E+00  0.00000000000E+00  0.80171721052E+02  0.80309369667E+02  0.47000000000E+01 0.  1.
          5   -1    0    0  501    0  0.00000000000E+00 -0.00000000000E+00 -0.32798089125E+03  0.32801456526E+03  0.47000000000E+01 0.  1.
         25    2    1    2    0    0  0.16094293948E+02  0.59230580586E+02 -0.19105317953E+02  0.14055754554E+03  0.12499648979E+03 0.  0.
         25    2    1    2    0    0 -0.16094293948E+02 -0.59230580586E+02 -0.22870385225E+03  0.26776638940E+03  0.12500439706E+03 0.  0.
          5    1    4    4  502    0  0.14988020583E+02 -0.64466290390E+02 -0.42368876548E+02  0.78725822051E+02  0.47000000000E+01 0.  1.
         -5    1    4    4    0  502 -0.31082314531E+02  0.52357098043E+01 -0.18633497570E+03  0.18904056735E+03  0.47000000000E+01 0.  1.
          5    1    3    3  503    0  0.37677220519E+02  0.10801857155E+02 -0.61110089598E+02  0.72751536854E+02  0.47000000000E+01 0.  1.
         -5    1    3    3    0  503 -0.21582926570E+02  0.48428723431E+02  0.42004771644E+02  0.67806008682E+02  0.47000000000E+01 0.  1.
<mgrwt>
<rscale>  0 0.13925837E+03</rscale>
<asrwt>0</asrwt>
<pdfrwt beam="2">  1        5 0.50471777E-01 0.13926014E+03</pdfrwt>
<pdfrwt beam="1">  1       -5 0.12347290E-01 0.13926014E+03</pdfrwt>
<totfact> 0.15031478E+02</totfact>
</mgrwt>
</event>
<event>
 8    1  0.3682083E-007  0.1263160E+03  0.7546771E-02  0.1233029E+00
          5   -1    0    0  501    0  0.00000000000E+00  0.00000000000E+00  0.16460342636E+03  0.16467051336E+03  0.47000000000E+01 0.  1.
         -5   -1    0    0    0  501 -0.00000000000E+00 -0.00000000000E+00 -0.10869842637E+03  0.10879999032E+03  0.47000000000E+01 0.  1.
         25    2    1    2    0    0  0.12999342807E+02  0.12689017339E+02 -0.17278708683E+02  0.12748561012E+03  0.12499613170E+03 0.  0.
         25    2    1    2    0    0 -0.12999342807E+02 -0.12689017339E+02  0.73183708680E+02  0.14598489356E+03  0.12500295940E+03 0.  0.
          5    1    3    3  502    0  0.34538017069E+02  0.57885548637E+02 -0.32453288336E+02  0.74959437617E+02  0.47000000000E+01 0. -1.
         -5    1    3    3    0  502 -0.21538674261E+02 -0.45196531298E+02  0.15174579653E+02  0.52526172504E+02  0.47000000000E+01 0. -1.
          5    1    4    4  503    0  0.43161726668E+02  0.27503328072E+02  0.53122616373E+02  0.73915289854E+02  0.47000000000E+01 0. -1.
         -5    1    4    4    0  503 -0.56161069475E+02 -0.40192345410E+02  0.20061092307E+02  0.72069603709E+02  0.47000000000E+01 0. -1.
<mgrwt>
<rscale>  0 0.12631432E+03</rscale>
<asrwt>0</asrwt>
<pdfrwt beam="1">  1        5 0.25336577E-01 0.12631601E+03</pdfrwt>
<pdfrwt beam="2">  1       -5 0.16735808E-01 0.12631601E+03</pdfrwt>
<totfact> 0.33633862E+02</totfact>
</mgrwt>
</event>
<event>
 8    1  0.3682083E-007  0.1576723E+03  0.7546771E-02  0.1191351E+00
          5   -1    0    0  501    0  0.00000000000E+00  0.00000000000E+00  0.92297425753E+02  0.92417015752E+02  0.47000000000E+01 0. -1.
         -5   -1    0    0    0  501 -0.00000000000E+00 -0.00000000000E+00 -0.27545006661E+03  0.27549016170E+03  0.47000000000E+01 0. -1.
         25    2    1    2    0    0 -0.87603087677E+02  0.39523992054E+02 -0.63508499784E+02  0.16997975184E+03  0.12499335811E+03 0.  0.
         25    2    1    2    0    0  0.87603087677E+02 -0.39523992054E+02 -0.11964414107E+03  0.19792742561E+03  0.12499639354E+03 0.  0.
          5    1    4    4  502    0  0.47944844277E+02  0.31783878591E+02 -0.97415918949E+02  0.11322929963E+03  0.47000000000E+01 0.  1.
         -5    1    4    4    0  502  0.39658243400E+02 -0.71307870644E+02 -0.22228222120E+02  0.84698125977E+02  0.47000000000E+01 0.  1.
          5    1    3    3  503    0 -0.11324650265E+03  0.23105924944E+02 -0.74130897417E+02  0.13739044392E+03  0.47000000000E+01 0. -1.
         -5    1    3    3    0  503  0.25643414971E+02  0.16418067110E+02  0.10622397633E+02  0.32589307917E+02  0.47000000000E+01 0. -1.
<mgrwt>
<rscale>  0 0.15767167E+03</rscale>
<asrwt>0</asrwt>
<pdfrwt beam="1">  1        5 0.14211888E-01 0.15767227E+03</pdfrwt>
<pdfrwt beam="2">  1       -5 0.42389216E-01 0.15767227E+03</pdfrwt>
<totfact> 0.17539624E+02</totfact>
</mgrwt>
</event>
<event>
 8    1  0.3682083E-007  0.1333034E+03  0.7546771E-02  0.1222649E+00
         -5   -1    0    0    0  501 -0.00000000000E+00  0.00000000000E+00  0.59944671101E+02  0.60128642039E+02  0.47000000000E+01 0. -1.
          5   -1    0    0  501    0  0.00000000000E+00 -0.00000000000E+00 -0.29949996728E+03  0.29953684314E+03  0.47000000000E+01 0. -1.
         25    2    1    2    0    0  0.33734237373E+02 -0.31717127650E+02 -0.99522803447E+02  0.16635682405E+03  0.12500331814E+03 0.  0.
         25    2    1    2    0    0 -0.33734237373E+02  0.31717127650E+02 -0.14003249273E+03  0.19330866112E+03  0.12496065176E+03 0.  0.
          5    1    3    3  502    0  0.44380176129E+02 -0.39312883223E+02 -0.12438606271E+03  0.13787343985E+03  0.47000000000E+01 0. -1.
         -5    1    3    3    0  502 -0.10645938756E+02  0.75957555722E+01  0.24863259259E+02  0.28483384204E+02  0.47000000000E+01 0. -1.
          5    1    4    4  503    0  0.81746139451E+01  0.33147623955E+02  0.11249413892E+02  0.36252290961E+02  0.47000000000E+01 0. -1.
         -5    1    4    4    0  503 -0.41908851318E+02 -0.14304963048E+01 -0.15128190662E+03  0.15705637016E+03  0.47000000000E+01 0. -1.
<mgrwt>
<rscale>  0 0.13329343E+03</rscale>
<asrwt>0</asrwt>
<pdfrwt beam="2">  1        5 0.46093906E-01 0.13330343E+03</pdfrwt>
<pdfrwt beam="1">  1       -5 0.92392454E-02 0.13330343E+03</pdfrwt>
<totfact> 0.29826419E+02</totfact>
</mgrwt>
</event>
<event>
 8    1  0.3682083E-007  0.1406770E+03  0.7546771E-02  0.1212423E+00
         -5   -1    0    0    0  501 -0.00000000000E+00  0.00000000000E+00  0.12616534205E+03  0.12625285555E+03  0.47000000000E+01 0.  1.
          5   -1    0    0  501    0  0.00000000000E+00 -0.00000000000E+00 -0.15689509823E+03  0.15696547980E+03  0.47000000000E+01 0.  1.
         25    2    1    2    0    0 -0.64047442031E+02  0.78339046015E+01 -0.10046996734E+02  0.14103534647E+03  0.12500632752E+03 0.  0.
         25    2    1    2    0    0  0.64047442031E+02 -0.78339046015E+01 -0.20682759450E+02  0.14218298887E+03  0.12499912357E+03 0.  0.
          5    1    4    4  502    0 -0.37954625488E+02 -0.16377456743E+01 -0.79389139439E+01  0.39094144849E+02  0.47000000000E+01 0. -1.
         -5    1    4    4    0  502  0.10200206752E+03 -0.61961589272E+01 -0.12743845506E+02  0.10308884402E+03  0.47000000000E+01 0. -1.
          5    1    3    3  503    0 -0.54354684714E+02  0.18056166178E+02  0.51838101591E+02  0.77393382559E+02  0.47000000000E+01 0.  1.
         -5    1    3    3    0  503 -0.96927573173E+01 -0.10222261576E+02 -0.61885098326E+02  0.63641963915E+02  0.47000000000E+01 0.  1.
<mgrwt>
<rscale>  0 0.14067543E+03</rscale>
<asrwt>0</asrwt>
<pdfrwt beam="2">  1        5 0.24149853E-01 0.14067703E+03</pdfrwt>
<pdfrwt beam="1">  1       -5 0.19422198E-01 0.14067703E+03</pdfrwt>
<totfact> 0.29103576E+02</totfact>
</mgrwt>
</event>
<event>
 8    1  0.3682083E-007  0.1881618E+03  0.7546771E-02  0.1160130E+00
         -5   -1    0    0    0  501 -0.00000000000E+00  0.00000000000E+00  0.36709757827E+03  0.36712766441E+03  0.47000000000E+01 0. -1.
          5   -1    0    0  501    0  0.00000000000E+00 -0.00000000000E+00 -0.12670955393E+03  0.12679669182E+03  0.47000000000E+01 0. -1.
         25    2    1    2    0    0  0.32853257760E+02  0.13675009219E+03  0.24100910938E+03  0.30576173350E+03  0.12499969046E+03 0.  0.
         25    2    1    2    0    0 -0.32853257760E+02 -0.13675009219E+03 -0.62108503123E+00  0.18816262273E+03  0.12499945034E+03 0.  0.
          5    1    3    3  502    0 -0.28122996906E+02  0.12161845407E+03  0.16746023741E+03  0.20891857849E+03  0.47000000000E+01 0.  1.
         -5    1    3    3    0  502  0.60976254667E+02  0.15131638119E+02  0.73548871964E+02  0.96843155011E+02  0.47000000000E+01 0.  1.
          5    1    4    4  503    0 -0.62010923155E+02 -0.13906331006E+03  0.17653805116E+02  0.15335483570E+03  0.47000000000E+01 0.  1.
         -5    1    4    4    0  503  0.29157665395E+02  0.23132178748E+01 -0.18274890147E+02  0.34807787032E+02  0.47000000000E+01 0.  1.
<mgrwt>
<rscale>  0 0.18816172E+03</rscale>
<asrwt>0</asrwt>
<pdfrwt beam="2">  1        5 0.19502795E-01 0.18816176E+03</pdfrwt>
<pdfrwt beam="1">  1       -5 0.56485566E-01 0.18816176E+03</pdfrwt>
<totfact> 0.56174755E+01</totfact>
</mgrwt>
</event>
<event>
 8    1  0.3682083E-007  0.1325574E+03  0.7546771E-02  0.1223711E+00
          5   -1    0    0  501    0  0.00000000000E+00  0.00000000000E+00  0.15516318033E+03  0.15523434714E+03  0.47000000000E+01 0. -1.
         -5   -1    0    0    0  501 -0.00000000000E+00 -0.00000000000E+00 -0.12932896542E+03  0.12941433961E+03  0.47000000000E+01 0. -1.
         25    2    1    2    0    0  0.44098897962E+02  0.85659395748E+00 -0.37476040630E+02  0.13775308558E+03  0.12500404958E+03 0.  0.
         25    2    1    2    0    0 -0.44098897962E+02 -0.85659395748E+00  0.63310255547E+02  0.14689560116E+03  0.12499873051E+03 0.  0.
          5    1    3    3  502    0 -0.30795009565E+02  0.37738903386E+02 -0.14524120815E+02  0.51045053907E+02  0.47000000000E+01 0. -1.
         -5    1    3    3    0  502  0.74893907528E+02 -0.36882309428E+02 -0.22951919816E+02  0.86708031674E+02  0.47000000000E+01 0. -1.
          5    1    4    4  503    0  0.20012693537E+02  0.34604271488E+01 -0.28145174890E+02  0.35024610322E+02  0.47000000000E+01 0. -1.
         -5    1    4    4    0  503 -0.64111591499E+02 -0.43170211062E+01  0.91455430436E+02  0.11187099084E+03  0.47000000000E+01 0. -1.
<mgrwt>
<rscale>  0 0.13255613E+03</rscale>
<asrwt>0</asrwt>
<pdfrwt beam="1">  1        5 0.23883300E-01 0.13255738E+03</pdfrwt>
<pdfrwt beam="2">  1       -5 0.19908806E-01 0.13255738E+03</pdfrwt>
<totfact> 0.27815352E+02</totfact>
</mgrwt>
</event>
<event>
 8    1  0.3682083E-007  0.1251948E+03  0.7546771E-02  0.1234766E+00
         -5   -1    0    0    0  501 -0.00000000000E+00  0.00000000000E+00  0.61651584981E+03  0.61653376474E+03  0.47000000000E+01 0. -1.
          5   -1    0    0  501    0  0.00000000000E+00 -0.00000000000E+00 -0.28531210406E+02  0.28915739092E+02  0.47000000000E+01 0. -1.
         25    2    1    2    0    0 -0.10115061566E+01 -0.68330024373E+01  0.40365958194E+03  0.42262792636E+03  0.12500237189E+03 0.  0.
         25    2    1    2    0    0  0.10115061566E+01  0.68330024373E+01  0.18432505746E+03  0.22282157748E+03  0.12500406199E+03 0.  0.
          5    1    3    3  502    0 -0.16730018600E+02 -0.21068714075E+02  0.39959789530E+03  0.40053008896E+03  0.47000000000E+01 0. -1.
         -5    1    3    3    0  502  0.15718512444E+02  0.14235711638E+02  0.40616866406E+01  0.22097837397E+02  0.47000000000E+01 0. -1.
          5    1    4    4  503    0 -0.47697893673E+01 -0.54425540416E+02  0.12808104447E+03  0.13932600006E+03  0.47000000000E+01 0.  1.
         -5    1    4    4    0  503  0.57812955239E+01  0.61258542853E+02  0.56244012994E+02  0.83495577416E+02  0.47000000000E+01 0.  1.
<mgrwt>
<rscale>  0 0.12519434E+03</rscale>
<asrwt>0</asrwt>
<pdfrwt beam="2">  1        5 0.44203747E-02 0.12519476E+03</pdfrwt>
<pdfrwt beam="1">  1       -5 0.94879539E-01 0.12519476E+03</pdfrwt>
<totfact> 0.20209199E+02</totfact>
</mgrwt>
</event>
<event>
 8    1  0.3682083E-007  0.1407236E+03  0.7546771E-02  0.1212360E+00
         -5   -1    0    0    0  501 -0.00000000000E+00  0.00000000000E+00  0.10179217081E+03  0.10190061844E+03  0.47000000000E+01 0. -1.
          5   -1    0    0  501    0  0.00000000000E+00 -0.00000000000E+00 -0.30744172087E+03  0.30747764428E+03  0.47000000000E+01 0. -1.
         25    2    1    2    0    0  0.12627982069E+02  0.63394805393E+02  0.21315575092E+02  0.14232879213E+03  0.12499905618E+03 0.  0.
         25    2    1    2    0    0 -0.12627982069E+02 -0.63394805393E+02 -0.22696512515E+03  0.26704947058E+03  0.12499553761E+03 0.  0.
          5    1    4    4  502    0  0.21474872335E+02 -0.65821331613E+02 -0.47019556179E+02  0.83824498211E+02  0.47000000000E+01 0. -1.
         -5    1    4    4    0  502 -0.34102854405E+02  0.24265262196E+01 -0.17994556897E+03  0.18322497237E+03  0.47000000000E+01 0. -1.
          5    1    3    3  503    0 -0.32632041430E+02  0.34305132131E+02  0.59501603007E+02  0.76185451228E+02  0.47000000000E+01 0.  1.
         -5    1    3    3    0  503  0.45260023499E+02  0.29089673262E+02 -0.38186027916E+02  0.66143340902E+02  0.47000000000E+01 0.  1.
<mgrwt>
<rscale>  0 0.14072282E+03</rscale>
<asrwt>0</asrwt>
<pdfrwt beam="2">  1        5 0.47309831E-01 0.14072360E+03</pdfrwt>
<pdfrwt beam="1">  1       -5 0.15671440E-01 0.14072360E+03</pdfrwt>
<totfact> 0.11263710E+02</totfact>
</mgrwt>
</event>
<event>
 8    1  0.3682083E-007  0.1552867E+03  0.7546771E-02  0.1194132E+00
         -5   -1    0    0    0  501 -0.00000000000E+00  0.00000000000E+00  0.33635235217E+03  0.33638518816E+03  0.47000000000E+01 0. -1.
          5   -1    0    0  501    0  0.00000000000E+00 -0.00000000000E+00 -0.72718600453E+02  0.72870329022E+02  0.47000000000E+01 0. -1.
         25    2    1    2    0    0  0.68392532402E+02  0.61727708494E+02  0.15756702326E+03  0.22122686175E+03  0.12500443613E+03 0.  0.
         25    2    1    2    0    0 -0.68392532402E+02 -0.61727708494E+02  0.10606672846E+03  0.18802865544E+03  0.12496709925E+03 0.  0.
          5    1    3    3  502    0 -0.17649794242E+02  0.18957927651E+01  0.99784786727E+02  0.10146035151E+03  0.47000000000E+01 0.  1.
         -5    1    3    3    0  502  0.86042326644E+02  0.59831915729E+02  0.57782236538E+02  0.11976651023E+03  0.47000000000E+01 0.  1.
          5    1    4    4  503    0  0.88225173820E+01 -0.72518558875E+02  0.72450453606E+02  0.10299483687E+03  0.47000000000E+01 0.  1.
         -5    1    4    4    0  503 -0.77215049784E+02  0.10790850382E+02  0.33616274851E+02  0.85033818566E+02  0.47000000000E+01 0.  1.
<mgrwt>
<rscale>  0 0.15527918E+03</rscale>
<asrwt>0</asrwt>
<pdfrwt beam="2">  1        5 0.11201674E-01 0.15528669E+03</pdfrwt>
<pdfrwt beam="1">  1       -5 0.51760713E-01 0.15528669E+03</pdfrwt>
<totfact> 0.17539380E+02</totfact>
</mgrwt>
</event>
<event>
 8    1  0.3682083E-007  0.1356934E+03  0.7546771E-02  0.1219248E+00
          5   -1    0    0  501    0  0.00000000000E+00  0.00000000000E+00  0.92492054155E+02  0.92611392829E+02  0.47000000000E+01 0.  1.
         -5   -1    0    0    0  501 -0.00000000000E+00 -0.00000000000E+00 -0.19897733637E+03  0.19903283747E+03  0.47000000000E+01 0.  1.
         25    2    1    2    0    0 -0.47963381499E+02  0.22124612352E+02 -0.48689432428E+02  0.14416439505E+03  0.12499090981E+03 0.  0.
         25    2    1    2    0    0  0.47963381499E+02 -0.22124612352E+02 -0.57795849789E+02  0.14747983524E+03  0.12497982683E+03 0.  0.
          5    1    3    3  502    0  0.27509125665E+02 -0.30981358109E+02 -0.51418192524E+01  0.42013388941E+02  0.47000000000E+01 0. -1.
         -5    1    3    3    0  502 -0.75472507163E+02  0.53105970461E+02 -0.43547613176E+02  0.10215100611E+03  0.47000000000E+01 0. -1.
          5    1    4    4  503    0  0.24842507918E+02  0.51124975180E+02 -0.13223167990E+02  0.58547890300E+02  0.47000000000E+01 0.  1.
         -5    1    4    4    0  503  0.23120873581E+02 -0.73249587532E+02 -0.44572681799E+02  0.88931944944E+02  0.47000000000E+01 0.  1.
<mgrwt>
<rscale>  0 0.13569090E+03</rscale>
<asrwt>0</asrwt>
<pdfrwt beam="1">  1        5 0.14242996E-01 0.13569345E+03</pdfrwt>
<pdfrwt beam="2">  1       -5 0.30625347E-01 0.13569345E+03</pdfrwt>
<totfact> 0.32002261E+02</totfact>
</mgrwt>
</event>
<event>
 8    1  0.3682083E-007  0.1306157E+03  0.7546771E-02  0.1226548E+00
         -5   -1    0    0    0  501 -0.00000000000E+00  0.00000000000E+00  0.14424171566E+03  0.14431826820E+03  0.47000000000E+01 0.  1.
          5   -1    0    0  501    0  0.00000000000E+00 -0.00000000000E+00 -0.13686887241E+03  0.13694954631E+03  0.47000000000E+01 0.  1.
         25    2    1    2    0    0  0.37762416204E+02  0.24717870063E+01  0.55712632747E+02  0.14200129667E+03  0.12501344327E+03 0.  0.
         25    2    1    2    0    0 -0.37762416204E+02 -0.24717870063E+01 -0.48339789495E+02  0.13926651784E+03  0.12500527163E+03 0.  0.
          5    1    4    4  502    0 -0.60955512792E+02 -0.24015116945E+02 -0.73489186706E+02  0.98564957994E+02  0.47000000000E+01 0. -1.
         -5    1    4    4    0  502  0.23193096588E+02  0.21543329939E+02  0.25149397211E+02  0.40701559851E+02  0.47000000000E+01 0. -1.
          5    1    3    3  503    0  0.20933853437E+02  0.42635818650E+02 -0.22185394171E+02  0.52633838604E+02  0.47000000000E+01 0. -1.
         -5    1    3    3    0  503  0.16828562767E+02 -0.40164031644E+02  0.77898026918E+02  0.89367458062E+02  0.47000000000E+01 0. -1.
<mgrwt>
<rscale>  0 0.13061378E+03</rscale>
<asrwt>0</asrwt>
<pdfrwt beam="2">  1        5 0.21068844E-01 0.13061574E+03</pdfrwt>
<pdfrwt beam="1">  1       -5 0.22203127E-01 0.13061574E+03</pdfrwt>
<totfact> 0.28577274E+02</totfact>
</mgrwt>
</event>
<event>
 8    1  0.3682083E-007  0.1266983E+03  0.7546771E-02  0.1232439E+00
          5   -1    0    0  501    0  0.00000000000E+00  0.00000000000E+00  0.13932986810E+03  0.13940911787E+03  0.47000000000E+01 0.  1.
         -5   -1    0    0    0  501 -0.00000000000E+00 -0.00000000000E+00 -0.11716108122E+03  0.11725531524E+03  0.47000000000E+01 0.  1.
         25    2    1    2    0    0  0.17381015869E+02  0.11190564773E+02 -0.61215892165E+01  0.12684608848E+03  0.12500051142E+03 0.  0.
         25    2    1    2    0    0 -0.17381015869E+02 -0.11190564773E+02  0.28290376100E+02  0.12981834464E+03  0.12500051509E+03 0.  0.
          5    1    3    3  502    0  0.22550342592E+02  0.44456241272E+02 -0.50387933120E+02  0.71034563018E+02  0.47000000000E+01 0. -1.
         -5    1    3    3    0  502 -0.51693267222E+01 -0.33265676499E+02  0.44266343904E+02  0.55811525461E+02  0.47000000000E+01 0. -1.
          5    1    4    4  503    0  0.35961367478E+02  0.37266097160E+02 -0.68107595541E+00  0.52005151791E+02  0.47000000000E+01 0.  1.
         -5    1    4    4    0  503 -0.53342383347E+02 -0.48456661932E+02  0.28971452055E+02  0.77813192847E+02  0.47000000000E+01 0.  1.
<mgrwt>
<rscale>  0 0.12669829E+03</rscale>
<asrwt>0</asrwt>
<pdfrwt beam="1">  1        5 0.21448709E-01 0.12669829E+03</pdfrwt>
<pdfrwt beam="2">  1       -5 0.18038127E-01 0.12669829E+03</pdfrwt>
<totfact> 0.40252720E+02</totfact>
</mgrwt>
</event>
<event>
 8    1  0.3682083E-007  0.1273099E+03  0.7546771E-02  0.1231505E+00
         -5   -1    0    0    0  501 -0.00000000000E+00  0.00000000000E+00  0.87787076220E+03  0.87788334368E+03  0.47000000000E+01 0. -1.
          5   -1    0    0  501    0  0.00000000000E+00 -0.00000000000E+00 -0.19055225367E+02  0.19626299035E+02  0.47000000000E+01 0. -1.
         25    2    1    2    0    0  0.21608945055E+02 -0.10742543827E+02  0.52574886556E+03  0.54094332626E+03  0.12500185532E+03 0.  0.
         25    2    1    2    0    0 -0.21608945055E+02  0.10742543827E+02  0.33306667127E+03  0.35656631645E+03  0.12499512698E+03 0.  0.
          5    1    3    3  502    0  0.40477480359E+02 -0.38282850538E+02  0.48429184133E+03  0.48750864673E+03  0.47000000000E+01 0. -1.
         -5    1    3    3    0  502 -0.18868535304E+02  0.27540306711E+02  0.41457024234E+02  0.53434679531E+02  0.47000000000E+01 0. -1.
          5    1    4    4  503    0  0.37501268108E+02 -0.13820775884E+02  0.40693634841E+02  0.57231292772E+02  0.47000000000E+01 0.  1.
         -5    1    4    4    0  503 -0.59110213163E+02  0.24563319711E+02  0.29237303642E+03  0.29933502368E+03  0.47000000000E+01 0.  1.
<mgrwt>
<rscale>  0 0.12730826E+03</rscale>
<asrwt>0</asrwt>
<pdfrwt beam="2">  1        5 0.29764695E-02 0.12730991E+03</pdfrwt>
<pdfrwt beam="1">  1       -5 0.13510194E+00 0.12730991E+03</pdfrwt>
<totfact> 0.15969558E+02</totfact>
</mgrwt>
</event>
<event>
 8    1  0.3682083E-007  0.1783722E+03  0.7546771E-02  0.1169390E+00
          5   -1    0    0  501    0  0.00000000000E+00  0.00000000000E+00  0.21390208474E+03  0.21395371429E+03  0.47000000000E+01 0. -1.
         -5   -1    0    0    0  501 -0.00000000000E+00 -0.00000000000E+00 -0.15298515373E+03  0.15305733325E+03  0.47000000000E+01 0. -1.
         25    2    1    2    0    0 -0.12395583992E+03  0.28729558418E+02 -0.49531195061E+00  0.17836291549E+03  0.12499058569E+03 0.  0.
         25    2    1    2    0    0  0.12395583992E+03 -0.28729558418E+02  0.61412242966E+02  0.18864813205E+03  0.12500486536E+03 0.  0.
          5    1    3    3  502    0  0.16613617886E+02  0.12494229948E+02  0.26730855455E+02  0.34186937778E+02  0.47000000000E+01 0. -1.
         -5    1    3    3    0  502 -0.14056945780E+03  0.16235328471E+02 -0.27226167406E+02  0.14417597771E+03  0.47000000000E+01 0. -1.
          5    1    4    4  503    0  0.34344457103E+02 -0.52796360542E+02  0.71260716431E+02  0.95221726126E+02  0.47000000000E+01 0.  1.
         -5    1    4    4    0  503  0.89611382812E+02  0.24066802123E+02 -0.98484734654E+01  0.93426405922E+02  0.47000000000E+01 0.  1.
<mgrwt>
<rscale>  0 0.17836973E+03</rscale>
<asrwt>0</asrwt>
<pdfrwt beam="1">  1        5 0.32917537E-01 0.17837223E+03</pdfrwt>
<pdfrwt beam="2">  1       -5 0.23545701E-01 0.17837223E+03</pdfrwt>
<totfact> 0.11927286E+02</totfact>
</mgrwt>
</event>
<event>
 8    1  0.3682083E-007  0.1371145E+03  0.7546771E-02  0.1217267E+00
          5   -1    0    0  501    0  0.00000000000E+00  0.00000000000E+00  0.22865810104E+02  0.23343848691E+02  0.47000000000E+01 0. -1.
         -5   -1    0    0    0  501 -0.00000000000E+00 -0.00000000000E+00 -0.89152734424E+03  0.89153973300E+03  0.47000000000E+01 0. -1.
         25    2    1    2    0    0 -0.52385210675E+02  0.20755123723E+02 -0.56990482371E+03  0.58616711874E+03  0.12500159019E+03 0.  0.
         25    2    1    2    0    0  0.52385210675E+02 -0.20755123723E+02 -0.29875671043E+03  0.32871646295E+03  0.12499582206E+03 0.  0.
          5    1    4    4  502    0 -0.40145614114E+02 -0.98779079348E+01 -0.12123062785E+03  0.12817253421E+03  0.47000000000E+01 0. -1.
         -5    1    4    4    0  502  0.92530824789E+02 -0.10877215788E+02 -0.17752608258E+03  0.20054392874E+03  0.47000000000E+01 0. -1.
          5    1    3    3  503    0  0.40815373055E+02 -0.79197488519E+00 -0.15537743631E+03  0.16071950602E+03  0.47000000000E+01 0. -1.
         -5    1    3    3    0  503 -0.93200583730E+02  0.21547098608E+02 -0.41452738739E+03  0.42544761272E+03  0.47000000000E+01 0. -1.
<mgrwt>
<rscale>  0 0.13711317E+03</rscale>
<asrwt>0</asrwt>
<pdfrwt beam="1">  1        5 0.35555428E-02 0.13711449E+03</pdfrwt>
<pdfrwt beam="2">  1       -5 0.13719575E+00 0.13711449E+03</pdfrwt>
<totfact> 0.11780676E+02</totfact>
</mgrwt>
</event>
<event>
 8    1  0.3682083E-007  0.1413636E+03  0.7546771E-02  0.1211510E+00
         -5   -1    0    0    0  501 -0.00000000000E+00  0.00000000000E+00  0.11060035138E+03  0.11070017039E+03  0.47000000000E+01 0. -1.
          5   -1    0    0  501    0  0.00000000000E+00 -0.00000000000E+00 -0.18314556075E+03  0.18320585805E+03  0.47000000000E+01 0. -1.
         25    2    1    2    0    0 -0.43039951237E+02  0.50067345885E+02 -0.18475641578E+02  0.14256586540E+03  0.12499800046E+03 0.  0.
         25    2    1    2    0    0  0.43039951237E+02 -0.50067345885E+02 -0.54069567796E+02  0.15134016304E+03  0.12498460010E+03 0.  0.
          5    1    3    3  502    0 -0.62872087476E+02  0.35891547655E+02 -0.60027601259E+02  0.94162123434E+02  0.47000000000E+01 0. -1.
         -5    1    3    3    0  502  0.19832136239E+02  0.14175798231E+02  0.41551959681E+02  0.48403741969E+02  0.47000000000E+01 0. -1.
          5    1    4    4  503    0 -0.59029995533E+01  0.30267288777E+02 -0.47627242512E+02  0.56933280276E+02  0.47000000000E+01 0. -1.
         -5    1    4    4    0  503  0.48942950790E+02 -0.80334634663E+02 -0.64423252835E+01  0.94406882765E+02  0.47000000000E+01 0. -1.
<mgrwt>
<rscale>  0 0.14136067E+03</rscale>
<asrwt>0</asrwt>
<pdfrwt beam="2">  1        5 0.28188557E-01 0.14136363E+03</pdfrwt>
<pdfrwt beam="1">  1       -5 0.17027755E-01 0.14136363E+03</pdfrwt>
<totfact> 0.27592200E+02</totfact>
</mgrwt>
</event>
<event>
 8    1  0.3682083E-007  0.1330831E+03  0.7546771E-02  0.1222969E+00
          5   -1    0    0  501    0  0.00000000000E+00  0.00000000000E+00  0.43332567196E+02  0.43586711046E+02  0.47000000000E+01 0. -1.
         -5   -1    0    0    0  501 -0.00000000000E+00 -0.00000000000E+00 -0.41361002959E+03  0.41363673262E+03  0.47000000000E+01 0. -1.
         25    2    1    2    0    0  0.13614591599E+02 -0.43438969713E+02 -0.21381104333E+03  0.25184571630E+03  0.12505519330E+03 0.  0.
         25    2    1    2    0    0 -0.13614591599E+02  0.43438969713E+02 -0.15646641906E+03  0.20537772737E+03  0.12500387759E+03 0.  0.
          5    1    3    3  502    0 -0.40408295655E+02 -0.16578627377E+02 -0.17388113999E+03  0.17934442308E+03  0.47000000000E+01 0.  1.
         -5    1    3    3    0  502  0.54022887254E+02 -0.26860342337E+02 -0.39929903340E+02  0.72501293219E+02  0.47000000000E+01 0.  1.
          5    1    4    4  503    0  0.36638880574E+02 -0.20672615999E+02 -0.92405129747E+02  0.10163937537E+03  0.47000000000E+01 0. -1.
         -5    1    4    4    0  503 -0.50253472173E+02  0.64111585712E+02 -0.64061289310E+02  0.10373835200E+03  0.47000000000E+01 0. -1.
<mgrwt>
<rscale>  0 0.13307101E+03</rscale>
<asrwt>0</asrwt>
<pdfrwt beam="1">  1        5 0.66881527E-02 0.13308307E+03</pdfrwt>
<pdfrwt beam="2">  1       -5 0.63653913E-01 0.13308307E+03</pdfrwt>
<totfact> 0.25906016E+02</totfact>
</mgrwt>
</event>
<event>
 8    1  0.3682083E-007  0.1342323E+03  0.7546771E-02  0.1221324E+00
          5   -1    0    0  501    0  0.00000000000E+00  0.00000000000E+00  0.10501472331E+02  0.11505256238E+02  0.47000000000E+01 0.  1.
         -5   -1    0    0    0  501 -0.00000000000E+00 -0.00000000000E+00 -0.17190771146E+04  0.17190835396E+04  0.47000000000E+01 0.  1.
         25    2    1    2    0    0  0.43172324953E+02 -0.22761598494E+02 -0.10443780691E+04  0.10529629915E+04  0.12499428070E+03 0.  0.
         25    2    1    2    0    0 -0.43172324953E+02  0.22761598494E+02 -0.66419757323E+03  0.67762580436E+03  0.12504548950E+03 0.  0.
          5    1    3    3  502    0  0.41244888581E+02 -0.70082194997E+02 -0.50929150557E+03  0.51576407643E+03  0.47000000000E+01 0. -1.
         -5    1    3    3    0  502  0.19274363727E+01  0.47320596503E+02 -0.53508656352E+03  0.53719891504E+03  0.47000000000E+01 0. -1.
          5    1    4    4  503    0 -0.35547745566E+02 -0.13307351391E+02 -0.53320675797E+02  0.65619450495E+02  0.47000000000E+01 0. -1.
         -5    1    4    4    0  503 -0.76245793879E+01  0.36068949885E+02 -0.61087689743E+03  0.61200635387E+03  0.47000000000E+01 0. -1.
<mgrwt>
<rscale>  0 0.13422039E+03</rscale>
<asrwt>0</asrwt>
<pdfrwt beam="1">  1        5 0.16933209E-02 0.13423232E+03</pdfrwt>
<pdfrwt beam="2">  1       -5 0.26455090E+00 0.13423232E+03</pdfrwt>
<totfact> 0.50234814E+01</totfact>
</mgrwt>
</event>
<event>
 8    1  0.3682083E-007  0.1252116E+03  0.7546771E-02  0.1234740E+00
         -5   -1    0    0    0  501 -0.00000000000E+00  0.00000000000E+00  0.10258045223E+02  0.11283505297E+02  0.47000000000E+01 0. -1.
          5   -1    0    0  501    0  0.00000000000E+00 -0.00000000000E+00 -0.14573892659E+04  0.14573968445E+04  0.47000000000E+01 0. -1.
         25    2    1    2    0    0 -0.62030631828E+01 -0.37482442561E+01 -0.75609573695E+03  0.76639331156E+03  0.12500166894E+03 0.  0.
         25    2    1    2    0    0  0.62030631828E+01  0.37482442561E+01 -0.69103548373E+03  0.70228703824E+03  0.12499806792E+03 0.  0.
          5    1    4    4  502    0 -0.39215733382E+02  0.32261473180E+02 -0.53093072121E+03  0.53337434989E+03  0.47000000000E+01 0. -1.
         -5    1    4    4    0  502  0.45418796565E+02 -0.28513228923E+02 -0.16010476252E+03  0.16891268835E+03  0.47000000000E+01 0. -1.
          5    1    3    3  503    0 -0.27364177282E+02 -0.20980318950E+02 -0.72028322307E+03  0.72112341760E+03  0.47000000000E+01 0. -1.
         -5    1    3    3    0  503  0.21161114099E+02  0.17232074694E+02 -0.35812513888E+02  0.45269893960E+02  0.47000000000E+01 0. -1.
<mgrwt>
<rscale>  0 0.12521070E+03</rscale>
<asrwt>0</asrwt>
<pdfrwt beam="2">  1        5 0.22429304E+00 0.12521160E+03</pdfrwt>
<pdfrwt beam="1">  1       -5 0.16576265E-02 0.12521160E+03</pdfrwt>
<totfact> 0.91681608E+01</totfact>
</mgrwt>
</event>
<event>
 8    1  0.3682083E-007  0.1349233E+03  0.7546771E-02  0.1220338E+00
         -5   -1    0    0    0  501 -0.00000000000E+00  0.00000000000E+00  0.82609033773E+02  0.82742627834E+02  0.47000000000E+01 0. -1.
          5   -1    0    0  501    0  0.00000000000E+00 -0.00000000000E+00 -0.25899970290E+03  0.25904234423E+03  0.47000000000E+01 0. -1.
         25    2    1    2    0    0  0.21437361319E+01  0.50747409117E+02 -0.21899204582E+02  0.13668899544E+03  0.12499764469E+03 0.  0.
         25    2    1    2    0    0 -0.21437361319E+01 -0.50747409117E+02 -0.15449146454E+03  0.20509597662E+03  0.12496740323E+03 0.  0.
          5    1    3    3  502    0  0.49141843946E+02  0.46635071495E+02  0.22693453847E+02  0.71601910360E+02  0.47000000000E+01 0.  1.
         -5    1    3    3    0  502 -0.46998107814E+02  0.41123376219E+01 -0.44592658429E+02  0.65087085082E+02  0.47000000000E+01 0.  1.
          5    1    4    4  503    0 -0.52701320037E+02 -0.46702881891E+02 -0.13143579560E+03  0.14918460602E+03  0.47000000000E+01 0. -1.
         -5    1    4    4    0  503  0.50557583905E+02 -0.40445272258E+01 -0.23055668949E+02  0.55911370592E+02  0.47000000000E+01 0. -1.
<mgrwt>
<rscale>  0 0.13491633E+03</rscale>
<asrwt>0</asrwt>
<pdfrwt beam="2">  1        5 0.39859664E-01 0.13492333E+03</pdfrwt>
<pdfrwt beam="1">  1       -5 0.12722639E-01 0.13492333E+03</pdfrwt>
<totfact> 0.23055159E+02</totfact>
</mgrwt>
</event>
<event>
 8    1  0.3682083E-007  0.2106837E+03  0.7546771E-02  0.1141026E+00
          5   -1    0    0  501    0  0.00000000000E+00  0.00000000000E+00  0.84631545832E+02  0.84761952254E+02  0.47000000000E+01 0.  1.
         -5   -1    0    0    0  501 -0.00000000000E+00 -0.00000000000E+00 -0.55746046781E+03  0.55748028053E+03  0.47000000000E+01 0.  1.
         25    2    1    2    0    0 -0.13239617448E+03  0.10597662333E+03 -0.31516126094E+03  0.37909664004E+03  0.12501140100E+03 0.  0.
         25    2    1    2    0    0  0.13239617448E+03 -0.10597662333E+03 -0.15766766104E+03  0.26314559274E+03  0.12500687954E+03 0.  0.
          5    1    3    3  502    0  0.19712024175E+02  0.24264522851E+01 -0.10020575411E+02  0.22736611431E+02  0.47000000000E+01 0.  1.
         -5    1    3    3    0  502 -0.15210819866E+03  0.10355017105E+03 -0.30514068553E+03  0.35636002860E+03  0.47000000000E+01 0.  1.
          5    1    4    4  503    0 -0.31742722209E+00 -0.36571272290E+01  0.18811441334E+02  0.19734124370E+02  0.47000000000E+01 0.  1.
         -5    1    4    4    0  503  0.13271360170E+03 -0.10231949610E+03 -0.17647910238E+03  0.24341146837E+03  0.47000000000E+01 0.  1.
<mgrwt>
<rscale>  0 0.21068308E+03</rscale>
<asrwt>0</asrwt>
<pdfrwt beam="1">  1        5 0.13031793E-01 0.21068375E+03</pdfrwt>
<pdfrwt beam="2">  1       -5 0.85774702E-01 0.21068375E+03</pdfrwt>
<totfact> 0.46970334E+01</totfact>
</mgrwt>
</event>
<event>
 8    1  0.3682083E-007  0.1362177E+03  0.7546771E-02  0.1218513E+00
         -5   -1    0    0    0  501 -0.00000000000E+00  0.00000000000E+00  0.41878247485E+02  0.42141162922E+02  0.47000000000E+01 0. -1.
          5   -1    0    0  501    0  0.00000000000E+00 -0.00000000000E+00 -0.55956665226E+03  0.55958639040E+03  0.47000000000E+01 0. -1.
         25    2    1    2    0    0 -0.85904459909E+01  0.53435598997E+02 -0.12061182776E+03  0.18193586204E+03  0.12499714356E+03 0.  0.
         25    2    1    2    0    0  0.85904459909E+01 -0.53435598997E+02 -0.39707657701E+03  0.41979169128E+03  0.12500438813E+03 0.  0.
          5    1    3    3  502    0  0.94697191369E+01  0.32121438038E+02 -0.14229670900E+03  0.14625972021E+03  0.47000000000E+01 0. -1.
         -5    1    3    3    0  502 -0.18060165128E+02  0.21314160959E+02  0.21684881241E+02  0.35676141835E+02  0.47000000000E+01 0. -1.
          5    1    4    4  503    0  0.62275073471E+01  0.75466613812E+01 -0.32521349526E+03  0.32539459345E+03  0.47000000000E+01 0.  1.
         -5    1    4    4    0  503  0.23629386439E+01 -0.60982260379E+02 -0.71863081750E+02  0.94397097829E+02  0.47000000000E+01 0.  1.
<mgrwt>
<rscale>  0 0.13621602E+03</rscale>
<asrwt>0</asrwt>
<pdfrwt beam="2">  1        5 0.86108915E-01 0.13621768E+03</pdfrwt>
<pdfrwt beam="1">  1       -5 0.64645503E-02 0.13621768E+03</pdfrwt>
<totfact> 0.13895043E+02</totfact>
</mgrwt>
</event>
<event>
 8    1  0.3682083E-007  0.1382039E+03  0.7546771E-02  0.1215766E+00
          5   -1    0    0  501    0  0.00000000000E+00  0.00000000000E+00  0.14475806902E+03  0.14483434864E+03  0.47000000000E+01 0.  1.
         -5   -1    0    0    0  501 -0.00000000000E+00 -0.00000000000E+00 -0.16262816395E+03  0.16269606544E+03  0.47000000000E+01 0.  1.
         25    2    1    2    0    0 -0.22565903030E+02 -0.54463072699E+02 -0.75858407359E+02  0.15765394768E+03  0.12499929193E+03 0.  0.
         25    2    1    2    0    0  0.22565903030E+02  0.54463072699E+02  0.57988312433E+02  0.14987646641E+03  0.12499945814E+03 0.  0.
          5    1    4    4  502    0 -0.31268757900E+02  0.67696766741E+02  0.81113678723E+01  0.75156315347E+02  0.47000000000E+01 0. -1.
         -5    1    4    4    0  502  0.53834660930E+02 -0.13233694042E+02  0.49876944561E+02  0.74720151058E+02  0.47000000000E+01 0. -1.
          5    1    3    3  503    0  0.32348651462E+02  0.18068659096E+02  0.25832614002E+01  0.37438949403E+02  0.47000000000E+01 0.  1.
         -5    1    3    3    0  503 -0.54914554492E+02 -0.72531731795E+02 -0.78441668759E+02  0.12021499827E+03  0.47000000000E+01 0.  1.
<mgrwt>
<rscale>  0 0.13820384E+03</rscale>
<asrwt>0</asrwt>
<pdfrwt beam="1">  1        5 0.22281563E-01 0.13820387E+03</pdfrwt>
<pdfrwt beam="2">  1       -5 0.25030808E-01 0.13820387E+03</pdfrwt>
<totfact> 0.20879885E+02</totfact>
</mgrwt>
</event>
<event>
 8    1  0.3682083E-007  0.1300935E+03  0.7546771E-02  0.1227333E+00
         -5   -1    0    0    0  501 -0.00000000000E+00  0.00000000000E+00  0.25923795812E+03  0.25928056027E+03  0.47000000000E+01 0.  1.
          5   -1    0    0  501    0  0.00000000000E+00 -0.00000000000E+00 -0.67006358042E+02  0.67170990897E+02  0.47000000000E+01 0.  1.
         25    2    1    2    0    0 -0.35707269503E+02 -0.35979280615E+01  0.12340173563E+03  0.17931064087E+03  0.12504544530E+03 0.  0.
         25    2    1    2    0    0  0.35707269503E+02  0.35979280615E+01  0.68829864449E+02  0.14714091029E+03  0.12499977224E+03 0.  0.
          5    1    4    4  502    0  0.81708176976E+02  0.12552692628E+02  0.40456609455E+02  0.92155431341E+02  0.47000000000E+01 0.  1.
         -5    1    4    4    0  502 -0.46000907473E+02 -0.89547645663E+01  0.28373254994E+02  0.54985478954E+02  0.47000000000E+01 0.  1.
          5    1    3    3  503    0 -0.44520967298E+02 -0.45826464139E+02  0.11969174001E+03  0.13575855027E+03  0.47000000000E+01 0.  1.
         -5    1    3    3    0  503  0.88136977953E+01  0.42228536078E+02  0.37099956221E+01  0.43552090600E+02  0.47000000000E+01 0.  1.
<mgrwt>
<rscale>  0 0.13008252E+03</rscale>
<asrwt>0</asrwt>
<pdfrwt beam="2">  1        5 0.10324612E-01 0.13009350E+03</pdfrwt>
<pdfrwt beam="1">  1       -5 0.39898704E-01 0.13009350E+03</pdfrwt>
<totfact> 0.32835207E+02</totfact>
</mgrwt>
</event>
<event>
 8    1  0.3682083E-007  0.1281508E+03  0.7546771E-02  0.1230230E+00
          5   -1    0    0  501    0  0.00000000000E+00  0.00000000000E+00  0.47004200520E+02  0.47238595095E+02  0.47000000000E+01 0.  1.
         -5   -1    0    0    0  501 -0.00000000000E+00 -0.00000000000E+00 -0.35268151691E+03  0.35271283272E+03  0.47000000000E+01 0.  1.
         25    2    1    2    0    0 -0.99811678759E+01  0.26423324118E+02 -0.17527267299E+03  0.21711814534E+03  0.12498785288E+03 0.  0.
         25    2    1    2    0    0  0.99811678759E+01 -0.26423324118E+02 -0.13040464339E+03  0.18283328248E+03  0.12499928957E+03 0.  0.
          5    1    3    3  502    0  0.19677255832E+02  0.36609705175E+02 -0.29820339721E+01  0.41933845956E+02  0.47000000000E+01 0. -1.
         -5    1    3    3    0  502 -0.29658423708E+02 -0.10186381057E+02 -0.17229063902E+03  0.17518429938E+03  0.47000000000E+01 0. -1.
          5    1    4    4  503    0 -0.56400494270E+02 -0.92835605401E+01 -0.43177850740E+02  0.71788697194E+02  0.47000000000E+01 0.  1.
         -5    1    4    4    0  503  0.66381662146E+02 -0.17139763578E+02 -0.87226792652E+02  0.11104458529E+03  0.47000000000E+01 0.  1.
<mgrwt>
<rscale>  0 0.12814805E+03</rscale>
<asrwt>0</asrwt>
<pdfrwt beam="1">  1        5 0.72518549E-02 0.12815084E+03</pdfrwt>
<pdfrwt beam="2">  1       -5 0.54279133E-01 0.12815084E+03</pdfrwt>
<totfact> 0.31521710E+02</totfact>
</mgrwt>
</event>
<event>
 8    1  0.3682083E-007  0.1995291E+03  0.7546771E-02  0.1150137E+00
          5   -1    0    0  501    0  0.00000000000E+00  0.00000000000E+00  0.15252935049E+03  0.15260174560E+03  0.47000000000E+01 0. -1.
         -5   -1    0    0    0  501 -0.00000000000E+00 -0.00000000000E+00 -0.27439675931E+03  0.27443700829E+03  0.47000000000E+01 0. -1.
         25    2    1    2    0    0  0.15159243828E+03 -0.34744455416E+02 -0.10836263973E+03  0.22705581401E+03  0.12499774583E+03 0.  0.
         25    2    1    2    0    0 -0.15159243828E+03  0.34744455416E+02 -0.13504769092E+02  0.19998293989E+03  0.12499341156E+03 0.  0.
          5    1    3    3  502    0  0.15385487699E+03  0.36126403196E+01 -0.10847838971E+03  0.18834549471E+03  0.47000000000E+01 0.  1.
         -5    1    3    3    0  502 -0.22624387127E+01 -0.38357095736E+02  0.11574998600E+00  0.38710319299E+02  0.47000000000E+01 0.  1.
          5    1    4    4  503    0 -0.10921750490E+03  0.52537620430E+02 -0.59233892236E+02  0.13497929073E+03  0.47000000000E+01 0.  1.
         -5    1    4    4    0  503 -0.42374933378E+02 -0.17793165014E+02  0.45729123144E+02  0.65003649156E+02  0.47000000000E+01 0.  1.
<mgrwt>
<rscale>  0 0.19952847E+03</rscale>
<asrwt>0</asrwt>
<pdfrwt beam="1">  1        5 0.23474719E-01 0.19952915E+03</pdfrwt>
<pdfrwt beam="2">  1       -5 0.42223551E-01 0.19952915E+03</pdfrwt>
<totfact> 0.74598045E+01</totfact>
</mgrwt>
</event>
<event>
 8    1  0.3682083E-007  0.1313301E+03  0.7546771E-02  0.1225501E+00
         -5   -1    0    0    0  501 -0.00000000000E+00  0.00000000000E+00  0.32220678099E+02  0.32561666069E+02  0.47000000000E+01 0. -1.
          5   -1    0    0  501    0  0.00000000000E+00 -0.00000000000E+00 -0.68656616866E+03  0.68658225578E+03  0.47000000000E+01 0. -1.
         25    2    1    2    0    0 -0.64940383407E+01  0.39746624519E+02 -0.15665782915E+03  0.20442423175E+03  0.12500249757E+03 0.  0.
         25    2    1    2    0    0  0.64940383407E+01 -0.39746624519E+02 -0.49768766141E+03  0.51471969010E+03  0.12498553659E+03 0.  0.
          5    1    3    3  502    0  0.26744952635E+02 -0.32637238963E+02 -0.93415290314E+02  0.10261085870E+03  0.47000000000E+01 0.  1.
         -5    1    3    3    0  502 -0.33238990976E+02  0.72383863482E+02 -0.63242538838E+02  0.10181337305E+03  0.47000000000E+01 0.  1.
          5    1    4    4  503    0  0.28440705526E+02 -0.60151339632E+02 -0.13315815301E+03  0.14893032299E+03  0.47000000000E+01 0. -1.
         -5    1    4    4    0  503 -0.21946667185E+02  0.20404715113E+02 -0.36452950840E+03  0.36578936711E+03  0.47000000000E+01 0. -1.
<mgrwt>
<rscale>  0 0.13132605E+03</rscale>
<asrwt>0</asrwt>
<pdfrwt beam="2">  1        5 0.10565302E+00 0.13133008E+03</pdfrwt>
<pdfrwt beam="1">  1       -5 0.49844952E-02 0.13133008E+03</pdfrwt>
<totfact> 0.12971056E+02</totfact>
</mgrwt>
</event>
<event>
 8    1  0.3682083E-007  0.1442192E+03  0.7546771E-02  0.1207768E+00
          5   -1    0    0  501    0  0.00000000000E+00  0.00000000000E+00  0.16922678744E+02  0.17563230223E+02  0.47000000000E+01 0.  1.
         -5   -1    0    0    0  501 -0.00000000000E+00 -0.00000000000E+00 -0.18401312561E+04  0.18401372584E+04  0.47000000000E+01 0.  1.
         25    2    1    2    0    0 -0.41251276765E+02 -0.58935414191E+02 -0.14570546264E+04  0.14641746390E+04  0.12499655263E+03 0.  0.
         25    2    1    2    0    0  0.41251276765E+02  0.58935414191E+02 -0.36615395088E+03  0.39352584957E+03  0.12497530818E+03 0.  0.
          5    1    3    3  502    0 -0.42399990897E+02 -0.36767757819E+02 -0.22601552947E+03  0.23292646223E+03  0.47000000000E+01 0. -1.
         -5    1    3    3    0  502  0.11487141320E+01 -0.22167656372E+02 -0.12310390970E+04  0.12312481768E+04  0.47000000000E+01 0. -1.
          5    1    4    4  503    0  0.74742176522E+02 -0.72332940208E+00 -0.21080748444E+03  0.22371589495E+03  0.47000000000E+01 0.  1.
         -5    1    4    4    0  503 -0.33490899756E+02  0.59658743593E+02 -0.15534646644E+03  0.16980995463E+03  0.47000000000E+01 0.  1.
<mgrwt>
<rscale>  0 0.14421464E+03</rscale>
<asrwt>0</asrwt>
<pdfrwt beam="1">  1        5 0.26532254E-02 0.14421924E+03</pdfrwt>
<pdfrwt beam="2">  1       -5 0.28314670E+00 0.14421924E+03</pdfrwt>
<totfact> 0.19134560E+01</totfact>
</mgrwt>
</event>
<event>
 8    1  0.3682083E-007  0.1342390E+03  0.7546771E-02  0.1221302E+00
         -5   -1    0    0    0  501 -0.00000000000E+00  0.00000000000E+00  0.22875121718E+03  0.22879949599E+03  0.47000000000E+01 0.  1.
          5   -1    0    0  501    0  0.00000000000E+00 -0.00000000000E+00 -0.97368450878E+02  0.97481819979E+02  0.47000000000E+01 0.  1.
         25    2    1    2    0    0 -0.19349466167E+02 -0.44938734818E+02  0.13716864284E+03  0.19191772949E+03  0.12499314616E+03 0.  0.
         25    2    1    2    0    0  0.19349466167E+02  0.44938734818E+02 -0.57858765374E+01  0.13436358647E+03  0.12500482100E+03 0.  0.
          5    1    4    4  502    0  0.25628281786E+01 -0.43251767281E+02 -0.86020904458E+01  0.44422622854E+02  0.47000000000E+01 0.  1.
         -5    1    4    4    0  502  0.16786637988E+02  0.88190502100E+02  0.28162139085E+01  0.89940963617E+02  0.47000000000E+01 0.  1.
          5    1    3    3  503    0  0.13623564128E+02 -0.80126889705E+02  0.61351212471E+02  0.10194106741E+03  0.47000000000E+01 0.  1.
         -5    1    3    3    0  503 -0.32973030294E+02  0.35188154886E+02  0.75817430373E+02  0.89976662082E+02  0.47000000000E+01 0.  1.
<mgrwt>
<rscale>  0 0.13423624E+03</rscale>
<asrwt>0</asrwt>
<pdfrwt beam="2">  1        5 0.14992196E-01 0.13423895E+03</pdfrwt>
<pdfrwt beam="1">  1       -5 0.35204930E-01 0.13423895E+03</pdfrwt>
<totfact> 0.22038929E+02</totfact>
</mgrwt>
</event>
<event>
 8    1  0.3682083E-007  0.1402077E+03  0.7546771E-02  0.1213050E+00
          5   -1    0    0  501    0  0.00000000000E+00  0.00000000000E+00  0.21759226371E+02  0.22261040682E+02  0.47000000000E+01 0.  1.
         -5   -1    0    0    0  501 -0.00000000000E+00 -0.00000000000E+00 -0.90852540768E+03  0.90853756466E+03  0.47000000000E+01 0.  1.
         25    2    1    2    0    0 -0.30058932304E+02 -0.55945872110E+02 -0.50491679858E+03  0.52402207526E+03  0.12499872742E+03 0.  0.
         25    2    1    2    0    0  0.30058932304E+02  0.55945872110E+02 -0.38184938273E+03  0.40677653008E+03  0.12499885726E+03 0.  0.
          5    1    3    3  502    0 -0.13213914036E+02 -0.31306798871E+02 -0.23324936287E+02  0.41483319931E+02  0.47000000000E+01 0. -1.
         -5    1    3    3    0  502 -0.16845018267E+02 -0.24639073239E+02 -0.48159186229E+03  0.48253875533E+03  0.47000000000E+01 0. -1.
          5    1    4    4  503    0  0.51350975754E+02 -0.22589553672E+02 -0.12028677100E+03  0.13280891508E+03  0.47000000000E+01 0.  1.
         -5    1    4    4    0  503 -0.21292043450E+02  0.78535425782E+02 -0.26156261173E+03  0.27396761500E+03  0.47000000000E+01 0.  1.
<mgrwt>
<rscale>  0 0.14020765E+03</rscale>
<asrwt>0</asrwt>
<pdfrwt beam="1">  1        5 0.33871102E-02 0.14020768E+03</pdfrwt>
<pdfrwt beam="2">  1       -5 0.13981265E+00 0.14020768E+03</pdfrwt>
<totfact> 0.12207908E+02</totfact>
</mgrwt>
</event>
<event>
 8    1  0.3682083E-007  0.1267949E+03  0.7546771E-02  0.1232291E+00
         -5   -1    0    0    0  501 -0.00000000000E+00  0.00000000000E+00  0.21735709653E+03  0.21740790559E+03  0.47000000000E+01 0.  1.
          5   -1    0    0  501    0  0.00000000000E+00 -0.00000000000E+00 -0.82365571182E+02  0.82499559491E+02  0.47000000000E+01 0.  1.
         25    2    1    2    0    0  0.61025065068E+01 -0.20354289338E+02  0.11570819621E+03  0.17165456662E+03  0.12500146355E+03 0.  0.
         25    2    1    2    0    0 -0.61025065068E+01  0.20354289338E+02  0.19283329142E+02  0.12825289846E+03  0.12500168599E+03 0.  0.
          5    1    3    3  502    0  0.31072618766E+02 -0.30960674158E+02 -0.80731833510E+01  0.44847934966E+02  0.47000000000E+01 0. -1.
         -5    1    3    3    0  502 -0.24970112259E+02  0.10606384819E+02  0.12378137956E+03  0.12680663165E+03  0.47000000000E+01 0. -1.
          5    1    4    4  503    0  0.39691063727E+02 -0.23501168157E+02  0.40152675026E+02  0.61335248889E+02  0.47000000000E+01 0. -1.
         -5    1    4    4    0  503 -0.45793570234E+02  0.43855457495E+02 -0.20869345884E+02  0.66917649574E+02  0.47000000000E+01 0. -1.
<mgrwt>
<rscale>  0 0.12679489E+03</rscale>
<asrwt>0</asrwt>
<pdfrwt beam="2">  1        5 0.12685841E-01 0.12679495E+03</pdfrwt>
<pdfrwt beam="1">  1       -5 0.33453769E-01 0.12679495E+03</pdfrwt>
<totfact> 0.32264667E+02</totfact>
</mgrwt>
</event>
<event>
 8    1  0.3682083E-007  0.1283613E+03  0.7546771E-02  0.1229910E+00
          5   -1    0    0  501    0  0.00000000000E+00  0.00000000000E+00  0.60844924910E+02  0.61026181982E+02  0.47000000000E+01 0.  1.
         -5   -1    0    0    0  501 -0.00000000000E+00 -0.00000000000E+00 -0.27801627722E+03  0.27805600227E+03  0.47000000000E+01 0.  1.
         25    2    1    2    0    0  0.16016016721E+02  0.24391177887E+02 -0.13703965313E+03  0.18776713741E+03  0.12500075604E+03 0.  0.
         25    2    1    2    0    0 -0.16016016721E+02 -0.24391177887E+02 -0.80131699177E+02  0.15131504684E+03  0.12499484724E+03 0.  0.
          5    1    3    3  502    0 -0.50120833913E+02  0.29938068689E+02 -0.43405485675E+02  0.72900700515E+02  0.47000000000E+01 0. -1.
         -5    1    3    3    0  502  0.66136850634E+02 -0.55468908019E+01 -0.93634167457E+02  0.11486643689E+03  0.47000000000E+01 0. -1.
          5    1    4    4  503    0 -0.18057911936E+02 -0.73705718085E+02 -0.32918135473E+02  0.82851159949E+02  0.47000000000E+01 0.  1.
         -5    1    4    4    0  503  0.20418952144E+01  0.49314540198E+02 -0.47213563705E+02  0.68463886894E+02  0.47000000000E+01 0.  1.
<mgrwt>
<rscale>  0 0.12835989E+03</rscale>
<asrwt>0</asrwt>
<pdfrwt beam="1">  1        5 0.93777565E-02 0.12836133E+03</pdfrwt>
<pdfrwt beam="2">  1       -5 0.42788733E-01 0.12836133E+03</pdfrwt>
<totfact> 0.33464412E+02</totfact>
</mgrwt>
</event>
<event>
 8    1  0.3682083E-007  0.1864983E+03  0.7546771E-02  0.1161658E+00
          5   -1    0    0  501    0  0.00000000000E+00  0.00000000000E+00  0.11706685374E+03  0.11716116355E+03  0.47000000000E+01 0.  1.
         -5   -1    0    0    0  501 -0.00000000000E+00 -0.00000000000E+00 -0.40295634082E+03  0.40298374980E+03  0.47000000000E+01 0.  1.
         25    2    1    2    0    0  0.11878087585E+03  0.71040736786E+02 -0.27636429186E+03  0.33340492963E+03  0.12500377008E+03 0.  0.
         25    2    1    2    0    0 -0.11878087585E+03 -0.71040736786E+02 -0.95251952187E+01  0.18673998372E+03  0.12500163768E+03 0.  0.
          5    1    4    4  502    0 -0.10849910609E+03  0.23304695936E+01 -0.23651403231E+02  0.11117088641E+03  0.47000000000E+01 0.  1.
         -5    1    4    4    0  502 -0.10281769764E+02 -0.73371206380E+02  0.14126208012E+02  0.75569097308E+02  0.47000000000E+01 0.  1.
          5    1    3    3  503    0  0.10480092307E+03  0.98556579273E+01 -0.23648399466E+03  0.25889599688E+03  0.47000000000E+01 0.  1.
         -5    1    3    3    0  503  0.13979952778E+02  0.61185078859E+02 -0.39880297201E+02  0.74508932750E+02  0.47000000000E+01 0.  1.
<mgrwt>
<rscale>  0 0.18649797E+03</rscale>
<asrwt>0</asrwt>
<pdfrwt beam="1">  1        5 0.18019648E-01 0.18649833E+03</pdfrwt>
<pdfrwt beam="2">  1       -5 0.62002645E-01 0.18649833E+03</pdfrwt>
<totfact> 0.52915203E+01</totfact>
</mgrwt>
</event>
<event>
 8    1  0.3682083E-007  0.1346352E+03  0.7546771E-02  0.1220738E+00
         -5   -1    0    0    0  501 -0.00000000000E+00  0.00000000000E+00  0.11909270220E+02  0.12803152626E+02  0.47000000000E+01 0. -1.
          5   -1    0    0  501    0  0.00000000000E+00 -0.00000000000E+00 -0.16049272904E+04  0.16049341723E+04  0.47000000000E+01 0. -1.
         25    2    1    2    0    0 -0.49952383929E+02 -0.20896423307E+01 -0.55860349849E+03  0.57459781759E+03  0.12500070475E+03 0.  0.
         25    2    1    2    0    0  0.49952383929E+02  0.20896423307E+01 -0.10344145217E+04  0.10431395073E+04  0.12500808715E+03 0.  0.
          5    1    3    3  502    0 -0.89096334258E+02 -0.17190408501E+02 -0.41957650215E+03  0.42930198937E+03  0.47000000000E+01 0.  1.
         -5    1    3    3    0  502  0.39143950329E+02  0.15100766170E+02 -0.13902699634E+03  0.14529582822E+03  0.47000000000E+01 0.  1.
          5    1    4    4  503    0 -0.41246647392E+02 -0.20399978119E+01 -0.25226057681E+03  0.25566176117E+03  0.47000000000E+01 0.  1.
         -5    1    4    4    0  503  0.91199031321E+02  0.41296401425E+01 -0.78215394488E+03  0.78747774618E+03  0.47000000000E+01 0.  1.
<mgrwt>
<rscale>  0 0.13463346E+03</rscale>
<asrwt>0</asrwt>
<pdfrwt beam="2">  1        5 0.24698102E+00 0.13463517E+03</pdfrwt>
<pdfrwt beam="1">  1       -5 0.19014862E-02 0.13463517E+03</pdfrwt>
<totfact> 0.54043388E+01</totfact>
</mgrwt>
</event>
<event>
 8    1  0.3682083E-007  0.1633844E+03  0.7546771E-02  0.1184930E+00
         -5   -1    0    0    0  501 -0.00000000000E+00  0.00000000000E+00  0.61100210434E+03  0.61102018093E+03  0.47000000000E+01 0. -1.
          5   -1    0    0  501    0  0.00000000000E+00 -0.00000000000E+00 -0.60772483406E+02  0.60953955895E+02  0.47000000000E+01 0. -1.
         25    2    1    2    0    0 -0.28305780957E+02 -0.10132382380E+03  0.45366543452E+03  0.48218715969E+03  0.12499758390E+03 0.  0.
         25    2    1    2    0    0  0.28305780957E+02  0.10132382380E+03  0.96564186413E+02  0.18978697714E+03  0.12500688017E+03 0.  0.
          5    1    3    3  502    0 -0.76187326429E+02 -0.55278294167E+02  0.22292177319E+03  0.24202562980E+03  0.47000000000E+01 0. -1.
         -5    1    3    3    0  502  0.47881545472E+02 -0.46045529633E+02  0.23074366133E+03  0.24016152989E+03  0.47000000000E+01 0. -1.
          5    1    4    4  503    0 -0.34060315945E+02  0.66446545755E+02  0.70402450482E+01  0.75145882225E+02  0.47000000000E+01 0. -1.
         -5    1    4    4    0  503  0.62366096902E+02  0.34877278045E+02  0.89523941365E+02  0.11464109492E+03  0.47000000000E+01 0. -1.
<mgrwt>
<rscale>  0 0.16338260E+03</rscale>
<asrwt>0</asrwt>
<pdfrwt beam="2">  1        5 0.93649628E-02 0.16338438E+03</pdfrwt>
<pdfrwt beam="1">  1       -5 0.94015673E-01 0.16338438E+03</pdfrwt>
<totfact> 0.63214460E+01</totfact>
</mgrwt>
</event>
<event>
 8    1  0.3682083E-007  0.1762248E+03  0.7546771E-02  0.1171508E+00
          5   -1    0    0  501    0  0.00000000000E+00  0.00000000000E+00  0.54556753850E+03  0.54558778310E+03  0.47000000000E+01 0. -1.
         -5   -1    0    0    0  501 -0.00000000000E+00 -0.00000000000E+00 -0.77403839605E+02  0.77546401500E+02  0.47000000000E+01 0. -1.
         25    2    1    2    0    0 -0.11288601415E+03  0.51825462703E+02  0.73543157729E+02  0.19095301024E+03  0.12500130118E+03 0.  0.
         25    2    1    2    0    0  0.11288601415E+03 -0.51825462703E+02  0.39462054117E+03  0.43218117435E+03  0.12500426065E+03 0.  0.
          5    1    4    4  502    0  0.74157073366E+02 -0.31683363075E+02  0.77193291339E+02  0.11173182740E+03  0.47000000000E+01 0. -1.
         -5    1    4    4    0  502  0.38728940783E+02 -0.20142099628E+02  0.31742724983E+03  0.32044934696E+03  0.47000000000E+01 0. -1.
          5    1    3    3  503    0  0.10633148819E+02 -0.26024418123E+02  0.22141070344E+02  0.36092259398E+02  0.47000000000E+01 0. -1.
         -5    1    3    3    0  503 -0.12351916297E+03  0.77849880827E+02  0.51402087386E+02  0.15486075085E+03  0.47000000000E+01 0. -1.
<mgrwt>
<rscale>  0 0.17622432E+03</rscale>
<asrwt>0</asrwt>
<pdfrwt beam="1">  1        5 0.83945991E-01 0.17622484E+03</pdfrwt>
<pdfrwt beam="2">  1       -5 0.11920807E-01 0.17622484E+03</pdfrwt>
<totfact> 0.55275845E+01</totfact>
</mgrwt>
</event>
<event>
 8    1  0.3682083E-007  0.1486738E+03  0.7546771E-02  0.1202118E+00
         -5   -1    0    0    0  501 -0.00000000000E+00  0.00000000000E+00  0.48758868031E+02  0.48984867171E+02  0.47000000000E+01 0. -1.
          5   -1    0    0  501    0  0.00000000000E+00 -0.00000000000E+00 -0.56934547496E+03  0.56936487410E+03  0.47000000000E+01 0. -1.
         25    2    1    2    0    0 -0.28998339506E+02 -0.75055808180E+02 -0.11996675474E+03  0.19103902591E+03  0.12501843521E+03 0.  0.
         25    2    1    2    0    0  0.28998339506E+02  0.75055808180E+02 -0.40061985219E+03  0.42731071536E+03  0.12499561375E+03 0.  0.
          5    1    4    4  502    0 -0.42870587990E+02 -0.88418894694E+00 -0.97038588476E+02  0.10619438195E+03  0.47000000000E+01 0. -1.
         -5    1    4    4    0  502  0.71868927496E+02  0.75939997127E+02 -0.30358126371E+03  0.32111633340E+03  0.47000000000E+01 0. -1.
          5    1    3    3  503    0 -0.36532784601E+02 -0.94935781914E+02 -0.13156473908E+03  0.16636952127E+03  0.47000000000E+01 0.  1.
         -5    1    3    3    0  503  0.75344450946E+01  0.19879973734E+02  0.11597984339E+02  0.24669504642E+02  0.47000000000E+01 0.  1.
<mgrwt>
<rscale>  0 0.14866896E+03</rscale>
<asrwt>0</asrwt>
<pdfrwt beam="2">  1        5 0.87610484E-01 0.14867376E+03</pdfrwt>
<pdfrwt beam="1">  1       -5 0.75202415E-02 0.14867376E+03</pdfrwt>
<totfact> 0.10610323E+02</totfact>
</mgrwt>
</event>
<event>
 8    1  0.3682083E-007  0.2710414E+03  0.7546771E-02  0.1100691E+00
          5   -1    0    0  501    0  0.00000000000E+00  0.00000000000E+00  0.61029281102E+03  0.61031090862E+03  0.47000000000E+01 0.  1.
         -5   -1    0    0    0  501 -0.00000000000E+00 -0.00000000000E+00 -0.12201422902E+03  0.12210471770E+03  0.47000000000E+01 0.  1.
         25    2    1    2    0    0 -0.22716794892E+01 -0.24048219153E+03  0.20064033808E+03  0.33722391689E+03  0.12500631939E+03 0.  0.
         25    2    1    2    0    0  0.22716794892E+01  0.24048219153E+03  0.28763824392E+03  0.39519170943E+03  0.12491550289E+03 0.  0.
          5    1    4    4  502    0 -0.59198497285E+02  0.13117703849E+03  0.13277113765E+03  0.19586256023E+03  0.47000000000E+01 0. -1.
         -5    1    4    4    0  502  0.61470176774E+02  0.10930515304E+03  0.15486710627E+03  0.19932914919E+03  0.47000000000E+01 0. -1.
          5    1    3    3  503    0 -0.48841929832E+02 -0.20554860614E+03  0.14296695276E+03  0.25514192752E+03  0.47000000000E+01 0.  1.
         -5    1    3    3    0  503  0.46570250342E+02 -0.34933585390E+02  0.57673385324E+02  0.82081989376E+02  0.47000000000E+01 0.  1.
<mgrwt>
<rscale>  0 0.27103090E+03</rscale>
<asrwt>0</asrwt>
<pdfrwt beam="1">  1        5 0.93899555E-01 0.27104137E+03</pdfrwt>
<pdfrwt beam="2">  1       -5 0.18779773E-01 0.27104137E+03</pdfrwt>
<totfact> 0.20493458E+01</totfact>
</mgrwt>
</event>
<event>
 8    1  0.3682083E-007  0.1427139E+03  0.7546771E-02  0.1209726E+00
          5   -1    0    0  501    0  0.00000000000E+00  0.00000000000E+00  0.26260545875E+04  0.26260587934E+04  0.47000000000E+01 0.  1.
         -5   -1    0    0    0  501 -0.00000000000E+00 -0.00000000000E+00 -0.81795645754E+01  0.94337307913E+01  0.47000000000E+01 0.  1.
         25    2    1    2    0    0 -0.61412085000E+02 -0.31157056981E+02  0.85288933607E+03  0.86474705817E+03  0.12500019458E+03 0.  0.
         25    2    1    2    0    0  0.61412085000E+02  0.31157056981E+02  0.17649856868E+04  0.17707454660E+04  0.12499129710E+03 0.  0.
          5    1    4    4  502    0 -0.37856699127E+02 -0.12677950395E+01  0.46813984284E+03  0.46969323971E+03  0.47000000000E+01 0.  1.
         -5    1    4    4    0  502  0.99268784127E+02  0.32424852020E+02  0.12968458440E+04  0.13010522263E+04  0.47000000000E+01 0.  1.
          5    1    3    3  503    0 -0.68423569499E+02  0.70913523541E+01  0.76987164270E+03  0.77295310878E+03  0.47000000000E+01 0. -1.
         -5    1    3    3    0  503  0.70114844996E+01 -0.38248409335E+02  0.83017693376E+02  0.91793949392E+02  0.47000000000E+01 0. -1.
<mgrwt>
<rscale>  0 0.14271194E+03</rscale>
<asrwt>0</asrwt>
<pdfrwt beam="1">  1        5 0.40410510E+00 0.14271389E+03</pdfrwt>
<pdfrwt beam="2">  1       -5 0.13551927E-02 0.14271389E+03</pdfrwt>
<totfact> 0.88207016E+00</totfact>
</mgrwt>
</event>
<event>
 8    1  0.3682083E-007  0.1631409E+03  0.7546771E-02  0.1185201E+00
         -5   -1    0    0    0  501 -0.00000000000E+00  0.00000000000E+00  0.20344765915E+03  0.20350194106E+03  0.47000000000E+01 0.  1.
          5   -1    0    0  501    0  0.00000000000E+00 -0.00000000000E+00 -0.13379358531E+03  0.13387611240E+03  0.47000000000E+01 0.  1.
         25    2    1    2    0    0  0.10339627299E+03 -0.17268728137E+02  0.60507235993E+02  0.17398089027E+03  0.12497690320E+03 0.  0.
         25    2    1    2    0    0 -0.10339627299E+03  0.17268728137E+02  0.91468378495E+01  0.16339716318E+03  0.12500388016E+03 0.  0.
          5    1    4    4  502    0 -0.20560974859E+02 -0.21906591815E+02 -0.46889023936E+02  0.55886698040E+02  0.47000000000E+01 0.  1.
         -5    1    4    4    0  502 -0.82835298128E+02  0.39175319952E+02  0.56035861785E+02  0.10751046514E+03  0.47000000000E+01 0.  1.
          5    1    3    3  503    0  0.10316148712E+01 -0.10008890704E+02  0.69942944494E+02  0.70819118936E+02  0.47000000000E+01 0. -1.
         -5    1    3    3    0  503  0.10236465812E+03 -0.72598374325E+01 -0.94357085011E+01  0.10316177134E+03  0.47000000000E+01 0. -1.
<mgrwt>
<rscale>  0 0.16313578E+03</rscale>
<asrwt>0</asrwt>
<pdfrwt beam="2">  1        5 0.20594152E-01 0.16314095E+03</pdfrwt>
<pdfrwt beam="1">  1       -5 0.31310163E-01 0.16314095E+03</pdfrwt>
<totfact> 0.16533115E+02</totfact>
</mgrwt>
</event>
<event>
 8    1  0.3682083E-007  0.2735043E+03  0.7546771E-02  0.1099291E+00
          5   -1    0    0  501    0  0.00000000000E+00  0.00000000000E+00  0.33816135433E+03  0.33819401468E+03  0.47000000000E+01 0.  1.
         -5   -1    0    0    0  501 -0.00000000000E+00 -0.00000000000E+00 -0.22282086225E+03  0.22287042571E+03  0.47000000000E+01 0.  1.
         25    2    1    2    0    0  0.17316455552E+03  0.17085833210E+03  0.33286200147E+02  0.27551672318E+03  0.12499184251E+03 0.  0.
         25    2    1    2    0    0 -0.17316455552E+03 -0.17085833210E+03  0.82054291935E+02  0.28554771721E+03  0.12500423608E+03 0.  0.
          5    1    4    4  502    0  0.10415754897E+02  0.49221927622E+01 -0.91798011464E+01  0.15462039993E+02  0.47000000000E+01 0. -1.
         -5    1    4    4    0  502 -0.18358031042E+03 -0.17578052486E+03  0.91234093082E+02  0.27008567721E+03  0.47000000000E+01 0. -1.
          5    1    3    3  503    0  0.12778592278E+03  0.40044476300E+02  0.27909252884E+02  0.13687154028E+03  0.47000000000E+01 0.  1.
         -5    1    3    3    0  503  0.45378632746E+02  0.13081385580E+03  0.53769472634E+01  0.13864518290E+03  0.47000000000E+01 0.  1.
<mgrwt>
<rscale>  0 0.27350287E+03</rscale>
<asrwt>0</asrwt>
<pdfrwt beam="1">  1        5 0.52031149E-01 0.27350428E+03</pdfrwt>
<pdfrwt beam="2">  1       -5 0.34286457E-01 0.27350428E+03</pdfrwt>
<totfact> 0.24562686E+01</totfact>
</mgrwt>
</event>
<event>
 8    1  0.3682083E-007  0.1259712E+03  0.7546771E-02  0.1233564E+00
         -5   -1    0    0    0  501 -0.00000000000E+00  0.00000000000E+00  0.15001224371E+03  0.15008585297E+03  0.47000000000E+01 0.  1.
          5   -1    0    0  501    0  0.00000000000E+00 -0.00000000000E+00 -0.10640262901E+03  0.10650638226E+03  0.47000000000E+01 0.  1.
         25    2    1    2    0    0  0.19779046023E+01  0.15390833897E+02  0.32793595080E+02  0.13016974148E+03  0.12501180681E+03 0.  0.
         25    2    1    2    0    0 -0.19779046023E+01 -0.15390833897E+02  0.10816019613E+02  0.12642249375E+03  0.12499948308E+03 0.  0.
          5    1    3    3  502    0 -0.12013320552E+02 -0.53210834851E+02  0.22719559208E+02  0.59278842658E+02  0.47000000000E+01 0.  1.
         -5    1    3    3    0  502  0.13991225154E+02  0.68601668749E+02  0.10074035873E+02  0.70890898818E+02  0.47000000000E+01 0.  1.
          5    1    4    4  503    0 -0.30910067013E+02  0.47144726135E+02  0.93882948938E+01  0.57343591848E+02  0.47000000000E+01 0.  1.
         -5    1    4    4    0  503  0.28932162410E+02 -0.62535560032E+02  0.14277247190E+01  0.69078901903E+02  0.47000000000E+01 0.  1.
<mgrwt>
<rscale>  0 0.12596814E+03</rscale>
<asrwt>0</asrwt>
<pdfrwt beam="2">  1        5 0.16383279E-01 0.12597119E+03</pdfrwt>
<pdfrwt beam="1">  1       -5 0.23092450E-01 0.12597119E+03</pdfrwt>
<totfact> 0.41682325E+02</totfact>
</mgrwt>
</event>
<event>
 8    1  0.3682083E-007  0.2109165E+03  0.7546771E-02  0.1140843E+00
         -5   -1    0    0    0  501 -0.00000000000E+00  0.00000000000E+00  0.29666260088E+03  0.29669982939E+03  0.47000000000E+01 0.  1.
          5   -1    0    0  501    0  0.00000000000E+00 -0.00000000000E+00 -0.16294009113E+03  0.16300786269E+03  0.47000000000E+01 0.  1.
         25    2    1    2    0    0 -0.16194040250E+03  0.51333555452E+02  0.13193994686E+03  0.24878487575E+03  0.12500374773E+03 0.  0.
         25    2    1    2    0    0  0.16194040250E+03 -0.51333555452E+02  0.17825628871E+01  0.21092281633E+03  0.12500171616E+03 0.  0.
          5    1    3    3  502    0 -0.16774759436E+03  0.35648043580E+02  0.14689999335E+03  0.22585777931E+03  0.47000000000E+01 0.  1.
         -5    1    3    3    0  502  0.58071918687E+01  0.15685511872E+02 -0.14960046494E+02  0.22927096440E+02  0.47000000000E+01 0.  1.
          5    1    4    4  503    0 -0.11361071940E+02 -0.14483863232E+02  0.25825867804E+02  0.32061217968E+02  0.47000000000E+01 0.  1.
         -5    1    4    4    0  503  0.17330147444E+03 -0.36849692220E+02 -0.24043304917E+02  0.17886159837E+03  0.47000000000E+01 0.  1.
<mgrwt>
<rscale>  0 0.21091619E+03</rscale>
<asrwt>0</asrwt>
<pdfrwt beam="2">  1        5 0.25075783E-01 0.21091649E+03</pdfrwt>
<pdfrwt beam="1">  1       -5 0.45648477E-01 0.21091649E+03</pdfrwt>
<totfact> 0.56642064E+01</totfact>
</mgrwt>
</event>
<event>
 8    1  0.3682083E-007  0.1303548E+03  0.7546771E-02  0.1226938E+00
          5   -1    0    0  501    0  0.00000000000E+00  0.00000000000E+00  0.41982345665E+02  0.42244613237E+02  0.47000000000E+01 0.  1.
         -5   -1    0    0    0  501 -0.00000000000E+00 -0.00000000000E+00 -0.42122590696E+03  0.42125212723E+03  0.47000000000E+01 0.  1.
         25    2    1    2    0    0 -0.34121689584E+02  0.14263466032E+02 -0.14164381124E+03  0.19249764731E+03  0.12499855517E+03 0.  0.
         25    2    1    2    0    0  0.34121689584E+02 -0.14263466032E+02 -0.23759975006E+03  0.27099909316E+03  0.12497652220E+03 0.  0.
          5    1    4    4  502    0  0.41095548458E+02 -0.20133612393E+02 -0.25040351752E+03  0.25459422232E+03  0.47000000000E+01 0. -1.
         -5    1    4    4    0  502 -0.69738588740E+01  0.58701463613E+01  0.12803767465E+02  0.16404870838E+02  0.47000000000E+01 0. -1.
          5    1    3    3  503    0 -0.66360982136E+01 -0.51196171704E+02 -0.92464976809E+02  0.10600447034E+03  0.47000000000E+01 0. -1.
         -5    1    3    3    0  503 -0.27485591370E+02  0.65459637736E+02 -0.49178834427E+02  0.86493176963E+02  0.47000000000E+01 0. -1.
<mgrwt>
<rscale>  0 0.13034952E+03</rscale>
<asrwt>0</asrwt>
<pdfrwt beam="1">  1        5 0.64810141E-02 0.13035480E+03</pdfrwt>
<pdfrwt beam="2">  1       -5 0.64826174E-01 0.13035480E+03</pdfrwt>
<totfact> 0.26046341E+02</totfact>
</mgrwt>
</event>
<event>
 8    1  0.3682083E-007  0.1313683E+03  0.7546771E-02  0.1225440E+00
         -5   -1    0    0    0  501 -0.00000000000E+00  0.00000000000E+00  0.15896451413E+03  0.15903397987E+03  0.47000000000E+01 0. -1.
          5   -1    0    0  501    0  0.00000000000E+00 -0.00000000000E+00 -0.11524341911E+03  0.11533921990E+03  0.47000000000E+01 0. -1.
         25    2    1    2    0    0 -0.14501340071E+02 -0.37703979522E+02  0.55223478157E+02  0.14250359879E+03  0.12500305673E+03 0.  0.
         25    2    1    2    0    0  0.14501340071E+02  0.37703979522E+02 -0.11502383132E+02  0.13186960098E+03  0.12500163163E+03 0.  0.
          5    1    4    4  502    0 -0.28819842814E+02  0.98180500542E+01 -0.55814475892E+02  0.63752044405E+02  0.47000000000E+01 0. -1.
         -5    1    4    4    0  502  0.43321182884E+02  0.27885929468E+02  0.44312092760E+02  0.68117556574E+02  0.47000000000E+01 0. -1.
          5    1    3    3  503    0  0.85384674661E+01 -0.34419569110E+01 -0.38562496953E+02  0.39923785708E+02  0.47000000000E+01 0.  1.
         -5    1    3    3    0  503 -0.23039807537E+02 -0.34262022611E+02  0.93785975109E+02  0.10257981308E+03  0.47000000000E+01 0.  1.
<mgrwt>
<rscale>  0 0.13136801E+03</rscale>
<asrwt>0</asrwt>
<pdfrwt beam="2">  1        5 0.17742470E-01 0.13136835E+03</pdfrwt>
<pdfrwt beam="1">  1       -5 0.24468792E-01 0.13136835E+03</pdfrwt>
<totfact> 0.32768784E+02</totfact>
</mgrwt>
</event>
<event>
 8    1  0.3682083E-007  0.1319390E+03  0.7546771E-02  0.1224607E+00
         -5   -1    0    0    0  501 -0.00000000000E+00  0.00000000000E+00  0.12540427396E+03  0.12549231820E+03  0.47000000000E+01 0.  1.
          5   -1    0    0  501    0  0.00000000000E+00 -0.00000000000E+00 -0.21152103994E+03  0.21157325053E+03  0.47000000000E+01 0.  1.
         25    2    1    2    0    0  0.16185005887E+01 -0.42197372298E+02  0.55835263628E+02  0.14326717923E+03  0.12499868082E+03 0.  0.
         25    2    1    2    0    0 -0.16185005887E+01  0.42197372298E+02 -0.14195202961E+03  0.19379838950E+03  0.12499679712E+03 0.  0.
          5    1    4    4  502    0  0.14035743620E+02  0.67639810407E+02 -0.14760152069E+03  0.16303510346E+03  0.47000000000E+01 0. -1.
         -5    1    4    4    0  502 -0.15654244209E+02 -0.25442438109E+02  0.56494910793E+01  0.30763286043E+02  0.47000000000E+01 0. -1.
          5    1    3    3  503    0 -0.47291484769E+02 -0.35055995434E+02  0.70049452444E+02  0.91621084556E+02  0.47000000000E+01 0.  1.
         -5    1    3    3    0  503  0.48909985358E+02 -0.71413768636E+01 -0.14214188816E+02  0.51646094672E+02  0.47000000000E+01 0.  1.
<mgrwt>
<rscale>  0 0.13193859E+03</rscale>
<asrwt>0</asrwt>
<pdfrwt beam="2">  1        5 0.32552487E-01 0.13193903E+03</pdfrwt>
<pdfrwt beam="1">  1       -5 0.19303754E-01 0.13193903E+03</pdfrwt>
<totfact> 0.16117178E+02</totfact>
</mgrwt>
</event>
<event>
 8    1  0.3682083E-007  0.1254681E+03  0.7546771E-02  0.1234340E+00
          5   -1    0    0  501    0  0.00000000000E+00  0.00000000000E+00  0.43297569812E+03  0.43300120688E+03  0.47000000000E+01 0.  1.
         -5   -1    0    0    0  501 -0.00000000000E+00 -0.00000000000E+00 -0.36690883309E+02  0.36990686909E+02  0.47000000000E+01 0.  1.
         25    2    1    2    0    0 -0.10458341675E+02  0.28609888305E+01  0.17052209928E+03  0.21170709412E+03  0.12499818074E+03 0.  0.
         25    2    1    2    0    0  0.10458341675E+02 -0.28609888305E+01  0.22576271553E+03  0.25828479967E+03  0.12499868740E+03 0.  0.
          5    1    4    4  502    0 -0.24541471866E+02  0.20786432707E+02  0.21070295333E+03  0.21319517858E+03  0.47000000000E+01 0. -1.
         -5    1    4    4    0  502  0.34999813541E+02 -0.23647421538E+02  0.15059762197E+02  0.45089621098E+02  0.47000000000E+01 0. -1.
          5    1    3    3  503    0 -0.26518159630E+02 -0.32664292590E+01 -0.11027933017E+02  0.29284597606E+02  0.47000000000E+01 0.  1.
         -5    1    3    3    0  503  0.16059817955E+02  0.61274180895E+01  0.18155003230E+03  0.18242249651E+03  0.47000000000E+01 0.  1.
<mgrwt>
<rscale>  0 0.12546793E+03</rscale>
<asrwt>0</asrwt>
<pdfrwt beam="1">  1        5 0.66636667E-01 0.12546806E+03</pdfrwt>
<pdfrwt beam="2">  1       -5 0.56697756E-02 0.12546806E+03</pdfrwt>
<totfact> 0.30247595E+02</totfact>
</mgrwt>
</event>
<event>
 8    1  0.3682083E-007  0.1529042E+03  0.7546771E-02  0.1196952E+00
          5   -1    0    0  501    0  0.00000000000E+00  0.00000000000E+00  0.20129257538E+04  0.20129312408E+04  0.47000000000E+01 0. -1.
         -5   -1    0    0    0  501 -0.00000000000E+00 -0.00000000000E+00 -0.11141935633E+02  0.12092672560E+02  0.47000000000E+01 0. -1.
         25    2    1    2    0    0  0.80333330210E+02 -0.36023600854E+02  0.10288735662E+04  0.10401733020E+04  0.12501415606E+03 0.  0.
         25    2    1    2    0    0 -0.80333330210E+02  0.36023600854E+02  0.97291025196E+03  0.98485061138E+03  0.12500089842E+03 0.  0.
          5    1    3    3  502    0  0.96596344619E+02 -0.95771364111E+01  0.44650611759E+03  0.45695993083E+03  0.47000000000E+01 0. -1.
         -5    1    3    3    0  502 -0.16263014409E+02 -0.26446464443E+02  0.58236744858E+03  0.58321337115E+03  0.47000000000E+01 0. -1.
          5    1    4    4  503    0 -0.12820451850E+02  0.52724348681E+02  0.16118656525E+03  0.17013941268E+03  0.47000000000E+01 0.  1.
         -5    1    4    4    0  503 -0.67512878360E+02 -0.16700747827E+02  0.81172368671E+03  0.81471119870E+03  0.47000000000E+01 0.  1.
<mgrwt>
<rscale>  0 0.15290145E+03</rscale>
<asrwt>0</asrwt>
<pdfrwt beam="1">  1        5 0.30975413E+00 0.15290416E+03</pdfrwt>
<pdfrwt beam="2">  1       -5 0.17877014E-02 0.15290416E+03</pdfrwt>
<totfact> 0.24679802E+01</totfact>
</mgrwt>
</event>
<event>
 8    1  0.3682083E-007  0.1891361E+03  0.7546771E-02  0.1159245E+00
         -5   -1    0    0    0  501 -0.00000000000E+00  0.00000000000E+00  0.20804271523E+03  0.20809579852E+03  0.47000000000E+01 0.  1.
          5   -1    0    0  501    0  0.00000000000E+00 -0.00000000000E+00 -0.20041012973E+03  0.20046523414E+03  0.47000000000E+01 0.  1.
         25    2    1    2    0    0 -0.57043572578E+02 -0.12996179164E+03  0.80935432380E+02  0.20571683385E+03  0.12499934023E+03 0.  0.
         25    2    1    2    0    0  0.57043572578E+02  0.12996179164E+03 -0.73302846879E+02  0.20284419881E+03  0.12501369993E+03 0.  0.
          5    1    4    4  502    0  0.28417708550E+02  0.72551858631E+01 -0.70746638921E+02  0.76729269511E+02  0.47000000000E+01 0.  1.
         -5    1    4    4    0  502  0.28625864029E+02  0.12270660577E+03 -0.25562079576E+01  0.12611492929E+03  0.47000000000E+01 0.  1.
          5    1    3    3  503    0 -0.78764998235E+02 -0.13772712037E+03  0.87537903623E+02  0.18126681771E+03  0.47000000000E+01 0.  1.
         -5    1    3    3    0  503  0.21721425657E+02  0.77653287334E+01 -0.66024712431E+01  0.24450016144E+02  0.47000000000E+01 0.  1.
<mgrwt>
<rscale>  0 0.18913372E+03</rscale>
<asrwt>0</asrwt>
<pdfrwt beam="2">  1        5 0.30840650E-01 0.18913609E+03</pdfrwt>
<pdfrwt beam="1">  1       -5 0.32014894E-01 0.18913609E+03</pdfrwt>
<totfact> 0.75856797E+01</totfact>
</mgrwt>
</event>
<event>
 8    1  0.3682083E-007  0.2040328E+03  0.7546771E-02  0.1146380E+00
         -5   -1    0    0    0  501 -0.00000000000E+00  0.00000000000E+00  0.41478747111E+02  0.41744178779E+02  0.47000000000E+01 0. -1.
          5   -1    0    0  501    0  0.00000000000E+00 -0.00000000000E+00 -0.10293740974E+04  0.10293848272E+04  0.47000000000E+01 0. -1.
         25    2    1    2    0    0  0.89114604609E+02 -0.13440241144E+03 -0.40373480201E+03  0.45236173882E+03  0.12499572566E+03 0.  0.
         25    2    1    2    0    0 -0.89114604609E+02  0.13440241144E+03 -0.58416054827E+03  0.61876726712E+03  0.12499585493E+03 0.  0.
          5    1    4    4  502    0 -0.86299920578E+02  0.14030730499E+03 -0.58740586846E+03  0.61008324057E+03  0.47000000000E+01 0. -1.
         -5    1    4    4    0  502 -0.28146840313E+01 -0.59048935476E+01  0.32453201894E+01  0.86840265508E+01  0.47000000000E+01 0. -1.
          5    1    3    3  503    0  0.50577119827E+02 -0.12730768833E+03 -0.38500630213E+03  0.40867742198E+03  0.47000000000E+01 0.  1.
         -5    1    3    3    0  503  0.38537484783E+02 -0.70947231105E+01 -0.18728499882E+02  0.43684316833E+02  0.47000000000E+01 0.  1.
<mgrwt>
<rscale>  0 0.20403278E+03</rscale>
<asrwt>0</asrwt>
<pdfrwt beam="2">  1        5 0.15838647E+00 0.20403280E+03</pdfrwt>
<pdfrwt beam="1">  1       -5 0.64025897E-02 0.20403280E+03</pdfrwt>
<totfact> 0.33417107E+01</totfact>
</mgrwt>
</event>
<event>
 8    1  0.3682083E-007  0.1276714E+03  0.7546771E-02  0.1230965E+00
          5   -1    0    0  501    0  0.00000000000E+00  0.00000000000E+00  0.65108815084E+03  0.65110511453E+03  0.47000000000E+01 0. -1.
         -5   -1    0    0    0  501 -0.00000000000E+00 -0.00000000000E+00 -0.27890359269E+02  0.28283601965E+02  0.47000000000E+01 0. -1.
         25    2    1    2    0    0 -0.38384976857E+01  0.25647871595E+02  0.19925611517E+03  0.23664949282E+03  0.12500974217E+03 0.  0.
         25    2    1    2    0    0  0.38384976857E+01 -0.25647871595E+02  0.42394167641E+03  0.44273922368E+03  0.12497570887E+03 0.  0.
          5    1    4    4  502    0  0.17163441591E+02  0.15337864954E+02  0.84113021524E+01  0.24953433281E+02  0.47000000000E+01 0. -1.
         -5    1    4    4    0  502 -0.13324943905E+02 -0.40985736549E+02  0.41553037425E+03  0.41778579040E+03  0.47000000000E+01 0. -1.
          5    1    3    3  503    0  0.59440069284E+02  0.23059309343E+02  0.92758807299E+02  0.11265495957E+03  0.47000000000E+01 0.  1.
         -5    1    3    3    0  503 -0.63278566970E+02  0.25885622518E+01  0.10649730787E+03  0.12399453325E+03  0.47000000000E+01 0.  1.
<mgrwt>
<rscale>  0 0.12766306E+03</rscale>
<asrwt>0</asrwt>
<pdfrwt beam="1">  1        5 0.10019896E+00 0.12767139E+03</pdfrwt>
<pdfrwt beam="2">  1       -5 0.43223790E-02 0.12767139E+03</pdfrwt>
<totfact> 0.18511702E+02</totfact>
</mgrwt>
</event>
<event>
 8    1  0.3682083E-007  0.2183985E+03  0.7546771E-02  0.1135083E+00
         -5   -1    0    0    0  501 -0.00000000000E+00  0.00000000000E+00  0.11863493412E+03  0.11872799836E+03  0.47000000000E+01 0.  1.
          5   -1    0    0  501    0  0.00000000000E+00 -0.00000000000E+00 -0.52627035118E+03  0.52629133807E+03  0.47000000000E+01 0.  1.
         25    2    1    2    0    0 -0.16184316996E+03 -0.76681862486E+02 -0.46984252574E+02  0.22339521355E+03  0.12499832698E+03 0.  0.
         25    2    1    2    0    0  0.16184316996E+03  0.76681862486E+02 -0.36065116448E+03  0.42162412288E+03  0.12499727541E+03 0.  0.
          5    1    3    3  502    0 -0.15826204360E+03 -0.33888224639E+02 -0.32904037962E+01  0.16195123640E+03  0.47000000000E+01 0. -1.
         -5    1    3    3    0  502 -0.35811263534E+01 -0.42793637847E+02 -0.43693848778E+02  0.61443977143E+02  0.47000000000E+01 0. -1.
          5    1    4    4  503    0  0.18109593279E+03  0.59503138250E+02 -0.33136759475E+03  0.38231261186E+03  0.47000000000E+01 0. -1.
         -5    1    4    4    0  503 -0.19252762832E+02  0.17178724237E+02 -0.29283569728E+02  0.39311511025E+02  0.47000000000E+01 0. -1.
<mgrwt>
<rscale>  0 0.21839834E+03</rscale>
<asrwt>0</asrwt>
<pdfrwt beam="2">  1        5 0.80973441E-01 0.21839849E+03</pdfrwt>
<pdfrwt beam="1">  1       -5 0.18260302E-01 0.21839849E+03</pdfrwt>
<totfact> 0.29277232E+01</totfact>
</mgrwt>
</event>
<event>
 8    1  0.3682083E-007  0.1449069E+03  0.7546771E-02  0.1206876E+00
          5   -1    0    0  501    0  0.00000000000E+00  0.00000000000E+00  0.37305265221E+02  0.37600170389E+02  0.47000000000E+01 0. -1.
         -5   -1    0    0    0  501 -0.00000000000E+00 -0.00000000000E+00 -0.65395605848E+03  0.65397294778E+03  0.47000000000E+01 0. -1.
         25    2    1    2    0    0  0.65226234866E+02  0.33426502557E+02 -0.43913757850E+03  0.46242818437E+03  0.12500488015E+03 0.  0.
         25    2    1    2    0    0 -0.65226234866E+02 -0.33426502557E+02 -0.17751321476E+03  0.22914493380E+03  0.12499866592E+03 0.  0.
          5    1    3    3  502    0  0.68679045999E+02  0.59877093376E+02 -0.17925640158E+03  0.20113931784E+03  0.47000000000E+01 0.  1.
         -5    1    3    3    0  502 -0.34528111337E+01 -0.26450590819E+02 -0.25988117691E+03  0.26128886653E+03  0.47000000000E+01 0.  1.
          5    1    4    4  503    0 -0.90963736393E+02 -0.30754067110E+02 -0.17859197429E+03  0.20282356191E+03  0.47000000000E+01 0. -1.
         -5    1    4    4    0  503  0.25737501527E+02 -0.26724354471E+01  0.10787595321E+01  0.26321371891E+02  0.47000000000E+01 0. -1.
<mgrwt>
<rscale>  0 0.14490557E+03</rscale>
<asrwt>0</asrwt>
<pdfrwt beam="1">  1        5 0.57632563E-02 0.14490691E+03</pdfrwt>
<pdfrwt beam="2">  1       -5 0.10063260E+00 0.14490691E+03</pdfrwt>
<totfact> 0.11843895E+02</totfact>
</mgrwt>
</event>
<event>
 8    1  0.3682083E-007  0.1382216E+03  0.7546771E-02  0.1215750E+00
         -5   -1    0    0    0  501 -0.00000000000E+00  0.00000000000E+00  0.69267669105E+02  0.69426939896E+02  0.47000000000E+01 0.  1.
          5   -1    0    0  501    0  0.00000000000E+00 -0.00000000000E+00 -0.31488448368E+03  0.31491955809E+03  0.47000000000E+01 0.  1.
         25    2    1    2    0    0 -0.43129623802E+02 -0.40255763736E+02 -0.54681929651E+02  0.14864496937E+03  0.12499809009E+03 0.  0.
         25    2    1    2    0    0  0.43129623802E+02  0.40255763736E+02 -0.19093488493E+03  0.23570152861E+03  0.12497355458E+03 0.  0.
          5    1    3    3  502    0  0.52125400535E+01 -0.23527807665E+02 -0.85353755854E+02  0.88814874575E+02  0.47000000000E+01 0.  1.
         -5    1    3    3    0  502 -0.48342163856E+02 -0.16727956071E+02  0.30671826204E+02  0.59830094795E+02  0.47000000000E+01 0.  1.
          5    1    4    4  503    0  0.45079388695E+02  0.63166238606E+02 -0.49128915751E+02  0.91966653455E+02  0.47000000000E+01 0.  1.
         -5    1    4    4    0  503 -0.19497648930E+01 -0.22910474871E+02 -0.14180596918E+03  0.14373487516E+03  0.47000000000E+01 0.  1.
<mgrwt>
<rscale>  0 0.13821606E+03</rscale>
<asrwt>0</asrwt>
<pdfrwt beam="2">  1        5 0.48458715E-01 0.13822161E+03</pdfrwt>
<pdfrwt beam="1">  1       -5 0.10671514E-01 0.13822161E+03</pdfrwt>
<totfact> 0.21143836E+02</totfact>
</mgrwt>
</event>
<event>
 8    1  0.3682083E-007  0.1262607E+03  0.7546771E-02  0.1233124E+00
          5   -1    0    0  501    0  0.00000000000E+00  0.00000000000E+00  0.42550608554E+02  0.42809394860E+02  0.47000000000E+01 0. -1.
         -5   -1    0    0    0  501 -0.00000000000E+00 -0.00000000000E+00 -0.43071296726E+03  0.43073861002E+03  0.47000000000E+01 0. -1.
         25    2    1    2    0    0  0.38709664933E+01 -0.17173399040E+02 -0.28062936876E+03  0.30772488019E+03  0.12502739403E+03 0.  0.
         25    2    1    2    0    0 -0.38709664933E+01  0.17173399040E+02 -0.10753298994E+03  0.16582312469E+03  0.12499621891E+03 0.  0.
          5    1    4    4  502    0 -0.16828289086E+02  0.53711585684E+02 -0.11305899406E+03  0.12638256165E+03  0.47000000000E+01 0.  1.
         -5    1    4    4    0  502  0.12957322593E+02 -0.36538186644E+02  0.55260041223E+01  0.39440563048E+02  0.47000000000E+01 0.  1.
          5    1    3    3  503    0 -0.57719348893E+02 -0.26140408495E+02 -0.15227808175E+03  0.16500166173E+03  0.47000000000E+01 0.  1.
         -5    1    3    3    0  503  0.61590315387E+02  0.89670094549E+01 -0.12835128702E+03  0.14272321846E+03  0.47000000000E+01 0.  1.
<mgrwt>
<rscale>  0 0.12625296E+03</rscale>
<asrwt>0</asrwt>
<pdfrwt beam="1">  1        5 0.65681269E-02 0.12626068E+03</pdfrwt>
<pdfrwt beam="2">  1       -5 0.66285410E-01 0.12626068E+03</pdfrwt>
<totfact> 0.23960834E+02</totfact>
</mgrwt>
</event>
<event>
 8    1  0.3682083E-007  0.1269685E+03  0.7546771E-02  0.1232030E+00
          5   -1    0    0  501    0  0.00000000000E+00  0.00000000000E+00  0.10310939128E+03  0.10321645494E+03  0.47000000000E+01 0.  1.
         -5   -1    0    0    0  501 -0.00000000000E+00 -0.00000000000E+00 -0.15658164345E+03  0.15665216585E+03  0.47000000000E+01 0.  1.
         25    2    1    2    0    0 -0.22032411009E+02 -0.34682823590E+01 -0.33877231300E+02  0.13141031090E+03  0.12499418744E+03 0.  0.
         25    2    1    2    0    0  0.22032411009E+02  0.34682823590E+01 -0.19595020868E+02  0.12845830989E+03  0.12498046415E+03 0.  0.
          5    1    3    3  502    0 -0.10735526044E+02 -0.58278123268E+02  0.98240979896E+01  0.60251091877E+02  0.47000000000E+01 0.  1.
         -5    1    3    3    0  502 -0.11296884965E+02  0.54809840909E+02 -0.43701329289E+02  0.71159219024E+02  0.47000000000E+01 0.  1.
          5    1    4    4  503    0  0.42146086888E+02  0.20068331681E+02  0.41009948505E+02  0.62313212506E+02  0.47000000000E+01 0. -1.
         -5    1    4    4    0  503 -0.20113675879E+02 -0.16600049322E+02 -0.60604969373E+02  0.66145097381E+02  0.47000000000E+01 0. -1.
<mgrwt>
<rscale>  0 0.12696513E+03</rscale>
<asrwt>0</asrwt>
<pdfrwt beam="1">  1        5 0.15876644E-01 0.12696851E+03</pdfrwt>
<pdfrwt beam="2">  1       -5 0.24103144E-01 0.12696851E+03</pdfrwt>
<totfact> 0.40806080E+02</totfact>
</mgrwt>
</event>
<event>
 8    1  0.3682083E-007  0.1513045E+03  0.7546771E-02  0.1198884E+00
         -5   -1    0    0    0  501 -0.00000000000E+00  0.00000000000E+00  0.72372402482E+02  0.72524855332E+02  0.47000000000E+01 0. -1.
          5   -1    0    0  501    0  0.00000000000E+00 -0.00000000000E+00 -0.32587761827E+03  0.32591150960E+03  0.47000000000E+01 0. -1.
         25    2    1    2    0    0 -0.37286825720E+02 -0.76637346662E+02 -0.91717637152E+02  0.17693265308E+03  0.12501779267E+03 0.  0.
         25    2    1    2    0    0  0.37286825720E+02  0.76637346662E+02 -0.16178757864E+03  0.22150371186E+03  0.12500033396E+03 0.  0.
          5    1    3    3  502    0 -0.44618800916E+02 -0.10702140268E+03 -0.54802969608E+02  0.12833500498E+03  0.47000000000E+01 0. -1.
         -5    1    3    3    0  502  0.73319751962E+01  0.30384056015E+02 -0.36914667545E+02  0.48597648092E+02  0.47000000000E+01 0. -1.
          5    1    4    4  503    0  0.32499396852E+02 -0.25729536338E+02 -0.80306287692E+02  0.90495357222E+02  0.47000000000E+01 0. -1.
         -5    1    4    4    0  503  0.47874288683E+01  0.10236688300E+03 -0.81481290947E+02  0.13100835464E+03  0.47000000000E+01 0. -1.
<mgrwt>
<rscale>  0 0.15130085E+03</rscale>
<asrwt>0</asrwt>
<pdfrwt beam="2">  1        5 0.50149352E-01 0.15130446E+03</pdfrwt>
<pdfrwt beam="1">  1       -5 0.11148550E-01 0.15130446E+03</pdfrwt>
<totfact> 0.18760625E+02</totfact>
</mgrwt>
</event>
<event>
 8    1  0.3682083E-007  0.1672401E+03  0.7546771E-02  0.1180763E+00
         -5   -1    0    0    0  501 -0.00000000000E+00  0.00000000000E+00  0.17034441834E+03  0.17040924523E+03  0.47000000000E+01 0.  1.
          5   -1    0    0  501    0  0.00000000000E+00 -0.00000000000E+00 -0.16895159476E+03  0.16901695587E+03  0.47000000000E+01 0.  1.
         25    2    1    2    0    0  0.10136794028E+03 -0.45403066319E+02  0.29616376251E+02  0.16982130336E+03  0.12500099034E+03 0.  0.
         25    2    1    2    0    0 -0.10136794028E+03  0.45403066319E+02 -0.28223552673E+02  0.16960489774E+03  0.12502941520E+03 0.  0.
          5    1    3    3  502    0  0.10908167395E+03 -0.70734312008E+02  0.37574997244E+00  0.13009375725E+03  0.47000000000E+01 0. -1.
         -5    1    3    3    0  502 -0.77137336703E+01  0.25331245690E+02  0.29240626279E+02  0.39727546117E+02  0.47000000000E+01 0. -1.
          5    1    4    4  503    0 -0.26656640372E+01  0.36053346870E+02 -0.55742404296E+02  0.66605219180E+02  0.47000000000E+01 0. -1.
         -5    1    4    4    0  503 -0.98702276240E+02  0.93497194486E+01  0.27518851623E+02  0.10299967856E+03  0.47000000000E+01 0. -1.
<mgrwt>
<rscale>  0 0.16723479E+03</rscale>
<asrwt>0</asrwt>
<pdfrwt beam="2">  1        5 0.26002567E-01 0.16724010E+03</pdfrwt>
<pdfrwt beam="1">  1       -5 0.26216848E-01 0.16724010E+03</pdfrwt>
<totfact> 0.15122403E+02</totfact>
</mgrwt>
</event>
<event>
 8    1  0.3682083E-007  0.1640983E+03  0.7546771E-02  0.1184147E+00
          5   -1    0    0  501    0  0.00000000000E+00  0.00000000000E+00  0.79853434352E+02  0.79991630673E+02  0.47000000000E+01 0.  1.
         -5   -1    0    0    0  501 -0.00000000000E+00 -0.00000000000E+00 -0.34003787985E+03  0.34007035998E+03  0.47000000000E+01 0.  1.
         25    2    1    2    0    0  0.87256224206E+02  0.60727570794E+02 -0.15068206255E+03  0.22278544013E+03  0.12500712716E+03 0.  0.
         25    2    1    2    0    0 -0.87256224206E+02 -0.60727570794E+02 -0.10950238295E+03  0.19727655052E+03  0.12500311595E+03 0.  0.
          5    1    4    4  502    0 -0.39916225694E+02  0.30550010603E+02 -0.52236808198E+01  0.50754163010E+02  0.47000000000E+01 0. -1.
         -5    1    4    4    0  502 -0.47339998512E+02 -0.91277581397E+02 -0.10427870213E+03  0.14652238752E+03  0.47000000000E+01 0. -1.
          5    1    3    3  503    0  0.10494325988E+03  0.56842114752E+01 -0.10799003471E+03  0.15076251408E+03  0.47000000000E+01 0.  1.
         -5    1    3    3    0  503 -0.17687035669E+02  0.55043359319E+02 -0.42692027835E+02  0.72022926048E+02  0.47000000000E+01 0.  1.
<mgrwt>
<rscale>  0 0.16409759E+03</rscale>
<asrwt>0</asrwt>
<pdfrwt beam="1">  1        5 0.12298273E-01 0.16409835E+03</pdfrwt>
<pdfrwt beam="2">  1       -5 0.52326648E-01 0.16409835E+03</pdfrwt>
<totfact> 0.14773585E+02</totfact>
</mgrwt>
</event>
<event>
 8    1  0.3682083E-007  0.2471691E+03  0.7546771E-02  0.1115113E+00
          5   -1    0    0  501    0  0.00000000000E+00  0.00000000000E+00  0.10397103904E+03  0.10407721633E+03  0.47000000000E+01 0.  1.
         -5   -1    0    0    0  501 -0.00000000000E+00 -0.00000000000E+00 -0.65347722670E+03  0.65349412837E+03  0.47000000000E+01 0.  1.
         25    2    1    2    0    0  0.21244014814E+03  0.18199739978E+02 -0.39548765904E+03  0.46637224050E+03  0.12502212276E+03 0.  0.
         25    2    1    2    0    0 -0.21244014814E+03 -0.18199739978E+02 -0.15401852862E+03  0.29119910419E+03  0.12495264723E+03 0.  0.
          5    1    3    3  502    0  0.18082650423E+03 -0.35470732254E+02 -0.30619634031E+03  0.35739989689E+03  0.47000000000E+01 0. -1.
         -5    1    3    3    0  502  0.31613643910E+02  0.53670472232E+02 -0.89291318729E+02  0.10897234361E+03  0.47000000000E+01 0. -1.
          5    1    4    4  503    0 -0.12230622638E+03  0.61095634257E+01 -0.14697734593E+02  0.12342711687E+03  0.47000000000E+01 0. -1.
         -5    1    4    4    0  503 -0.90133921762E+02 -0.24309303404E+02 -0.13932079402E+03  0.16777198733E+03  0.47000000000E+01 0. -1.
<mgrwt>
<rscale>  0 0.24716034E+03</rscale>
<asrwt>0</asrwt>
<pdfrwt beam="1">  1        5 0.16005012E-01 0.24716913E+03</pdfrwt>
<pdfrwt beam="2">  1       -5 0.10054442E+00 0.24716913E+03</pdfrwt>
<totfact> 0.22864762E+01</totfact>
</mgrwt>
</event>
<event>
 8    1  0.3682083E-007  0.1423305E+03  0.7546771E-02  0.1210229E+00
          5   -1    0    0  501    0  0.00000000000E+00  0.00000000000E+00  0.47904809829E+03  0.47907115387E+03  0.47000000000E+01 0.  1.
         -5   -1    0    0    0  501 -0.00000000000E+00 -0.00000000000E+00 -0.66506462528E+02  0.66672329778E+02  0.47000000000E+01 0.  1.
         25    2    1    2    0    0 -0.23742951524E+01  0.68021456650E+02  0.41371393791E+02  0.14822133016E+03  0.12500165858E+03 0.  0.
         25    2    1    2    0    0  0.23742951524E+01 -0.68021456650E+02  0.37117024197E+03  0.39752215349E+03  0.12499583253E+03 0.  0.
          5    1    3    3  502    0  0.30617322905E+02  0.89584064789E+02  0.50631207673E+02  0.10746317656E+03  0.47000000000E+01 0. -1.
         -5    1    3    3    0  502 -0.32991618057E+02 -0.21562608140E+02 -0.92598138822E+01  0.40758153601E+02  0.47000000000E+01 0. -1.
          5    1    4    4  503    0  0.50417684500E+01 -0.63436997704E+02  0.64363067898E+02  0.90633143033E+02  0.47000000000E+01 0.  1.
         -5    1    4    4    0  503 -0.26674732977E+01 -0.45844589452E+01  0.30680717407E+03  0.30688901045E+03  0.47000000000E+01 0.  1.
<mgrwt>
<rscale>  0 0.14232922E+03</rscale>
<asrwt>0</asrwt>
<pdfrwt beam="1">  1        5 0.73714240E-01 0.14233050E+03</pdfrwt>
<pdfrwt beam="2">  1       -5 0.10246296E-01 0.14233050E+03</pdfrwt>
<totfact> 0.91499622E+01</totfact>
</mgrwt>
</event>
<event>
 8    1  0.3682083E-007  0.1311439E+03  0.7546771E-02  0.1225772E+00
          5   -1    0    0  501    0  0.00000000000E+00  0.00000000000E+00  0.33714632366E+03  0.33717908232E+03  0.47000000000E+01 0.  1.
         -5   -1    0    0    0  501 -0.00000000000E+00 -0.00000000000E+00 -0.53488801886E+02  0.53694896659E+02  0.47000000000E+01 0.  1.
         25    2    1    2    0    0 -0.19644782687E+02  0.34478359497E+02  0.98647915156E+02  0.16410402605E+03  0.12499618171E+03 0.  0.
         25    2    1    2    0    0  0.19644782687E+02 -0.34478359497E+02  0.18500960662E+03  0.22676995293E+03  0.12498552816E+03 0.  0.
          5    1    3    3  502    0 -0.70813688904E+02  0.28729626986E+02  0.41692099721E+02  0.87179648898E+02  0.47000000000E+01 0.  1.
         -5    1    3    3    0  502  0.51168906217E+02  0.57487325113E+01  0.56955815435E+02  0.76924377156E+02  0.47000000000E+01 0.  1.
          5    1    4    4  503    0  0.13382362771E+02 -0.20649104785E+02  0.20197571104E+03  0.20352334267E+03  0.47000000000E+01 0. -1.
         -5    1    4    4    0  503  0.62624199160E+01 -0.13829254712E+02 -0.16966104425E+02  0.23246610257E+02  0.47000000000E+01 0. -1.
<mgrwt>
<rscale>  0 0.13114135E+03</rscale>
<asrwt>0</asrwt>
<pdfrwt beam="1">  1        5 0.51887038E-01 0.13114389E+03</pdfrwt>
<pdfrwt beam="2">  1       -5 0.82474199E-02 0.13114389E+03</pdfrwt>
<totfact> 0.28096509E+02</totfact>
</mgrwt>
</event>
<event>
 8    1  0.3682083E-007  0.1277969E+03  0.7546771E-02  0.1230762E+00
         -5   -1    0    0    0  501 -0.00000000000E+00  0.00000000000E+00  0.11514721871E+04  0.11514817791E+04  0.47000000000E+01 0. -1.
          5   -1    0    0  501    0  0.00000000000E+00 -0.00000000000E+00 -0.13917797524E+02  0.14689965552E+02  0.47000000000E+01 0. -1.
         25    2    1    2    0    0  0.25907634854E+02 -0.60094289006E+01  0.62435239237E+03  0.63729714630E+03  0.12499769614E+03 0.  0.
         25    2    1    2    0    0 -0.25907634854E+02  0.60094289006E+01  0.51320199716E+03  0.52887459834E+03  0.12499892839E+03 0.  0.
          5    1    3    3  502    0  0.68199455767E+02  0.24555003286E+02  0.42567460175E+03  0.43182759352E+03  0.47000000000E+01 0. -1.
         -5    1    3    3    0  502 -0.42291820913E+02 -0.30564432187E+02  0.19867779062E+03  0.20546955277E+03  0.47000000000E+01 0. -1.
          5    1    4    4  503    0 -0.25733628581E+02 -0.55892797170E+02  0.19020312444E+03  0.19996385414E+03  0.47000000000E+01 0.  1.
         -5    1    4    4    0  503 -0.17400627325E+00  0.61902226070E+02  0.32299887273E+03  0.32891074420E+03  0.47000000000E+01 0.  1.
<mgrwt>
<rscale>  0 0.12779661E+03</rscale>
<asrwt>0</asrwt>
<pdfrwt beam="2">  1        5 0.22013343E-02 0.12779691E+03</pdfrwt>
<pdfrwt beam="1">  1       -5 0.17720976E+00 0.12779691E+03</pdfrwt>
<totfact> 0.12252319E+02</totfact>
</mgrwt>
</event>
<event>
 8    1  0.3682083E-007  0.1524295E+03  0.7546771E-02  0.1197521E+00
         -5   -1    0    0    0  501 -0.00000000000E+00  0.00000000000E+00  0.82332840513E+03  0.82334182008E+03  0.47000000000E+01 0. -1.
          5   -1    0    0  501    0  0.00000000000E+00 -0.00000000000E+00 -0.39995044848E+02  0.40270257168E+02  0.47000000000E+01 0. -1.
         25    2    1    2    0    0  0.63680128977E+02 -0.59618432753E+02  0.62703593428E+03  0.64529745736E+03  0.12500091699E+03 0.  0.
         25    2    1    2    0    0 -0.63680128977E+02  0.59618432753E+02  0.15629742600E+03  0.21831461989E+03  0.12499148584E+03 0.  0.
          5    1    4    4  502    0 -0.36228124780E+01 -0.30424470236E+02  0.80035234396E+02  0.85828328098E+02  0.47000000000E+01 0. -1.
         -5    1    4    4    0  502 -0.60057316499E+02  0.90042902989E+02  0.76262191609E+02  0.13248629179E+03  0.47000000000E+01 0. -1.
          5    1    3    3  503    0 -0.15214448316E+02 -0.65006117888E+01  0.79806354160E+01  0.18960958120E+02  0.47000000000E+01 0. -1.
         -5    1    3    3    0  503  0.78894577293E+02 -0.53117820964E+02  0.61905529886E+03  0.62633649924E+03  0.47000000000E+01 0. -1.
<mgrwt>
<rscale>  0 0.15242754E+03</rscale>
<asrwt>0</asrwt>
<pdfrwt beam="2">  1        5 0.61752853E-02 0.15242948E+03</pdfrwt>
<pdfrwt beam="1">  1       -5 0.12668812E+00 0.15242948E+03</pdfrwt>
<totfact> 0.60052940E+01</totfact>
</mgrwt>
</event>
<event>
 8    1  0.3682083E-007  0.2545700E+03  0.7546771E-02  0.1110451E+00
         -5   -1    0    0    0  501 -0.00000000000E+00  0.00000000000E+00  0.17086950802E+04  0.17087015442E+04  0.47000000000E+01 0.  1.
          5   -1    0    0  501    0  0.00000000000E+00 -0.00000000000E+00 -0.39948758791E+02  0.40224287799E+02  0.47000000000E+01 0.  1.
         25    2    1    2    0    0  0.65399683007E+02 -0.21190457434E+03  0.10376827812E+04  0.10684528193E+04  0.12500082237E+03 0.  0.
         25    2    1    2    0    0 -0.65399683007E+02  0.21190457434E+03  0.63106354021E+03  0.68047301265E+03  0.12498664726E+03 0.  0.
          5    1    4    4  502    0 -0.79768295271E+02  0.22133087196E+03  0.56486494991E+03  0.61191897948E+03  0.47000000000E+01 0.  1.
         -5    1    4    4    0  502  0.14368612264E+02 -0.94262976243E+01  0.66198590303E+02  0.68554033167E+02  0.47000000000E+01 0.  1.
          5    1    3    3  503    0  0.36240775327E+02 -0.35529173585E+02  0.84834387216E+02  0.98968071752E+02  0.47000000000E+01 0.  1.
         -5    1    3    3    0  503  0.29158907680E+02 -0.17637540075E+03  0.95284839397E+03  0.96948474757E+03  0.47000000000E+01 0.  1.
<mgrwt>
<rscale>  0 0.25456824E+03</rscale>
<asrwt>0</asrwt>
<pdfrwt beam="2">  1        5 0.61676542E-02 0.25456998E+03</pdfrwt>
<pdfrwt beam="1">  1       -5 0.26289788E+00 0.25456998E+03</pdfrwt>
<totfact> 0.71572359E+00</totfact>
</mgrwt>
</event>
<event>
 8    1  0.3682083E-007  0.1568408E+03  0.7546771E-02  0.1192311E+00
         -5   -1    0    0    0  501 -0.00000000000E+00  0.00000000000E+00  0.22398380682E+03  0.22403311300E+03  0.47000000000E+01 0. -1.
          5   -1    0    0  501    0  0.00000000000E+00 -0.00000000000E+00 -0.10992853778E+03  0.11002896627E+03  0.47000000000E+01 0. -1.
         25    2    1    2    0    0 -0.46372418015E+02 -0.82600740123E+02  0.49608594498E+02  0.16449935435E+03  0.12500296601E+03 0.  0.
         25    2    1    2    0    0  0.46372418015E+02  0.82600740123E+02  0.64446674551E+02  0.16956272491E+03  0.12499944159E+03 0.  0.
          5    1    4    4  502    0  0.57344616007E+02  0.39172836860E+02 -0.21228023667E+02  0.72771114609E+02  0.47000000000E+01 0. -1.
         -5    1    4    4    0  502 -0.10972197993E+02  0.43427903263E+02  0.85674698218E+02  0.96791610304E+02  0.47000000000E+01 0. -1.
          5    1    3    3  503    0 -0.38193045888E+02 -0.91186475286E+02  0.82736602101E+02  0.12900045487E+03  0.47000000000E+01 0.  1.
         -5    1    3    3    0  503 -0.81793721267E+01  0.85857351627E+01 -0.33128007603E+02  0.35498899482E+02  0.47000000000E+01 0.  1.
<mgrwt>
<rscale>  0 0.15684006E+03</rscale>
<asrwt>0</asrwt>
<pdfrwt beam="2">  1        5 0.16923601E-01 0.15684076E+03</pdfrwt>
<pdfrwt beam="1">  1       -5 0.34470565E-01 0.15684076E+03</pdfrwt>
<totfact> 0.19411746E+02</totfact>
</mgrwt>
</event>
<event>
 8    1  0.3682083E-007  0.1342341E+03  0.7546771E-02  0.1221306E+00
          5   -1    0    0  501    0  0.00000000000E+00  0.00000000000E+00  0.13132338141E+03  0.13140745985E+03  0.47000000000E+01 0. -1.
         -5   -1    0    0    0  501 -0.00000000000E+00 -0.00000000000E+00 -0.15794213698E+03  0.15801205218E+03  0.47000000000E+01 0. -1.
         25    2    1    2    0    0  0.44095656036E+02 -0.21150774317E+02 -0.65928014354E+02  0.14954806335E+03  0.12500535204E+03 0.  0.
         25    2    1    2    0    0 -0.44095656036E+02  0.21150774317E+02  0.39309258780E+02  0.13987144868E+03  0.12500808852E+03 0.  0.
          5    1    3    3  502    0  0.15306098099E+02  0.51741078895E+02 -0.15883860864E+02  0.56442917361E+02  0.47000000000E+01 0. -1.
         -5    1    3    3    0  502  0.28789557936E+02 -0.72891853212E+02 -0.50044153490E+02  0.93105145988E+02  0.47000000000E+01 0. -1.
          5    1    4    4  503    0 -0.53929346643E+02 -0.23803396191E+02  0.64247931949E+02  0.87320460714E+02  0.47000000000E+01 0. -1.
         -5    1    4    4    0  503  0.98336906071E+01  0.44954170508E+02 -0.24938673169E+02  0.52550987969E+02  0.47000000000E+01 0. -1.
<mgrwt>
<rscale>  0 0.13423350E+03</rscale>
<asrwt>0</asrwt>
<pdfrwt beam="1">  1        5 0.20215443E-01 0.13423414E+03</pdfrwt>
<pdfrwt beam="2">  1       -5 0.24310636E-01 0.13423414E+03</pdfrwt>
<totfact> 0.26247483E+02</totfact>
</mgrwt>
</event>
<event>
 8    1  0.3682083E-007  0.1302338E+03  0.7546771E-02  0.1227109E+00
         -5   -1    0    0    0  501 -0.00000000000E+00  0.00000000000E+00  0.24690998132E+03  0.24695471017E+03  0.47000000000E+01 0. -1.
          5   -1    0    0  501    0  0.00000000000E+00 -0.00000000000E+00 -0.68692489747E+02  0.68853091053E+02  0.47000000000E+01 0. -1.
         25    2    1    2    0    0 -0.21760038173E+02  0.29372345407E+02  0.96007306625E+02  0.16179694111E+03  0.12499845316E+03 0.  0.
         25    2    1    2    0    0  0.21760038173E+02 -0.29372345407E+02  0.82210184946E+02  0.15401086011E+03  0.12499838634E+03 0.  0.
          5    1    3    3  502    0  0.13426065292E+02  0.70725839570E+02  0.35633394926E+02  0.80462615208E+02  0.47000000000E+01 0.  1.
         -5    1    3    3    0  502 -0.35186103466E+02 -0.41353494163E+02  0.60373911698E+02  0.81334325905E+02  0.47000000000E+01 0.  1.
          5    1    4    4  503    0 -0.47799122253E+02  0.75691985091E+01  0.46949948214E+02  0.67590210027E+02  0.47000000000E+01 0. -1.
         -5    1    4    4    0  503  0.69559160427E+02 -0.36941543916E+02  0.35260236732E+02  0.86420650082E+02  0.47000000000E+01 0. -1.
<mgrwt>
<rscale>  0 0.13023380E+03</rscale>
<asrwt>0</asrwt>
<pdfrwt beam="2">  1        5 0.10583870E-01 0.13023382E+03</pdfrwt>
<pdfrwt beam="1">  1       -5 0.38001946E-01 0.13023382E+03</pdfrwt>
<totfact> 0.34729362E+02</totfact>
</mgrwt>
</event>
<event>
 8    1  0.3682083E-007  0.1278195E+03  0.7546771E-02  0.1230729E+00
         -5   -1    0    0    0  501 -0.00000000000E+00  0.00000000000E+00  0.49230505096E+02  0.49454348970E+02  0.47000000000E+01 0. -1.
          5   -1    0    0  501    0  0.00000000000E+00 -0.00000000000E+00 -0.41389461486E+03  0.41392129954E+03  0.47000000000E+01 0. -1.
         25    2    1    2    0    0 -0.14916069197E+02  0.22111372000E+02 -0.78593333628E+02  0.15004910701E+03  0.12500568199E+03 0.  0.
         25    2    1    2    0    0  0.14916069197E+02 -0.22111372000E+02 -0.28607077614E+03  0.31332654150E+03  0.12500252301E+03 0.  0.
          5    1    3    3  502    0 -0.20420770975E+02  0.72098531416E+02 -0.60409697386E+02  0.96367150305E+02  0.47000000000E+01 0. -1.
         -5    1    3    3    0  502  0.55047017775E+01 -0.49987159417E+02 -0.18183636243E+02  0.53681956701E+02  0.47000000000E+01 0. -1.
          5    1    4    4  503    0  0.56705429489E+02 -0.11194576537E+02 -0.61254542987E+02  0.84350656868E+02  0.47000000000E+01 0. -1.
         -5    1    4    4    0  503 -0.41789360292E+02 -0.10916795463E+02 -0.22481623315E+03  0.22897588464E+03  0.47000000000E+01 0. -1.
<mgrwt>
<rscale>  0 0.12781872E+03</rscale>
<asrwt>0</asrwt>
<pdfrwt beam="2">  1        5 0.63695364E-01 0.12781949E+03</pdfrwt>
<pdfrwt beam="1">  1       -5 0.75931956E-02 0.12781949E+03</pdfrwt>
<totfact> 0.20554801E+02</totfact>
</mgrwt>
</event>
<event>
 8    1  0.3682083E-007  0.1697082E+03  0.7546771E-02  0.1178154E+00
         -5   -1    0    0    0  501 -0.00000000000E+00  0.00000000000E+00  0.93656152425E+02  0.93774009657E+02  0.47000000000E+01 0. -1.
          5   -1    0    0  501    0  0.00000000000E+00 -0.00000000000E+00 -0.31275587872E+03  0.31279119181E+03  0.47000000000E+01 0. -1.
         25    2    1    2    0    0 -0.24362874112E+01 -0.11475301024E+03 -0.82417277243E+02  0.18866230146E+03  0.12500667002E+03 0.  0.
         25    2    1    2    0    0  0.24362874112E+01  0.11475301024E+03 -0.13668244905E+03  0.21790290000E+03  0.12500157238E+03 0.  0.
          5    1    4    4  502    0 -0.29096332420E+01 -0.83532702997E+01  0.17688097639E+02  0.20327367965E+02  0.47000000000E+01 0. -1.
         -5    1    4    4    0  502  0.53459206532E+01  0.12310628054E+03 -0.15437054669E+03  0.19757553204E+03  0.47000000000E+01 0. -1.
          5    1    3    3  503    0 -0.42419430248E+02 -0.12159029025E+03 -0.63464230798E+02  0.14364332681E+03  0.47000000000E+01 0. -1.
         -5    1    3    3    0  503  0.39983142837E+02  0.68372800126E+01 -0.18953046445E+02  0.45018974651E+02  0.47000000000E+01 0. -1.
<mgrwt>
<rscale>  0 0.16970721E+03</rscale>
<asrwt>0</asrwt>
<pdfrwt beam="2">  1        5 0.48128071E-01 0.16970815E+03</pdfrwt>
<pdfrwt beam="1">  1       -5 0.14420421E-01 0.16970815E+03</pdfrwt>
<totfact> 0.13397811E+02</totfact>
</mgrwt>
</event>
<event>
 8    1  0.3682083E-007  0.1369663E+03  0.7546771E-02  0.1217476E+00
          5   -1    0    0  501    0  0.00000000000E+00  0.00000000000E+00  0.80000029932E+03  0.80001410545E+03  0.47000000000E+01 0.  1.
         -5   -1    0    0    0  501 -0.00000000000E+00 -0.00000000000E+00 -0.44540675762E+02  0.44787964872E+02  0.47000000000E+01 0.  1.
         25    2    1    2    0    0 -0.55555420696E+02  0.67260234309E+01  0.86535895128E+02  0.16199995504E+03  0.12499552042E+03 0.  0.
         25    2    1    2    0    0  0.55555420696E+02 -0.67260234309E+01  0.66892372843E+03  0.68280211529E+03  0.12501251944E+03 0.  0.
          5    1    4    4  502    0  0.60378367930E+02 -0.54334709244E+02  0.30303651315E+03  0.31376906515E+03  0.47000000000E+01 0.  1.
         -5    1    4    4    0  502 -0.48229472346E+01  0.47608685813E+02  0.36588721528E+03  0.36903305014E+03  0.47000000000E+01 0.  1.
          5    1    3    3  503    0 -0.82244705530E+02  0.14577147119E+02  0.10029810418E+03  0.13060813339E+03  0.47000000000E+01 0.  1.
         -5    1    3    3    0  503  0.26689284834E+02 -0.78511236886E+01 -0.13762209053E+02  0.31391821644E+02  0.47000000000E+01 0.  1.
<mgrwt>
<rscale>  0 0.13696245E+03</rscale>
<asrwt>0</asrwt>
<pdfrwt beam="1">  1        5 0.12309705E+00 0.13696632E+03</pdfrwt>
<pdfrwt beam="2">  1       -5 0.68724961E-02 0.13696632E+03</pdfrwt>
<totfact> 0.52273343E+01</totfact>
</mgrwt>
</event>
<event>
 8    1  0.3682083E-007  0.1849798E+03  0.7546771E-02  0.1163069E+00
         -5   -1    0    0    0  501 -0.00000000000E+00  0.00000000000E+00  0.89311375244E+03  0.89312611920E+03  0.47000000000E+01 0. -1.
          5   -1    0    0  501    0  0.00000000000E+00 -0.00000000000E+00 -0.70562614514E+02  0.70718968934E+02  0.47000000000E+01 0. -1.
         25    2    1    2    0    0 -0.98720757729E+02  0.94053137315E+02  0.73732866912E+03  0.76017776156E+03  0.12499952891E+03 0.  0.
         25    2    1    2    0    0  0.98720757729E+02 -0.94053137315E+02  0.85222468805E+02  0.20366732657E+03  0.12500292027E+03 0.  0.
          5    1    3    3  502    0 -0.12696478945E+02  0.13273701186E+01  0.16647355540E+01  0.13704883564E+02  0.47000000000E+01 0.  1.
         -5    1    3    3    0  502 -0.86024278784E+02  0.92725767197E+02  0.73566393356E+03  0.74647287800E+03  0.47000000000E+01 0.  1.
          5    1    4    4  503    0 -0.22034497239E+02  0.91740632066E+01  0.23885743110E+01  0.24443358843E+02  0.47000000000E+01 0.  1.
         -5    1    4    4    0  503  0.12075525497E+03 -0.10322720052E+03  0.82833894494E+02  0.17922396773E+03  0.47000000000E+01 0.  1.
<mgrwt>
<rscale>  0 0.18497918E+03</rscale>
<asrwt>0</asrwt>
<pdfrwt beam="2">  1        5 0.10868766E-01 0.18497976E+03</pdfrwt>
<pdfrwt beam="1">  1       -5 0.13741509E+00 0.18497976E+03</pdfrwt>
<totfact> 0.19275809E+01</totfact>
</mgrwt>
</event>
<event>
 8    1  0.3682083E-007  0.3345416E+03  0.7546771E-02  0.1069145E+00
          5   -1    0    0  501    0  0.00000000000E+00  0.00000000000E+00  0.15949637292E+03  0.15956560712E+03  0.47000000000E+01 0. -1.
         -5   -1    0    0    0  501 -0.00000000000E+00 -0.00000000000E+00 -0.72364316458E+03  0.72365842747E+03  0.47000000000E+01 0. -1.
         25    2    1    2    0    0 -0.10651624745E+02  0.31012761996E+03 -0.35937798232E+03  0.49098940786E+03  0.12500186673E+03 0.  0.
         25    2    1    2    0    0  0.10651624745E+02 -0.31012761996E+03 -0.20476880934E+03  0.39223462673E+03  0.12500055743E+03 0.  0.
          5    1    3    3  502    0  0.49596814176E+02  0.86792310306E+02 -0.79152045868E+02  0.12759265445E+03  0.47000000000E+01 0.  1.
         -5    1    3    3    0  502 -0.60248438921E+02  0.22333530965E+03 -0.28022593645E+03  0.36339675341E+03  0.47000000000E+01 0.  1.
          5    1    4    4  503    0  0.74968833805E+00 -0.25853826286E+03 -0.21759894983E+03  0.33795560117E+03  0.47000000000E+01 0. -1.
         -5    1    4    4    0  503  0.99019364072E+01 -0.51589357100E+02  0.12830140494E+02  0.54279025559E+02  0.47000000000E+01 0. -1.
<mgrwt>
<rscale>  0 0.33454145E+03</rscale>
<asrwt>0</asrwt>
<pdfrwt beam="1">  1        5 0.24544404E-01 0.33454157E+03</pdfrwt>
<pdfrwt beam="2">  1       -5 0.11133622E+00 0.33454157E+03</pdfrwt>
<totfact> 0.83808401E+00</totfact>
</mgrwt>
</event>
<event>
 8    1  0.3682083E-007  0.1311449E+03  0.7546771E-02  0.1225771E+00
         -5   -1    0    0    0  501 -0.00000000000E+00  0.00000000000E+00  0.17142896861E+03  0.17149338553E+03  0.47000000000E+01 0.  1.
          5   -1    0    0  501    0  0.00000000000E+00 -0.00000000000E+00 -0.10929297063E+03  0.10939398260E+03  0.47000000000E+01 0.  1.
         25    2    1    2    0    0  0.37756710475E+02 -0.12064905743E+02  0.71591907201E+02  0.14941343330E+03  0.12501136644E+03 0.  0.
         25    2    1    2    0    0 -0.37756710475E+02  0.12064905743E+02 -0.94559092237E+01  0.13147393483E+03  0.12499940073E+03 0.  0.
          5    1    3    3  502    0 -0.16048796177E+02  0.40823032411E+02 -0.16664147468E+01  0.44146922566E+02  0.47000000000E+01 0.  1.
         -5    1    3    3    0  502  0.53805506652E+02 -0.52887938154E+02  0.73258321948E+02  0.10526651074E+03  0.47000000000E+01 0.  1.
          5    1    4    4  503    0  0.64904595654E+01  0.89377414439E+01  0.53213689612E+02  0.54550857460E+02  0.47000000000E+01 0. -1.
         -5    1    4    4    0  503 -0.44247170041E+02  0.31271642987E+01 -0.62669598836E+02  0.76923077365E+02  0.47000000000E+01 0. -1.
<mgrwt>
<rscale>  0 0.13114200E+03</rscale>
<asrwt>0</asrwt>
<pdfrwt beam="2">  1        5 0.16827028E-01 0.13114485E+03</pdfrwt>
<pdfrwt beam="1">  1       -5 0.26386413E-01 0.13114485E+03</pdfrwt>
<totfact> 0.31228252E+02</totfact>
</mgrwt>
</event>
<event>
 8    1  0.3682083E-007  0.1358841E+03  0.7546771E-02  0.1218979E+00
          5   -1    0    0  501    0  0.00000000000E+00  0.00000000000E+00  0.63440307834E+03  0.63442048817E+03  0.47000000000E+01 0.  1.
         -5   -1    0    0    0  501 -0.00000000000E+00 -0.00000000000E+00 -0.30914368766E+02  0.31269604989E+02  0.47000000000E+01 0.  1.
         25    2    1    2    0    0 -0.34929317989E+02 -0.40235249265E+02  0.21723682864E+03  0.25623490752E+03  0.12500222229E+03 0.  0.
         25    2    1    2    0    0  0.34929317989E+02  0.40235249265E+02  0.38625188093E+03  0.40945518563E+03  0.12499640387E+03 0.  0.
          5    1    3    3  502    0  0.40824301554E+02 -0.20432101383E+02  0.34627546780E+02  0.57491315521E+02  0.47000000000E+01 0.  1.
         -5    1    3    3    0  502 -0.75753619543E+02 -0.19803147882E+02  0.18260928186E+03  0.19874359200E+03  0.47000000000E+01 0.  1.
          5    1    4    4  503    0 -0.43354670893E+02  0.10148518532E+02  0.77731565100E+02  0.89704549101E+02  0.47000000000E+01 0. -1.
         -5    1    4    4    0  503  0.78283988882E+02  0.30086730733E+02  0.30852031583E+03  0.31975063653E+03  0.47000000000E+01 0. -1.
<mgrwt>
<rscale>  0 0.13588276E+03</rscale>
<asrwt>0</asrwt>
<pdfrwt beam="1">  1        5 0.97629134E-01 0.13588410E+03</pdfrwt>
<pdfrwt beam="2">  1       -5 0.47847220E-02 0.13588410E+03</pdfrwt>
<totfact> 0.17027505E+02</totfact>
</mgrwt>
</event>
<event>
 8    1  0.3682083E-007  0.1344646E+03  0.7546771E-02  0.1220979E+00
          5   -1    0    0  501    0  0.00000000000E+00  0.00000000000E+00  0.17480622419E+03  0.17486939703E+03  0.47000000000E+01 0. -1.
         -5   -1    0    0    0  501 -0.00000000000E+00 -0.00000000000E+00 -0.12214369764E+03  0.12223409047E+03  0.47000000000E+01 0. -1.
         25    2    1    2    0    0  0.71850949504E+01 -0.49024753774E+02 -0.31988657928E+02  0.13821185854E+03  0.12499676609E+03 0.  0.
         25    2    1    2    0    0 -0.71850949504E+01  0.49024753774E+02  0.84651184484E+02  0.15889162895E+03  0.12500269855E+03 0.  0.
          5    1    4    4  502    0  0.47552068537E+02 -0.14910579942E+02  0.28427925812E+02  0.57565281049E+02  0.47000000000E+01 0.  1.
         -5    1    4    4    0  502 -0.54737163487E+02  0.63935333716E+02  0.56223258672E+02  0.10132634790E+03  0.47000000000E+01 0.  1.
          5    1    3    3  503    0  0.26427716185E+02  0.35872851412E+02 -0.23578656040E+02  0.50629326203E+02  0.47000000000E+01 0. -1.
         -5    1    3    3    0  503 -0.19242621235E+02 -0.84897605186E+02 -0.84100018885E+01  0.87582532334E+02  0.47000000000E+01 0. -1.
<mgrwt>
<rscale>  0 0.13446321E+03</rscale>
<asrwt>0</asrwt>
<pdfrwt beam="1">  1        5 0.26905078E-01 0.13446459E+03</pdfrwt>
<pdfrwt beam="2">  1       -5 0.18803151E-01 0.13446459E+03</pdfrwt>
<totfact> 0.24732860E+02</totfact>
</mgrwt>
</event>
<event>
 8    1  0.3682083E-007  0.1961871E+03  0.7546771E-02  0.1153001E+00
         -5   -1    0    0    0  501 -0.00000000000E+00  0.00000000000E+00  0.32296105410E+03  0.32299525146E+03  0.47000000000E+01 0. -1.
          5   -1    0    0  501    0  0.00000000000E+00 -0.00000000000E+00 -0.12059443962E+03  0.12068599283E+03  0.47000000000E+01 0. -1.
         25    2    1    2    0    0  0.13065683493E+03  0.76106144598E+02  0.12605927592E+03  0.23319589353E+03  0.12500411974E+03 0.  0.
         25    2    1    2    0    0 -0.13065683493E+03 -0.76106144598E+02  0.76307338557E+02  0.21048535077E+03  0.12497167363E+03 0.  0.
          5    1    3    3  502    0  0.47800617256E+02  0.89294073121E+02  0.30360385462E+02  0.10584032081E+03  0.47000000000E+01 0. -1.
         -5    1    3    3    0  502  0.82856217671E+02 -0.13187928523E+02  0.95698890462E+02  0.12735557271E+03  0.47000000000E+01 0. -1.
          5    1    4    4  503    0 -0.26344230503E+02 -0.85755761961E+02  0.22434576867E+02  0.92593031215E+02  0.47000000000E+01 0.  1.
         -5    1    4    4    0  503 -0.10431260442E+03  0.96496173633E+01  0.53872761691E+02  0.11789231955E+03  0.47000000000E+01 0.  1.
<mgrwt>
<rscale>  0 0.19618195E+03</rscale>
<asrwt>0</asrwt>
<pdfrwt beam="2">  1        5 0.18562664E-01 0.19618711E+03</pdfrwt>
<pdfrwt beam="1">  1       -5 0.49695988E-01 0.19618711E+03</pdfrwt>
<totfact> 0.82108075E+01</totfact>
</mgrwt>
</event>
<event>
 8    1  0.3682083E-007  0.1329673E+03  0.7546771E-02  0.1223131E+00
          5   -1    0    0  501    0  0.00000000000E+00  0.00000000000E+00  0.57967600110E+02  0.58157825463E+02  0.47000000000E+01 0. -1.
         -5   -1    0    0    0  501 -0.00000000000E+00 -0.00000000000E+00 -0.30526612356E+03  0.30530230296E+03  0.47000000000E+01 0. -1.
         25    2    1    2    0    0 -0.11652991245E+02  0.43814858435E+02 -0.13432627962E+03  0.18900752192E+03  0.12499903968E+03 0.  0.
         25    2    1    2    0    0  0.11652991245E+02 -0.43814858435E+02 -0.11297224382E+03  0.17445260650E+03  0.12496179422E+03 0.  0.
          5    1    4    4  502    0  0.46056703020E+02 -0.73753175121E+02 -0.74730995723E+02  0.11474999980E+03  0.47000000000E+01 0. -1.
         -5    1    4    4    0  502 -0.34403711774E+02  0.29938316686E+02 -0.38241248098E+02  0.59702606693E+02  0.47000000000E+01 0. -1.
          5    1    3    3  503    0 -0.40993636149E+02 -0.28029821919E+02 -0.27734207264E+02  0.57073858938E+02  0.47000000000E+01 0. -1.
         -5    1    3    3    0  503  0.29340644903E+02  0.71844680353E+02 -0.10659207236E+03  0.13193366298E+03  0.47000000000E+01 0. -1.
<mgrwt>
<rscale>  0 0.13295851E+03</rscale>
<asrwt>0</asrwt>
<pdfrwt beam="1">  1        5 0.89355082E-02 0.13296727E+03</pdfrwt>
<pdfrwt beam="2">  1       -5 0.46981434E-01 0.13296727E+03</pdfrwt>
<totfact> 0.30339763E+02</totfact>
</mgrwt>
</event>
<event>
 8    1  0.3682083E-007  0.1783022E+03  0.7546771E-02  0.1169462E+00
         -5   -1    0    0    0  501 -0.00000000000E+00  0.00000000000E+00  0.85634269628E+02  0.85763151380E+02  0.47000000000E+01 0. -1.
          5   -1    0    0  501    0  0.00000000000E+00 -0.00000000000E+00 -0.37130242091E+03  0.37133216636E+03  0.47000000000E+01 0. -1.
         25    2    1    2    0    0  0.98495121515E+02 -0.80357320827E+02 -0.13422732589E+03  0.22315939638E+03  0.12499821281E+03 0.  0.
         25    2    1    2    0    0 -0.98495121515E+02  0.80357320827E+02 -0.15144082540E+03  0.23393592136E+03  0.12503241073E+03 0.  0.
          5    1    4    4  502    0 -0.51392095965E+01  0.44373403763E+02 -0.12128288571E+03  0.12933305379E+03  0.47000000000E+01 0. -1.
         -5    1    4    4    0  502 -0.93355911919E+02  0.35983917064E+02 -0.30157939685E+02  0.10460286757E+03  0.47000000000E+01 0. -1.
          5    1    3    3  503    0  0.25569718033E+02 -0.36406180009E+01  0.22096522026E+02  0.34313421067E+02  0.47000000000E+01 0. -1.
         -5    1    3    3    0  503  0.72925403483E+02 -0.76716702826E+02 -0.15632384791E+03  0.18884597531E+03  0.47000000000E+01 0. -1.
<mgrwt>
<rscale>  0 0.17829625E+03</rscale>
<asrwt>0</asrwt>
<pdfrwt beam="2">  1        5 0.57135651E-01 0.17830225E+03</pdfrwt>
<pdfrwt beam="1">  1       -5 0.13186705E-01 0.17830225E+03</pdfrwt>
<totfact> 0.11052911E+02</totfact>
</mgrwt>
</event>
<event>
 8    1  0.3682083E-007  0.1643119E+03  0.7546771E-02  0.1183914E+00
          5   -1    0    0  501    0  0.00000000000E+00  0.00000000000E+00  0.10537094985E+03  0.10547571793E+03  0.47000000000E+01 0.  1.
         -5   -1    0    0    0  501 -0.00000000000E+00 -0.00000000000E+00 -0.27100505703E+03  0.27104580967E+03  0.47000000000E+01 0.  1.
         25    2    1    2    0    0 -0.90403663831E+02 -0.56569059237E+02 -0.12715710038E+03  0.20776466462E+03  0.12499738714E+03 0.  0.
         25    2    1    2    0    0  0.90403663831E+02  0.56569059237E+02 -0.38477006798E+02  0.16875686297E+03  0.12500207139E+03 0.  0.
          5    1    4    4  502    0  0.99327003868E+02  0.33483539278E+02  0.18422984689E+02  0.10652932678E+03  0.47000000000E+01 0.  1.
         -5    1    4    4    0  502 -0.89233400364E+01  0.23085519958E+02 -0.56899991487E+02  0.62227536191E+02  0.47000000000E+01 0.  1.
          5    1    3    3  503    0 -0.57259895612E+02 -0.20027568852E+02 -0.14327008693E+03  0.15565412609E+03  0.47000000000E+01 0. -1.
         -5    1    3    3    0  503 -0.33143768219E+02 -0.36541490385E+02  0.16112986543E+02  0.52110538537E+02  0.47000000000E+01 0. -1.
<mgrwt>
<rscale>  0 0.16431100E+03</rscale>
<asrwt>0</asrwt>
<pdfrwt beam="1">  1        5 0.16222109E-01 0.16431189E+03</pdfrwt>
<pdfrwt beam="2">  1       -5 0.41704279E-01 0.16431189E+03</pdfrwt>
<totfact> 0.14446849E+02</totfact>
</mgrwt>
</event>
<event>
 8    1  0.3682083E-007  0.1671046E+03  0.7546771E-02  0.1180902E+00
         -5   -1    0    0    0  501 -0.00000000000E+00  0.00000000000E+00  0.59873930964E+03  0.59875775645E+03  0.47000000000E+01 0. -1.
          5   -1    0    0  501    0  0.00000000000E+00 -0.00000000000E+00 -0.47133342335E+02  0.47367097860E+02  0.47000000000E+01 0. -1.
         25    2    1    2    0    0  0.38313444429E+02  0.10406723400E+03  0.23845329776E+03  0.29117678979E+03  0.12500415388E+03 0.  0.
         25    2    1    2    0    0 -0.38313444429E+02 -0.10406723400E+03  0.31315266954E+03  0.35494806451E+03  0.12500249934E+03 0.  0.
          5    1    3    3  502    0  0.68829037537E+02  0.29218032201E+02  0.62798097425E+02  0.97758993725E+02  0.47000000000E+01 0. -1.
         -5    1    3    3    0  502 -0.30515593109E+02  0.74849201798E+02  0.17565520033E+03  0.19341779607E+03  0.47000000000E+01 0. -1.
          5    1    4    4  503    0 -0.61192892247E+02 -0.16636353459E+02  0.20110683579E+03  0.21092033501E+03  0.47000000000E+01 0. -1.
         -5    1    4    4    0  503  0.22879447819E+02 -0.87430880539E+02  0.11204583375E+03  0.14402772950E+03  0.47000000000E+01 0. -1.
<mgrwt>
<rscale>  0 0.16710429E+03</rscale>
<asrwt>0</asrwt>
<pdfrwt beam="2">  1        5 0.72706832E-02 0.16710460E+03</pdfrwt>
<pdfrwt beam="1">  1       -5 0.92133145E-01 0.16710460E+03</pdfrwt>
<totfact> 0.10333801E+02</totfact>
</mgrwt>
</event>
<event>
 8    1  0.3682083E-007  0.1391631E+03  0.7546771E-02  0.1214462E+00
          5   -1    0    0  501    0  0.00000000000E+00  0.00000000000E+00  0.10473456283E+03  0.10483996686E+03  0.47000000000E+01 0. -1.
         -5   -1    0    0    0  501 -0.00000000000E+00 -0.00000000000E+00 -0.22886813205E+03  0.22891638619E+03  0.47000000000E+01 0. -1.
         25    2    1    2    0    0 -0.55853276711E+02  0.24897763798E+02 -0.13537402555E+03  0.19414002718E+03  0.12499894479E+03 0.  0.
         25    2    1    2    0    0  0.55853276711E+02 -0.24897763798E+02  0.11240456331E+02  0.13961632588E+03  0.12500753350E+03 0.  0.
          5    1    4    4  502    0  0.72599326445E+02  0.27827603373E+00 -0.37667318887E+02  0.81924700488E+02  0.47000000000E+01 0. -1.
         -5    1    4    4    0  502 -0.16746049735E+02 -0.25176039832E+02  0.48907775218E+02  0.57691625389E+02  0.47000000000E+01 0. -1.
          5    1    3    3  503    0 -0.22739222772E+02  0.50793437865E+02 -0.14082107317E+03  0.15149161770E+03  0.47000000000E+01 0.  1.
         -5    1    3    3    0  503 -0.33114053939E+02 -0.25895674067E+02  0.54470476214E+01  0.42648409483E+02  0.47000000000E+01 0.  1.
<mgrwt>
<rscale>  0 0.13916118E+03</rscale>
<asrwt>0</asrwt>
<pdfrwt beam="1">  1        5 0.16124830E-01 0.13916311E+03</pdfrwt>
<pdfrwt beam="2">  1       -5 0.35222301E-01 0.13916311E+03</pdfrwt>
<totfact> 0.19523630E+02</totfact>
</mgrwt>
</event>
<event>
 8    1  0.3682083E-007  0.1780980E+03  0.7546771E-02  0.1169657E+00
          5   -1    0    0  501    0  0.00000000000E+00  0.00000000000E+00  0.38956448964E+02  0.39238946416E+02  0.47000000000E+01 0.  1.
         -5   -1    0    0    0  501 -0.00000000000E+00 -0.00000000000E+00 -0.97345429913E+03  0.97346564525E+03  0.47000000000E+01 0.  1.
         25    2    1    2    0    0  0.61175568109E+02  0.11113727984E+03 -0.67408143326E+03  0.69721194027E+03  0.12499906350E+03 0.  0.
         25    2    1    2    0    0 -0.61175568109E+02 -0.11113727984E+03 -0.26041641690E+03  0.31549265140E+03  0.12499983118E+03 0.  0.
          5    1    4    4  502    0  0.24371584330E+02 -0.67969213026E+02 -0.62763095538E+02  0.95786659842E+02  0.47000000000E+01 0.  1.
         -5    1    4    4    0  502 -0.85547152439E+02 -0.43168066811E+02 -0.19765332136E+03  0.21970599156E+03  0.47000000000E+01 0.  1.
          5    1    3    3  503    0  0.14024683151E+02  0.49046440031E+02 -0.63186643594E+02  0.81344249617E+02  0.47000000000E+01 0. -1.
         -5    1    3    3    0  503  0.47150884957E+02  0.62090839806E+02 -0.61089478967E+03  0.61586769065E+03  0.47000000000E+01 0. -1.
<mgrwt>
<rscale>  0 0.17809788E+03</rscale>
<asrwt>0</asrwt>
<pdfrwt beam="1">  1        5 0.60159039E-02 0.17809801E+03</pdfrwt>
<pdfrwt beam="2">  1       -5 0.14978479E+00 0.17809801E+03</pdfrwt>
<totfact> 0.41925907E+01</totfact>
</mgrwt>
</event>
<event>
 8    1  0.3682083E-007  0.1292326E+03  0.7546771E-02  0.1228599E+00
          5   -1    0    0  501    0  0.00000000000E+00  0.00000000000E+00  0.68005892220E+02  0.68168111142E+02  0.47000000000E+01 0.  1.
         -5   -1    0    0    0  501 -0.00000000000E+00 -0.00000000000E+00 -0.24967235173E+03  0.24971658579E+03  0.47000000000E+01 0.  1.
         25    2    1    2    0    0  0.65634272990E+01 -0.32140055306E+02 -0.11232180714E+03  0.17122284013E+03  0.12500004356E+03 0.  0.
         25    2    1    2    0    0 -0.65634272990E+01  0.32140055306E+02 -0.69344652372E+02  0.14666185680E+03  0.12499983078E+03 0.  0.
          5    1    4    4  502    0  0.55831776100E+02  0.39117187299E+01 -0.12508861992E+02  0.57541727418E+02  0.47000000000E+01 0.  1.
         -5    1    4    4    0  502 -0.62395203399E+02  0.28228336576E+02 -0.56835790380E+02  0.89120129382E+02  0.47000000000E+01 0.  1.
          5    1    3    3  503    0 -0.26450517162E+02 -0.61454167899E+02 -0.10730416339E+03  0.12654057883E+03  0.47000000000E+01 0. -1.
         -5    1    3    3    0  503  0.33013944461E+02  0.29314112593E+02 -0.50176437480E+01  0.44682261299E+02  0.47000000000E+01 0. -1.
<mgrwt>
<rscale>  0 0.12923258E+03</rscale>
<asrwt>0</asrwt>
<pdfrwt beam="1">  1        5 0.10478326E-01 0.12923263E+03</pdfrwt>
<pdfrwt beam="2">  1       -5 0.38427012E-01 0.12923263E+03</pdfrwt>
<totfact> 0.34458012E+02</totfact>
</mgrwt>
</event>
<event>
 8    1  0.3682083E-007  0.1540832E+03  0.7546771E-02  0.1195544E+00
         -5   -1    0    0    0  501 -0.00000000000E+00  0.00000000000E+00  0.24690271062E+03  0.24694744079E+03  0.47000000000E+01 0.  1.
          5   -1    0    0  501    0  0.00000000000E+00 -0.00000000000E+00 -0.10325532729E+03  0.10336223978E+03  0.47000000000E+01 0.  1.
         25    2    1    2    0    0  0.90085812130E+02 -0.11101775591E+01  0.11807195394E+03  0.19412013923E+03  0.12499982442E+03 0.  0.
         25    2    1    2    0    0 -0.90085812130E+02  0.11101775591E+01  0.25575429390E+02  0.15618954135E+03  0.12499753676E+03 0.  0.
          5    1    3    3  502    0  0.82615329738E+02 -0.54906994366E+02  0.81549413215E+02  0.12850084643E+03  0.47000000000E+01 0. -1.
         -5    1    3    3    0  502  0.74704823926E+01  0.53796816807E+02  0.36522540728E+02  0.65619292796E+02  0.47000000000E+01 0. -1.
          5    1    4    4  503    0  0.22109464768E+02  0.26651068908E+02  0.21347838427E+02  0.40950312719E+02  0.47000000000E+01 0. -1.
         -5    1    4    4    0  503 -0.11219527690E+03 -0.25540891349E+02  0.42275909629E+01  0.11523922863E+03  0.47000000000E+01 0. -1.
<mgrwt>
<rscale>  0 0.15408277E+03</rscale>
<asrwt>0</asrwt>
<pdfrwt beam="2">  1        5 0.15897100E-01 0.15408323E+03</pdfrwt>
<pdfrwt beam="1">  1       -5 0.37996697E-01 0.15408323E+03</pdfrwt>
<totfact> 0.17778561E+02</totfact>
</mgrwt>
</event>
<event>
 8    1  0.3682083E-007  0.1468389E+03  0.7546771E-02  0.1204413E+00
         -5   -1    0    0    0  501 -0.00000000000E+00  0.00000000000E+00  0.94533765458E+03  0.94534933816E+03  0.47000000000E+01 0. -1.
          5   -1    0    0  501    0  0.00000000000E+00 -0.00000000000E+00 -0.38951394905E+02  0.39233928749E+02  0.47000000000E+01 0. -1.
         25    2    1    2    0    0 -0.35029671614E+02  0.68627650979E+02  0.77099948740E+03  0.78485786194E+03  0.12499928600E+03 0.  0.
         25    2    1    2    0    0  0.35029671614E+02 -0.68627650979E+02  0.13538677227E+03  0.19972540497E+03  0.12499530756E+03 0.  0.
          5    1    4    4  502    0  0.79726654342E+02 -0.45111564831E+02  0.62767757145E+02  0.11114528344E+03  0.47000000000E+01 0.  1.
         -5    1    4    4    0  502 -0.44696982728E+02 -0.23516086148E+02  0.72619015123E+02  0.88580121530E+02  0.47000000000E+01 0.  1.
          5    1    3    3  503    0 -0.74325017020E+02  0.58224653176E+02  0.65639323963E+03  0.66316550983E+03  0.47000000000E+01 0. -1.
         -5    1    3    3    0  503  0.39295345407E+02  0.10402997803E+02  0.11460624777E+03  0.12169235211E+03  0.47000000000E+01 0. -1.
<mgrwt>
<rscale>  0 0.14683802E+03</rscale>
<asrwt>0</asrwt>
<pdfrwt beam="2">  1        5 0.60151538E-02 0.14683887E+03</pdfrwt>
<pdfrwt beam="1">  1       -5 0.14545921E+00 0.14683887E+03</pdfrwt>
<totfact> 0.43074343E+01</totfact>
</mgrwt>
</event>
<event>
 8    1  0.3682083E-007  0.1277819E+03  0.7546771E-02  0.1230787E+00
          5   -1    0    0  501    0  0.00000000000E+00  0.00000000000E+00  0.59146991270E+03  0.59148858622E+03  0.47000000000E+01 0. -1.
         -5   -1    0    0    0  501 -0.00000000000E+00 -0.00000000000E+00 -0.27634879459E+02  0.28031706383E+02  0.47000000000E+01 0. -1.
         25    2    1    2    0    0  0.24069005979E+01  0.26400028202E+02  0.25272745123E+03  0.28319495544E+03  0.12500185409E+03 0.  0.
         25    2    1    2    0    0 -0.24069005979E+01 -0.26400028202E+02  0.31110758201E+03  0.33632533716E+03  0.12499620061E+03 0.  0.
          5    1    4    4  502    0  0.41989587465E+02 -0.48581243240E+02  0.96521521271E+02  0.11602481079E+03  0.47000000000E+01 0.  1.
         -5    1    4    4    0  502 -0.44396488063E+02  0.22181215038E+02  0.21458606074E+03  0.22030052637E+03  0.47000000000E+01 0.  1.
          5    1    3    3  503    0  0.20784021101E+02  0.73415806279E+02  0.16554235617E+03  0.18234093844E+03  0.47000000000E+01 0.  1.
         -5    1    3    3    0  503 -0.18377120503E+02 -0.47015778077E+02  0.87185095059E+02  0.10085401701E+03  0.47000000000E+01 0.  1.
<mgrwt>
<rscale>  0 0.12778053E+03</rscale>
<asrwt>0</asrwt>
<pdfrwt beam="1">  1        5 0.91027325E-01 0.12778192E+03</pdfrwt>
<pdfrwt beam="2">  1       -5 0.42834819E-02 0.12778192E+03</pdfrwt>
<totfact> 0.23664494E+02</totfact>
</mgrwt>
</event>
<event>
 8    1  0.3682083E-007  0.1754940E+03  0.7546771E-02  0.1172239E+00
          5   -1    0    0  501    0  0.00000000000E+00  0.00000000000E+00  0.81397338782E+03  0.81398695694E+03  0.47000000000E+01 0. -1.
         -5   -1    0    0    0  501 -0.00000000000E+00 -0.00000000000E+00 -0.39357521678E+02  0.39637160754E+02  0.47000000000E+01 0. -1.
         25    2    1    2    0    0  0.54418442420E+02  0.11049976242E+03  0.29938727655E+03  0.34702727117E+03  0.12499448470E+03 0.  0.
         25    2    1    2    0    0 -0.54418442420E+02 -0.11049976242E+03  0.47522858958E+03  0.50659684652E+03  0.12500635255E+03 0.  0.
          5    1    3    3  502    0  0.27625492074E+02  0.11647582965E+03  0.29555807660E+03  0.31891449223E+03  0.47000000000E+01 0. -1.
         -5    1    3    3    0  502  0.26792950347E+02 -0.59760672352E+01  0.38291999495E+01  0.28112778947E+02  0.47000000000E+01 0. -1.
          5    1    4    4  503    0 -0.32483685365E+02  0.21130135387E+02  0.15065733962E+03  0.15563224736E+03  0.47000000000E+01 0.  1.
         -5    1    4    4    0  503 -0.21934757055E+02 -0.13162989781E+03  0.32457124996E+03  0.35096459916E+03  0.47000000000E+01 0.  1.
<mgrwt>
<rscale>  0 0.17549191E+03</rscale>
<asrwt>0</asrwt>
<pdfrwt beam="1">  1        5 0.12524923E+00 0.17549402E+03</pdfrwt>
<pdfrwt beam="2">  1       -5 0.60775579E-02 0.17549402E+03</pdfrwt>
<totfact> 0.66141005E+01</totfact>
</mgrwt>
</event>
<event>
 8    1  0.3682083E-007  0.1405059E+03  0.7546771E-02  0.1212650E+00
          5   -1    0    0  501    0  0.00000000000E+00  0.00000000000E+00  0.61233723310E+02  0.61413832892E+02  0.47000000000E+01 0. -1.
         -5   -1    0    0    0  501 -0.00000000000E+00 -0.00000000000E+00 -0.32629810967E+03  0.32633195733E+03  0.47000000000E+01 0. -1.
         25    2    1    2    0    0 -0.60971811217E+02 -0.19953876083E+02 -0.15546141508E+03  0.20954753736E+03  0.12500479952E+03 0.  0.
         25    2    1    2    0    0  0.60971811217E+02  0.19953876083E+02 -0.10960297128E+03  0.17819825285E+03  0.12500434822E+03 0.  0.
          5    1    4    4  502    0 -0.35014409185E+02  0.26151183967E+02 -0.39355019993E+02  0.58998312451E+02  0.47000000000E+01 0.  1.
         -5    1    4    4    0  502  0.95986220403E+02 -0.61973078844E+01 -0.70247951285E+02  0.11919994040E+03  0.47000000000E+01 0.  1.
          5    1    3    3  503    0  0.38860841928E+01  0.23082282121E+02  0.10574825101E+02  0.26111497931E+02  0.47000000000E+01 0.  1.
         -5    1    3    3    0  503 -0.64857895410E+02 -0.43036158204E+02 -0.16603624018E+03  0.18343603943E+03  0.47000000000E+01 0.  1.
<mgrwt>
<rscale>  0 0.14050584E+03</rscale>
<asrwt>0</asrwt>
<pdfrwt beam="1">  1        5 0.94370312E-02 0.14050594E+03</pdfrwt>
<pdfrwt beam="2">  1       -5 0.50216166E-01 0.14050594E+03</pdfrwt>
<totfact> 0.24438366E+02</totfact>
</mgrwt>
</event>
<event>
 8    1  0.3682083E-007  0.1719975E+03  0.7546771E-02  0.1175781E+00
          5   -1    0    0  501    0  0.00000000000E+00  0.00000000000E+00  0.18369076246E+03  0.18375088085E+03  0.47000000000E+01 0. -1.
         -5   -1    0    0    0  501 -0.00000000000E+00 -0.00000000000E+00 -0.17015677307E+03  0.17022167142E+03  0.47000000000E+01 0. -1.
         25    2    1    2    0    0  0.98340555114E+02  0.65472079931E+02 -0.34439285541E+02  0.17540998505E+03  0.12500056174E+03 0.  0.
         25    2    1    2    0    0 -0.98340555114E+02 -0.65472079931E+02  0.47973274927E+02  0.17856256722E+03  0.12500278907E+03 0.  0.
          5    1    3    3  502    0  0.55152429292E+02  0.22303884464E+02  0.45259110929E+02  0.74898136433E+02  0.47000000000E+01 0.  1.
         -5    1    3    3    0  502  0.43188125822E+02  0.43168195467E+02 -0.79698396469E+02  0.10051184861E+03  0.47000000000E+01 0.  1.
          5    1    4    4  503    0  0.20982252364E+02 -0.40038933002E+02 -0.45017734444E+01  0.45669760612E+02  0.47000000000E+01 0. -1.
         -5    1    4    4    0  503 -0.11932280748E+03 -0.25433146929E+02  0.52475048372E+02  0.13289280661E+03  0.47000000000E+01 0. -1.
<mgrwt>
<rscale>  0 0.17199714E+03</rscale>
<asrwt>0</asrwt>
<pdfrwt beam="1">  1        5 0.28269734E-01 0.17199754E+03</pdfrwt>
<pdfrwt beam="2">  1       -5 0.26187582E-01 0.17199754E+03</pdfrwt>
<totfact> 0.12991412E+02</totfact>
</mgrwt>
</event>
<event>
 8    1  0.3682083E-007  0.1250325E+03  0.7546771E-02  0.1235027E+00
         -5   -1    0    0    0  501 -0.00000000000E+00  0.00000000000E+00  0.44810154907E+03  0.44812619683E+03  0.47000000000E+01 0. -1.
          5   -1    0    0  501    0  0.00000000000E+00 -0.00000000000E+00 -0.45957547586E+02  0.46197252950E+02  0.47000000000E+01 0. -1.
         25    2    1    2    0    0  0.18267470166E+00  0.28939968677E+01  0.32302571820E+03  0.34637947828E+03  0.12499887908E+03 0.  0.
         25    2    1    2    0    0 -0.18267470166E+00 -0.28939968677E+01  0.79118283287E+02  0.14794397149E+03  0.12497722737E+03 0.  0.
          5    1    4    4  502    0 -0.14741329471E+02  0.49961377832E+02  0.89997797413E+00  0.52310094913E+02  0.47000000000E+01 0.  1.
         -5    1    4    4    0  502  0.14558654770E+02 -0.52855374700E+02  0.78218305313E+02  0.95633876578E+02  0.47000000000E+01 0.  1.
          5    1    3    3  503    0 -0.39511506934E+02  0.47805065087E+02  0.12826395624E+03  0.14254899473E+03  0.47000000000E+01 0. -1.
         -5    1    3    3    0  503  0.39694181636E+02 -0.44911068219E+02  0.19476176196E+03  0.20383048355E+03  0.47000000000E+01 0. -1.
<mgrwt>
<rscale>  0 0.12502710E+03</rscale>
<asrwt>0</asrwt>
<pdfrwt beam="2">  1        5 0.70907268E-02 0.12503251E+03</pdfrwt>
<pdfrwt beam="1">  1       -5 0.68959034E-01 0.12503251E+03</pdfrwt>
<totfact> 0.19202189E+02</totfact>
</mgrwt>
</event>
<event>
 8    1  0.3682083E-007  0.1380482E+03  0.7546771E-02  0.1215983E+00
         -5   -1    0    0    0  501 -0.00000000000E+00  0.00000000000E+00  0.21419499743E+03  0.21424655639E+03  0.47000000000E+01 0.  1.
          5   -1    0    0  501    0  0.00000000000E+00 -0.00000000000E+00 -0.10671280766E+03  0.10681625962E+03  0.47000000000E+01 0.  1.
         25    2    1    2    0    0  0.42823875310E+02  0.39984339466E+02  0.11938919707E+03  0.18251324825E+03  0.12499869483E+03 0.  0.
         25    2    1    2    0    0 -0.42823875310E+02 -0.39984339466E+02 -0.11907007304E+02  0.13854956776E+03  0.12498629606E+03 0.  0.
          5    1    3    3  502    0  0.25191911246E+02  0.80213314420E+02  0.10789974396E+03  0.13686947413E+03  0.47000000000E+01 0.  1.
         -5    1    3    3    0  502  0.17631964064E+02 -0.40228974955E+02  0.11489453115E+02  0.45643774116E+02  0.47000000000E+01 0.  1.
          5    1    4    4  503    0 -0.52784851667E+02 -0.78004952811E+02 -0.23720064264E+02  0.97240653419E+02  0.47000000000E+01 0. -1.
         -5    1    4    4    0  503  0.99609763569E+01  0.38020613346E+02  0.11813056961E+02  0.41308914340E+02  0.47000000000E+01 0. -1.
<mgrwt>
<rscale>  0 0.13804539E+03</rscale>
<asrwt>0</asrwt>
<pdfrwt beam="2">  1        5 0.16429279E-01 0.13804820E+03</pdfrwt>
<pdfrwt beam="1">  1       -5 0.32965000E-01 0.13804820E+03</pdfrwt>
<totfact> 0.21479159E+02</totfact>
</mgrwt>
</event>
<event>
 8    1  0.3682083E-007  0.1404522E+03  0.7546771E-02  0.1212725E+00
          5   -1    0    0  501    0  0.00000000000E+00  0.00000000000E+00  0.50236953676E+03  0.50239152209E+03  0.47000000000E+01 0.  1.
         -5   -1    0    0    0  501 -0.00000000000E+00 -0.00000000000E+00 -0.50472001925E+02  0.50690363762E+02  0.47000000000E+01 0.  1.
         25    2    1    2    0    0 -0.63732273705E+02 -0.62437254470E+01  0.95049705253E+02  0.16959145992E+03  0.12500411990E+03 0.  0.
         25    2    1    2    0    0  0.63732273705E+02  0.62437254470E+01  0.35684782958E+03  0.38349042593E+03  0.12499498582E+03 0.  0.
          5    1    4    4  502    0 -0.33046099933E+02  0.22578640339E+02  0.77247778864E+02  0.87127200459E+02  0.47000000000E+01 0. -1.
         -5    1    4    4    0  502  0.96778373638E+02 -0.16334914892E+02  0.27960005072E+03  0.29636322547E+03  0.47000000000E+01 0. -1.
          5    1    3    3  503    0 -0.52083835749E+02 -0.13533722252E+02  0.12507322360E+03  0.13623982107E+03  0.47000000000E+01 0.  1.
         -5    1    3    3    0  503 -0.11648437956E+02  0.72899968050E+01 -0.30023518345E+02  0.33351638851E+02  0.47000000000E+01 0.  1.
<mgrwt>
<rscale>  0 0.14045015E+03</rscale>
<asrwt>0</asrwt>
<pdfrwt beam="1">  1        5 0.77306110E-01 0.14045219E+03</pdfrwt>
<pdfrwt beam="2">  1       -5 0.77834115E-02 0.14045219E+03</pdfrwt>
<totfact> 0.13149055E+02</totfact>
</mgrwt>
</event>
<event>
 8    1  0.3682083E-007  0.1870515E+03  0.7546771E-02  0.1161149E+00
         -5   -1    0    0    0  501 -0.00000000000E+00  0.00000000000E+00  0.17217819497E+04  0.17217883646E+04  0.47000000000E+01 0. -1.
          5   -1    0    0  501    0  0.00000000000E+00 -0.00000000000E+00 -0.29752894437E+02  0.30121831409E+02  0.47000000000E+01 0. -1.
         25    2    1    2    0    0  0.86747623520E+02  0.10883240223E+03  0.13426084519E+04  0.13555757939E+04  0.12497454134E+03 0.  0.
         25    2    1    2    0    0 -0.86747623520E+02 -0.10883240223E+03  0.34942060338E+03  0.39633440206E+03  0.12496622836E+03 0.  0.
          5    1    4    4  502    0 -0.24045481036E+02 -0.52162868376E+02  0.28222249923E+02  0.64169583030E+02  0.47000000000E+01 0. -1.
         -5    1    4    4    0  502 -0.62702142485E+02 -0.56669533849E+02  0.32119835345E+03  0.33216481903E+03  0.47000000000E+01 0. -1.
          5    1    3    3  503    0  0.91845936454E+02  0.16337079008E+02  0.60756288972E+03  0.61470100957E+03  0.47000000000E+01 0. -1.
         -5    1    3    3    0  503 -0.50983129340E+01  0.92495323218E+02  0.73504556218E+03  0.74087478435E+03  0.47000000000E+01 0. -1.
<mgrwt>
<rscale>  0 0.18705015E+03</rscale>
<asrwt>0</asrwt>
<pdfrwt beam="2">  1        5 0.46062423E-02 0.18705154E+03</pdfrwt>
<pdfrwt beam="1">  1       -5 0.26491837E+00 0.18705154E+03</pdfrwt>
<totfact> 0.10732875E+01</totfact>
</mgrwt>
</event>
<event>
 8    1  0.3682083E-007  0.1281993E+03  0.7546771E-02  0.1230157E+00
         -5   -1    0    0    0  501 -0.00000000000E+00  0.00000000000E+00  0.12369252934E+02  0.13232098025E+02  0.47000000000E+01 0. -1.
          5   -1    0    0  501    0  0.00000000000E+00 -0.00000000000E+00 -0.12947254842E+04  0.12947340150E+04  0.47000000000E+01 0. -1.
         25    2    1    2    0    0  0.25642501435E+02  0.12381331382E+02 -0.57875579072E+03  0.59278177223E+03  0.12498451481E+03 0.  0.
         25    2    1    2    0    0 -0.25642501435E+02 -0.12381331382E+02 -0.70360044057E+03  0.71518434077E+03  0.12499690418E+03 0.  0.
          5    1    4    4  502    0  0.36055581017E+02 -0.10502198733E+02 -0.79803694832E+02  0.88323387670E+02  0.47000000000E+01 0.  1.
         -5    1    4    4    0  502 -0.61698082452E+02 -0.18791326484E+01 -0.62379674574E+03  0.62686095310E+03  0.47000000000E+01 0.  1.
          5    1    3    3  503    0 -0.26358455107E+02  0.15167134186E+02 -0.48045990139E+03  0.48144430307E+03  0.47000000000E+01 0.  1.
         -5    1    3    3    0  503  0.52000956541E+02 -0.27858028039E+01 -0.98295889330E+02  0.11133746915E+03  0.47000000000E+01 0.  1.
<mgrwt>
<rscale>  0 0.12819628E+03</rscale>
<asrwt>0</asrwt>
<pdfrwt beam="2">  1        5 0.19925546E+00 0.12819930E+03</pdfrwt>
<pdfrwt beam="1">  1       -5 0.19699919E-02 0.12819930E+03</pdfrwt>
<totfact> 0.10285933E+02</totfact>
</mgrwt>
</event>
<event>
 8    1  0.3682083E-007  0.1276844E+03  0.7546771E-02  0.1230937E+00
         -5   -1    0    0    0  501 -0.00000000000E+00  0.00000000000E+00  0.39446993285E+03  0.39449793145E+03  0.47000000000E+01 0. -1.
          5   -1    0    0  501    0  0.00000000000E+00 -0.00000000000E+00 -0.74410233013E+02  0.74558519145E+02  0.47000000000E+01 0. -1.
         25    2    1    2    0    0  0.25091068277E+02  0.70829766853E+01  0.31655516948E+03  0.34133632121E+03  0.12499431421E+03 0.  0.
         25    2    1    2    0    0 -0.25091068277E+02 -0.70829766853E+01  0.35045303496E+01  0.12772012939E+03  0.12498167646E+03 0.  0.
          5    1    4    4  502    0 -0.52411732460E+02 -0.46755019487E+02 -0.21018760770E+02  0.73463595413E+02  0.47000000000E+01 0.  1.
         -5    1    4    4    0  502  0.27320664183E+02  0.39672042802E+02  0.24523291120E+02  0.54256533973E+02  0.47000000000E+01 0.  1.
          5    1    3    3  503    0  0.29896392219E+02 -0.21482542091E+02  0.30874700163E+03  0.31096960446E+03  0.47000000000E+01 0. -1.
         -5    1    3    3    0  503 -0.48053239418E+01  0.28565518776E+02  0.78081678588E+01  0.30366716755E+02  0.47000000000E+01 0. -1.
<mgrwt>
<rscale>  0 0.12768132E+03</rscale>
<asrwt>0</asrwt>
<pdfrwt beam="2">  1        5 0.11461289E-01 0.12768441E+03</pdfrwt>
<pdfrwt beam="1">  1       -5 0.60701242E-01 0.12768441E+03</pdfrwt>
<totfact> 0.11189220E+02</totfact>
</mgrwt>
</event>
<event>
 8    1  0.3682083E-007  0.1264417E+03  0.7546771E-02  0.1232835E+00
         -5   -1    0    0    0  501 -0.00000000000E+00  0.00000000000E+00  0.32485877783E+02  0.32824110885E+02  0.47000000000E+01 0.  1.
          5   -1    0    0  501    0  0.00000000000E+00 -0.00000000000E+00 -0.49989527253E+03  0.49991736667E+03  0.47000000000E+01 0.  1.
         25    2    1    2    0    0  0.12900808716E+02 -0.13992481570E+02 -0.27261551507E+03  0.30051074885E+03  0.12500108283E+03 0.  0.
         25    2    1    2    0    0 -0.12900808716E+02  0.13992481570E+02 -0.19479387968E+03  0.23223072871E+03  0.12499694153E+03 0.  0.
          5    1    3    3  502    0  0.55583732905E+02 -0.46431557182E+02 -0.16059340555E+03  0.17623215590E+03  0.47000000000E+01 0.  1.
         -5    1    3    3    0  502 -0.42682924190E+02  0.32439075612E+02 -0.11202210952E+03  0.12427859295E+03  0.47000000000E+01 0.  1.
          5    1    4    4  503    0  0.51886598954E+02  0.23630373745E+02 -0.63759554702E+02  0.85662036692E+02  0.47000000000E+01 0.  1.
         -5    1    4    4    0  503 -0.64787407669E+02 -0.96378921751E+01 -0.13103432497E+03  0.14656869202E+03  0.47000000000E+01 0.  1.
<mgrwt>
<rscale>  0 0.12644063E+03</rscale>
<asrwt>0</asrwt>
<pdfrwt beam="2">  1        5 0.76934677E-01 0.12644165E+03</pdfrwt>
<pdfrwt beam="1">  1       -5 0.50255452E-02 0.12644165E+03</pdfrwt>
<totfact> 0.26802544E+02</totfact>
</mgrwt>
</event>
<event>
 8    1  0.3682083E-007  0.1317215E+03  0.7546771E-02  0.1224930E+00
         -5   -1    0    0    0  501 -0.00000000000E+00  0.00000000000E+00  0.12676094520E+03  0.12684804778E+03  0.47000000000E+01 0.  1.
          5   -1    0    0  501    0  0.00000000000E+00 -0.00000000000E+00 -0.15476345685E+03  0.15483480738E+03  0.47000000000E+01 0.  1.
         25    2    1    2    0    0  0.38743251077E+02 -0.15028440580E+02  0.34112625455E+02  0.13605026409E+03  0.12497643624E+03 0.  0.
         25    2    1    2    0    0 -0.38743251077E+02  0.15028440580E+02 -0.62115137112E+02  0.14563259107E+03  0.12499467106E+03 0.  0.
          5    1    3    3  502    0 -0.32640719339E+02  0.20185431460E+02 -0.16032964250E+02  0.41857068039E+02  0.47000000000E+01 0.  1.
         -5    1    3    3    0  502  0.71383970416E+02 -0.35213872040E+02  0.50145589705E+02  0.94193196056E+02  0.47000000000E+01 0.  1.
          5    1    4    4  503    0 -0.32211621850E+02 -0.50358867914E+02 -0.51210498457E+02  0.78855623211E+02  0.47000000000E+01 0. -1.
         -5    1    4    4    0  503 -0.65316292273E+01  0.65387308494E+02 -0.10904638655E+02  0.66776967860E+02  0.47000000000E+01 0. -1.
<mgrwt>
<rscale>  0 0.13171720E+03</rscale>
<asrwt>0</asrwt>
<pdfrwt beam="2">  1        5 0.23821951E-01 0.13172153E+03</pdfrwt>
<pdfrwt beam="1">  1       -5 0.19513872E-01 0.13172153E+03</pdfrwt>
<totfact> 0.28947978E+02</totfact>
</mgrwt>
</event>
<event>
 8    1  0.3682083E-007  0.1363031E+03  0.7546771E-02  0.1218393E+00
         -5   -1    0    0    0  501 -0.00000000000E+00  0.00000000000E+00  0.86117675770E+02  0.86245835146E+02  0.47000000000E+01 0.  1.
          5   -1    0    0  501    0  0.00000000000E+00 -0.00000000000E+00 -0.38781708028E+03  0.38784555915E+03  0.47000000000E+01 0.  1.
         25    2    1    2    0    0 -0.89645486655E+01 -0.53600754476E+02  0.71660997314E+01  0.13648745092E+03  0.12499626898E+03 0.  0.
         25    2    1    2    0    0  0.89645486655E+01  0.53600754476E+02 -0.30886550424E+03  0.33760394338E+03  0.12500047546E+03 0.  0.
          5    1    4    4  502    0  0.20912725902E+02 -0.43138219772E+01 -0.25952805321E+03  0.26044740653E+03  0.47000000000E+01 0. -1.
         -5    1    4    4    0  502 -0.11948177237E+02  0.57914576454E+02 -0.49337451026E+02  0.77156536851E+02  0.47000000000E+01 0. -1.
          5    1    3    3  503    0 -0.13252588583E+02 -0.91267339862E+02  0.22952550904E+02  0.95153917537E+02  0.47000000000E+01 0. -1.
         -5    1    3    3    0  503  0.42880399171E+01  0.37666585386E+02 -0.15786451173E+02  0.41333533379E+02  0.47000000000E+01 0. -1.
<mgrwt>
<rscale>  0 0.13630209E+03</rscale>
<asrwt>0</asrwt>
<pdfrwt beam="2">  1        5 0.59676214E-01 0.13630306E+03</pdfrwt>
<pdfrwt beam="1">  1       -5 0.13260923E-01 0.13630306E+03</pdfrwt>
<totfact> 0.91623103E+01</totfact>
</mgrwt>
</event>
<event>
 8    1  0.3682083E-007  0.1723151E+03  0.7546771E-02  0.1175459E+00
         -5   -1    0    0    0  501 -0.00000000000E+00  0.00000000000E+00  0.88813777503E+03  0.88815021108E+03  0.47000000000E+01 0.  1.
          5   -1    0    0  501    0  0.00000000000E+00 -0.00000000000E+00 -0.34412523904E+02  0.34731999676E+02  0.47000000000E+01 0.  1.
         25    2    1    2    0    0  0.24061121274E+01 -0.11856174119E+03  0.51124902736E+03  0.53950724142E+03  0.12501927739E+03 0.  0.
         25    2    1    2    0    0 -0.24061121274E+01  0.11856174119E+03  0.34247622377E+03  0.38337496934E+03  0.12499490957E+03 0.  0.
          5    1    4    4  502    0  0.17507087489E+02 -0.19125070257E+02  0.10361778599E+03  0.10691586411E+03  0.47000000000E+01 0.  1.
         -5    1    4    4    0  502 -0.19913199616E+02  0.13768681145E+03  0.23885843778E+03  0.27645910523E+03  0.47000000000E+01 0.  1.
          5    1    3    3  503    0  0.57246366882E+02 -0.93332647423E+02  0.28649290358E+03  0.30673833050E+03  0.47000000000E+01 0.  1.
         -5    1    3    3    0  503 -0.54840254755E+02 -0.25229093765E+02  0.22475612378E+03  0.23276891092E+03  0.47000000000E+01 0.  1.
<mgrwt>
<rscale>  0 0.17231069E+03</rscale>
<asrwt>0</asrwt>
<pdfrwt beam="2">  1        5 0.53197666E-02 0.17231511E+03</pdfrwt>
<pdfrwt beam="1">  1       -5 0.13666210E+00 0.17231511E+03</pdfrwt>
<totfact> 0.65493895E+01</totfact>
</mgrwt>
</event>
<event>
 8    1  0.3682083E-007  0.1755424E+03  0.7546771E-02  0.1172193E+00
         -5   -1    0    0    0  501 -0.00000000000E+00  0.00000000000E+00  0.24109096286E+03  0.24113677110E+03  0.47000000000E+01 0. -1.
          5   -1    0    0  501    0  0.00000000000E+00 -0.00000000000E+00 -0.17255366703E+03  0.17261766423E+03  0.47000000000E+01 0. -1.
         25    2    1    2    0    0  0.12026383500E+03 -0.26851774454E+02  0.13970826014E+03  0.22435139222E+03  0.12502296364E+03 0.  0.
         25    2    1    2    0    0 -0.12026383500E+03  0.26851774454E+02 -0.71170964307E+02  0.18940304311E+03  0.12499519502E+03 0.  0.
          5    1    3    3  502    0  0.64143526989E+02 -0.73152036010E+02  0.52396709375E+02  0.11060342481E+03  0.47000000000E+01 0. -1.
         -5    1    3    3    0  502  0.56120308014E+02  0.46300261556E+02  0.87311550767E+02  0.11374796741E+03  0.47000000000E+01 0. -1.
          5    1    4    4  503    0 -0.20908050734E+02  0.14501475213E+02 -0.84423690913E+02  0.88299994089E+02  0.47000000000E+01 0.  1.
         -5    1    4    4    0  503 -0.99355784269E+02  0.12350299241E+02  0.13252726606E+02  0.10110304902E+03  0.47000000000E+01 0.  1.
<mgrwt>
<rscale>  0 0.17553750E+03</rscale>
<asrwt>0</asrwt>
<pdfrwt beam="2">  1        5 0.26555165E-01 0.17554244E+03</pdfrwt>
<pdfrwt beam="1">  1       -5 0.37099364E-01 0.17554244E+03</pdfrwt>
<totfact> 0.74026584E+01</totfact>
</mgrwt>
</event>
<event>
 8    1  0.3682083E-007  0.1430757E+03  0.7546771E-02  0.1209251E+00
          5   -1    0    0  501    0  0.00000000000E+00  0.00000000000E+00  0.27054673752E+02  0.27459886596E+02  0.47000000000E+01 0. -1.
         -5   -1    0    0    0  501 -0.00000000000E+00 -0.00000000000E+00 -0.78726442969E+03  0.78727845916E+03  0.47000000000E+01 0. -1.
         25    2    1    2    0    0  0.62844976079E+02 -0.29963194357E+02 -0.46803624914E+03  0.48941656723E+03  0.12499344676E+03 0.  0.
         25    2    1    2    0    0 -0.62844976079E+02  0.29963194357E+02 -0.29217350680E+03  0.32532177853E+03  0.12498646917E+03 0.  0.
          5    1    4    4  502    0 -0.32543785733E+02 -0.13429485002E+02 -0.26164010194E+03  0.26403992501E+03  0.47000000000E+01 0. -1.
         -5    1    4    4    0  502 -0.30301190346E+02  0.43392679359E+02 -0.30533404865E+02  0.61281853521E+02  0.47000000000E+01 0. -1.
          5    1    3    3  503    0 -0.24134121062E+02 -0.20887048827E+01 -0.18951839834E+02  0.31113995574E+02  0.47000000000E+01 0. -1.
         -5    1    3    3    0  503  0.86979097140E+02 -0.27874489475E+02 -0.44908440930E+03  0.45830257165E+03  0.47000000000E+01 0. -1.
<mgrwt>
<rscale>  0 0.14307414E+03</rscale>
<asrwt>0</asrwt>
<pdfrwt beam="1">  1        5 0.41945075E-02 0.14307566E+03</pdfrwt>
<pdfrwt beam="2">  1       -5 0.12114984E+00 0.14307566E+03</pdfrwt>
<totfact> 0.12585862E+02</totfact>
</mgrwt>
</event>
<event>
 8    1  0.3682083E-007  0.1381614E+03  0.7546771E-02  0.1215830E+00
         -5   -1    0    0    0  501 -0.00000000000E+00  0.00000000000E+00  0.71497097117E+03  0.71498641919E+03  0.47000000000E+01 0. -1.
          5   -1    0    0  501    0  0.00000000000E+00 -0.00000000000E+00 -0.28846033079E+02  0.29226419972E+02  0.47000000000E+01 0. -1.
         25    2    1    2    0    0 -0.31211316524E+02  0.49887605284E+02  0.44902209199E+03  0.46979286749E+03  0.12498631850E+03 0.  0.
         25    2    1    2    0    0  0.31211316524E+02 -0.49887605284E+02  0.23710284610E+03  0.27441997166E+03  0.12500256708E+03 0.  0.
          5    1    3    3  502    0 -0.78726674099E+02  0.42537327983E+02  0.27858382791E+03  0.29264031277E+03  0.47000000000E+01 0.  1.
         -5    1    3    3    0  502  0.47515357574E+02  0.73502773003E+01  0.17043826408E+03  0.17715255472E+03  0.47000000000E+01 0.  1.
          5    1    4    4  503    0  0.41473297299E+02 -0.63539561634E+02  0.24387992052E+03  0.25545413661E+03  0.47000000000E+01 0. -1.
         -5    1    4    4    0  503 -0.10261980775E+02  0.13651956350E+02 -0.67770744122E+01  0.18965835051E+02  0.47000000000E+01 0. -1.
<mgrwt>
<rscale>  0 0.13815768E+03</rscale>
<asrwt>0</asrwt>
<pdfrwt beam="2">  1        5 0.44683004E-02 0.13816136E+03</pdfrwt>
<pdfrwt beam="1">  1       -5 0.11002598E+00 0.13816136E+03</pdfrwt>
<totfact> 0.14291738E+02</totfact>
</mgrwt>
</event>
<event>
 8    1  0.3682083E-007  0.1253436E+03  0.7546771E-02  0.1234535E+00
          5   -1    0    0  501    0  0.00000000000E+00  0.00000000000E+00  0.56840392615E+03  0.56842335742E+03  0.47000000000E+01 0.  1.
         -5   -1    0    0    0  501 -0.00000000000E+00 -0.00000000000E+00 -0.31294665180E+02  0.31645632696E+02  0.47000000000E+01 0.  1.
         25    2    1    2    0    0  0.91266043304E+01  0.12868707177E+01  0.16364246941E+03  0.20613074752E+03  0.12500430527E+03 0.  0.
         25    2    1    2    0    0 -0.91266043304E+01 -0.12868707177E+01  0.37346679156E+03  0.39393824260E+03  0.12499977456E+03 0.  0.
          5    1    4    4  502    0 -0.10986225408E+02 -0.24670739153E+02  0.36848238755E+03  0.36950061225E+03  0.47000000000E+01 0. -1.
         -5    1    4    4    0  502  0.18596210775E+01  0.23383868436E+02  0.49844040063E+01  0.24437630345E+02  0.47000000000E+01 0. -1.
          5    1    3    3  503    0 -0.49184820291E+02  0.23046333575E+02  0.39973955866E+02  0.67603899191E+02  0.47000000000E+01 0.  1.
         -5    1    3    3    0  503  0.58311424621E+02 -0.21759462857E+02  0.12366851354E+03  0.13852684832E+03  0.47000000000E+01 0.  1.
<mgrwt>
<rscale>  0 0.12534251E+03</rscale>
<asrwt>0</asrwt>
<pdfrwt beam="1">  1        5 0.87475238E-01 0.12534364E+03</pdfrwt>
<pdfrwt beam="2">  1       -5 0.48430568E-02 0.12534364E+03</pdfrwt>
<totfact> 0.21086676E+02</totfact>
</mgrwt>
</event>
<event>
 8    1  0.3682083E-007  0.1364000E+03  0.7546771E-02  0.1218258E+00
          5   -1    0    0  501    0  0.00000000000E+00  0.00000000000E+00  0.51695027350E+02  0.51908244555E+02  0.47000000000E+01 0. -1.
         -5   -1    0    0    0  501 -0.00000000000E+00 -0.00000000000E+00 -0.38691084132E+03  0.38693938689E+03  0.47000000000E+01 0. -1.
         25    2    1    2    0    0 -0.34537877466E+02 -0.42273975253E+02 -0.22660328813E+03  0.26448693815E+03  0.12499734515E+03 0.  0.
         25    2    1    2    0    0  0.34537877466E+02  0.42273975253E+02 -0.10861252584E+03  0.17436069330E+03  0.12500006654E+03 0.  0.
          5    1    4    4  502    0  0.29908780405E+02 -0.41933925944E+02 -0.46017028274E+02  0.69228940347E+02  0.47000000000E+01 0. -1.
         -5    1    4    4    0  502  0.46290970614E+01  0.84207901198E+02 -0.62595497562E+02  0.10513175295E+03  0.47000000000E+01 0. -1.
          5    1    3    3  503    0  0.47130008555E+02 -0.21141820601E+02 -0.89358507044E+02  0.10332108723E+03  0.47000000000E+01 0.  1.
         -5    1    3    3    0  503 -0.81667886021E+02 -0.21132154652E+02 -0.13724478109E+03  0.16116585092E+03  0.47000000000E+01 0.  1.
<mgrwt>
<rscale>  0 0.13639942E+03</rscale>
<asrwt>0</asrwt>
<pdfrwt beam="1">  1        5 0.79716785E-02 0.13640004E+03</pdfrwt>
<pdfrwt beam="2">  1       -5 0.59543340E-01 0.13640004E+03</pdfrwt>
<totfact> 0.22434328E+02</totfact>
</mgrwt>
</event>
<event>
 8    1  0.3682083E-007  0.1299618E+03  0.7546771E-02  0.1227514E+00
          5   -1    0    0  501    0  0.00000000000E+00  0.00000000000E+00  0.56626940908E+03  0.56628891359E+03  0.47000000000E+01 0. -1.
         -5   -1    0    0    0  501 -0.00000000000E+00 -0.00000000000E+00 -0.32183198986E+02  0.32524579890E+02  0.47000000000E+01 0. -1.
         25    2    1    2    0    0  0.34475625501E+02 -0.88207677663E+01  0.18304644468E+03  0.22448879289E+03  0.12499136980E+03 0.  0.
         25    2    1    2    0    0 -0.34475625501E+02  0.88207677663E+01  0.35103976541E+03  0.37432470059E+03  0.12499475940E+03 0.  0.
          5    1    3    3  502    0 -0.44228926023E-01 -0.30008789026E+02  0.18113966748E+03  0.18366871947E+03  0.47000000000E+01 0. -1.
         -5    1    3    3    0  502  0.34519854427E+02  0.21188021259E+02  0.19067771948E+01  0.40820073418E+02  0.47000000000E+01 0. -1.
          5    1    4    4  503    0 -0.28002055489E+01 -0.37598430308E+02  0.30111974714E+02  0.48479935375E+02  0.47000000000E+01 0.  1.
         -5    1    4    4    0  503 -0.31675419952E+02  0.46419198075E+02  0.32092779070E+03  0.32584476522E+03  0.47000000000E+01 0.  1.
<mgrwt>
<rscale>  0 0.12996097E+03</rscale>
<asrwt>0</asrwt>
<pdfrwt beam="1">  1        5 0.87146138E-01 0.12996178E+03</pdfrwt>
<pdfrwt beam="2">  1       -5 0.49790214E-02 0.12996178E+03</pdfrwt>
<totfact> 0.20582518E+02</totfact>
</mgrwt>
</event>
<event>
 8    1  0.3682083E-007  0.1532153E+03  0.7546771E-02  0.1196589E+00
          5   -1    0    0  501    0  0.00000000000E+00  0.00000000000E+00  0.35172834374E+03  0.35175974441E+03  0.47000000000E+01 0. -1.
         -5   -1    0    0    0  501 -0.00000000000E+00 -0.00000000000E+00 -0.80433788525E+02  0.80570989423E+02  0.47000000000E+01 0. -1.
         25    2    1    2    0    0 -0.28477242560E+02 -0.83888478524E+02  0.46139850751E+02  0.16001190744E+03  0.12500677791E+03 0.  0.
         25    2    1    2    0    0  0.28477242560E+02  0.83888478524E+02  0.22515470446E+03  0.27231882639E+03  0.12495868155E+03 0.  0.
          5    1    4    4  502    0 -0.46869439026E+02  0.15245541385E+02  0.55768813039E+02  0.74574937844E+02  0.47000000000E+01 0.  1.
         -5    1    4    4    0  502  0.75346681586E+02  0.68642937140E+02  0.16938589142E+03  0.19774388855E+03  0.47000000000E+01 0.  1.
          5    1    3    3  503    0  0.30323061943E+02 -0.88415711440E+02  0.34306541536E+02  0.99678758556E+02  0.47000000000E+01 0.  1.
         -5    1    3    3    0  503 -0.58800304503E+02  0.45272329158E+01  0.11833309216E+02  0.60333148886E+02  0.47000000000E+01 0.  1.
<mgrwt>
<rscale>  0 0.15320548E+03</rscale>
<asrwt>0</asrwt>
<pdfrwt beam="1">  1        5 0.54125022E-01 0.15321529E+03</pdfrwt>
<pdfrwt beam="2">  1       -5 0.12387398E-01 0.15321529E+03</pdfrwt>
<totfact> 0.13275538E+02</totfact>
</mgrwt>
</event>
<event>
 8    1  0.3682083E-007  0.1715095E+03  0.7546771E-02  0.1176295E+00
          5   -1    0    0  501    0  0.00000000000E+00  0.00000000000E+00  0.43649044581E+02  0.43901356389E+02  0.47000000000E+01 0. -1.
         -5   -1    0    0    0  501 -0.00000000000E+00 -0.00000000000E+00 -0.69061296377E+03  0.69062895662E+03  0.47000000000E+01 0. -1.
         25    2    1    2    0    0  0.88997580089E+02  0.76562944088E+02 -0.38458076208E+03  0.42109130263E+03  0.12503227150E+03 0.  0.
         25    2    1    2    0    0 -0.88997580089E+02 -0.76562944088E+02 -0.26238315710E+03  0.31343901038E+03  0.12496654923E+03 0.  0.
          5    1    3    3  502    0  0.62373279453E+02 -0.23678844338E+02 -0.13118410501E+03  0.14724969632E+03  0.47000000000E+01 0.  1.
         -5    1    3    3    0  502  0.26624300636E+02  0.10024178843E+03 -0.25339665707E+03  0.27384160631E+03  0.47000000000E+01 0.  1.
          5    1    4    4  503    0  0.27521572034E+02 -0.14480978252E+02 -0.19656227946E+02  0.37088986983E+02  0.47000000000E+01 0.  1.
         -5    1    4    4    0  503 -0.11651915212E+03 -0.62081965836E+02 -0.24272692916E+03  0.27635002340E+03  0.47000000000E+01 0.  1.
<mgrwt>
<rscale>  0 0.17149756E+03</rscale>
<asrwt>0</asrwt>
<pdfrwt beam="1">  1        5 0.67358770E-02 0.17150954E+03</pdfrwt>
<pdfrwt beam="2">  1       -5 0.10626878E+00 0.17150954E+03</pdfrwt>
<totfact> 0.83716360E+01</totfact>
</mgrwt>
</event>
<event>
 8    1  0.3682083E-007  0.1407834E+03  0.7546771E-02  0.1212280E+00
         -5   -1    0    0    0  501 -0.00000000000E+00  0.00000000000E+00  0.49962317311E+03  0.49964527928E+03  0.47000000000E+01 0.  1.
          5   -1    0    0  501    0  0.00000000000E+00 -0.00000000000E+00 -0.48784828688E+02  0.49010708117E+02  0.47000000000E+01 0.  1.
         25    2    1    2    0    0  0.15357984932E+02  0.62909732380E+02  0.34471962631E+03  0.37235949747E+03  0.12500588970E+03 0.  0.
         25    2    1    2    0    0 -0.15357984932E+02 -0.62909732380E+02  0.10611871811E+03  0.17629648993E+03  0.12500307156E+03 0.  0.
          5    1    3    3  502    0  0.65543695546E+01 -0.24179850829E+02  0.11792136602E+02  0.28085039292E+02  0.47000000000E+01 0.  1.
         -5    1    3    3    0  502  0.88036153769E+01  0.87089583210E+02  0.33292748971E+03  0.34427445817E+03  0.47000000000E+01 0.  1.
          5    1    4    4  503    0 -0.40914796085E+02  0.14361675778E+02  0.14698146776E+01  0.43640905411E+02  0.47000000000E+01 0.  1.
         -5    1    4    4    0  503  0.25556811154E+02 -0.77271408158E+02  0.10464890343E+03  0.13265558452E+03  0.47000000000E+01 0.  1.
<mgrwt>
<rscale>  0 0.14078281E+03</rscale>
<asrwt>0</asrwt>
<pdfrwt beam="2">  1        5 0.75244341E-02 0.14078343E+03</pdfrwt>
<pdfrwt beam="1">  1       -5 0.76884179E-01 0.14078343E+03</pdfrwt>
<totfact> 0.14119254E+02</totfact>
</mgrwt>
</event>
<event>
 8    1  0.3682083E-007  0.1265767E+03  0.7546771E-02  0.1232629E+00
         -5   -1    0    0    0  501 -0.00000000000E+00  0.00000000000E+00  0.33564083964E+02  0.33891558423E+02  0.47000000000E+01 0. -1.
          5   -1    0    0  501    0  0.00000000000E+00 -0.00000000000E+00 -0.52760711820E+03  0.52762805193E+03  0.47000000000E+01 0. -1.
         25    2    1    2    0    0  0.19694533220E+02 -0.28968371091E+01 -0.33593006498E+03  0.35898226942E+03  0.12499197933E+03 0.  0.
         25    2    1    2    0    0 -0.19694533220E+02  0.28968371091E+01 -0.15811296926E+03  0.20253734093E+03  0.12500158847E+03 0.  0.
          5    1    3    3  502    0  0.15843623674E+02  0.10318896486E+02 -0.34247731047E+03  0.34303104557E+03  0.47000000000E+01 0.  1.
         -5    1    3    3    0  502  0.38509095461E+01 -0.13215733595E+02  0.65472454926E+01  0.15951223851E+02  0.47000000000E+01 0.  1.
          5    1    4    4  503    0  0.10386810158E+02 -0.51657262281E+02 -0.11513684726E+03  0.12670809827E+03  0.47000000000E+01 0.  1.
         -5    1    4    4    0  503 -0.30081343377E+02  0.54554099390E+02 -0.42976122005E+02  0.75829242659E+02  0.47000000000E+01 0.  1.
<mgrwt>
<rscale>  0 0.12657434E+03</rscale>
<asrwt>0</asrwt>
<pdfrwt beam="2">  1        5 0.81197121E-01 0.12657671E+03</pdfrwt>
<pdfrwt beam="1">  1       -5 0.51905062E-02 0.12657671E+03</pdfrwt>
<totfact> 0.22443986E+02</totfact>
</mgrwt>
</event>
<event>
 8    1  0.3682083E-007  0.1590020E+03  0.7546771E-02  0.1189830E+00
          5   -1    0    0  501    0  0.00000000000E+00  0.00000000000E+00  0.96152959456E+01  0.10702519148E+02  0.47000000000E+01 0.  1.
         -5   -1    0    0    0  501 -0.00000000000E+00 -0.00000000000E+00 -0.27097904822E+04  0.27097945582E+04  0.47000000000E+01 0.  1.
         25    2    1    2    0    0  0.97222538323E+02  0.14281819310E+02 -0.17396400649E+04  0.17468907179E+04  0.12499373034E+03 0.  0.
         25    2    1    2    0    0 -0.97222538323E+02 -0.14281819310E+02 -0.96053512137E+03  0.97360635941E+03  0.12500172545E+03 0.  0.
          5    1    3    3  502    0  0.94691240063E+02  0.43474118260E+00 -0.17182101162E+04  0.17208238473E+04  0.47000000000E+01 0.  1.
         -5    1    3    3    0  502  0.25312982602E+01  0.13847078128E+02 -0.21429948675E+02  0.26066870617E+02  0.47000000000E+01 0.  1.
          5    1    4    4  503    0 -0.66575690325E+02  0.17235063099E+02 -0.19552472177E+03  0.20731950407E+03  0.47000000000E+01 0.  1.
         -5    1    4    4    0  503 -0.30646847998E+02 -0.31516882409E+02 -0.76501039960E+03  0.76628685534E+03  0.47000000000E+01 0.  1.
<mgrwt>
<rscale>  0 0.15900039E+03</rscale>
<asrwt>0</asrwt>
<pdfrwt beam="1">  1        5 0.15632245E-02 0.15900196E+03</pdfrwt>
<pdfrwt beam="2">  1       -5 0.41697421E+00 0.15900196E+03</pdfrwt>
<totfact> 0.58251100E+00</totfact>
</mgrwt>
</event>
<event>
 8    1  0.3682083E-007  0.1965860E+03  0.7546771E-02  0.1152653E+00
         -5   -1    0    0    0  501 -0.00000000000E+00  0.00000000000E+00  0.39486359028E+03  0.39489156097E+03  0.47000000000E+01 0.  1.
          5   -1    0    0  501    0  0.00000000000E+00 -0.00000000000E+00 -0.11114543578E+03  0.11124476570E+03  0.47000000000E+01 0.  1.
         25    2    1    2    0    0  0.63117360449E+02 -0.13796609222E+03  0.22955691146E+03  0.30222579563E+03  0.12500244860E+03 0.  0.
         25    2    1    2    0    0 -0.63117360449E+02  0.13796609222E+03  0.54161243037E+02  0.20391053104E+03  0.12501048208E+03 0.  0.
          5    1    4    4  502    0 -0.28586014861E+02  0.74849424159E+02  0.92325254276E+02  0.12233412901E+03  0.47000000000E+01 0.  1.
         -5    1    4    4    0  502 -0.34531345589E+02  0.63116668057E+02 -0.38164011239E+02  0.81576402033E+02  0.47000000000E+01 0.  1.
          5    1    3    3  503    0  0.67997795402E+02 -0.13422733979E+03  0.24350072151E+03  0.28627848383E+03  0.47000000000E+01 0. -1.
         -5    1    3    3    0  503 -0.48804349527E+01 -0.37387524268E+01 -0.13943810051E+02  0.15947311804E+02  0.47000000000E+01 0. -1.
<mgrwt>
<rscale>  0 0.19658475E+03</rscale>
<asrwt>0</asrwt>
<pdfrwt beam="2">  1        5 0.17109090E-01 0.19658602E+03</pdfrwt>
<pdfrwt beam="1">  1       -5 0.60758037E-01 0.19658602E+03</pdfrwt>
<totfact> 0.61793772E+01</totfact>
</mgrwt>
</event>
<event>
 8    1  0.3682083E-007  0.1417510E+03  0.7546771E-02  0.1210998E+00
          5   -1    0    0  501    0  0.00000000000E+00  0.00000000000E+00  0.33412090372E+02  0.33741040040E+02  0.47000000000E+01 0. -1.
         -5   -1    0    0    0  501 -0.00000000000E+00 -0.00000000000E+00 -0.67290222342E+03  0.67291863720E+03  0.47000000000E+01 0. -1.
         25    2    1    2    0    0 -0.86698913539E+01 -0.66246645621E+02 -0.43759615225E+03  0.45998231046E+03  0.12501819226E+03 0.  0.
         25    2    1    2    0    0  0.86698913539E+01  0.66246645621E+02 -0.20189398080E+03  0.24667736678E+03  0.12499903490E+03 0.  0.
          5    1    4    4  502    0 -0.31226429284E+02  0.74227729974E+02 -0.18601010299E+03  0.20274785868E+03  0.47000000000E+01 0.  1.
         -5    1    4    4    0  502  0.39896320638E+02 -0.79810843528E+01 -0.15883877808E+02  0.43929508103E+02  0.47000000000E+01 0.  1.
          5    1    3    3  503    0 -0.20800355824E+02  0.33447117936E+02 -0.15644837436E+03  0.16139872472E+03  0.47000000000E+01 0.  1.
         -5    1    3    3    0  503  0.12130464470E+02 -0.99693763557E+02 -0.28114777789E+03  0.29858358574E+03  0.47000000000E+01 0.  1.
<mgrwt>
<rscale>  0 0.14174673E+03</rscale>
<asrwt>0</asrwt>
<pdfrwt beam="1">  1        5 0.51668885E-02 0.14175096E+03</pdfrwt>
<pdfrwt beam="2">  1       -5 0.10354998E+00 0.14175096E+03</pdfrwt>
<totfact> 0.13160493E+02</totfact>
</mgrwt>
</event>
<event>
 8    1  0.3682083E-007  0.1318815E+03  0.7546771E-02  0.1224690E+00
         -5   -1    0    0    0  501 -0.00000000000E+00  0.00000000000E+00  0.25305031988E+03  0.25309396356E+03  0.47000000000E+01 0. -1.
          5   -1    0    0  501    0  0.00000000000E+00 -0.00000000000E+00 -0.84546299631E+02  0.84676837337E+02  0.47000000000E+01 0. -1.
         25    2    1    2    0    0  0.10612200521E+02 -0.40674701506E+02  0.15751069757E+03  0.20543212459E+03  0.12500275126E+03 0.  0.
         25    2    1    2    0    0 -0.10612200521E+02  0.40674701506E+02  0.10993322677E+02  0.13233867631E+03  0.12500248782E+03 0.  0.
          5    1    3    3  502    0 -0.47732006208E+02 -0.17260719948E+02  0.21119701400E+02  0.55176160224E+02  0.47000000000E+01 0.  1.
         -5    1    3    3    0  502  0.58344206729E+02 -0.23413981558E+02  0.13639099617E+03  0.15025596437E+03  0.47000000000E+01 0.  1.
          5    1    4    4  503    0  0.32207283259E+02  0.61261863893E+02 -0.23714228597E+02  0.73312889047E+02  0.47000000000E+01 0. -1.
         -5    1    4    4    0  503 -0.42819483780E+02 -0.20587162386E+02  0.34707551274E+02  0.59025787261E+02  0.47000000000E+01 0. -1.
<mgrwt>
<rscale>  0 0.13188147E+03</rscale>
<asrwt>0</asrwt>
<pdfrwt beam="2">  1        5 0.13020522E-01 0.13188153E+03</pdfrwt>
<pdfrwt beam="1">  1       -5 0.38944217E-01 0.13188153E+03</pdfrwt>
<totfact> 0.23015676E+02</totfact>
</mgrwt>
</event>
<event>
 8    1  0.3682083E-007  0.1507414E+03  0.7546771E-02  0.1199569E+00
         -5   -1    0    0    0  501 -0.00000000000E+00  0.00000000000E+00  0.37983960414E+03  0.37986868109E+03  0.47000000000E+01 0. -1.
          5   -1    0    0  501    0  0.00000000000E+00 -0.00000000000E+00 -0.65304370369E+02  0.65473283019E+02  0.47000000000E+01 0. -1.
         25    2    1    2    0    0 -0.22327140831E+02  0.81224311032E+02  0.22242977683E+03  0.26868868549E+03  0.12499085634E+03 0.  0.
         25    2    1    2    0    0  0.22327140831E+02 -0.81224311032E+02  0.92105456941E+02  0.17665327862E+03  0.12500830264E+03 0.  0.
          5    1    3    3  502    0  0.41660836608E+02  0.49673822465E+02  0.16379801281E+03  0.17622426889E+03  0.47000000000E+01 0. -1.
         -5    1    3    3    0  502 -0.63987977439E+02  0.31550488567E+02  0.58631764029E+02  0.92464416608E+02  0.47000000000E+01 0. -1.
          5    1    4    4  503    0 -0.44428020675E+02 -0.19904746944E+02  0.22927258345E+01  0.48963196012E+02  0.47000000000E+01 0. -1.
         -5    1    4    4    0  503  0.66755161505E+02 -0.61319564088E+02  0.89812731107E+02  0.12769008261E+03  0.47000000000E+01 0. -1.
<mgrwt>
<rscale>  0 0.15073777E+03</rscale>
<asrwt>0</asrwt>
<pdfrwt beam="2">  1        5 0.10062056E-01 0.15074139E+03</pdfrwt>
<pdfrwt beam="1">  1       -5 0.58452093E-01 0.15074139E+03</pdfrwt>
<totfact> 0.16132945E+02</totfact>
</mgrwt>
</event>
<event>
 8    1  0.3682083E-007  0.1424043E+03  0.7546771E-02  0.1210132E+00
         -5   -1    0    0    0  501 -0.00000000000E+00  0.00000000000E+00  0.19562560863E+03  0.19568206037E+03  0.47000000000E+01 0. -1.
          5   -1    0    0  501    0  0.00000000000E+00 -0.00000000000E+00 -0.10508562429E+03  0.10519067655E+03  0.47000000000E+01 0. -1.
         25    2    1    2    0    0  0.36041608383E+02  0.57921197329E+02  0.63538649942E+02  0.15593121746E+03  0.12499408748E+03 0.  0.
         25    2    1    2    0    0 -0.36041608383E+02 -0.57921197329E+02  0.27001334399E+02  0.14494151946E+03  0.12500043748E+03 0.  0.
          5    1    4    4  502    0 -0.70508432028E+02  0.18203758815E+01 -0.98767085595E-01  0.70688418502E+02  0.47000000000E+01 0.  1.
         -5    1    4    4    0  502  0.34466823644E+02 -0.59741573211E+02  0.27100101485E+02  0.74253100961E+02  0.47000000000E+01 0.  1.
          5    1    3    3  503    0  0.60676902221E+02  0.85259872428E+02  0.52810804266E+02  0.11731156532E+03  0.47000000000E+01 0.  1.
         -5    1    3    3    0  503 -0.24635293838E+02 -0.27338675099E+02  0.10727845677E+02  0.38619652141E+02  0.47000000000E+01 0.  1.
<mgrwt>
<rscale>  0 0.14240286E+03</rscale>
<asrwt>0</asrwt>
<pdfrwt beam="2">  1        5 0.16179443E-01 0.14240426E+03</pdfrwt>
<pdfrwt beam="1">  1       -5 0.30108671E-01 0.14240426E+03</pdfrwt>
<totfact> 0.26699395E+02</totfact>
</mgrwt>
</event>
<event>
 8    1  0.3682083E-007  0.1434921E+03  0.7546771E-02  0.1208706E+00
         -5   -1    0    0    0  501 -0.00000000000E+00  0.00000000000E+00  0.10354960161E+02  0.11371684129E+02  0.47000000000E+01 0. -1.
          5   -1    0    0  501    0  0.00000000000E+00 -0.00000000000E+00 -0.25156198997E+04  0.25156242902E+04  0.47000000000E+01 0. -1.
         25    2    1    2    0    0  0.18760774731E+02 -0.67918493754E+02 -0.62485354275E+03  0.64111766472E+03  0.12500008666E+03 0.  0.
         25    2    1    2    0    0 -0.18760774731E+02  0.67918493754E+02 -0.18804113968E+04  0.18858783096E+04  0.12500035704E+03 0.  0.
          5    1    4    4  502    0  0.68547909358E+01  0.40276742364E+02 -0.17381040048E+04  0.17385904709E+04  0.47000000000E+01 0. -1.
         -5    1    4    4    0  502 -0.25615565666E+02  0.27641751390E+02 -0.14230739196E+03  0.14728783870E+03  0.47000000000E+01 0. -1.
          5    1    3    3  503    0  0.40369335158E+02 -0.94359613606E+02 -0.53707908212E+03  0.54681756588E+03  0.47000000000E+01 0.  1.
         -5    1    3    3    0  503 -0.21608560427E+02  0.26441119852E+02 -0.87774460630E+02  0.94300098842E+02  0.47000000000E+01 0.  1.
<mgrwt>
<rscale>  0 0.14349202E+03</rscale>
<asrwt>0</asrwt>
<pdfrwt beam="2">  1        5 0.38709653E+00 0.14349208E+03</pdfrwt>
<pdfrwt beam="1">  1       -5 0.16716201E-02 0.14349208E+03</pdfrwt>
<totfact> 0.83487852E+00</totfact>
</mgrwt>
</event>
<event>
 8    1  0.3682083E-007  0.1269367E+03  0.7546771E-02  0.1232077E+00
         -5   -1    0    0    0  501 -0.00000000000E+00  0.00000000000E+00  0.39990792831E+03  0.39993554622E+03  0.47000000000E+01 0. -1.
          5   -1    0    0  501    0  0.00000000000E+00 -0.00000000000E+00 -0.40834557381E+02  0.41104149140E+02  0.47000000000E+01 0. -1.
         25    2    1    2    0    0  0.11733934131E+02  0.18640989091E+02  0.20854887133E+03  0.24413733179E+03  0.12500093341E+03 0.  0.
         25    2    1    2    0    0 -0.11733934131E+02 -0.18640989091E+02  0.15052449960E+03  0.19690236357E+03  0.12501097598E+03 0.  0.
          5    1    3    3  502    0  0.17196048522E+02 -0.52112878528E+02  0.78209134610E+02  0.95656755798E+02  0.47000000000E+01 0.  1.
         -5    1    3    3    0  502 -0.54621143912E+01  0.70753867619E+02  0.13033973672E+03  0.14848057599E+03  0.47000000000E+01 0.  1.
          5    1    4    4  503    0  0.21801846199E+02  0.20802274737E+02  0.14073664443E+03  0.14400329238E+03  0.47000000000E+01 0.  1.
         -5    1    4    4    0  503 -0.33535780331E+02 -0.39443263829E+02  0.97878551702E+01  0.52899071189E+02  0.47000000000E+01 0.  1.
<mgrwt>
<rscale>  0 0.12693419E+03</rscale>
<asrwt>0</asrwt>
<pdfrwt beam="2">  1        5 0.63051019E-02 0.12693666E+03</pdfrwt>
<pdfrwt beam="1">  1       -5 0.61547158E-01 0.12693666E+03</pdfrwt>
<totfact> 0.30300665E+02</totfact>
</mgrwt>
</event>
<event>
 8    1  0.3682083E-007  0.1932069E+03  0.7546771E-02  0.1155608E+00
          5   -1    0    0  501    0  0.00000000000E+00  0.00000000000E+00  0.28797064510E+02  0.29178089800E+02  0.47000000000E+01 0.  1.
         -5   -1    0    0    0  501 -0.00000000000E+00 -0.00000000000E+00 -0.12872968379E+04  0.12873054179E+04  0.47000000000E+01 0.  1.
         25    2    1    2    0    0  0.12647235927E+03 -0.75468061245E+02 -0.63625532815E+03  0.66493378132E+03  0.12500162001E+03 0.  0.
         25    2    1    2    0    0 -0.12647235927E+03  0.75468061245E+02 -0.62224444529E+03  0.65154972640E+03  0.12505283024E+03 0.  0.
          5    1    4    4  502    0 -0.20525982636E+01 -0.17293213049E+02 -0.21429127386E+03  0.21504908377E+03  0.47000000000E+01 0. -1.
         -5    1    4    4    0  502 -0.12441976101E+03  0.92761274294E+02 -0.40795317142E+03  0.43650064263E+03  0.47000000000E+01 0. -1.
          5    1    3    3  503    0  0.26881539477E+02  0.85693446680E-01 -0.36727206340E+03  0.36828451375E+03  0.47000000000E+01 0. -1.
         -5    1    3    3    0  503  0.99590819796E+02 -0.75553754692E+02 -0.26898326475E+03  0.29664926757E+03  0.47000000000E+01 0. -1.
<mgrwt>
<rscale>  0 0.19319859E+03</rscale>
<asrwt>0</asrwt>
<pdfrwt beam="1">  1        5 0.44602882E-02 0.19320687E+03</pdfrwt>
<pdfrwt beam="2">  1       -5 0.19807559E+00 0.19320687E+03</pdfrwt>
<totfact> 0.31201948E+01</totfact>
</mgrwt>
</event>
<event>
 8    1  0.3682083E-007  0.1576206E+03  0.7546771E-02  0.1191411E+00
          5   -1    0    0  501    0  0.00000000000E+00  0.00000000000E+00  0.13687198863E+03  0.13695266070E+03  0.47000000000E+01 0.  1.
         -5   -1    0    0    0  501 -0.00000000000E+00 -0.00000000000E+00 -0.30607925117E+03  0.30611533447E+03  0.47000000000E+01 0.  1.
         25    2    1    2    0    0  0.54162367653E+02  0.79286245363E+02 -0.22599626683E+03  0.27553324353E+03  0.12499753957E+03 0.  0.
         25    2    1    2    0    0 -0.54162367653E+02 -0.79286245363E+02  0.56789004285E+02  0.16753475164E+03  0.12499212465E+03 0.  0.
          5    1    3    3  502    0  0.83360895267E+02  0.73034179056E+02 -0.11215133183E+03  0.15774359385E+03  0.47000000000E+01 0.  1.
         -5    1    3    3    0  502 -0.29198527614E+02  0.62520663074E+01 -0.11384493500E+03  0.11778964968E+03  0.47000000000E+01 0.  1.
          5    1    4    4  503    0 -0.11341754182E+02 -0.24099184954E+00  0.74739186199E+02  0.75741200273E+02  0.47000000000E+01 0.  1.
         -5    1    4    4    0  503 -0.42820613471E+02 -0.79045253514E+02 -0.17950181915E+02  0.91793551363E+02  0.47000000000E+01 0.  1.
<mgrwt>
<rscale>  0 0.15761953E+03</rscale>
<asrwt>0</asrwt>
<pdfrwt beam="1">  1        5 0.21066210E-01 0.15762061E+03</pdfrwt>
<pdfrwt beam="2">  1       -5 0.47098097E-01 0.15762061E+03</pdfrwt>
<totfact> 0.68179893E+01</totfact>
</mgrwt>
</event>
<event>
 8    1  0.3682083E-007  0.1290592E+03  0.7546771E-02  0.1228877E+00
         -5   -1    0    0    0  501 -0.00000000000E+00  0.00000000000E+00  0.15355410823E+03  0.15362602044E+03  0.47000000000E+01 0.  1.
          5   -1    0    0  501    0  0.00000000000E+00 -0.00000000000E+00 -0.11188082818E+03  0.11197950578E+03  0.47000000000E+01 0.  1.
         25    2    1    2    0    0  0.29645427435E+02 -0.12352596371E+02  0.44644225438E+02  0.13656273005E+03  0.12499933747E+03 0.  0.
         25    2    1    2    0    0 -0.29645427435E+02  0.12352596371E+02 -0.29709453860E+01  0.12904279617E+03  0.12494710369E+03 0.  0.
          5    1    4    4  502    0  0.71298243834E+01  0.53765912215E+02  0.32215656783E+02  0.63257776233E+02  0.47000000000E+01 0. -1.
         -5    1    4    4    0  502 -0.36775251818E+02 -0.41413315844E+02 -0.35186602169E+02  0.65785019934E+02  0.47000000000E+01 0. -1.
          5    1    3    3  503    0  0.73063210007E+01 -0.66959516536E+02  0.36686505610E+02  0.76843665159E+02  0.47000000000E+01 0. -1.
         -5    1    3    3    0  503  0.22339106434E+02  0.54606920165E+02  0.79577198286E+01  0.59719064888E+02  0.47000000000E+01 0. -1.
<mgrwt>
<rscale>  0 0.12904653E+03</rscale>
<asrwt>0</asrwt>
<pdfrwt beam="2">  1        5 0.17225557E-01 0.12905918E+03</pdfrwt>
<pdfrwt beam="1">  1       -5 0.23636831E-01 0.12905918E+03</pdfrwt>
<totfact> 0.36714566E+02</totfact>
</mgrwt>
</event>
<event>
 8    1  0.3682083E-007  0.1302441E+03  0.7546771E-02  0.1227096E+00
          5   -1    0    0  501    0  0.00000000000E+00  0.00000000000E+00  0.20540644192E+04  0.20540697963E+04  0.47000000000E+01 0. -1.
         -5   -1    0    0    0  501 -0.00000000000E+00 -0.00000000000E+00 -0.76043199400E+01  0.89395571339E+01  0.47000000000E+01 0. -1.
         25    2    1    2    0    0  0.17738601932E+02  0.31978004335E+02  0.97364966528E+03  0.98232172700E+03  0.12500021554E+03 0.  0.
         25    2    1    2    0    0 -0.17738601932E+02 -0.31978004335E+02  0.10728104340E+04  0.10806876265E+04  0.12500507182E+03 0.  0.
          5    1    3    3  502    0 -0.85652802470E+01 -0.72913527259E+00  0.23120300698E+01  0.10066337318E+02  0.47000000000E+01 0.  1.
         -5    1    3    3    0  502  0.26303882179E+02  0.32707139607E+02  0.97133763521E+03  0.97225538968E+03  0.47000000000E+01 0.  1.
          5    1    4    4  503    0  0.47717900830E+02 -0.22019061940E+02  0.70224667894E+03  0.70422604697E+03  0.47000000000E+01 0.  1.
         -5    1    4    4    0  503 -0.65456502762E+02 -0.99589423950E+01  0.37056375503E+03  0.37646157948E+03  0.47000000000E+01 0.  1.
<mgrwt>
<rscale>  0 0.13024291E+03</rscale>
<asrwt>0</asrwt>
<pdfrwt beam="1">  1        5 0.31611299E+00 0.13024407E+03</pdfrwt>
<pdfrwt beam="2">  1       -5 0.12730197E-02 0.13024407E+03</pdfrwt>
<totfact> 0.36847510E+01</totfact>
</mgrwt>
</event>
<event>
 8    1  0.3682083E-007  0.1312751E+03  0.7546771E-02  0.1225578E+00
          5   -1    0    0  501    0  0.00000000000E+00  0.00000000000E+00  0.35531367110E+02  0.35840871205E+02  0.47000000000E+01 0.  1.
         -5   -1    0    0    0  501 -0.00000000000E+00 -0.00000000000E+00 -0.65812455153E+03  0.65814133385E+03  0.47000000000E+01 0.  1.
         25    2    1    2    0    0 -0.20354227362E+02 -0.34548086132E+02 -0.49047001375E+03  0.50773416709E+03  0.12500114086E+03 0.  0.
         25    2    1    2    0    0  0.20354227362E+02  0.34548086132E+02 -0.13212317067E+03  0.18624803797E+03  0.12499573830E+03 0.  0.
          5    1    3    3  502    0  0.27500349628E+02  0.13838315699E+00 -0.22007516495E+02  0.35534619203E+02  0.47000000000E+01 0. -1.
         -5    1    3    3    0  502 -0.47854576991E+02 -0.34686469289E+02 -0.46846249725E+03  0.47219954789E+03  0.47000000000E+01 0. -1.
          5    1    4    4  503    0  0.19360691302E+02  0.38103177590E+02 -0.15590565506E+03  0.16172616297E+03  0.47000000000E+01 0.  1.
         -5    1    4    4    0  503  0.99353606008E+00 -0.35550914577E+01  0.23782484394E+02  0.24521874992E+02  0.47000000000E+01 0.  1.
<mgrwt>
<rscale>  0 0.13127381E+03</rscale>
<asrwt>0</asrwt>
<pdfrwt beam="1">  1        5 0.54914636E-02 0.13127509E+03</pdfrwt>
<pdfrwt beam="2">  1       -5 0.10127502E+00 0.13127509E+03</pdfrwt>
<totfact> 0.12247366E+02</totfact>
</mgrwt>
</event>
<event>
 8    1  0.3682083E-007  0.1269580E+03  0.7546771E-02  0.1232041E+00
         -5   -1    0    0    0  501 -0.00000000000E+00  0.00000000000E+00  0.57517034453E+03  0.57518954721E+03  0.47000000000E+01 0.  1.
          5   -1    0    0  501    0  0.00000000000E+00 -0.00000000000E+00 -0.37551127941E+02  0.37844117240E+02  0.47000000000E+01 0.  1.
         25    2    1    2    0    0  0.13718838896E+02 -0.17428471780E+02  0.42420395082E+03  0.44279453425E+03  0.12500419794E+03 0.  0.
         25    2    1    2    0    0 -0.13718838896E+02  0.17428471780E+02  0.11341526576E+03  0.17023913020E+03  0.12500552297E+03 0.  0.
          5    1    3    3  502    0  0.45375473590E+02 -0.58835828276E+02  0.23758925230E+03  0.24898058378E+03  0.47000000000E+01 0.  1.
         -5    1    3    3    0  502 -0.31656634694E+02  0.41407356496E+02  0.18661469852E+03  0.19381395047E+03  0.47000000000E+01 0.  1.
          5    1    4    4  503    0 -0.46251847070E+02  0.55196119747E+02  0.88860920518E+02  0.11447356982E+03  0.47000000000E+01 0. -1.
         -5    1    4    4    0  503  0.32533008174E+02 -0.37767647967E+02  0.24554345246E+02  0.55765560378E+02  0.47000000000E+01 0. -1.
<mgrwt>
<rscale>  0 0.12695769E+03</rscale>
<asrwt>0</asrwt>
<pdfrwt beam="2">  1        5 0.58011114E-02 0.12695802E+03</pdfrwt>
<pdfrwt beam="1">  1       -5 0.88511759E-01 0.12695802E+03</pdfrwt>
<totfact> 0.15255674E+02</totfact>
</mgrwt>
</event>
<event>
 8    1  0.3682083E-007  0.1253710E+03  0.7546771E-02  0.1234491E+00
          5   -1    0    0  501    0  0.00000000000E+00  0.00000000000E+00  0.50783798699E+02  0.51000825585E+02  0.47000000000E+01 0.  1.
         -5   -1    0    0    0  501 -0.00000000000E+00 -0.00000000000E+00 -0.32248488955E+03  0.32251913740E+03  0.47000000000E+01 0.  1.
         25    2    1    2    0    0  0.62912088918E+01 -0.72259340604E+01 -0.17457889957E+03  0.21493054422E+03  0.12500221291E+03 0.  0.
         25    2    1    2    0    0 -0.62912088918E+01  0.72259340604E+01 -0.97122191287E+02  0.15858941877E+03  0.12500436101E+03 0.  0.
          5    1    3    3  502    0  0.59852368092E+02  0.91740078408E+01 -0.51525395240E+02  0.79645619721E+02  0.47000000000E+01 0.  1.
         -5    1    3    3    0  502 -0.53561159200E+02 -0.16399941901E+02 -0.12305350433E+03  0.13528492450E+03  0.47000000000E+01 0.  1.
          5    1    4    4  503    0 -0.27596400757E+02  0.39557263982E+02  0.55317306430E+01  0.48775285877E+02  0.47000000000E+01 0. -1.
         -5    1    4    4    0  503  0.21305191865E+02 -0.32331329921E+02 -0.10265392193E+03  0.10981413289E+03  0.47000000000E+01 0. -1.
<mgrwt>
<rscale>  0 0.12537045E+03</rscale>
<asrwt>0</asrwt>
<pdfrwt beam="1">  1        5 0.78322211E-02 0.12537098E+03</pdfrwt>
<pdfrwt beam="2">  1       -5 0.49632387E-01 0.12537098E+03</pdfrwt>
<totfact> 0.33181451E+02</totfact>
</mgrwt>
</event>
<event>
 8    1  0.3682083E-007  0.1739960E+03  0.7546771E-02  0.1173744E+00
          5   -1    0    0  501    0  0.00000000000E+00  0.00000000000E+00  0.87321470701E+02  0.87447865871E+02  0.47000000000E+01 0.  1.
         -5   -1    0    0    0  501 -0.00000000000E+00 -0.00000000000E+00 -0.40773324525E+03  0.40776033313E+03  0.47000000000E+01 0.  1.
         25    2    1    2    0    0 -0.63245338926E+01  0.12086833787E+03 -0.25629143710E+03  0.30977354286E+03  0.12500076919E+03 0.  0.
         25    2    1    2    0    0  0.63245338926E+01 -0.12086833787E+03 -0.64120337443E+02  0.18543465614E+03  0.12500175678E+03 0.  0.
          5    1    3    3  502    0  0.18290107911E+02 -0.21670043487E+02 -0.34006715806E+02  0.44527132762E+02  0.47000000000E+01 0.  1.
         -5    1    3    3    0  502 -0.24614641803E+02  0.14253838135E+03 -0.22228472130E+03  0.26524641010E+03  0.47000000000E+01 0.  1.
          5    1    4    4  503    0  0.21534093782E+02  0.17824838549E+02  0.63554091783E+01  0.29050357831E+02  0.47000000000E+01 0. -1.
         -5    1    4    4    0  503 -0.15209559889E+02 -0.13869317642E+03 -0.70475746621E+02  0.15638429831E+03  0.47000000000E+01 0. -1.
<mgrwt>
<rscale>  0 0.17399578E+03</rscale>
<asrwt>0</asrwt>
<pdfrwt beam="1">  1        5 0.13445879E-01 0.17399596E+03</pdfrwt>
<pdfrwt beam="2">  1       -5 0.62739997E-01 0.17399596E+03</pdfrwt>
<totfact> 0.86271161E+01</totfact>
</mgrwt>
</event>
<event>
 8    1  0.3682083E-007  0.1410878E+03  0.7546771E-02  0.1211874E+00
          5   -1    0    0  501    0  0.00000000000E+00  0.00000000000E+00  0.12038361825E+03  0.12047533168E+03  0.47000000000E+01 0.  1.
         -5   -1    0    0    0  501 -0.00000000000E+00 -0.00000000000E+00 -0.22762131425E+03  0.22766983265E+03  0.47000000000E+01 0.  1.
         25    2    1    2    0    0  0.28529434931E+02  0.58876761309E+02 -0.14477669483E+03  0.20215358133E+03  0.12500150959E+03 0.  0.
         25    2    1    2    0    0 -0.28529434931E+02 -0.58876761309E+02  0.37538998833E+02  0.14599158300E+03  0.12499585670E+03 0.  0.
          5    1    3    3  502    0 -0.36337172865E+01 -0.22980825287E+02 -0.10108949700E+03  0.10383881083E+03  0.47000000000E+01 0.  1.
         -5    1    3    3    0  502  0.32163152217E+02  0.81857586596E+02 -0.43687197838E+02  0.98314770502E+02  0.47000000000E+01 0.  1.
          5    1    4    4  503    0  0.11555971032E+02 -0.88901485897E+02  0.32341654418E+02  0.95420580965E+02  0.47000000000E+01 0.  1.
         -5    1    4    4    0  503 -0.40085405962E+02  0.30024724587E+02  0.51973444152E+01  0.50571002034E+02  0.47000000000E+01 0.  1.
<mgrwt>
<rscale>  0 0.14108659E+03</rscale>
<asrwt>0</asrwt>
<pdfrwt beam="1">  1        5 0.18531344E-01 0.14108784E+03</pdfrwt>
<pdfrwt beam="2">  1       -5 0.35029451E-01 0.14108784E+03</pdfrwt>
<totfact> 0.15358048E+02</totfact>
</mgrwt>
</event>
<event>
 8    1  0.3682083E-007  0.1273155E+03  0.7546771E-02  0.1231516E+00
          5   -1    0    0  501    0  0.00000000000E+00  0.00000000000E+00  0.22846921759E+03  0.22851755597E+03  0.47000000000E+01 0.  1.
         -5   -1    0    0    0  501 -0.00000000000E+00 -0.00000000000E+00 -0.73414413249E+02  0.73564706706E+02  0.47000000000E+01 0.  1.
         25    2    1    2    0    0  0.16783988057E+01 -0.24115156891E+02  0.48947977723E+02  0.13634787466E+03  0.12494190884E+03 0.  0.
         25    2    1    2    0    0 -0.16783988057E+01  0.24115156891E+02  0.10610682661E+03  0.16573438802E+03  0.12499948361E+03 0.  0.
          5    1    4    4  502    0 -0.25586279664E+02 -0.52968528425E+01  0.12163975538E+03  0.12450315035E+03  0.47000000000E+01 0.  1.
         -5    1    4    4    0  502  0.23907880858E+02  0.29412009734E+02 -0.15532928766E+02  0.41231237670E+02  0.47000000000E+01 0.  1.
          5    1    3    3  503    0  0.59446191724E+02  0.29976114474E+01  0.76592570639E+01  0.60196259051E+02  0.47000000000E+01 0.  1.
         -5    1    3    3    0  503 -0.57767792919E+02 -0.27112768339E+02  0.41288720659E+02  0.76151615606E+02  0.47000000000E+01 0.  1.
<mgrwt>
<rscale>  0 0.12730134E+03</rscale>
<asrwt>0</asrwt>
<pdfrwt beam="1">  1        5 0.35164390E-01 0.12731547E+03</pdfrwt>
<pdfrwt beam="2">  1       -5 0.11309805E-01 0.12731547E+03</pdfrwt>
<totfact> 0.35841861E+02</totfact>
</mgrwt>
</event>
<event>
 8    1  0.3682083E-007  0.1436066E+03  0.7546771E-02  0.1208567E+00
         -5   -1    0    0    0  501 -0.00000000000E+00  0.00000000000E+00  0.26080333941E+03  0.26084568589E+03  0.47000000000E+01 0.  1.
          5   -1    0    0  501    0  0.00000000000E+00 -0.00000000000E+00 -0.79127695240E+02  0.79267156843E+02  0.47000000000E+01 0.  1.
         25    2    1    2    0    0 -0.32501297645E+02 -0.62787535971E+02  0.82523273590E+02  0.16560200062E+03  0.12496128562E+03 0.  0.
         25    2    1    2    0    0  0.32501297645E+02  0.62787535971E+02  0.99152370582E+02  0.17451084211E+03  0.12499692957E+03 0.  0.
          5    1    3    3  502    0 -0.38731483268E+02 -0.28564662456E+02 -0.23612951819E+02  0.53811980367E+02  0.47000000000E+01 0. -1.
         -5    1    3    3    0  502  0.62301856235E+01 -0.34222873515E+02  0.10613622541E+03  0.11179002025E+03  0.47000000000E+01 0. -1.
          5    1    4    4  503    0 -0.47087070929E+02  0.16512417218E+02  0.46403257613E+02  0.68302302217E+02  0.47000000000E+01 0.  1.
         -5    1    4    4    0  503  0.79588368574E+02  0.46275118753E+02  0.52749112970E+02  0.10620853990E+03  0.47000000000E+01 0.  1.
<mgrwt>
<rscale>  0 0.14359879E+03</rscale>
<asrwt>0</asrwt>
<pdfrwt beam="2">  1        5 0.12187477E-01 0.14360655E+03</pdfrwt>
<pdfrwt beam="1">  1       -5 0.40137576E-01 0.14360655E+03</pdfrwt>
<totfact> 0.25056814E+02</totfact>
</mgrwt>
</event>
<event>
 8    1  0.3682083E-007  0.1698136E+03  0.7546771E-02  0.1178044E+00
          5   -1    0    0  501    0  0.00000000000E+00  0.00000000000E+00  0.33534849434E+03  0.33538142861E+03  0.47000000000E+01 0.  1.
         -5   -1    0    0    0  501 -0.00000000000E+00 -0.00000000000E+00 -0.86236756755E+02  0.86364739423E+02  0.47000000000E+01 0.  1.
         25    2    1    2    0    0  0.58085024429E+02 -0.99177269320E+02  0.13800011403E+03  0.21881654188E+03  0.12500658669E+03 0.  0.
         25    2    1    2    0    0 -0.58085024429E+02  0.99177269320E+02  0.11111162356E+03  0.20292962615E+03  0.12499855786E+03 0.  0.
          5    1    3    3  502    0  0.92168507187E+02 -0.41018880325E+02  0.95454050886E+02  0.13896455696E+03  0.47000000000E+01 0. -1.
         -5    1    3    3    0  502 -0.34083482758E+02 -0.58158388995E+02  0.42546063145E+02  0.79851984925E+02  0.47000000000E+01 0. -1.
          5    1    4    4  503    0 -0.93017262194E+02  0.93885160555E+02  0.99318814186E+02  0.16538727669E+03  0.47000000000E+01 0.  1.
         -5    1    4    4    0  503  0.34932237765E+02  0.52921087653E+01  0.11792809370E+02  0.37542349465E+02  0.47000000000E+01 0.  1.
<mgrwt>
<rscale>  0 0.16981209E+03</rscale>
<asrwt>0</asrwt>
<pdfrwt beam="1">  1        5 0.51604455E-01 0.16981357E+03</pdfrwt>
<pdfrwt beam="2">  1       -5 0.13279571E-01 0.16981357E+03</pdfrwt>
<totfact> 0.13403932E+02</totfact>
</mgrwt>
</event>
<event>
 8    1  0.3682083E-007  0.1394092E+03  0.7546771E-02  0.1214134E+00
          5   -1    0    0  501    0  0.00000000000E+00  0.00000000000E+00  0.18630585970E+03  0.18636513451E+03  0.47000000000E+01 0. -1.
         -5   -1    0    0    0  501 -0.00000000000E+00 -0.00000000000E+00 -0.10419745723E+03  0.10430340404E+03  0.47000000000E+01 0. -1.
         25    2    1    2    0    0  0.61726958784E+02  0.35550808149E+00  0.38761115724E+02  0.14467573508E+03  0.12497319874E+03 0.  0.
         25    2    1    2    0    0 -0.61726958784E+02 -0.35550808149E+00  0.43347286744E+02  0.14599280346E+03  0.12499827026E+03 0.  0.
          5    1    4    4  502    0  0.17952525518E+02 -0.70399936061E+01  0.60850144541E+02  0.64005349566E+02  0.47000000000E+01 0.  1.
         -5    1    4    4    0  502 -0.79679484303E+02  0.66844855246E+01 -0.17502857797E+02  0.81987453897E+02  0.47000000000E+01 0.  1.
          5    1    3    3  503    0  0.23725469893E+02 -0.42873871007E+02 -0.27817063496E+02  0.56541540112E+02  0.47000000000E+01 0. -1.
         -5    1    3    3    0  503  0.38001488892E+02  0.43229379088E+02  0.66578179221E+02  0.88134194968E+02  0.47000000000E+01 0. -1.
<mgrwt>
<rscale>  0 0.13940353E+03</rscale>
<asrwt>0</asrwt>
<pdfrwt beam="1">  1        5 0.28675149E-01 0.13940915E+03</pdfrwt>
<pdfrwt beam="2">  1       -5 0.16043087E-01 0.13940915E+03</pdfrwt>
<totfact> 0.29617370E+02</totfact>
</mgrwt>
</event>
<event>
 8    1  0.3682083E-007  0.1419382E+03  0.7546771E-02  0.1210745E+00
          5   -1    0    0  501    0  0.00000000000E+00  0.00000000000E+00  0.32918803535E+03  0.32922158590E+03  0.47000000000E+01 0.  1.
         -5   -1    0    0    0  501 -0.00000000000E+00 -0.00000000000E+00 -0.61689364855E+02  0.61868147994E+02  0.47000000000E+01 0.  1.
         25    2    1    2    0    0  0.34620631531E+02 -0.57650268396E+02  0.11423313775E+03  0.18219556341E+03  0.12499548789E+03 0.  0.
         25    2    1    2    0    0 -0.34620631531E+02  0.57650268396E+02  0.15326553275E+03  0.20889417048E+03  0.12499723740E+03 0.  0.
          5    1    3    3  502    0  0.78447720453E+02 -0.14137274499E+02  0.60176388561E+02  0.99985974590E+02  0.47000000000E+01 0. -1.
         -5    1    3    3    0  502 -0.43827088922E+02 -0.43512993897E+02  0.54056749190E+02  0.82209588822E+02  0.47000000000E+01 0. -1.
          5    1    4    4  503    0 -0.71313583803E+02  0.71612498756E+02  0.97288204452E+02  0.14036047142E+03  0.47000000000E+01 0. -1.
         -5    1    4    4    0  503  0.36692952272E+02 -0.13962230360E+02  0.55977328297E+02  0.68533699056E+02  0.47000000000E+01 0. -1.
<mgrwt>
<rscale>  0 0.14193781E+03</rscale>
<asrwt>0</asrwt>
<pdfrwt beam="1">  1        5 0.50660645E-01 0.14193819E+03</pdfrwt>
<pdfrwt beam="2">  1       -5 0.95070051E-02 0.14193819E+03</pdfrwt>
<totfact> 0.23760007E+02</totfact>
</mgrwt>
</event>
<event>
 8    1  0.3682083E-007  0.1979629E+03  0.7546771E-02  0.1151470E+00
         -5   -1    0    0    0  501 -0.00000000000E+00  0.00000000000E+00  0.15138652027E+03  0.15145946163E+03  0.47000000000E+01 0. -1.
          5   -1    0    0  501    0  0.00000000000E+00 -0.00000000000E+00 -0.26139747555E+03  0.26143972580E+03  0.47000000000E+01 0. -1.
         25    2    1    2    0    0 -0.13419546523E+03 -0.74520278600E+02 -0.34066850739E+02  0.20086893380E+03  0.12500433367E+03 0.  0.
         25    2    1    2    0    0  0.13419546523E+03  0.74520278600E+02 -0.75944104547E+02  0.21203025363E+03  0.12501050607E+03 0.  0.
          5    1    3    3  502    0 -0.71074010272E+02 -0.98046218178E+02 -0.50631465973E+02  0.13134005932E+03  0.47000000000E+01 0. -1.
         -5    1    3    3    0  502 -0.63121454956E+02  0.23525939578E+02  0.16564615234E+02  0.69528874481E+02  0.47000000000E+01 0. -1.
          5    1    4    4  503    0  0.14156326425E+03  0.56920681196E+02 -0.21510759806E+02  0.15415876401E+03  0.47000000000E+01 0.  1.
         -5    1    4    4    0  503 -0.73677990237E+01  0.17599597404E+02 -0.54433344741E+02  0.57871489621E+02  0.47000000000E+01 0.  1.
<mgrwt>
<rscale>  0 0.19796196E+03</rscale>
<asrwt>0</asrwt>
<pdfrwt beam="2">  1        5 0.40223857E-01 0.19796293E+03</pdfrwt>
<pdfrwt beam="1">  1       -5 0.23299095E-01 0.19796293E+03</pdfrwt>
<totfact> 0.83491839E+01</totfact>
</mgrwt>
</event>
<event>
 8    1  0.3682083E-007  0.1405940E+03  0.7546771E-02  0.1212547E+00
         -5   -1    0    0    0  501 -0.00000000000E+00  0.00000000000E+00  0.19619365151E+03  0.19624993986E+03  0.47000000000E+01 0. -1.
          5   -1    0    0  501    0  0.00000000000E+00 -0.00000000000E+00 -0.10167810727E+03  0.10178667643E+03  0.47000000000E+01 0. -1.
         25    2    1    2    0    0 -0.20152312536E+02  0.61102744171E+02  0.31885050408E+02  0.14416423473E+03  0.12500803611E+03 0.  0.
         25    2    1    2    0    0  0.20152312536E+02 -0.61102744171E+02  0.62630493830E+02  0.15387238155E+03  0.12495787291E+03 0.  0.
          5    1    3    3  502    0 -0.40445561230E+02 -0.27679702685E+02  0.14527324102E+02  0.51333639160E+02  0.47000000000E+01 0. -1.
         -5    1    3    3    0  502  0.20293248694E+02  0.88782446855E+02  0.17357726306E+02  0.92830595574E+02  0.47000000000E+01 0. -1.
          5    1    4    4  503    0  0.59733282955E+02 -0.32949509723E+02  0.77021277928E+02  0.10299564329E+03  0.47000000000E+01 0.  1.
         -5    1    4    4    0  503 -0.39580970419E+02 -0.28153234448E+02 -0.14390784098E+02  0.50876738261E+02  0.47000000000E+01 0.  1.
<mgrwt>
<rscale>  0 0.14058284E+03</rscale>
<asrwt>0</asrwt>
<pdfrwt beam="2">  1        5 0.15655467E-01 0.14059399E+03</pdfrwt>
<pdfrwt beam="1">  1       -5 0.30196320E-01 0.14059399E+03</pdfrwt>
<totfact> 0.28066367E+02</totfact>
</mgrwt>
</event>
<event>
 8    1  0.3682083E-007  0.1377044E+03  0.7546771E-02  0.1216454E+00
          5   -1    0    0  501    0  0.00000000000E+00  0.00000000000E+00  0.17159026928E+03  0.17165462566E+03  0.47000000000E+01 0. -1.
         -5   -1    0    0    0  501 -0.00000000000E+00 -0.00000000000E+00 -0.12043152240E+03  0.12052319937E+03  0.47000000000E+01 0. -1.
         25    2    1    2    0    0  0.45343138191E+02  0.35782019392E+02 -0.16616287939E+02  0.13870333910E+03  0.12500464855E+03 0.  0.
         25    2    1    2    0    0 -0.45343138191E+02 -0.35782019392E+02  0.67775034823E+02  0.15347448593E+03  0.12499843757E+03 0.  0.
          5    1    3    3  502    0 -0.11222661107E+02 -0.27080739744E+02  0.29848016089E+02  0.42098796323E+02  0.47000000000E+01 0. -1.
         -5    1    3    3    0  502  0.56565799298E+02  0.62862759136E+02 -0.46464304028E+02  0.96604542777E+02  0.47000000000E+01 0. -1.
          5    1    4    4  503    0  0.30711207056E+02  0.25146710717E+02  0.16320978374E+02  0.43174062049E+02  0.47000000000E+01 0. -1.
         -5    1    4    4    0  503 -0.76054345247E+02 -0.60928730109E+02  0.51454056449E+02  0.11030042388E+03  0.47000000000E+01 0. -1.
<mgrwt>
<rscale>  0 0.13770304E+03</rscale>
<asrwt>0</asrwt>
<pdfrwt beam="1">  1        5 0.26410505E-01 0.13770445E+03</pdfrwt>
<pdfrwt beam="2">  1       -5 0.18539929E-01 0.13770445E+03</pdfrwt>
<totfact> 0.26526978E+02</totfact>
</mgrwt>
</event>
<event>
 8    1  0.3682083E-007  0.1410582E+03  0.7546771E-02  0.1211914E+00
          5   -1    0    0  501    0  0.00000000000E+00  0.00000000000E+00  0.52662048548E+02  0.52871366138E+02  0.47000000000E+01 0.  1.
         -5   -1    0    0    0  501 -0.00000000000E+00 -0.00000000000E+00 -0.38324036494E+03  0.38326918389E+03  0.47000000000E+01 0.  1.
         25    2    1    2    0    0  0.42836532714E+02  0.49362547389E+02 -0.19344824875E+03  0.23941519739E+03  0.12500312867E+03 0.  0.
         25    2    1    2    0    0 -0.42836532714E+02 -0.49362547389E+02 -0.13713006764E+03  0.19672535264E+03  0.12499831718E+03 0.  0.
          5    1    4    4  502    0 -0.70845241763E+02 -0.68753938275E+02 -0.69405255108E+02  0.12076974681E+03  0.47000000000E+01 0. -1.
         -5    1    4    4    0  502  0.28008709049E+02  0.19391390886E+02 -0.67724812536E+02  0.75955605825E+02  0.47000000000E+01 0. -1.
          5    1    3    3  503    0 -0.32385412478E+02  0.24751780190E+02 -0.13449437014E+03  0.14061397926E+03  0.47000000000E+01 0.  1.
         -5    1    3    3    0  503  0.75221945192E+02  0.24610767199E+02 -0.58953878601E+02  0.98801218123E+02  0.47000000000E+01 0.  1.
<mgrwt>
<rscale>  0 0.14105712E+03</rscale>
<asrwt>0</asrwt>
<pdfrwt beam="1">  1        5 0.81201721E-02 0.14105819E+03</pdfrwt>
<pdfrwt beam="2">  1       -5 0.58978372E-01 0.14105819E+03</pdfrwt>
<totfact> 0.22443545E+02</totfact>
</mgrwt>
</event>
<event>
 8    1  0.3682083E-007  0.1300618E+03  0.7546771E-02  0.1227365E+00
         -5   -1    0    0    0  501 -0.00000000000E+00  0.00000000000E+00  0.60618101483E+02  0.60800034765E+02  0.47000000000E+01 0. -1.
          5   -1    0    0  501    0  0.00000000000E+00 -0.00000000000E+00 -0.42671878344E+03  0.42674466621E+03  0.47000000000E+01 0. -1.
         25    2    1    2    0    0 -0.34455138018E+02 -0.10209510874E+02 -0.39385062099E+02  0.13589263757E+03  0.12499694069E+03 0.  0.
         25    2    1    2    0    0  0.34455138018E+02  0.10209510874E+02 -0.32671561986E+03  0.35165206341E+03  0.12499874716E+03 0.  0.
          5    1    4    4  502    0  0.35198009836E+02 -0.16775166544E+02 -0.32133711528E+03  0.32372818500E+03  0.47000000000E+01 0.  1.
         -5    1    4    4    0  502 -0.74287181771E+00  0.26984677418E+02 -0.53785045828E+01  0.27923878410E+02  0.47000000000E+01 0.  1.
          5    1    3    3  503    0 -0.22352305707E+02 -0.60902658584E+02  0.76988750470E+01  0.65499023428E+02  0.47000000000E+01 0. -1.
         -5    1    3    3    0  503 -0.12102832311E+02  0.50693147710E+02 -0.47083937146E+02  0.70393614141E+02  0.47000000000E+01 0. -1.
<mgrwt>
<rscale>  0 0.13006139E+03</rscale>
<asrwt>0</asrwt>
<pdfrwt beam="2">  1        5 0.65665028E-01 0.13006182E+03</pdfrwt>
<pdfrwt beam="1">  1       -5 0.93418479E-02 0.13006182E+03</pdfrwt>
<totfact> 0.13536365E+02</totfact>
</mgrwt>
</event>
<event>
 8    1  0.3682083E-007  0.1463763E+03  0.7546771E-02  0.1205015E+00
         -5   -1    0    0    0  501 -0.00000000000E+00  0.00000000000E+00  0.42899802218E+03  0.42902376745E+03  0.47000000000E+01 0. -1.
          5   -1    0    0  501    0  0.00000000000E+00 -0.00000000000E+00 -0.54020503979E+02  0.54224577916E+02  0.47000000000E+01 0. -1.
         25    2    1    2    0    0  0.45046023474E+02  0.61422539945E+02  0.25500112088E+03  0.29402654191E+03  0.12499665215E+03 0.  0.
         25    2    1    2    0    0 -0.45046023474E+02 -0.61422539945E+02  0.11997639732E+03  0.18922180346E+03  0.12493471234E+03 0.  0.
          5    1    3    3  502    0  0.72223943766E+02  0.83560625677E+02  0.20279149289E+03  0.23096570266E+03  0.47000000000E+01 0. -1.
         -5    1    3    3    0  502 -0.27177920292E+02 -0.22138085732E+02  0.52209627997E+02  0.63060839249E+02  0.47000000000E+01 0. -1.
          5    1    4    4  503    0 -0.66660445549E+02  0.13333930964E+02  0.61143711307E+02  0.91553547983E+02  0.47000000000E+01 0.  1.
         -5    1    4    4    0  503  0.21614422076E+02 -0.74756470909E+02  0.58832686013E+02  0.97668255477E+02  0.47000000000E+01 0.  1.
<mgrwt>
<rscale>  0 0.14636313E+03</rscale>
<asrwt>0</asrwt>
<pdfrwt beam="2">  1        5 0.83285249E-02 0.14637635E+03</pdfrwt>
<pdfrwt beam="1">  1       -5 0.66017377E-01 0.14637635E+03</pdfrwt>
<totfact> 0.16960895E+02</totfact>
</mgrwt>
</event>
<event>
 8    1  0.3682083E-007  0.1268667E+03  0.7546771E-02  0.1232182E+00
          5   -1    0    0  501    0  0.00000000000E+00  0.00000000000E+00  0.61034677069E+03  0.61036486669E+03  0.47000000000E+01 0.  1.
         -5   -1    0    0    0  501 -0.00000000000E+00 -0.00000000000E+00 -0.31477874120E+02  0.31826821380E+02  0.47000000000E+01 0.  1.
         25    2    1    2    0    0  0.20674429914E+02 -0.64461829169E+01  0.15805932129E+03  0.20267393142E+03  0.12499995241E+03 0.  0.
         25    2    1    2    0    0 -0.20674429914E+02  0.64461829169E+01  0.42080957528E+03  0.43951775665E+03  0.12500469767E+03 0.  0.
          5    1    3    3  502    0 -0.39626591491E+02 -0.34454694392E+02  0.36771565769E+02  0.64277762624E+02  0.47000000000E+01 0. -1.
         -5    1    3    3    0  502  0.60301021405E+02  0.28008511475E+02  0.12128775552E+03  0.13839616879E+03  0.47000000000E+01 0. -1.
          5    1    4    4  503    0 -0.41942645910E+02 -0.50417732620E+02  0.20544273665E+03  0.21570800020E+03  0.47000000000E+01 0.  1.
         -5    1    4    4    0  503  0.21268215996E+02  0.56863915537E+02  0.21536683863E+03  0.22380975645E+03  0.47000000000E+01 0.  1.
<mgrwt>
<rscale>  0 0.12686553E+03</rscale>
<asrwt>0</asrwt>
<pdfrwt beam="1">  1        5 0.93927737E-01 0.12686670E+03</pdfrwt>
<pdfrwt beam="2">  1       -5 0.48709840E-02 0.12686670E+03</pdfrwt>
<totfact> 0.17719237E+02</totfact>
</mgrwt>
</event>
<event>
 8    1  0.3682083E-007  0.1253601E+03  0.7546771E-02  0.1234508E+00
         -5   -1    0    0    0  501 -0.00000000000E+00  0.00000000000E+00  0.20730327166E+02  0.21256445244E+02  0.47000000000E+01 0.  1.
          5   -1    0    0  501    0  0.00000000000E+00 -0.00000000000E+00 -0.75570690318E+03  0.75572151849E+03  0.47000000000E+01 0.  1.
         25    2    1    2    0    0 -0.34281307127E+01  0.88948155139E+01 -0.32836313640E+03  0.35147900891E+03  0.12499709811E+03 0.  0.
         25    2    1    2    0    0  0.34281307127E+01 -0.88948155139E+01 -0.40661343961E+03  0.42549895482E+03  0.12499600578E+03 0.  0.
          5    1    4    4  502    0 -0.21715752773E+02 -0.52424413596E+02 -0.32177335741E+03  0.32677220903E+03  0.47000000000E+01 0. -1.
         -5    1    4    4    0  502  0.25143883486E+02  0.43529598083E+02 -0.84840082204E+02  0.98726745791E+02  0.47000000000E+01 0. -1.
          5    1    3    3  503    0 -0.48812960533E+02  0.19926346040E+02 -0.27652264303E+03  0.28154329417E+03  0.47000000000E+01 0. -1.
         -5    1    3    3    0  503  0.45384829820E+02 -0.11031530526E+02 -0.51840493366E+02  0.69935714739E+02  0.47000000000E+01 0. -1.
<mgrwt>
<rscale>  0 0.12535979E+03</rscale>
<asrwt>0</asrwt>
<pdfrwt beam="2">  1        5 0.11630417E+00 0.12536006E+03</pdfrwt>
<pdfrwt beam="1">  1       -5 0.32308766E-02 0.12536006E+03</pdfrwt>
<totfact> 0.20452547E+02</totfact>
</mgrwt>
</event>
<event>
 8    1  0.3682083E-007  0.1340084E+03  0.7546771E-02  0.1221627E+00
          5   -1    0    0  501    0  0.00000000000E+00  0.00000000000E+00  0.85697919206E+02  0.85826705380E+02  0.47000000000E+01 0.  1.
         -5   -1    0    0    0  501 -0.00000000000E+00 -0.00000000000E+00 -0.23686948863E+03  0.23691611309E+03  0.47000000000E+01 0.  1.
         25    2    1    2    0    0  0.25558597734E+02  0.40987517326E+02 -0.13068211809E+03  0.18717925901E+03  0.12500016208E+03 0.  0.
         25    2    1    2    0    0 -0.25558597734E+02 -0.40987517326E+02 -0.20489451329E+02  0.13556355946E+03  0.12499777016E+03 0.  0.
          5    1    4    4  502    0 -0.71927882274E+02 -0.35566494549E+02 -0.33178651790E+02  0.86956935994E+02  0.47000000000E+01 0. -1.
         -5    1    4    4    0  502  0.46369284540E+02 -0.54210227763E+01  0.12689200461E+02  0.48606623469E+02  0.47000000000E+01 0. -1.
          5    1    3    3  503    0  0.73362909289E+02  0.12485881722E+02 -0.95522076307E+02  0.12117991073E+03  0.47000000000E+01 0.  1.
         -5    1    3    3    0  503 -0.47804311555E+02  0.28501635604E+02 -0.35160041786E+02  0.65999348283E+02  0.47000000000E+01 0.  1.
<mgrwt>
<rscale>  0 0.13400787E+03</rscale>
<asrwt>0</asrwt>
<pdfrwt beam="1">  1        5 0.13197788E-01 0.13400843E+03</pdfrwt>
<pdfrwt beam="2">  1       -5 0.36454953E-01 0.13400843E+03</pdfrwt>
<totfact> 0.25824584E+02</totfact>
</mgrwt>
</event>
<event>
 8    1  0.3682083E-007  0.1275280E+03  0.7546771E-02  0.1231172E+00
          5   -1    0    0  501    0  0.00000000000E+00  0.00000000000E+00  0.13187683039E+03  0.13196055621E+03  0.47000000000E+01 0.  1.
         -5   -1    0    0    0  501 -0.00000000000E+00 -0.00000000000E+00 -0.17216453395E+03  0.17222867575E+03  0.47000000000E+01 0.  1.
         25    2    1    2    0    0 -0.20220460914E+02 -0.15118033104E+02 -0.10125817019E+03  0.16283578932E+03  0.12499942116E+03 0.  0.
         25    2    1    2    0    0  0.20220460914E+02  0.15118033104E+02  0.60970466626E+02  0.14135344263E+03  0.12500390385E+03 0.  0.
          5    1    3    3  502    0 -0.35555889213E+02  0.46930501617E+02 -0.69817523868E+02  0.91450915134E+02  0.47000000000E+01 0. -1.
         -5    1    3    3    0  502  0.15335428299E+02 -0.62048534721E+02 -0.31440646317E+02  0.71384874189E+02  0.47000000000E+01 0. -1.
          5    1    4    4  503    0  0.59594120875E+02  0.40765266780E+02  0.12039555431E+02  0.73350576777E+02  0.47000000000E+01 0.  1.
         -5    1    4    4    0  503 -0.39373659962E+02 -0.25647233676E+02  0.48930911195E+02  0.68002865854E+02  0.47000000000E+01 0.  1.
<mgrwt>
<rscale>  0 0.12752693E+03</rscale>
<asrwt>0</asrwt>
<pdfrwt beam="1">  1        5 0.20300117E-01 0.12752803E+03</pdfrwt>
<pdfrwt beam="2">  1       -5 0.26498226E-01 0.12752803E+03</pdfrwt>
<totfact> 0.21678278E+02</totfact>
</mgrwt>
</event>
<event>
 8    1  0.3682083E-007  0.1431633E+03  0.7546771E-02  0.1209144E+00
         -5   -1    0    0    0  501 -0.00000000000E+00  0.00000000000E+00  0.18362375071E+02  0.18954335078E+02  0.47000000000E+01 0. -1.
          5   -1    0    0  501    0  0.00000000000E+00 -0.00000000000E+00 -0.17147795440E+04  0.17147859850E+04  0.47000000000E+01 0. -1.
         25    2    1    2    0    0  0.31259917818E+02 -0.62382548749E+02 -0.32821562733E+03  0.35806913789E+03  0.12497697643E+03 0.  0.
         25    2    1    2    0    0 -0.31259917818E+02  0.62382548749E+02 -0.13682015416E+04  0.13756711822E+04  0.12500791311E+03 0.  0.
          5    1    4    4  502    0 -0.66453521178E+02  0.62486022605E+01 -0.43579806857E+03  0.44090493542E+03  0.47000000000E+01 0. -1.
         -5    1    4    4    0  502  0.35193603359E+02  0.56133946488E+02 -0.93240347300E+03  0.93476624678E+03  0.47000000000E+01 0. -1.
          5    1    3    3  503    0  0.71966697921E+02 -0.11700253515E+02 -0.12647760766E+03  0.14606428989E+03  0.47000000000E+01 0.  1.
         -5    1    3    3    0  503 -0.40706780103E+02 -0.50682295234E+02 -0.20173801967E+03  0.21200484800E+03  0.47000000000E+01 0.  1.
<mgrwt>
<rscale>  0 0.14315659E+03</rscale>
<asrwt>0</asrwt>
<pdfrwt beam="2">  1        5 0.26385814E+00 0.14316334E+03</pdfrwt>
<pdfrwt beam="1">  1       -5 0.28710130E-02 0.14316334E+03</pdfrwt>
<totfact> 0.22252829E+01</totfact>
</mgrwt>
</event>
<event>
 8    1  0.3682083E-007  0.1446214E+03  0.7546771E-02  0.1207259E+00
          5   -1    0    0  501    0  0.00000000000E+00  0.00000000000E+00  0.58258644832E+02  0.58447922954E+02  0.47000000000E+01 0.  1.
         -5   -1    0    0    0  501 -0.00000000000E+00 -0.00000000000E+00 -0.38824278739E+03  0.38827123504E+03  0.47000000000E+01 0.  1.
         25    2    1    2    0    0 -0.70014073425E+02  0.19344833961E+02 -0.22724381716E+03  0.26936056646E+03  0.12505666415E+03 0.  0.
         25    2    1    2    0    0  0.70014073425E+02 -0.19344833961E+02 -0.10274032540E+03  0.17735859153E+03  0.12499720976E+03 0.  0.
          5    1    4    4  502    0  0.51398600707E+02  0.50296152311E+02 -0.56667796405E+02  0.91677959408E+02  0.47000000000E+01 0.  1.
         -5    1    4    4    0  502  0.18615472718E+02 -0.69640986271E+02 -0.46072528996E+02  0.85680632126E+02  0.47000000000E+01 0.  1.
          5    1    3    3  503    0 -0.91195795783E+02 -0.25027044612E+02 -0.16016153610E+03  0.18605599635E+03  0.47000000000E+01 0.  1.
         -5    1    3    3    0  503  0.21181722358E+02  0.44371878573E+02 -0.67082281060E+02  0.83304570117E+02  0.47000000000E+01 0.  1.
<mgrwt>
<rscale>  0 0.14460859E+03</rscale>
<asrwt>0</asrwt>
<pdfrwt beam="1">  1        5 0.89796168E-02 0.14462144E+03</pdfrwt>
<pdfrwt beam="2">  1       -5 0.59746406E-01 0.14462144E+03</pdfrwt>
<totfact> 0.18495528E+02</totfact>
</mgrwt>
</event>
<event>
 8    1  0.3682083E-007  0.1831153E+03  0.7546771E-02  0.1164823E+00
          5   -1    0    0  501    0  0.00000000000E+00  0.00000000000E+00  0.96298735508E+02  0.96413362458E+02  0.47000000000E+01 0. -1.
         -5   -1    0    0    0  501 -0.00000000000E+00 -0.00000000000E+00 -0.35542577241E+03  0.35545684646E+03  0.47000000000E+01 0. -1.
         25    2    1    2    0    0  0.10226513528E+03 -0.86296976020E+02 -0.16252983346E+03  0.24483828681E+03  0.12499805581E+03 0.  0.
         25    2    1    2    0    0 -0.10226513528E+03  0.86296976020E+02 -0.96597203447E+02  0.20703192211E+03  0.12500348433E+03 0.  0.
          5    1    4    4  502    0 -0.52644562067E+02  0.43102268419E+02 -0.11918294630E+03  0.13731686039E+03  0.47000000000E+01 0. -1.
         -5    1    4    4    0  502 -0.49620573217E+02  0.43194707601E+02  0.22585742853E+02  0.69715061725E+02  0.47000000000E+01 0. -1.
          5    1    3    3  503    0  0.84324904828E+02 -0.10929310438E+03 -0.85761329817E+02  0.16258157316E+03  0.47000000000E+01 0. -1.
         -5    1    3    3    0  503  0.17940230456E+02  0.22996128360E+02 -0.76768503641E+02  0.82256713645E+02  0.47000000000E+01 0. -1.
<mgrwt>
<rscale>  0 0.18311433E+03</rscale>
<asrwt>0</asrwt>
<pdfrwt beam="1">  1        5 0.14826398E-01 0.18311526E+03</pdfrwt>
<pdfrwt beam="2">  1       -5 0.54692095E-01 0.18311526E+03</pdfrwt>
<totfact> 0.99105685E+01</totfact>
</mgrwt>
</event>
<event>
 8    1  0.3682083E-007  0.1374297E+03  0.7546771E-02  0.1216830E+00
         -5   -1    0    0    0  501 -0.00000000000E+00  0.00000000000E+00  0.25346469104E+03  0.25350826338E+03  0.47000000000E+01 0. -1.
          5   -1    0    0  501    0  0.00000000000E+00 -0.00000000000E+00 -0.94775374883E+02  0.94891842032E+02  0.47000000000E+01 0. -1.
         25    2    1    2    0    0  0.56283863547E+02  0.97350316495E+01  0.16006061884E+03  0.21096525124E+03  0.12499716553E+03 0.  0.
         25    2    1    2    0    0 -0.56283863547E+02 -0.97350316495E+01 -0.13713026868E+01  0.13743485417E+03  0.12499525805E+03 0.  0.
          5    1    4    4  502    0 -0.20507307106E+02 -0.56200353216E+02  0.33818598214E+02  0.68882631566E+02  0.47000000000E+01 0.  1.
         -5    1    4    4    0  502 -0.35776556441E+02  0.46465321567E+02 -0.35189900900E+02  0.68552222607E+02  0.47000000000E+01 0.  1.
          5    1    3    3  503    0  0.11312303631E+02 -0.56120862638E+02  0.62942046704E+02  0.85213324545E+02  0.47000000000E+01 0.  1.
         -5    1    3    3    0  503  0.44971559916E+02  0.65855894288E+02  0.97118572140E+02  0.12575192670E+03  0.47000000000E+01 0.  1.
<mgrwt>
<rscale>  0 0.13742931E+03</rscale>
<asrwt>0</asrwt>
<pdfrwt beam="2">  1        5 0.14593138E-01 0.13742975E+03</pdfrwt>
<pdfrwt beam="1">  1       -5 0.39006878E-01 0.13742975E+03</pdfrwt>
<totfact> 0.18957701E+02</totfact>
</mgrwt>
</event>
<event>
 8    1  0.3682083E-007  0.1326339E+03  0.7546771E-02  0.1223605E+00
         -5   -1    0    0    0  501 -0.00000000000E+00  0.00000000000E+00  0.11473296165E+03  0.11482918832E+03  0.47000000000E+01 0.  1.
          5   -1    0    0  501    0  0.00000000000E+00 -0.00000000000E+00 -0.19208525206E+03  0.19214274397E+03  0.47000000000E+01 0.  1.
         25    2    1    2    0    0  0.38142509455E+02  0.22507034608E+02  0.30428353578E+02  0.13607949629E+03  0.12502130608E+03 0.  0.
         25    2    1    2    0    0 -0.38142509455E+02 -0.22507034608E+02 -0.10778064399E+03  0.17089243600E+03  0.12500455924E+03 0.  0.
          5    1    4    4  502    0 -0.52072855925E+02 -0.67399111754E+02 -0.66530200852E+02  0.10817846465E+03  0.47000000000E+01 0.  1.
         -5    1    4    4    0  502  0.13930346470E+02  0.44892077146E+02 -0.41250443134E+02  0.62713971346E+02  0.47000000000E+01 0.  1.
          5    1    3    3  503    0 -0.39629960996E+02 -0.18729308455E+02  0.15129402249E+02  0.46608042398E+02  0.47000000000E+01 0. -1.
         -5    1    3    3    0  503  0.77772470450E+02  0.41236343063E+02  0.15298951329E+02  0.89471453889E+02  0.47000000000E+01 0. -1.
<mgrwt>
<rscale>  0 0.13262993E+03</rscale>
<asrwt>0</asrwt>
<pdfrwt beam="2">  1        5 0.29563402E-01 0.13263387E+03</pdfrwt>
<pdfrwt beam="1">  1       -5 0.17663049E-01 0.13263387E+03</pdfrwt>
<totfact> 0.23003327E+02</totfact>
</mgrwt>
</event>
<event>
 8    1  0.3682083E-007  0.1311096E+03  0.7546771E-02  0.1225820E+00
         -5   -1    0    0    0  501 -0.00000000000E+00  0.00000000000E+00  0.14195724717E+04  0.14195802522E+04  0.47000000000E+01 0. -1.
          5   -1    0    0  501    0  0.00000000000E+00 -0.00000000000E+00 -0.11761430274E+02  0.12665750751E+02  0.47000000000E+01 0. -1.
         25    2    1    2    0    0 -0.28029954087E+02 -0.27897382865E+02  0.77267501961E+03  0.78371960887E+03  0.12500318839E+03 0.  0.
         25    2    1    2    0    0  0.28029954087E+02  0.27897382865E+02  0.63513602187E+03  0.64852639412E+03  0.12499910119E+03 0.  0.
          5    1    4    4  502    0  0.43686457389E+02 -0.33854331121E+02  0.16507774129E+03  0.17414756089E+03  0.47000000000E+01 0.  1.
         -5    1    4    4    0  502 -0.15656503302E+02  0.61751713986E+02  0.47005828058E+03  0.47437883323E+03  0.47000000000E+01 0.  1.
          5    1    3    3  503    0 -0.18784278017E+02 -0.22261180871E+02  0.77126768018E+03  0.77183180406E+03  0.47000000000E+01 0. -1.
         -5    1    3    3    0  503 -0.92456760700E+01 -0.56362019936E+01  0.14073394293E+01  0.11887804809E+02  0.47000000000E+01 0. -1.
<mgrwt>
<rscale>  0 0.13110867E+03</rscale>
<asrwt>0</asrwt>
<pdfrwt beam="2">  1        5 0.18796139E-02 0.13110965E+03</pdfrwt>
<pdfrwt beam="1">  1       -5 0.21846575E+00 0.13110965E+03</pdfrwt>
<totfact> 0.83220409E+01</totfact>
</mgrwt>
</event>
<event>
 8    1  0.3682083E-007  0.1285491E+03  0.7546771E-02  0.1229629E+00
         -5   -1    0    0    0  501 -0.00000000000E+00  0.00000000000E+00  0.16444611955E+03  0.16451327070E+03  0.47000000000E+01 0. -1.
          5   -1    0    0  501    0  0.00000000000E+00 -0.00000000000E+00 -0.12045184940E+03  0.12054351091E+03  0.47000000000E+01 0. -1.
         25    2    1    2    0    0 -0.29666805303E+02  0.41531706202E+01  0.80204189335E+02  0.15151758400E+03  0.12500999204E+03 0.  0.
         25    2    1    2    0    0  0.29666805303E+02 -0.41531706202E+01 -0.36209919183E+02  0.13353919761E+03  0.12499676351E+03 0.  0.
          5    1    4    4  502    0  0.72718413664E+02  0.24185517541E+02 -0.21996975786E+02  0.79867790054E+02  0.47000000000E+01 0. -1.
         -5    1    4    4    0  502 -0.43051608361E+02 -0.28338688161E+02 -0.14212943398E+02  0.53671407557E+02  0.47000000000E+01 0. -1.
          5    1    3    3  503    0  0.39197196048E+02  0.87371117408E+01 -0.61219726858E+01  0.40894080857E+02  0.47000000000E+01 0. -1.
         -5    1    3    3    0  503 -0.68864001351E+02 -0.45839411206E+01  0.86326162021E+02  0.11062350314E+03  0.47000000000E+01 0. -1.
<mgrwt>
<rscale>  0 0.12854586E+03</rscale>
<asrwt>0</asrwt>
<pdfrwt beam="2">  1        5 0.18543270E-01 0.12854908E+03</pdfrwt>
<pdfrwt beam="1">  1       -5 0.25311619E-01 0.12854908E+03</pdfrwt>
<totfact> 0.28089352E+02</totfact>
</mgrwt>
</event>
<event>
 8    1  0.3682083E-007  0.1320217E+03  0.7546771E-02  0.1224488E+00
          5   -1    0    0  501    0  0.00000000000E+00  0.00000000000E+00  0.10029131188E+03  0.10040138066E+03  0.47000000000E+01 0. -1.
         -5   -1    0    0    0  501 -0.00000000000E+00 -0.00000000000E+00 -0.20275097097E+03  0.20280543934E+03  0.47000000000E+01 0. -1.
         25    2    1    2    0    0  0.41140966311E+02 -0.10549395144E+02 -0.10874139736E+03  0.17103580402E+03  0.12499874364E+03 0.  0.
         25    2    1    2    0    0 -0.41140966311E+02  0.10549395144E+02  0.62817382814E+01  0.13217101598E+03  0.12500339349E+03 0.  0.
          5    1    4    4  502    0 -0.39111949500E+02 -0.27302663710E+02 -0.46658214217E+02  0.66889902028E+02  0.47000000000E+01 0.  1.
         -5    1    4    4    0  502 -0.20290168113E+01  0.37852058855E+02  0.52939952499E+02  0.65281113956E+02  0.47000000000E+01 0.  1.
          5    1    3    3  503    0  0.12880937544E+02 -0.29668547585E+02 -0.12763401614E+03  0.13175231818E+03  0.47000000000E+01 0.  1.
         -5    1    3    3    0  503  0.28260028768E+02  0.19119152440E+02  0.18892618780E+02  0.39283485848E+02  0.47000000000E+01 0.  1.
<mgrwt>
<rscale>  0 0.13202055E+03</rscale>
<asrwt>0</asrwt>
<pdfrwt beam="1">  1        5 0.15442089E-01 0.13202165E+03</pdfrwt>
<pdfrwt beam="2">  1       -5 0.31205114E-01 0.13202165E+03</pdfrwt>
<totfact> 0.26397764E+02</totfact>
</mgrwt>
</event>
<event>
 8    1  0.3682083E-007  0.1296940E+03  0.7546771E-02  0.1227913E+00
          5   -1    0    0  501    0  0.00000000000E+00  0.00000000000E+00  0.11084730276E+03  0.11094689959E+03  0.47000000000E+01 0.  1.
         -5   -1    0    0    0  501 -0.00000000000E+00 -0.00000000000E+00 -0.15450747766E+03  0.15457894635E+03  0.47000000000E+01 0.  1.
         25    2    1    2    0    0  0.24555847495E+02  0.24319295818E+02 -0.40244988922E+02  0.13579469975E+03  0.12500449413E+03 0.  0.
         25    2    1    2    0    0 -0.24555847495E+02 -0.24319295818E+02 -0.34151859860E+01  0.12973114619E+03  0.12499635595E+03 0.  0.
          5    1    3    3  502    0 -0.90039560059E+00  0.66510734864E+02  0.73980622436E+01  0.67091801954E+02  0.47000000000E+01 0.  1.
         -5    1    3    3    0  502  0.25456243096E+02 -0.42191439046E+02 -0.47643051165E+02  0.68702897797E+02  0.47000000000E+01 0.  1.
          5    1    4    4  503    0 -0.49339901543E+02 -0.34159611826E+02 -0.48390743505E+02  0.77233794555E+02  0.47000000000E+01 0. -1.
         -5    1    4    4    0  503  0.24784054048E+02  0.98403160079E+01  0.44975557519E+02  0.52497351632E+02  0.47000000000E+01 0. -1.
<mgrwt>
<rscale>  0 0.12969207E+03</rscale>
<asrwt>0</asrwt>
<pdfrwt beam="1">  1        5 0.17066590E-01 0.12969403E+03</pdfrwt>
<pdfrwt beam="2">  1       -5 0.23783540E-01 0.12969403E+03</pdfrwt>
<totfact> 0.36973762E+02</totfact>
</mgrwt>
</event>
<event>
 8    1  0.3682083E-007  0.1298711E+03  0.7546771E-02  0.1227649E+00
          5   -1    0    0  501    0  0.00000000000E+00  0.00000000000E+00  0.10821145747E+03  0.10831347806E+03  0.47000000000E+01 0.  1.
         -5   -1    0    0    0  501 -0.00000000000E+00 -0.00000000000E+00 -0.16131280249E+03  0.16138125742E+03  0.47000000000E+01 0.  1.
         25    2    1    2    0    0 -0.67271668953E+01  0.34594336826E+02 -0.51804178454E+02  0.13982197593E+03  0.12499795652E+03 0.  0.
         25    2    1    2    0    0  0.67271668953E+01 -0.34594336826E+02 -0.12971665637E+01  0.12987275954E+03  0.12499291226E+03 0.  0.
          5    1    3    3  502    0  0.10382880634E+01  0.64216706653E+02 -0.76648046175E+02  0.10010932243E+03  0.47000000000E+01 0.  1.
         -5    1    3    3    0  502 -0.77654549587E+01 -0.29622369827E+02  0.24843867720E+02  0.39712653502E+02  0.47000000000E+01 0.  1.
          5    1    4    4  503    0  0.27362717438E+02  0.23096279926E+02  0.41480720607E+02  0.54999060302E+02  0.47000000000E+01 0. -1.
         -5    1    4    4    0  503 -0.20635550543E+02 -0.57690616752E+02 -0.42777887171E+02  0.74873699242E+02  0.47000000000E+01 0. -1.
<mgrwt>
<rscale>  0 0.12986992E+03</rscale>
<asrwt>0</asrwt>
<pdfrwt beam="1">  1        5 0.16661030E-01 0.12987114E+03</pdfrwt>
<pdfrwt beam="2">  1       -5 0.24830468E-01 0.12987114E+03</pdfrwt>
<totfact> 0.35607482E+02</totfact>
</mgrwt>
</event>
<event>
 8    1  0.3682083E-007  0.1435305E+03  0.7546771E-02  0.1208658E+00
         -5   -1    0    0    0  501 -0.00000000000E+00  0.00000000000E+00  0.50867601177E+02  0.51084272036E+02  0.47000000000E+01 0. -1.
          5   -1    0    0  501    0  0.00000000000E+00 -0.00000000000E+00 -0.51672665966E+03  0.51674803416E+03  0.47000000000E+01 0. -1.
         25    2    1    2    0    0 -0.32967305573E+02 -0.62360901297E+02 -0.10028741073E+03  0.17509585445E+03  0.12500107298E+03 0.  0.
         25    2    1    2    0    0  0.32967305573E+02  0.62360901297E+02 -0.36557164776E+03  0.39273645174E+03  0.12499426242E+03 0.  0.
          5    1    4    4  502    0 -0.25468817455E+02  0.25295572478E+02 -0.28117431502E+03  0.28349534754E+03  0.47000000000E+01 0.  1.
         -5    1    4    4    0  502  0.58436123028E+02  0.37065328819E+02 -0.84397332741E+02  0.10924110421E+03  0.47000000000E+01 0.  1.
          5    1    3    3  503    0 -0.27273607967E+02  0.19364531138E+02  0.12152440699E+02  0.35897166639E+02  0.47000000000E+01 0.  1.
         -5    1    3    3    0  503 -0.56936976060E+01 -0.81725432435E+02 -0.11243985142E+03  0.13919868781E+03  0.47000000000E+01 0.  1.
<mgrwt>
<rscale>  0 0.14352898E+03</rscale>
<asrwt>0</asrwt>
<pdfrwt beam="2">  1        5 0.79514717E-01 0.14353046E+03</pdfrwt>
<pdfrwt beam="1">  1       -5 0.78440964E-02 0.14353046E+03</pdfrwt>
<totfact> 0.12244542E+02</totfact>
</mgrwt>
</event>
<event>
 8    1  0.3682083E-007  0.1357985E+03  0.7546771E-02  0.1219097E+00
          5   -1    0    0  501    0  0.00000000000E+00  0.00000000000E+00  0.38466304961E+03  0.38469176198E+03  0.47000000000E+01 0.  1.
         -5   -1    0    0    0  501 -0.00000000000E+00 -0.00000000000E+00 -0.48750948847E+02  0.48976984528E+02  0.47000000000E+01 0.  1.
         25    2    1    2    0    0  0.48815499958E+01  0.52834334182E+02  0.19823965944E+03  0.24029105820E+03  0.12500213469E+03 0.  0.
         25    2    1    2    0    0 -0.48815499958E+01 -0.52834334182E+02  0.13767244132E+03  0.19337768831E+03  0.12500373129E+03 0.  0.
          5    1    3    3  502    0  0.19847777585E+02  0.90815566750E+02  0.11948535603E+03  0.15146036361E+03  0.47000000000E+01 0.  1.
         -5    1    3    3    0  502 -0.14966227589E+02 -0.37981232568E+02  0.78754303411E+02  0.88830694590E+02  0.47000000000E+01 0.  1.
          5    1    4    4  503    0  0.70335626451E+01 -0.87555258281E+02  0.57537072687E+02  0.10510946194E+03  0.47000000000E+01 0.  1.
         -5    1    4    4    0  503 -0.11915112641E+02  0.34720924099E+02  0.80135368633E+02  0.88268226365E+02  0.47000000000E+01 0.  1.
<mgrwt>
<rscale>  0 0.13579812E+03</rscale>
<asrwt>0</asrwt>
<pdfrwt beam="1">  1        5 0.59198525E-01 0.13579849E+03</pdfrwt>
<pdfrwt beam="2">  1       -5 0.75197422E-02 0.13579849E+03</pdfrwt>
<totfact> 0.25068038E+02</totfact>
</mgrwt>
</event>
<event>
 8    1  0.3682083E-007  0.1339200E+03  0.7546771E-02  0.1221753E+00
          5   -1    0    0  501    0  0.00000000000E+00  0.00000000000E+00  0.46266108398E+02  0.46504223317E+02  0.47000000000E+01 0.  1.
         -5   -1    0    0    0  501 -0.00000000000E+00 -0.00000000000E+00 -0.41924876002E+03  0.41927510393E+03  0.47000000000E+01 0.  1.
         25    2    1    2    0    0 -0.18498075691E+02 -0.44354750669E+02 -0.25167187142E+03  0.28508469969E+03  0.12500012969E+03 0.  0.
         25    2    1    2    0    0  0.18498075691E+02  0.44354750669E+02 -0.12131078020E+03  0.18069462756E+03  0.12499888129E+03 0.  0.
          5    1    4    4  502    0 -0.36285432375E+02 -0.10254724456E+02 -0.15279797923E+01  0.38029155901E+02  0.47000000000E+01 0.  1.
         -5    1    4    4    0  502  0.54783508066E+02  0.54609475124E+02 -0.11978280041E+03  0.14266547166E+03  0.47000000000E+01 0.  1.
          5    1    3    3  503    0  0.42300513730E+02 -0.11365694955E+02 -0.18021511184E+03  0.18552112823E+03  0.47000000000E+01 0. -1.
         -5    1    3    3    0  503 -0.60798589421E+02 -0.32989055714E+02 -0.71456759574E+02  0.99563571457E+02  0.47000000000E+01 0. -1.
<mgrwt>
<rscale>  0 0.13391967E+03</rscale>
<asrwt>0</asrwt>
<pdfrwt beam="1">  1        5 0.71382061E-02 0.13391996E+03</pdfrwt>
<pdfrwt beam="2">  1       -5 0.64520150E-01 0.13391996E+03</pdfrwt>
<totfact> 0.22561329E+02</totfact>
</mgrwt>
</event>
<event>
 8    1  0.3682083E-007  0.1351203E+03  0.7546771E-02  0.1220051E+00
          5   -1    0    0  501    0  0.00000000000E+00  0.00000000000E+00  0.15320973742E+03  0.15328181118E+03  0.47000000000E+01 0. -1.
         -5   -1    0    0    0  501 -0.00000000000E+00 -0.00000000000E+00 -0.13594200300E+03  0.13602322662E+03  0.47000000000E+01 0. -1.
         25    2    1    2    0    0  0.50411225510E+02  0.95217192512E+01 -0.42376969084E+02  0.14160964035E+03  0.12500211173E+03 0.  0.
         25    2    1    2    0    0 -0.50411225510E+02 -0.95217192512E+01  0.59644703503E+02  0.14769539746E+03  0.12499793990E+03 0.  0.
          5    1    3    3  502    0  0.10581863643E+02 -0.49557725878E+02  0.11478838523E+02  0.52170851691E+02  0.47000000000E+01 0. -1.
         -5    1    3    3    0  502  0.39829361867E+02  0.59079445129E+02 -0.53855807607E+02  0.89438788657E+02  0.47000000000E+01 0. -1.
          5    1    4    4  503    0 -0.33008374406E+02 -0.37740293640E+02  0.89590300274E+02  0.10277351044E+03  0.47000000000E+01 0.  1.
         -5    1    4    4    0  503 -0.17402851103E+02  0.28218574389E+02 -0.29945596771E+02  0.44921887015E+02  0.47000000000E+01 0.  1.
<mgrwt>
<rscale>  0 0.13511929E+03</rscale>
<asrwt>0</asrwt>
<pdfrwt beam="1">  1        5 0.23582521E-01 0.13512025E+03</pdfrwt>
<pdfrwt beam="2">  1       -5 0.20925946E-01 0.13512025E+03</pdfrwt>
<totfact> 0.26130395E+02</totfact>
</mgrwt>
</event>
<event>
 8    1  0.3682083E-007  0.1271535E+03  0.7546771E-02  0.1231742E+00
         -5   -1    0    0    0  501 -0.00000000000E+00  0.00000000000E+00  0.73963946259E+02  0.74113125330E+02  0.47000000000E+01 0.  1.
          5   -1    0    0  501    0  0.00000000000E+00 -0.00000000000E+00 -0.22159569425E+03  0.22164553168E+03  0.47000000000E+01 0.  1.
         25    2    1    2    0    0 -0.23136903898E+02  0.19553920710E+01 -0.55510822219E+02  0.13874241365E+03  0.12501546337E+03 0.  0.
         25    2    1    2    0    0  0.23136903898E+02 -0.19553920710E+01 -0.92120925776E+02  0.15701624335E+03  0.12501478245E+03 0.  0.
          5    1    3    3  502    0  0.12439295250E+02 -0.56099181370E+02 -0.35133086168E+02  0.67515020258E+02  0.47000000000E+01 0. -1.
         -5    1    3    3    0  502 -0.35576199147E+02  0.58054573441E+02 -0.20377736051E+02  0.71227393395E+02  0.47000000000E+01 0. -1.
          5    1    4    4  503    0  0.22252247119E+02  0.52034112816E+02 -0.85178185027E+02  0.10237247971E+03  0.47000000000E+01 0.  1.
         -5    1    4    4    0  503  0.88465677835E+00 -0.53989504886E+02 -0.69427407487E+01  0.54643763639E+02  0.47000000000E+01 0.  1.
<mgrwt>
<rscale>  0 0.12715331E+03</rscale>
<asrwt>0</asrwt>
<pdfrwt beam="2">  1        5 0.34106954E-01 0.12715347E+03</pdfrwt>
<pdfrwt beam="1">  1       -5 0.11394378E-01 0.12715347E+03</pdfrwt>
<totfact> 0.37582979E+02</totfact>
</mgrwt>
</event>
<event>
 8    1  0.3682083E-007  0.1347891E+03  0.7546771E-02  0.1220522E+00
          5   -1    0    0  501    0  0.00000000000E+00  0.00000000000E+00  0.18747237821E+03  0.18753128430E+03  0.47000000000E+01 0.  1.
         -5   -1    0    0    0  501 -0.00000000000E+00 -0.00000000000E+00 -0.10084695977E+03  0.10095642275E+03  0.47000000000E+01 0.  1.
         25    2    1    2    0    0  0.46019354683E+02  0.20573418212E+02  0.14337454970E+02  0.13553785186E+03  0.12499560044E+03 0.  0.
         25    2    1    2    0    0 -0.46019354683E+02 -0.20573418212E+02  0.72287963467E+02  0.15294985519E+03  0.12500824772E+03 0.  0.
          5    1    3    3  502    0 -0.30341906478E+02 -0.21538342056E+02  0.28450289784E+02  0.47074838884E+02  0.47000000000E+01 0.  1.
         -5    1    3    3    0  502  0.76361261161E+02  0.42111760267E+02 -0.14112834813E+02  0.88463012979E+02  0.47000000000E+01 0.  1.
          5    1    4    4  503    0 -0.70777239573E+02  0.18761475736E+02  0.76557472974E+02  0.10604030970E+03  0.47000000000E+01 0. -1.
         -5    1    4    4    0  503  0.24757884890E+02 -0.39334893948E+02 -0.42695095072E+01  0.46909545484E+02  0.47000000000E+01 0. -1.
<mgrwt>
<rscale>  0 0.13478619E+03</rscale>
<asrwt>0</asrwt>
<pdfrwt beam="1">  1        5 0.28854856E-01 0.13478913E+03</pdfrwt>
<pdfrwt beam="2">  1       -5 0.15527868E-01 0.13478913E+03</pdfrwt>
<totfact> 0.30692004E+02</totfact>
</mgrwt>
</event>
<event>
 8    1  0.3682083E-007  0.1288037E+03  0.7546771E-02  0.1229243E+00
          5   -1    0    0  501    0  0.00000000000E+00  0.00000000000E+00  0.31105143618E+03  0.31108694275E+03  0.47000000000E+01 0. -1.
         -5   -1    0    0    0  501 -0.00000000000E+00 -0.00000000000E+00 -0.64950178543E+02  0.65120009926E+02  0.47000000000E+01 0. -1.
         25    2    1    2    0    0  0.30607361065E+02 -0.53615509946E+01  0.43157894747E+02  0.13584183529E+03  0.12499937422E+03 0.  0.
         25    2    1    2    0    0 -0.30607361065E+02  0.53615509946E+01  0.20294336289E+03  0.24036511739E+03  0.12499529726E+03 0.  0.
          5    1    3    3  502    0  0.67866325541E+02  0.12935165970E+02  0.59189581768E+02  0.91096944246E+02  0.47000000000E+01 0.  1.
         -5    1    3    3    0  502 -0.37258964475E+02 -0.18296716965E+02 -0.16031687020E+02  0.44744891040E+02  0.47000000000E+01 0.  1.
          5    1    4    4  503    0 -0.26448499386E+01  0.52389159051E+02  0.33917962995E+02  0.62642936002E+02  0.47000000000E+01 0. -1.
         -5    1    4    4    0  503 -0.27962511127E+02 -0.47027608057E+02  0.16902539990E+03  0.17772218139E+03  0.47000000000E+01 0. -1.
<mgrwt>
<rscale>  0 0.12880274E+03</rscale>
<asrwt>0</asrwt>
<pdfrwt beam="1">  1        5 0.47869861E-01 0.12880373E+03</pdfrwt>
<pdfrwt beam="2">  1       -5 0.10008131E-01 0.12880373E+03</pdfrwt>
<totfact> 0.23687341E+02</totfact>
</mgrwt>
</event>
<event>
 8    1  0.3682083E-007  0.1256291E+03  0.7546771E-02  0.1234093E+00
         -5   -1    0    0    0  501 -0.00000000000E+00  0.00000000000E+00  0.80946192953E+02  0.81082526808E+02  0.47000000000E+01 0. -1.
          5   -1    0    0  501    0  0.00000000000E+00 -0.00000000000E+00 -0.19704367631E+03  0.19709972191E+03  0.47000000000E+01 0. -1.
         25    2    1    2    0    0  0.11556048736E+02 -0.46957899852E+01 -0.42671820059E+02  0.13267841630E+03  0.12500834060E+03 0.  0.
         25    2    1    2    0    0 -0.11556048736E+02  0.46957899852E+01 -0.73425663303E+02  0.14550383241E+03  0.12499777802E+03 0.  0.
          5    1    4    4  502    0 -0.29636638233E+02  0.50760678173E+02 -0.75443782999E+02  0.95754013845E+02  0.47000000000E+01 0.  1.
         -5    1    4    4    0  502  0.18080589497E+02 -0.46064888187E+02  0.20181196961E+01  0.49749818566E+02  0.47000000000E+01 0.  1.
          5    1    3    3  503    0 -0.16858279883E+02 -0.60418216492E+02 -0.21738717711E+02  0.66552417931E+02  0.47000000000E+01 0. -1.
         -5    1    3    3    0  503  0.28414328619E+02  0.55722426507E+02 -0.20933102348E+02  0.66125998371E+02  0.47000000000E+01 0. -1.
<mgrwt>
<rscale>  0 0.12562650E+03</rscale>
<asrwt>0</asrwt>
<pdfrwt beam="2">  1        5 0.30329210E-01 0.12562913E+03</pdfrwt>
<pdfrwt beam="1">  1       -5 0.12468059E-01 0.12562913E+03</pdfrwt>
<totfact> 0.40245858E+02</totfact>
</mgrwt>
</event>
<event>
 8    1  0.3682083E-007  0.1467271E+03  0.7546771E-02  0.1204574E+00
         -5   -1    0    0    0  501 -0.00000000000E+00  0.00000000000E+00  0.14860803811E+03  0.14868234256E+03  0.47000000000E+01 0.  1.
          5   -1    0    0  501    0  0.00000000000E+00 -0.00000000000E+00 -0.16192461120E+03  0.16199280760E+03  0.47000000000E+01 0.  1.
         25    2    1    2    0    0 -0.32129789088E+02 -0.69633435959E+02  0.44047886185E+02  0.15313299108E+03  0.12501343099E+03 0.  0.
         25    2    1    2    0    0  0.32129789088E+02  0.69633435959E+02 -0.57364459279E+02  0.15754215908E+03  0.12509081481E+03 0.  0.
          5    1    3    3  502    0 -0.22192801242E+02  0.28730094180E+02 -0.13056540410E+02  0.38865177036E+02  0.47000000000E+01 0. -1.
         -5    1    3    3    0  502 -0.99369878461E+01 -0.98363530139E+02  0.57104426595E+02  0.11426781404E+03  0.47000000000E+01 0. -1.
          5    1    4    4  503    0 -0.11686601335E+02  0.64309292122E+02  0.19855632306E+02  0.68473336696E+02  0.47000000000E+01 0.  1.
         -5    1    4    4    0  503  0.43816390422E+02  0.53241438369E+01 -0.77220091585E+02  0.89068822389E+02  0.47000000000E+01 0.  1.
<mgrwt>
<rscale>  0 0.14671064E+03</rscale>
<asrwt>0</asrwt>
<pdfrwt beam="2">  1        5 0.24922440E-01 0.14672713E+03</pdfrwt>
<pdfrwt beam="1">  1       -5 0.22873737E-01 0.14672713E+03</pdfrwt>
<totfact> 0.20437878E+02</totfact>
</mgrwt>
</event>
<event>
 8    1  0.3682083E-007  0.1453888E+03  0.7546771E-02  0.1206258E+00
         -5   -1    0    0    0  501 -0.00000000000E+00  0.00000000000E+00  0.17545977542E+03  0.17552271303E+03  0.47000000000E+01 0.  1.
          5   -1    0    0  501    0  0.00000000000E+00 -0.00000000000E+00 -0.14621954329E+03  0.14629506088E+03  0.47000000000E+01 0.  1.
         25    2    1    2    0    0 -0.70894806600E+02 -0.22022376648E+02  0.82286167400E+02  0.16705964607E+03  0.12500741307E+03 0.  0.
         25    2    1    2    0    0  0.70894806600E+02  0.22022376648E+02 -0.53045935267E+02  0.15475812785E+03  0.12500059284E+03 0.  0.
          5    1    3    3  502    0  0.18234421596E+02 -0.86934561988E+01 -0.21264523404E+02  0.29704212954E+02  0.47000000000E+01 0.  1.
         -5    1    3    3    0  502 -0.89129228196E+02 -0.13328920450E+02  0.10355069080E+03  0.13735543311E+03  0.47000000000E+01 0.  1.
          5    1    4    4  503    0  0.10515529508E+03  0.83949086745E+01 -0.51681474429E+02  0.11756349507E+03  0.47000000000E+01 0. -1.
         -5    1    4    4    0  503 -0.34260488477E+02  0.13627467974E+02 -0.13644608379E+01  0.37194632777E+02  0.47000000000E+01 0. -1.
<mgrwt>
<rscale>  0 0.14538736E+03</rscale>
<asrwt>0</asrwt>
<pdfrwt beam="2">  1        5 0.22505965E-01 0.14538883E+03</pdfrwt>
<pdfrwt beam="1">  1       -5 0.27004462E-01 0.14538883E+03</pdfrwt>
<totfact> 0.18001969E+02</totfact>
</mgrwt>
</event>
<event>
 8    1  0.3682083E-007  0.2095100E+03  0.7546771E-02  0.1141955E+00
         -5   -1    0    0    0  501 -0.00000000000E+00  0.00000000000E+00  0.60024856831E+03  0.60026696873E+03  0.47000000000E+01 0.  1.
          5   -1    0    0  501    0  0.00000000000E+00 -0.00000000000E+00 -0.73602047210E+02  0.73751958303E+02  0.47000000000E+01 0.  1.
         25    2    1    2    0    0  0.16899783472E+02  0.16728342365E+03  0.23369716014E+03  0.31386114915E+03  0.12500044713E+03 0.  0.
         25    2    1    2    0    0 -0.16899783472E+02 -0.16728342365E+03  0.29294936096E+03  0.36015777789E+03  0.12499980150E+03 0.  0.
          5    1    3    3  502    0 -0.44011030578E+02  0.74892603554E+02  0.52846865944E+02  0.10178778964E+03  0.47000000000E+01 0. -1.
         -5    1    3    3    0  502  0.60910814049E+02  0.92390820092E+02  0.18085029419E+03  0.21207335951E+03  0.47000000000E+01 0. -1.
          5    1    4    4  503    0  0.17960123852E+02 -0.14310927468E+03  0.13886325943E+03  0.20026963167E+03  0.47000000000E+01 0.  1.
         -5    1    4    4    0  503 -0.34859907323E+02 -0.24174148968E+02  0.15408610153E+03  0.15988814622E+03  0.47000000000E+01 0.  1.
<mgrwt>
<rscale>  0 0.20950995E+03</rscale>
<asrwt>0</asrwt>
<pdfrwt beam="2">  1        5 0.11336339E-01 0.20951004E+03</pdfrwt>
<pdfrwt beam="1">  1       -5 0.92358877E-01 0.20951004E+03</pdfrwt>
<totfact> 0.50432425E+01</totfact>
</mgrwt>
</event>
<event>
 8    1  0.3682083E-007  0.1349985E+03  0.7546771E-02  0.1220222E+00
          5   -1    0    0  501    0  0.00000000000E+00  0.00000000000E+00  0.21180247485E+02  0.21695457671E+02  0.47000000000E+01 0. -1.
         -5   -1    0    0    0  501 -0.00000000000E+00 -0.00000000000E+00 -0.10538425674E+04  0.10538530481E+04  0.47000000000E+01 0. -1.
         25    2    1    2    0    0 -0.39239994958E+02 -0.32565306603E+02 -0.75302482958E+03  0.76503004388E+03  0.12499719073E+03 0.  0.
         25    2    1    2    0    0  0.39239994958E+02  0.32565306603E+02 -0.27963749037E+03  0.31051846186E+03  0.12499725091E+03 0.  0.
          5    1    3    3  502    0 -0.40452446987E+02 -0.31491384647E+02 -0.10455933750E+03  0.11654549684E+03  0.47000000000E+01 0. -1.
         -5    1    3    3    0  502  0.12124520282E+01 -0.10739219558E+01 -0.64846549208E+03  0.64848454705E+03  0.47000000000E+01 0. -1.
          5    1    4    4  503    0 -0.49170567011E+01  0.71042543716E-01 -0.24585719545E+03  0.24595128186E+03  0.47000000000E+01 0.  1.
         -5    1    4    4    0  503  0.44157051660E+02  0.32494264059E+02 -0.33780294919E+02  0.64567179998E+02  0.47000000000E+01 0.  1.
<mgrwt>
<rscale>  0 0.13499846E+03</rscale>
<asrwt>0</asrwt>
<pdfrwt beam="1">  1        5 0.32989382E-02 0.13499848E+03</pdfrwt>
<pdfrwt beam="2">  1       -5 0.16217002E+00 0.13499848E+03</pdfrwt>
<totfact> 0.83932166E+01</totfact>
</mgrwt>
</event>
<event>
 8    1  0.3682083E-007  0.1283512E+03  0.7546771E-02  0.1229924E+00
          5   -1    0    0  501    0  0.00000000000E+00  0.00000000000E+00  0.79703694738E+02  0.79842150240E+02  0.47000000000E+01 0. -1.
         -5   -1    0    0    0  501 -0.00000000000E+00 -0.00000000000E+00 -0.21293302816E+03  0.21298489262E+03  0.47000000000E+01 0. -1.
         25    2    1    2    0    0 -0.24690378993E+02  0.15463703159E+02 -0.92363519947E+02  0.15812985835E+03  0.12500116541E+03 0.  0.
         25    2    1    2    0    0  0.24690378993E+02 -0.15463703159E+02 -0.40865813479E+02  0.13469718451E+03  0.12499830348E+03 0.  0.
          5    1    4    4  502    0  0.27317064758E+02 -0.19641423881E+02  0.40604865521E+02  0.52941974491E+02  0.47000000000E+01 0. -1.
         -5    1    4    4    0  502 -0.26266857651E+01  0.41777207218E+01 -0.81470679000E+02  0.81755210019E+02  0.47000000000E+01 0. -1.
          5    1    3    3  503    0 -0.35096418051E+01  0.63799869617E+02 -0.82137353632E+02  0.10416993717E+03  0.47000000000E+01 0. -1.
         -5    1    3    3    0  503 -0.21180737188E+02 -0.48336166459E+02 -0.10226166315E+02  0.53959921175E+02  0.47000000000E+01 0. -1.
<mgrwt>
<rscale>  0 0.12835051E+03</rscale>
<asrwt>0</asrwt>
<pdfrwt beam="1">  1        5 0.12276747E-01 0.12835121E+03</pdfrwt>
<pdfrwt beam="2">  1       -5 0.32773567E-01 0.12835121E+03</pdfrwt>
<totfact> 0.35783242E+02</totfact>
</mgrwt>
</event>
<event>
 8    1  0.3682083E-007  0.1410003E+03  0.7546771E-02  0.1211996E+00
          5   -1    0    0  501    0  0.00000000000E+00  0.00000000000E+00  0.22369736999E+03  0.22374673928E+03  0.47000000000E+01 0.  1.
         -5   -1    0    0    0  501 -0.00000000000E+00 -0.00000000000E+00 -0.10130669933E+03  0.10141566609E+03  0.47000000000E+01 0.  1.
         25    2    1    2    0    0  0.64265770402E+02 -0.11198504767E+02  0.39863811813E+01  0.14105663319E+03  0.12500234709E+03 0.  0.
         25    2    1    2    0    0 -0.64265770402E+02  0.11198504767E+02  0.11840428948E+03  0.18410577219E+03  0.12497945364E+03 0.  0.
          5    1    4    4  502    0 -0.23468663318E+02  0.38518669856E+01 -0.24959715451E+02  0.34795005857E+02  0.47000000000E+01 0. -1.
         -5    1    4    4    0  502 -0.40797107084E+02  0.73466377814E+01  0.14336400493E+03  0.14931076633E+03  0.47000000000E+01 0. -1.
          5    1    3    3  503    0  0.62523594079E+02 -0.78485856885E+01  0.58559422697E+02  0.86151587916E+02  0.47000000000E+01 0.  1.
         -5    1    3    3    0  503  0.17421763234E+01 -0.33499190786E+01 -0.54573041516E+02  0.54905045273E+02  0.47000000000E+01 0.  1.
<mgrwt>
<rscale>  0 0.14099522E+03</rscale>
<asrwt>0</asrwt>
<pdfrwt beam="1">  1        5 0.34427159E-01 0.14100029E+03</pdfrwt>
<pdfrwt beam="2">  1       -5 0.15597826E-01 0.14100029E+03</pdfrwt>
<totfact> 0.21807933E+02</totfact>
</mgrwt>
</event>
<event>
 8    1  0.3682083E-007  0.1268558E+03  0.7546771E-02  0.1232197E+00
          5   -1    0    0  501    0  0.00000000000E+00  0.00000000000E+00  0.18925184738E+03  0.18931019977E+03  0.47000000000E+01 0. -1.
         -5   -1    0    0    0  501 -0.00000000000E+00 -0.00000000000E+00 -0.86937395892E+02  0.87064348642E+02  0.47000000000E+01 0. -1.
         25    2    1    2    0    0 -0.51963211107E+01 -0.20979273680E+02  0.29999728057E+02  0.13035483299E+03  0.12500106849E+03 0.  0.
         25    2    1    2    0    0  0.51963211107E+01  0.20979273680E+02  0.72314723435E+02  0.14601971542E+03  0.12500082555E+03 0.  0.
          5    1    3    3  502    0  0.26947914837E+02  0.45155738303E+02  0.75797847336E+01  0.53336422380E+02  0.47000000000E+01 0.  1.
         -5    1    3    3    0  502 -0.32144235948E+02 -0.66135011983E+02  0.22419943324E+02  0.77018410613E+02  0.47000000000E+01 0.  1.
          5    1    4    4  503    0  0.62685697179E+02  0.26964163464E+02  0.32895384499E+02  0.75899664449E+02  0.47000000000E+01 0.  1.
         -5    1    4    4    0  503 -0.57489376068E+02 -0.59848897832E+01  0.39419338936E+02  0.70120050973E+02  0.47000000000E+01 0.  1.
<mgrwt>
<rscale>  0 0.12685576E+03</rscale>
<asrwt>0</asrwt>
<pdfrwt beam="1">  1        5 0.29129923E-01 0.12685582E+03</pdfrwt>
<pdfrwt beam="2">  1       -5 0.13389238E-01 0.12685582E+03</pdfrwt>
<totfact> 0.38496110E+02</totfact>
</mgrwt>
</event>
<event>
 8    1  0.3682083E-007  0.1538478E+03  0.7546771E-02  0.1195824E+00
         -5   -1    0    0    0  501 -0.00000000000E+00  0.00000000000E+00  0.81863616115E+03  0.81864965299E+03  0.47000000000E+01 0.  1.
          5   -1    0    0  501    0  0.00000000000E+00 -0.00000000000E+00 -0.35820577547E+02  0.36127604070E+02  0.47000000000E+01 0.  1.
         25    2    1    2    0    0  0.81201862851E+02 -0.38072518490E+02  0.58091437398E+03  0.60094021755E+03  0.12499750390E+03 0.  0.
         25    2    1    2    0    0 -0.81201862851E+02  0.38072518490E+02  0.20190120962E+03  0.25383703951E+03  0.12500353989E+03 0.  0.
          5    1    3    3  502    0 -0.29590677059E+02  0.11790040691E+02  0.12848011697E+03  0.13245317545E+03  0.47000000000E+01 0. -1.
         -5    1    3    3    0  502  0.11079253991E+03 -0.49862559181E+02  0.45243425701E+03  0.46848704211E+03  0.47000000000E+01 0. -1.
          5    1    4    4  503    0  0.74376717640E+01 -0.69636125735E+01 -0.12898638415E+02  0.17096073652E+02  0.47000000000E+01 0. -1.
         -5    1    4    4    0  503 -0.88639534615E+02  0.45036131064E+02  0.21479984804E+03  0.23674096585E+03  0.47000000000E+01 0. -1.
<mgrwt>
<rscale>  0 0.15384657E+03</rscale>
<asrwt>0</asrwt>
<pdfrwt beam="2">  1        5 0.55355135E-02 0.15384780E+03</pdfrwt>
<pdfrwt beam="1">  1       -5 0.12596868E+00 0.15384780E+03</pdfrwt>
<totfact> 0.73446666E+01</totfact>
</mgrwt>
</event>
<event>
 8    1  0.3682083E-007  0.1430086E+03  0.7546771E-02  0.1209339E+00
         -5   -1    0    0    0  501 -0.00000000000E+00  0.00000000000E+00  0.30071123950E+03  0.30074796684E+03  0.47000000000E+01 0. -1.
          5   -1    0    0  501    0  0.00000000000E+00 -0.00000000000E+00 -0.67934910955E+02  0.68097298966E+02  0.47000000000E+01 0. -1.
         25    2    1    2    0    0 -0.19421835561E+02 -0.66692801244E+02  0.12135024835E+03  0.18755203817E+03  0.12499898725E+03 0.  0.
         25    2    1    2    0    0  0.19421835561E+02  0.66692801244E+02  0.11142608020E+03  0.18129322764E+03  0.12500530232E+03 0.  0.
          5    1    3    3  502    0 -0.78133046046E+01  0.14224282736E+02  0.10203465495E+03  0.10342407243E+03  0.47000000000E+01 0.  1.
         -5    1    3    3    0  502 -0.11608530956E+02 -0.80917083980E+02  0.19315593401E+02  0.84127965738E+02  0.47000000000E+01 0.  1.
          5    1    4    4  503    0  0.52787860360E+02 -0.12315162388E+02  0.60801376589E+02  0.81591168770E+02  0.47000000000E+01 0.  1.
         -5    1    4    4    0  503 -0.33366024799E+02  0.79007963632E+02  0.50624703608E+02  0.99702058873E+02  0.47000000000E+01 0.  1.
<mgrwt>
<rscale>  0 0.14300723E+03</rscale>
<asrwt>0</asrwt>
<pdfrwt beam="2">  1        5 0.10466841E-01 0.14300861E+03</pdfrwt>
<pdfrwt beam="1">  1       -5 0.46278584E-01 0.14300861E+03</pdfrwt>
<totfact> 0.24372627E+02</totfact>
</mgrwt>
</event>
<event>
 8    1  0.3682083E-007  0.1532971E+03  0.7546771E-02  0.1196481E+00
         -5   -1    0    0    0  501 -0.00000000000E+00  0.00000000000E+00  0.19979311673E+03  0.19984839127E+03  0.47000000000E+01 0.  1.
          5   -1    0    0  501    0  0.00000000000E+00 -0.00000000000E+00 -0.12039442562E+03  0.12048613082E+03  0.47000000000E+01 0.  1.
         25    2    1    2    0    0  0.80952611807E+02 -0.36326840571E+02  0.64521236215E+02  0.16632196028E+03  0.12500815911E+03 0.  0.
         25    2    1    2    0    0 -0.80952611807E+02  0.36326840571E+02  0.14877454896E+02  0.15401256181E+03  0.12500226329E+03 0.  0.
          5    1    4    4  502    0 -0.96715509972E+02 -0.10375041111E+02 -0.11243941309E+02  0.98030850059E+02  0.47000000000E+01 0.  1.
         -5    1    4    4    0  502  0.15762898165E+02  0.46701881682E+02  0.26121396205E+02  0.55981711754E+02  0.47000000000E+01 0.  1.
          5    1    3    3  503    0 -0.11440935310E+02 -0.25727752892E+02 -0.24409682831E+02  0.37559750872E+02  0.47000000000E+01 0.  1.
         -5    1    3    3    0  503  0.92393547118E+02 -0.10599087679E+02  0.88930919045E+02  0.12876220941E+03  0.47000000000E+01 0.  1.
<mgrwt>
<rscale>  0 0.15329591E+03</rscale>
<asrwt>0</asrwt>
<pdfrwt beam="2">  1        5 0.18533526E-01 0.15329711E+03</pdfrwt>
<pdfrwt beam="1">  1       -5 0.30748709E-01 0.15329711E+03</pdfrwt>
<totfact> 0.20449654E+02</totfact>
</mgrwt>
</event>
<event>
 8    1  0.3682083E-007  0.1544351E+03  0.7546771E-02  0.1195127E+00
         -5   -1    0    0    0  501 -0.00000000000E+00  0.00000000000E+00  0.10958772793E+03  0.10968846846E+03  0.47000000000E+01 0. -1.
          5   -1    0    0  501    0  0.00000000000E+00 -0.00000000000E+00 -0.22231398500E+03  0.22236366144E+03  0.47000000000E+01 0. -1.
         25    2    1    2    0    0  0.77635066225E+02  0.46877651936E+02 -0.31708493147E+02  0.15765578748E+03  0.12500080411E+03 0.  0.
         25    2    1    2    0    0 -0.77635066225E+02 -0.46877651936E+02 -0.81017763925E+02  0.17439634242E+03  0.12500195366E+03 0.  0.
          5    1    3    3  502    0  0.10775737031E+03  0.25261582619E+02 -0.42664802646E+02  0.11871046204E+03  0.47000000000E+01 0. -1.
         -5    1    3    3    0  502 -0.30122304083E+02  0.21616069317E+02  0.10956309500E+02  0.38945325443E+02  0.47000000000E+01 0. -1.
          5    1    4    4  503    0 -0.23116150723E+01  0.39431871470E+02 -0.20252460242E+02  0.44637072011E+02  0.47000000000E+01 0.  1.
         -5    1    4    4    0  503 -0.75323451152E+02 -0.86309523407E+02 -0.60765303683E+02  0.12975927040E+03  0.47000000000E+01 0.  1.
<mgrwt>
<rscale>  0 0.15443489E+03</rscale>
<asrwt>0</asrwt>
<pdfrwt beam="2">  1        5 0.34213722E-01 0.15443512E+03</pdfrwt>
<pdfrwt beam="1">  1       -5 0.16871221E-01 0.15443512E+03</pdfrwt>
<totfact> 0.19717438E+02</totfact>
</mgrwt>
</event>
<event>
 8    1  0.3682083E-007  0.1684516E+03  0.7546771E-02  0.1179473E+00
          5   -1    0    0  501    0  0.00000000000E+00  0.00000000000E+00  0.25663319077E+03  0.25667622525E+03  0.47000000000E+01 0. -1.
         -5   -1    0    0    0  501 -0.00000000000E+00 -0.00000000000E+00 -0.11049342240E+03  0.11059333793E+03  0.47000000000E+01 0. -1.
         25    2    1    2    0    0 -0.10446348352E+03  0.42872883270E+02  0.70223249767E+02  0.18250271972E+03  0.12500093755E+03 0.  0.
         25    2    1    2    0    0  0.10446348352E+03 -0.42872883270E+02  0.75916518605E+02  0.18476684346E+03  0.12499906054E+03 0.  0.
          5    1    3    3  502    0 -0.10649261382E+03  0.70334759942E+02  0.82446671904E+02  0.15201052254E+03  0.47000000000E+01 0.  1.
         -5    1    3    3    0  502  0.20291303031E+01 -0.27461876672E+02 -0.12223422137E+02  0.30492197180E+02  0.47000000000E+01 0.  1.
          5    1    4    4  503    0  0.12896391816E+02 -0.20326206830E+02  0.86356783658E+02  0.89772243426E+02  0.47000000000E+01 0. -1.
         -5    1    4    4    0  503  0.91567091700E+02 -0.22546676440E+02 -0.10440265052E+02  0.94994600032E+02  0.47000000000E+01 0. -1.
<mgrwt>
<rscale>  0 0.16845124E+03</rscale>
<asrwt>0</asrwt>
<pdfrwt beam="1">  1        5 0.39493025E-01 0.16845159E+03</pdfrwt>
<pdfrwt beam="2">  1       -5 0.17009985E-01 0.16845159E+03</pdfrwt>
<totfact> 0.14924735E+02</totfact>
</mgrwt>
</event>
<event>
 8    1  0.3682083E-007  0.1623386E+03  0.7546771E-02  0.1186084E+00
          5   -1    0    0  501    0  0.00000000000E+00  0.00000000000E+00  0.14132395537E+03  0.14140208754E+03  0.47000000000E+01 0. -1.
         -5   -1    0    0    0  501 -0.00000000000E+00 -0.00000000000E+00 -0.26247277410E+03  0.26251485128E+03  0.47000000000E+01 0. -1.
         25    2    1    2    0    0  0.98410583420E+02 -0.32268578487E+02 -0.16933893148E+03  0.23457676458E+03  0.12499872271E+03 0.  0.
         25    2    1    2    0    0 -0.98410583420E+02  0.32268578487E+02  0.48190112752E+02  0.16934017425E+03  0.12501161370E+03 0.  0.
          5    1    3    3  502    0  0.17008950087E+00 -0.40750127546E+02 -0.29746584631E+01  0.41128340818E+02  0.47000000000E+01 0. -1.
         -5    1    3    3    0  502  0.98240493919E+02  0.84815490591E+01 -0.16636427301E+03  0.19344842376E+03  0.47000000000E+01 0. -1.
          5    1    4    4  503    0 -0.12071227071E+03 -0.11876248381E+01  0.44284728265E+02  0.12867047023E+03  0.47000000000E+01 0. -1.
         -5    1    4    4    0  503  0.22301687286E+02  0.33456203325E+02  0.39053844869E+01  0.40669704015E+02  0.47000000000E+01 0. -1.
<mgrwt>
<rscale>  0 0.16233608E+03</rscale>
<asrwt>0</asrwt>
<pdfrwt beam="1">  1        5 0.21751394E-01 0.16233856E+03</pdfrwt>
<pdfrwt beam="2">  1       -5 0.40389674E-01 0.16233856E+03</pdfrwt>
<totfact> 0.89131226E+01</totfact>
</mgrwt>
</event>
<event>
 8    1  0.3682083E-007  0.1320068E+03  0.7546771E-02  0.1224509E+00
          5   -1    0    0  501    0  0.00000000000E+00  0.00000000000E+00  0.29560087079E+02  0.29931400704E+02  0.47000000000E+01 0.  1.
         -5   -1    0    0    0  501 -0.00000000000E+00 -0.00000000000E+00 -0.59172812997E+03  0.59174679534E+03  0.47000000000E+01 0.  1.
         25    2    1    2    0    0  0.35307658288E+02  0.23568341877E+02 -0.31314121802E+03  0.33982689546E+03  0.12499119561E+03 0.  0.
         25    2    1    2    0    0 -0.35307658288E+02 -0.23568341877E+02 -0.24902682487E+03  0.28185130059E+03  0.12499479455E+03 0.  0.
          5    1    4    4  502    0 -0.59149262497E+02  0.34655188973E+02 -0.12204309664E+03  0.14005793378E+03  0.47000000000E+01 0. -1.
         -5    1    4    4    0  502  0.23841604209E+02 -0.58223530850E+02 -0.12698372823E+03  0.14179336681E+03  0.47000000000E+01 0. -1.
          5    1    3    3  503    0  0.71323731947E+02 -0.11583045854E+01 -0.10452276342E+03  0.12663141190E+03  0.47000000000E+01 0. -1.
         -5    1    3    3    0  503 -0.36016073659E+02  0.24726646463E+02 -0.20861845461E+03  0.21319548356E+03  0.47000000000E+01 0. -1.
<mgrwt>
<rscale>  0 0.13200595E+03</rscale>
<asrwt>0</asrwt>
<pdfrwt beam="1">  1        5 0.45777045E-02 0.13200680E+03</pdfrwt>
<pdfrwt beam="2">  1       -5 0.91065086E-01 0.13200680E+03</pdfrwt>
<totfact> 0.21435453E+02</totfact>
</mgrwt>
</event>
<event>
 8    1  0.3682083E-007  0.1463191E+03  0.7546771E-02  0.1205072E+00
         -5   -1    0    0    0  501 -0.00000000000E+00  0.00000000000E+00  0.54903086076E+02  0.55103891520E+02  0.47000000000E+01 0. -1.
          5   -1    0    0  501    0  0.00000000000E+00 -0.00000000000E+00 -0.40679990601E+03  0.40682705604E+03  0.47000000000E+01 0. -1.
         25    2    1    2    0    0 -0.42781984575E+01 -0.75927522417E+02 -0.12765751291E+03  0.19417630323E+03  0.12499881796E+03 0.  0.
         25    2    1    2    0    0  0.42781984575E+01  0.75927522417E+02 -0.22423930702E+03  0.26775464433E+03  0.12500396435E+03 0.  0.
          5    1    3    3  502    0  0.21071151011E+01 -0.85260846989E+02 -0.22529677297E+02  0.88337581597E+02  0.47000000000E+01 0. -1.
         -5    1    3    3    0  502 -0.63853135586E+01  0.93333245712E+01 -0.10512783561E+03  0.10583872164E+03  0.47000000000E+01 0. -1.
          5    1    4    4  503    0 -0.14783214221E+02  0.28463276114E+02  0.50284538868E+01  0.32803610447E+02  0.47000000000E+01 0.  1.
         -5    1    4    4    0  503  0.19061412679E+02  0.47464246303E+02 -0.22926776091E+03  0.23495103388E+03  0.47000000000E+01 0.  1.
<mgrwt>
<rscale>  0 0.14631801E+03</rscale>
<asrwt>0</asrwt>
<pdfrwt beam="2">  1        5 0.62602134E-01 0.14631911E+03</pdfrwt>
<pdfrwt beam="1">  1       -5 0.84641639E-02 0.14631911E+03</pdfrwt>
<totfact> 0.18556777E+02</totfact>
</mgrwt>
</event>
<event>
 8    1  0.3682083E-007  0.1285686E+03  0.7546771E-02  0.1229596E+00
         -5   -1    0    0    0  501 -0.00000000000E+00  0.00000000000E+00  0.15754062442E+03  0.15761071772E+03  0.47000000000E+01 0.  1.
          5   -1    0    0  501    0  0.00000000000E+00 -0.00000000000E+00 -0.10836890162E+03  0.10847077412E+03  0.47000000000E+01 0.  1.
         25    2    1    2    0    0  0.65049947787E+01 -0.29342774608E+02  0.48786008943E+02  0.13751344650E+03  0.12500623953E+03 0.  0.
         25    2    1    2    0    0 -0.65049947787E+01  0.29342774608E+02  0.38571385567E+00  0.12856804534E+03  0.12500512041E+03 0.  0.
          5    1    3    3  502    0  0.56042863730E+02 -0.42370810762E+02  0.49497840392E+02  0.86070984560E+02  0.47000000000E+01 0. -1.
         -5    1    3    3    0  502 -0.49537868952E+02  0.13028036154E+02 -0.71183144898E+00  0.51442461939E+02  0.47000000000E+01 0. -1.
          5    1    4    4  503    0 -0.38037842814E+02 -0.35624606887E+02 -0.15303479203E+02  0.54518589285E+02  0.47000000000E+01 0. -1.
         -5    1    4    4    0  503  0.31532848036E+02  0.64967381495E+02  0.15689193059E+02  0.74049456057E+02  0.47000000000E+01 0. -1.
<mgrwt>
<rscale>  0 0.12856828E+03</rscale>
<asrwt>0</asrwt>
<pdfrwt beam="2">  1        5 0.16685367E-01 0.12856855E+03</pdfrwt>
<pdfrwt beam="1">  1       -5 0.24250247E-01 0.12856855E+03</pdfrwt>
<totfact> 0.37014968E+02</totfact>
</mgrwt>
</event>
<event>
 8    1  0.3682083E-007  0.1274495E+03  0.7546771E-02  0.1231290E+00
         -5   -1    0    0    0  501 -0.00000000000E+00  0.00000000000E+00  0.33594542654E+02  0.33921723071E+02  0.47000000000E+01 0. -1.
          5   -1    0    0  501    0  0.00000000000E+00 -0.00000000000E+00 -0.51061398426E+03  0.51063561462E+03  0.47000000000E+01 0. -1.
         25    2    1    2    0    0  0.24443224574E+02  0.45256118762E+01 -0.17276989343E+03  0.21469233829E+03  0.12500164661E+03 0.  0.
         25    2    1    2    0    0 -0.24443224574E+02 -0.45256118762E+01 -0.30424954817E+03  0.32986499940E+03  0.12500071150E+03 0.  0.
          5    1    4    4  502    0 -0.43349614937E+02 -0.13584407046E+02 -0.30496728296E+03  0.30836805753E+03  0.47000000000E+01 0. -1.
         -5    1    4    4    0  502  0.18906390363E+02  0.90587951696E+01  0.71773478637E+00  0.21496941869E+02  0.47000000000E+01 0. -1.
          5    1    3    3  503    0  0.92001917877E+01 -0.33905097229E+02 -0.16926408111E+03  0.17293530091E+03  0.47000000000E+01 0.  1.
         -5    1    3    3    0  503  0.15243032786E+02  0.38430709105E+02 -0.35058123205E+01  0.41757037381E+02  0.47000000000E+01 0.  1.
<mgrwt>
<rscale>  0 0.12744923E+03</rscale>
<asrwt>0</asrwt>
<pdfrwt beam="2">  1        5 0.78582824E-01 0.12744946E+03</pdfrwt>
<pdfrwt beam="1">  1       -5 0.51952231E-02 0.12744946E+03</pdfrwt>
<totfact> 0.24228471E+02</totfact>
</mgrwt>
</event>
<event>
 8    1  0.3682083E-007  0.2163014E+03  0.7546771E-02  0.1136673E+00
          5   -1    0    0  501    0  0.00000000000E+00  0.00000000000E+00  0.35654789228E+02  0.35963231152E+02  0.47000000000E+01 0.  1.
         -5   -1    0    0    0  501 -0.00000000000E+00 -0.00000000000E+00 -0.13301898688E+04  0.13301981721E+04  0.47000000000E+01 0.  1.
         25    2    1    2    0    0  0.13734359672E+03 -0.11087499769E+03 -0.73904143164E+03  0.77004105061E+03  0.12499781305E+03 0.  0.
         25    2    1    2    0    0 -0.13734359672E+03  0.11087499769E+03 -0.55549364798E+03  0.59612035269E+03  0.12501901167E+03 0.  0.
          5    1    4    4  502    0 -0.54945279874E+02 -0.91579494776E+01 -0.71964349271E+02  0.91125240110E+02  0.47000000000E+01 0. -1.
         -5    1    4    4    0  502 -0.82398316842E+02  0.12003294717E+03 -0.48352929871E+03  0.50499511258E+03  0.47000000000E+01 0. -1.
          5    1    3    3  503    0  0.11980999008E+03 -0.85434973622E+02 -0.71659583263E+03  0.73156356237E+03  0.47000000000E+01 0.  1.
         -5    1    3    3    0  503  0.17533606638E+02 -0.25440024067E+02 -0.22445599008E+02  0.38477488238E+02  0.47000000000E+01 0.  1.
<mgrwt>
<rscale>  0 0.21629831E+03</rscale>
<asrwt>0</asrwt>
<pdfrwt beam="1">  1        5 0.55097182E-02 0.21630137E+03</pdfrwt>
<pdfrwt beam="2">  1       -5 0.20466892E+00 0.21630137E+03</pdfrwt>
<totfact> 0.20256511E+01</totfact>
</mgrwt>
</event>
<event>
 8    1  0.3682083E-007  0.1605796E+03  0.7546771E-02  0.1188058E+00
         -5   -1    0    0    0  501 -0.00000000000E+00  0.00000000000E+00  0.30137078763E+03  0.30140743461E+03  0.47000000000E+01 0.  1.
          5   -1    0    0  501    0  0.00000000000E+00 -0.00000000000E+00 -0.97240062751E+02  0.97353581361E+02  0.47000000000E+01 0.  1.
         25    2    1    2    0    0 -0.20004849627E+02 -0.98759565946E+02  0.17151050201E+03  0.23495034499E+03  0.12502866247E+03 0.  0.
         25    2    1    2    0    0  0.20004849627E+02  0.98759565946E+02  0.32620222871E+02  0.16381067097E+03  0.12496483950E+03 0.  0.
          5    1    4    4  502    0 -0.23047746323E+01  0.56817556013E+02  0.78868291411E+02  0.97343947154E+02  0.47000000000E+01 0. -1.
         -5    1    4    4    0  502  0.22309624259E+02  0.41942009933E+02 -0.46248068539E+02  0.66466723820E+02  0.47000000000E+01 0. -1.
          5    1    3    3  503    0 -0.14088486862E+02 -0.52415099089E+01  0.13234855378E+03  0.13328236408E+03  0.47000000000E+01 0.  1.
         -5    1    3    3    0  503 -0.59163627650E+01 -0.93518056037E+02  0.39161948227E+02  0.10166798091E+03  0.47000000000E+01 0.  1.
<mgrwt>
<rscale>  0 0.16056719E+03</rscale>
<asrwt>0</asrwt>
<pdfrwt beam="2">  1        5 0.14971561E-01 0.16057961E+03</pdfrwt>
<pdfrwt beam="1">  1       -5 0.46376287E-01 0.16057961E+03</pdfrwt>
<totfact> 0.13311820E+02</totfact>
</mgrwt>
</event>
<event>
 8    1  0.3682083E-007  0.1452397E+03  0.7546771E-02  0.1206449E+00
          5   -1    0    0  501    0  0.00000000000E+00  0.00000000000E+00  0.30980109392E+03  0.30983674378E+03  0.47000000000E+01 0.  1.
         -5   -1    0    0    0  501 -0.00000000000E+00 -0.00000000000E+00 -0.72716401756E+02  0.72868134904E+02  0.47000000000E+01 0.  1.
         25    2    1    2    0    0 -0.58605249822E+02 -0.45093018075E+02  0.69706896896E+02  0.16110125010E+03  0.12500642273E+03 0.  0.
         25    2    1    2    0    0  0.58605249822E+02  0.45093018075E+02  0.16737779527E+03  0.22160362858E+03  0.12499954506E+03 0.  0.
          5    1    4    4  502    0  0.54603036379E+02 -0.43734242139E+01  0.16246080566E+03  0.17151157919E+03  0.47000000000E+01 0. -1.
         -5    1    4    4    0  502  0.40022134429E+01  0.49466442289E+02  0.49169896102E+01  0.50092049389E+02  0.47000000000E+01 0. -1.
          5    1    3    3  503    0 -0.10654239308E+02 -0.73518593598E+02  0.74045732526E+02  0.10499217554E+03  0.47000000000E+01 0. -1.
         -5    1    3    3    0  503 -0.47951010515E+02  0.28425575523E+02 -0.43388356300E+01  0.56109074558E+02  0.47000000000E+01 0. -1.
<mgrwt>
<rscale>  0 0.14523819E+03</rscale>
<asrwt>0</asrwt>
<pdfrwt beam="1">  1        5 0.47676121E-01 0.14523967E+03</pdfrwt>
<pdfrwt beam="2">  1       -5 0.11201553E-01 0.14523967E+03</pdfrwt>
<totfact> 0.20427443E+02</totfact>
</mgrwt>
</event>
<event>
 8    1  0.3682083E-007  0.1305153E+03  0.7546771E-02  0.1226693E+00
          5   -1    0    0  501    0  0.00000000000E+00  0.00000000000E+00  0.13108279593E+02  0.13925408213E+02  0.47000000000E+01 0.  1.
         -5   -1    0    0    0  501 -0.00000000000E+00 -0.00000000000E+00 -0.12739980477E+04  0.12740067172E+04  0.47000000000E+01 0.  1.
         25    2    1    2    0    0 -0.97304214067E+01 -0.36267173476E+02 -0.69937633293E+03  0.71145028192E+03  0.12499703838E+03 0.  0.
         25    2    1    2    0    0  0.97304214067E+01  0.36267173476E+02 -0.56151343514E+03  0.57648184349E+03  0.12499595616E+03 0.  0.
          5    1    3    3  502    0 -0.55608262948E+02 -0.16338965228E+02 -0.56508681656E+03  0.56807080627E+03  0.47000000000E+01 0.  1.
         -5    1    3    3    0  502  0.45877841541E+02 -0.19928208248E+02 -0.13428951638E+03  0.14337947565E+03  0.47000000000E+01 0.  1.
          5    1    4    4  503    0  0.56281926591E+02  0.27224768319E+02 -0.46100105647E+03  0.46524499711E+03  0.47000000000E+01 0. -1.
         -5    1    4    4    0  503 -0.46551505184E+02  0.90424051566E+01 -0.10051237867E+03  0.11123684638E+03  0.47000000000E+01 0. -1.
<mgrwt>
<rscale>  0 0.13051506E+03</rscale>
<asrwt>0</asrwt>
<pdfrwt beam="1">  1        5 0.20801823E-02 0.13051532E+03</pdfrwt>
<pdfrwt beam="2">  1       -5 0.19606313E+00 0.13051532E+03</pdfrwt>
<totfact> 0.99744590E+01</totfact>
</mgrwt>
</event>
<event>
 8    1  0.3682083E-007  0.1777294E+03  0.7546771E-02  0.1170019E+00
          5   -1    0    0  501    0  0.00000000000E+00  0.00000000000E+00  0.10283902705E+03  0.10294637188E+03  0.47000000000E+01 0. -1.
         -5   -1    0    0    0  501 -0.00000000000E+00 -0.00000000000E+00 -0.30777861902E+03  0.30781450311E+03  0.47000000000E+01 0. -1.
         25    2    1    2    0    0  0.97848622108E+02 -0.79929650910E+02 -0.11364676671E+03  0.21095815491E+03  0.12499861438E+03 0.  0.
         25    2    1    2    0    0 -0.97848622108E+02  0.79929650910E+02 -0.91292825261E+02  0.19980272008E+03  0.12499458014E+03 0.  0.
          5    1    4    4  502    0  0.16996134328E+02  0.46623366005E+02 -0.94119778890E+00  0.49855618470E+02  0.47000000000E+01 0.  1.
         -5    1    4    4    0  502 -0.11484475644E+03  0.33306284906E+02 -0.90351627472E+02  0.14994710161E+03  0.47000000000E+01 0.  1.
          5    1    3    3  503    0 -0.12332001617E+02 -0.54064596730E+02 -0.82977194196E+01  0.56267228748E+02  0.47000000000E+01 0.  1.
         -5    1    3    3    0  503  0.11018062373E+03 -0.25865054180E+02 -0.10534904729E+03  0.15469092616E+03  0.47000000000E+01 0.  1.
<mgrwt>
<rscale>  0 0.17772874E+03</rscale>
<asrwt>0</asrwt>
<pdfrwt beam="1">  1        5 0.15832406E-01 0.17772944E+03</pdfrwt>
<pdfrwt beam="2">  1       -5 0.47361574E-01 0.17772944E+03</pdfrwt>
<totfact> 0.11855087E+02</totfact>
</mgrwt>
</event>
<event>
 8    1  0.3682083E-007  0.1390787E+03  0.7546771E-02  0.1214581E+00
          5   -1    0    0  501    0  0.00000000000E+00  0.00000000000E+00  0.12849417687E+03  0.12858010534E+03  0.47000000000E+01 0. -1.
         -5   -1    0    0    0  501 -0.00000000000E+00 -0.00000000000E+00 -0.15037716962E+03  0.15045060034E+03  0.47000000000E+01 0. -1.
         25    2    1    2    0    0 -0.35160720643E+01  0.60877813743E+02 -0.13128715289E+02  0.13969696320E+03  0.12499762955E+03 0.  0.
         25    2    1    2    0    0  0.35160720643E+01 -0.60877813743E+02 -0.87542774593E+01  0.13933374249E+03  0.12497513134E+03 0.  0.
          5    1    3    3  502    0 -0.55449493756E+02  0.20694689344E+01  0.12412671659E+02  0.57053426516E+02  0.47000000000E+01 0. -1.
         -5    1    3    3    0  502  0.51933421692E+02  0.58808344808E+02 -0.25541386948E+02  0.82643536680E+02  0.47000000000E+01 0. -1.
          5    1    4    4  503    0  0.16663911009E+02 -0.85378828057E+02  0.29351132151E+02  0.91928282748E+02  0.47000000000E+01 0.  1.
         -5    1    4    4    0  503 -0.13147838945E+02  0.24501014314E+02 -0.38105409610E+02  0.47405459737E+02  0.47000000000E+01 0.  1.
<mgrwt>
<rscale>  0 0.13907362E+03</rscale>
<asrwt>0</asrwt>
<pdfrwt beam="1">  1        5 0.19780593E-01 0.13907868E+03</pdfrwt>
<pdfrwt beam="2">  1       -5 0.23147208E-01 0.13907868E+03</pdfrwt>
<totfact> 0.30375010E+02</totfact>
</mgrwt>
</event>
<event>
 8    1  0.3682083E-007  0.1344687E+03  0.7546771E-02  0.1220973E+00
         -5   -1    0    0    0  501 -0.00000000000E+00  0.00000000000E+00  0.29580420731E+03  0.29584154384E+03  0.47000000000E+01 0.  1.
          5   -1    0    0  501    0  0.00000000000E+00 -0.00000000000E+00 -0.63889440218E+02  0.64062083726E+02  0.47000000000E+01 0.  1.
         25    2    1    2    0    0 -0.43025295495E+02 -0.24605062919E+02  0.15419853074E+03  0.20459477319E+03  0.12500099665E+03 0.  0.
         25    2    1    2    0    0  0.43025295495E+02  0.24605062919E+02  0.77716236355E+02  0.15530885437E+03  0.12499776670E+03 0.  0.
          5    1    4    4  502    0  0.15327278360E+01  0.63734222769E+02  0.69540350295E+01  0.64302791617E+02  0.47000000000E+01 0. -1.
         -5    1    4    4    0  502  0.41492567659E+02 -0.39129159850E+02  0.70762201326E+02  0.91006062754E+02  0.47000000000E+01 0. -1.
          5    1    3    3  503    0 -0.30594641727E+02 -0.34170877210E+02  0.17336214854E+03  0.17938842075E+03  0.47000000000E+01 0. -1.
         -5    1    3    3    0  503 -0.12430653768E+02  0.95658142903E+01 -0.19163617807E+02  0.25206352446E+02  0.47000000000E+01 0. -1.
<mgrwt>
<rscale>  0 0.13446796E+03</rscale>
<asrwt>0</asrwt>
<pdfrwt beam="2">  1        5 0.98452973E-02 0.13446871E+03</pdfrwt>
<pdfrwt beam="1">  1       -5 0.45524491E-01 0.13446871E+03</pdfrwt>
<totfact> 0.27493123E+02</totfact>
</mgrwt>
</event>
<event>
 8    1  0.3682083E-007  0.1506017E+03  0.7546771E-02  0.1199737E+00
          5   -1    0    0  501    0  0.00000000000E+00  0.00000000000E+00  0.42054021492E+02  0.42315844829E+02  0.47000000000E+01 0.  1.
         -5   -1    0    0    0  501 -0.00000000000E+00 -0.00000000000E+00 -0.59817244003E+03  0.59819090432E+03  0.47000000000E+01 0.  1.
         25    2    1    2    0    0  0.46145536030E+02  0.70186310595E+02 -0.38015004773E+03  0.40889477357E+03  0.12500139349E+03 0.  0.
         25    2    1    2    0    0 -0.46145536030E+02 -0.70186310595E+02 -0.17596837081E+03  0.23161197558E+03  0.12499484396E+03 0.  0.
          5    1    3    3  502    0  0.52499817229E+02  0.82856424462E+02 -0.38146642937E+03  0.39390372506E+03  0.47000000000E+01 0. -1.
         -5    1    3    3    0  502 -0.63542811983E+01 -0.12670113867E+02  0.13163816336E+01  0.14991048514E+02  0.47000000000E+01 0. -1.
          5    1    4    4  503    0 -0.41227039255E+02 -0.10616198796E+03 -0.13315268210E+03  0.17527624826E+03  0.47000000000E+01 0.  1.
         -5    1    4    4    0  503 -0.49184967751E+01  0.35975677369E+02 -0.42815688708E+02  0.56335727316E+02  0.47000000000E+01 0.  1.
<mgrwt>
<rscale>  0 0.15060036E+03</rscale>
<asrwt>0</asrwt>
<pdfrwt beam="1">  1        5 0.64914105E-02 0.15060172E+03</pdfrwt>
<pdfrwt beam="2">  1       -5 0.92048084E-01 0.15060172E+03</pdfrwt>
<totfact> 0.12166942E+02</totfact>
</mgrwt>
</event>
<event>
 8    1  0.3682083E-007  0.1522421E+03  0.7546771E-02  0.1197746E+00
         -5   -1    0    0    0  501 -0.00000000000E+00  0.00000000000E+00  0.55885178468E+02  0.56082467603E+02  0.47000000000E+01 0. -1.
          5   -1    0    0  501    0  0.00000000000E+00 -0.00000000000E+00 -0.41528662259E+03  0.41531321783E+03  0.47000000000E+01 0. -1.
         25    2    1    2    0    0  0.83825871145E+02  0.22928534495E+02 -0.16552160377E+03  0.22488899538E+03  0.12500065823E+03 0.  0.
         25    2    1    2    0    0 -0.83825871145E+02 -0.22928534495E+02 -0.19387984035E+03  0.24650669006E+03  0.12499464541E+03 0.  0.
          5    1    4    4  502    0  0.27358650462E+02 -0.11341614614E+02 -0.10659017370E+02  0.31825031476E+02  0.47000000000E+01 0.  1.
         -5    1    4    4    0  502 -0.11118452161E+03 -0.11586919881E+02 -0.18322082298E+03  0.21468165858E+03  0.47000000000E+01 0.  1.
          5    1    3    3  503    0  0.34587769824E+02  0.28340629667E+02 -0.16912688835E+03  0.17500142706E+03  0.47000000000E+01 0. -1.
         -5    1    3    3    0  503  0.49238101321E+02 -0.54120951721E+01  0.36052845713E+01  0.49887568318E+02  0.47000000000E+01 0. -1.
<mgrwt>
<rscale>  0 0.15224087E+03</rscale>
<asrwt>0</asrwt>
<pdfrwt beam="2">  1        5 0.63907469E-01 0.15224211E+03</pdfrwt>
<pdfrwt beam="1">  1       -5 0.86149419E-02 0.15224211E+03</pdfrwt>
<totfact> 0.17420336E+02</totfact>
</mgrwt>
</event>
<event>
 8    1  0.3682083E-007  0.1743786E+03  0.7546771E-02  0.1173359E+00
          5   -1    0    0  501    0  0.00000000000E+00  0.00000000000E+00  0.10050831909E+03  0.10061815048E+03  0.47000000000E+01 0. -1.
         -5   -1    0    0    0  501 -0.00000000000E+00 -0.00000000000E+00 -0.30923570606E+03  0.30927142109E+03  0.47000000000E+01 0. -1.
         25    2    1    2    0    0  0.84444626437E+02  0.87478877647E+02 -0.73534689999E+02  0.18924912706E+03  0.12499772994E+03 0.  0.
         25    2    1    2    0    0 -0.84444626437E+02 -0.87478877647E+02 -0.13519269697E+03  0.22064044452E+03  0.12498676520E+03 0.  0.
          5    1    3    3  502    0  0.16541515176E+02  0.17335801534E+02 -0.87204388084E+02  0.90558528258E+02  0.47000000000E+01 0. -1.
         -5    1    3    3    0  502  0.67903111261E+02  0.70143076112E+02  0.13669698085E+02  0.98690598798E+02  0.47000000000E+01 0. -1.
          5    1    4    4  503    0 -0.77217656963E+02 -0.90713535407E+02 -0.41112035926E+02  0.12611027536E+03  0.47000000000E+01 0.  1.
         -5    1    4    4    0  503 -0.72269694738E+01  0.32346577608E+01 -0.94080661044E+02  0.94530169158E+02  0.47000000000E+01 0.  1.
<mgrwt>
<rscale>  0 0.17437659E+03</rscale>
<asrwt>0</asrwt>
<pdfrwt beam="1">  1        5 0.15474014E-01 0.17437856E+03</pdfrwt>
<pdfrwt beam="2">  1       -5 0.47585919E-01 0.17437856E+03</pdfrwt>
<totfact> 0.12170041E+02</totfact>
</mgrwt>
</event>
<event>
 8    1  0.3682083E-007  0.1393527E+03  0.7546771E-02  0.1214206E+00
         -5   -1    0    0    0  501 -0.00000000000E+00  0.00000000000E+00  0.15353675897E+03  0.15360867929E+03  0.47000000000E+01 0.  1.
          5   -1    0    0  501    0  0.00000000000E+00 -0.00000000000E+00 -0.24862663728E+03  0.24867105735E+03  0.47000000000E+01 0.  1.
         25    2    1    2    0    0  0.43649924379E+02 -0.43436327670E+02  0.93486754562E+02  0.16780627654E+03  0.12500857054E+03 0.  0.
         25    2    1    2    0    0 -0.43649924379E+02  0.43436327670E+02 -0.18857663287E+03  0.23447346010E+03  0.12499850625E+03 0.  0.
          5    1    3    3  502    0  0.12668692734E+02 -0.50553283733E+02  0.11688008074E+03  0.12805925794E+03  0.47000000000E+01 0. -1.
         -5    1    3    3    0  502  0.30981231644E+02  0.71169560628E+01 -0.23393326177E+02  0.39747018598E+02  0.47000000000E+01 0. -1.
          5    1    4    4  503    0  0.37857468091E+01  0.88720654017E+01  0.17291697656E+02  0.20350386513E+02  0.47000000000E+01 0. -1.
         -5    1    4    4    0  503 -0.47435671188E+02  0.34564262268E+02 -0.20586833053E+03  0.21412307359E+03  0.47000000000E+01 0. -1.
<mgrwt>
<rscale>  0 0.13935044E+03</rscale>
<asrwt>0</asrwt>
<pdfrwt beam="2">  1        5 0.38259201E-01 0.13935269E+03</pdfrwt>
<pdfrwt beam="1">  1       -5 0.23629989E-01 0.13935269E+03</pdfrwt>
<totfact> 0.81127487E+01</totfact>
</mgrwt>
</event>
<event>
 8    1  0.3682083E-007  0.1387932E+03  0.7546771E-02  0.1214964E+00
          5   -1    0    0  501    0  0.00000000000E+00  0.00000000000E+00  0.29746914416E+03  0.29750627175E+03  0.47000000000E+01 0. -1.
         -5   -1    0    0    0  501 -0.00000000000E+00 -0.00000000000E+00 -0.64677033452E+02  0.64847580187E+02  0.47000000000E+01 0. -1.
         25    2    1    2    0    0  0.53595354976E+02  0.27653109170E+02  0.12131513617E+03  0.18433914294E+03  0.12500560322E+03 0.  0.
         25    2    1    2    0    0 -0.53595354976E+02 -0.27653109170E+02  0.11147697454E+03  0.17801470899E+03  0.12499985697E+03 0.  0.
          5    1    4    4  502    0  0.27481049145E+02 -0.42096767086E+02  0.18631441459E+02  0.53819759122E+02  0.47000000000E+01 0. -1.
         -5    1    4    4    0  502 -0.81076404121E+02  0.14443657915E+02  0.92845533084E+02  0.12419494987E+03  0.47000000000E+01 0. -1.
          5    1    3    3  503    0  0.54829308175E+02  0.33731941626E+02  0.14537069730E+03  0.15905604847E+03  0.47000000000E+01 0.  1.
         -5    1    3    3    0  503 -0.12339531983E+01 -0.60788324553E+01 -0.24055561136E+02  0.25283094472E+02  0.47000000000E+01 0.  1.
<mgrwt>
<rscale>  0 0.13879192E+03</rscale>
<asrwt>0</asrwt>
<pdfrwt beam="1">  1        5 0.45780458E-01 0.13879322E+03</pdfrwt>
<pdfrwt beam="2">  1       -5 0.99662878E-02 0.13879322E+03</pdfrwt>
<totfact> 0.26888799E+02</totfact>
</mgrwt>
</event>
<event>
 8    1  0.3682083E-007  0.1585206E+03  0.7546771E-02  0.1190380E+00
          5   -1    0    0  501    0  0.00000000000E+00  0.00000000000E+00  0.24634646175E+03  0.24639129290E+03  0.47000000000E+01 0.  1.
         -5   -1    0    0    0  501 -0.00000000000E+00 -0.00000000000E+00 -0.10198625282E+03  0.10209449428E+03  0.47000000000E+01 0.  1.
         25    2    1    2    0    0  0.33234772655E+01  0.97429478795E+02  0.66859777677E+02  0.17203441828E+03  0.12498824890E+03 0.  0.
         25    2    1    2    0    0 -0.33234772655E+01 -0.97429478795E+02  0.77500431262E+02  0.17645136891E+03  0.12500087962E+03 0.  0.
          5    1    4    4  502    0 -0.60440559699E+02 -0.36373415575E+02  0.15816026432E+02  0.72445312543E+02  0.47000000000E+01 0. -1.
         -5    1    4    4    0  502  0.57117082433E+02 -0.61056063220E+02  0.61684404830E+02  0.10400605637E+03  0.47000000000E+01 0. -1.
          5    1    3    3  503    0  0.85368827419E+01  0.79456136156E+02  0.10336793986E+03  0.13074087704E+03  0.47000000000E+01 0. -1.
         -5    1    3    3    0  503 -0.52134054764E+01  0.17973342639E+02 -0.36508162179E+02  0.41293541238E+02  0.47000000000E+01 0. -1.
<mgrwt>
<rscale>  0 0.15851807E+03</rscale>
<asrwt>0</asrwt>
<pdfrwt beam="1">  1        5 0.37911230E-01 0.15852056E+03</pdfrwt>
<pdfrwt beam="2">  1       -5 0.15701968E-01 0.15852056E+03</pdfrwt>
<totfact> 0.18436459E+02</totfact>
</mgrwt>
</event>
<event>
 8    1  0.3682083E-007  0.1330142E+03  0.7546771E-02  0.1223064E+00
         -5   -1    0    0    0  501 -0.00000000000E+00  0.00000000000E+00  0.18064795988E+04  0.18064857129E+04  0.47000000000E+01 0.  1.
          5   -1    0    0  501    0  0.00000000000E+00 -0.00000000000E+00 -0.96181973556E+01  0.10705125892E+02  0.47000000000E+01 0.  1.
         25    2    1    2    0    0  0.41204665497E+02  0.19232652683E+02  0.10733739063E+04  0.10815841680E+04  0.12500020158E+03 0.  0.
         25    2    1    2    0    0 -0.41204665497E+02 -0.19232652683E+02  0.72348749517E+03  0.73560667080E+03  0.12496119020E+03 0.  0.
          5    1    3    3  502    0  0.43802006147E+02  0.23444822614E+02  0.10735964930E+04  0.10747556909E+04  0.47000000000E+01 0.  1.
         -5    1    3    3    0  502 -0.25973406494E+01 -0.42121699312E+01 -0.22258671718E+00  0.68284770502E+01  0.47000000000E+01 0.  1.
          5    1    4    4  503    0 -0.17782238984E+02  0.47352019516E+02  0.16461253715E+03  0.17227245619E+03  0.47000000000E+01 0.  1.
         -5    1    4    4    0  503 -0.23422426513E+02 -0.66584672199E+02  0.55887495803E+03  0.56333421461E+03  0.47000000000E+01 0.  1.
<mgrwt>
<rscale>  0 0.13300501E+03</rscale>
<asrwt>0</asrwt>
<pdfrwt beam="2">  1        5 0.15638038E-02 0.13301417E+03</pdfrwt>
<pdfrwt beam="1">  1       -5 0.27800385E+00 0.13301417E+03</pdfrwt>
<totfact> 0.46747793E+01</totfact>
</mgrwt>
</event>
<event>
 8    1  0.3682083E-007  0.1480781E+03  0.7546771E-02  0.1202856E+00
          5   -1    0    0  501    0  0.00000000000E+00  0.00000000000E+00  0.43451003051E+02  0.43704458195E+02  0.47000000000E+01 0. -1.
         -5   -1    0    0    0  501 -0.00000000000E+00 -0.00000000000E+00 -0.54483704248E+03  0.54485731422E+03  0.47000000000E+01 0. -1.
         25    2    1    2    0    0 -0.58565102232E+02 -0.53595556520E+02 -0.33231640678E+03  0.36381379494E+03  0.12499571311E+03 0.  0.
         25    2    1    2    0    0  0.58565102232E+02  0.53595556520E+02 -0.16906963266E+03  0.22474797748E+03  0.12499903126E+03 0.  0.
          5    1    4    4  502    0 -0.11706248259E+01 -0.35945180985E+02 -0.67764003050E+02  0.76860109992E+02  0.47000000000E+01 0.  1.
         -5    1    4    4    0  502  0.59735727058E+02  0.89540737505E+02 -0.10130562961E+03  0.14788786749E+03  0.47000000000E+01 0.  1.
          5    1    3    3  503    0 -0.78013486836E+02  0.12286370573E+02 -0.18457227435E+03  0.20081352915E+03  0.47000000000E+01 0.  1.
         -5    1    3    3    0  503  0.19448384604E+02 -0.65881927093E+02 -0.14774413243E+03  0.16300026579E+03  0.47000000000E+01 0.  1.
<mgrwt>
<rscale>  0 0.14807736E+03</rscale>
<asrwt>0</asrwt>
<pdfrwt beam="1">  1        5 0.67058260E-02 0.14807806E+03</pdfrwt>
<pdfrwt beam="2">  1       -5 0.83842134E-01 0.14807806E+03</pdfrwt>
<totfact> 0.14282206E+02</totfact>
</mgrwt>
</event>
<event>
 8    1  0.3682083E-007  0.3077840E+03  0.7546771E-02  0.1081413E+00
         -5   -1    0    0    0  501 -0.00000000000E+00  0.00000000000E+00  0.30521490616E+03  0.30525109163E+03  0.47000000000E+01 0.  1.
          5   -1    0    0  501    0  0.00000000000E+00 -0.00000000000E+00 -0.41724091741E+03  0.41726738809E+03  0.47000000000E+01 0.  1.
         25    2    1    2    0    0 -0.26843984262E+03  0.83937935460E+02  0.12686626949E+03  0.33290265741E+03  0.12499441133E+03 0.  0.
         25    2    1    2    0    0  0.26843984262E+03 -0.83937935460E+02 -0.23889228075E+03  0.38961582231E+03  0.12500176430E+03 0.  0.
          5    1    4    4  502    0  0.22972946900E+03 -0.70580645571E+02 -0.25011536300E+03  0.34689629757E+03  0.47000000000E+01 0.  1.
         -5    1    4    4    0  502  0.38710373622E+02 -0.13357289890E+02  0.11223082255E+02  0.42719524745E+02  0.47000000000E+01 0.  1.
          5    1    3    3  503    0 -0.22737732565E+03  0.34679246708E+02  0.13707509955E+03  0.26779613755E+03  0.47000000000E+01 0.  1.
         -5    1    3    3    0  503 -0.41062516971E+02  0.49258688752E+02 -0.10208830053E+02  0.65106519862E+02  0.47000000000E+01 0.  1.
<mgrwt>
<rscale>  0 0.30778322E+03</rscale>
<asrwt>0</asrwt>
<pdfrwt beam="2">  1        5 0.64195730E-01 0.30778396E+03</pdfrwt>
<pdfrwt beam="1">  1       -5 0.46960959E-01 0.30778396E+03</pdfrwt>
<totfact> 0.82420718E+00</totfact>
</mgrwt>
</event>
<event>
 8    1  0.3682083E-007  0.1980248E+03  0.7546771E-02  0.1151416E+00
          5   -1    0    0  501    0  0.00000000000E+00  0.00000000000E+00  0.19224433384E+04  0.19224490837E+04  0.47000000000E+01 0.  1.
         -5   -1    0    0    0  501 -0.00000000000E+00 -0.00000000000E+00 -0.22225013745E+02  0.22716541021E+02  0.47000000000E+01 0.  1.
         25    2    1    2    0    0 -0.15331132655E+03 -0.92220143187E+01  0.65433818297E+03  0.68364631224E+03  0.12499765655E+03 0.  0.
         25    2    1    2    0    0  0.15331132655E+03  0.92220143187E+01  0.12458801417E+04  0.12615193125E+04  0.12499695955E+03 0.  0.
          5    1    3    3  502    0 -0.43210303708E+01 -0.34728289346E+02  0.53752691407E+02  0.64313040807E+02  0.47000000000E+01 0.  1.
         -5    1    3    3    0  502 -0.14899029618E+03  0.25506275028E+02  0.60058549156E+03  0.61933327143E+03  0.47000000000E+01 0.  1.
          5    1    4    4  503    0  0.12494681527E+03  0.41859849261E+02  0.11313530079E+04  0.11390108305E+04  0.47000000000E+01 0. -1.
         -5    1    4    4    0  503  0.28364511281E+02 -0.32637834942E+02  0.11452713381E+03  0.12250848194E+03  0.47000000000E+01 0. -1.
<mgrwt>
<rscale>  0 0.19802469E+03</rscale>
<asrwt>0</asrwt>
<pdfrwt beam="1">  1        5 0.29579880E+00 0.19802480E+03</pdfrwt>
<pdfrwt beam="2">  1       -5 0.34574842E-02 0.19802480E+03</pdfrwt>
<totfact> 0.11069656E+01</totfact>
</mgrwt>
</event>
<event>
 8    1  0.3682083E-007  0.1416988E+03  0.7546771E-02  0.1211062E+00
          5   -1    0    0  501    0  0.00000000000E+00  0.00000000000E+00  0.89760884287E+02  0.89883849205E+02  0.47000000000E+01 0. -1.
         -5   -1    0    0    0  501 -0.00000000000E+00 -0.00000000000E+00 -0.24898559313E+03  0.24902994918E+03  0.47000000000E+01 0. -1.
         25    2    1    2    0    0  0.55017066095E+02  0.37753280140E+02 -0.13393099629E+03  0.19497707916E+03  0.12500544752E+03 0.  0.
         25    2    1    2    0    0 -0.55017066095E+02 -0.37753280140E+02 -0.25293712562E+02  0.14393671922E+03  0.12500327805E+03 0.  0.
          5    1    4    4  502    0  0.13737902197E+02 -0.52171117348E+02  0.22708848479E+02  0.58722544575E+02  0.47000000000E+01 0. -1.
         -5    1    4    4    0  502 -0.68754968292E+02  0.14417837208E+02 -0.48002561041E+02  0.85214174649E+02  0.47000000000E+01 0. -1.
          5    1    3    3  503    0  0.86352146380E+01  0.51090782130E+00 -0.13494113796E+03  0.13529977337E+03  0.47000000000E+01 0.  1.
         -5    1    3    3    0  503  0.46381851457E+02  0.37242372319E+02  0.10101416782E+01  0.59677305793E+02  0.47000000000E+01 0.  1.
<mgrwt>
<rscale>  0 0.14169832E+03</rscale>
<asrwt>0</asrwt>
<pdfrwt beam="1">  1        5 0.13822238E-01 0.14169880E+03</pdfrwt>
<pdfrwt beam="2">  1       -5 0.38318347E-01 0.14169880E+03</pdfrwt>
<totfact> 0.21898671E+02</totfact>
</mgrwt>
</event>
<event>
 8    1  0.3682083E-007  0.1339222E+03  0.7546771E-02  0.1221749E+00
         -5   -1    0    0    0  501 -0.00000000000E+00  0.00000000000E+00  0.38878311168E+03  0.38881151980E+03  0.47000000000E+01 0.  1.
          5   -1    0    0  501    0  0.00000000000E+00 -0.00000000000E+00 -0.52760113463E+02  0.52969043531E+02  0.47000000000E+01 0.  1.
         25    2    1    2    0    0 -0.48055038226E+02 -0.83977821367E+00  0.24699815784E+03  0.28096828658E+03  0.12500038463E+03 0.  0.
         25    2    1    2    0    0  0.48055038226E+02  0.83977821367E+00  0.89024840375E+02  0.16081227675E+03  0.12500069689E+03 0.  0.
          5    1    4    4  502    0  0.57817434034E+02  0.71600399077E+01 -0.11448435220E+02  0.59559033897E+02  0.47000000000E+01 0.  1.
         -5    1    4    4    0  502 -0.97623958083E+01 -0.63202616941E+01  0.10047327559E+03  0.10125324285E+03  0.47000000000E+01 0.  1.
          5    1    3    3  503    0 -0.49771226966E+02 -0.54195517755E+02  0.98095384361E+02  0.12271562089E+03  0.47000000000E+01 0. -1.
         -5    1    3    3    0  503  0.17161887403E+01  0.53355739541E+02  0.14890277348E+03  0.15825266568E+03  0.47000000000E+01 0. -1.
<mgrwt>
<rscale>  0 0.13392217E+03</rscale>
<asrwt>0</asrwt>
<pdfrwt beam="2">  1        5 0.81351973E-02 0.13392224E+03</pdfrwt>
<pdfrwt beam="1">  1       -5 0.59831043E-01 0.13392224E+03</pdfrwt>
<totfact> 0.21307785E+02</totfact>
</mgrwt>
</event>
<event>
 8    1  0.3682083E-007  0.1510389E+03  0.7546771E-02  0.1199202E+00
         -5   -1    0    0    0  501 -0.00000000000E+00  0.00000000000E+00  0.25940167253E+03  0.25944424779E+03  0.47000000000E+01 0.  1.
          5   -1    0    0  501    0  0.00000000000E+00 -0.00000000000E+00 -0.89741447805E+02  0.89864439319E+02  0.47000000000E+01 0.  1.
         25    2    1    2    0    0  0.53122205977E+02  0.66079924644E+02  0.11029291731E+03  0.18702216636E+03  0.12499695152E+03 0.  0.
         25    2    1    2    0    0 -0.53122205977E+02 -0.66079924644E+02  0.59367307410E+02  0.16228652075E+03  0.12499564960E+03 0.  0.
          5    1    3    3  502    0  0.74551348708E+02  0.90932495074E+02  0.81901477641E+02  0.14337560565E+03  0.47000000000E+01 0.  1.
         -5    1    3    3    0  502 -0.21429142731E+02 -0.24852570430E+02  0.28391439672E+02  0.43646560710E+02  0.47000000000E+01 0.  1.
          5    1    4    4  503    0 -0.45268224580E+02 -0.84617162609E+02 -0.34629584302E+01  0.96142386311E+02  0.47000000000E+01 0. -1.
         -5    1    4    4    0  503 -0.78539813966E+01  0.18537237965E+02  0.62830265840E+02  0.66144134439E+02  0.47000000000E+01 0. -1.
<mgrwt>
<rscale>  0 0.15103868E+03</rscale>
<asrwt>0</asrwt>
<pdfrwt beam="2">  1        5 0.13819112E-01 0.15103895E+03</pdfrwt>
<pdfrwt beam="1">  1       -5 0.39920686E-01 0.15103895E+03</pdfrwt>
<totfact> 0.20582558E+02</totfact>
</mgrwt>
</event>
<event>
 8    1  0.3682083E-007  0.1452950E+03  0.7546771E-02  0.1206379E+00
          5   -1    0    0  501    0  0.00000000000E+00  0.00000000000E+00  0.35420288578E+03  0.35423406710E+03  0.47000000000E+01 0. -1.
         -5   -1    0    0    0  501 -0.00000000000E+00 -0.00000000000E+00 -0.78879692330E+02  0.79019591635E+02  0.47000000000E+01 0. -1.
         25    2    1    2    0    0 -0.73673211851E+02 -0.74835442806E+01  0.30334473333E+02  0.14842019967E+03  0.12499851926E+03 0.  0.
         25    2    1    2    0    0  0.73673211851E+02  0.74835442806E+01  0.24498872012E+03  0.28483345907E+03  0.12500752314E+03 0.  0.
          5    1    4    4  502    0  0.29922915144E+02  0.64028558085E+02  0.14971536820E+03  0.16562553721E+03  0.47000000000E+01 0. -1.
         -5    1    4    4    0  502  0.43750296707E+02 -0.56545013804E+02  0.95273351921E+02  0.11920792186E+03  0.47000000000E+01 0. -1.
          5    1    3    3  503    0 -0.62751929266E+02 -0.44790913945E+02  0.61211529742E+02  0.98554411225E+02  0.47000000000E+01 0. -1.
         -5    1    3    3    0  503 -0.10921282585E+02  0.37307369665E+02 -0.30877056409E+02  0.49865788443E+02  0.47000000000E+01 0. -1.
<mgrwt>
<rscale>  0 0.14529303E+03</rscale>
<asrwt>0</asrwt>
<pdfrwt beam="1">  1        5 0.54505911E-01 0.14529496E+03</pdfrwt>
<pdfrwt beam="2">  1       -5 0.12148498E-01 0.14529496E+03</pdfrwt>
<totfact> 0.13308299E+02</totfact>
</mgrwt>
</event>
<event>
 8    1  0.3682083E-007  0.1280252E+03  0.7546771E-02  0.1230416E+00
          5   -1    0    0  501    0  0.00000000000E+00  0.00000000000E+00  0.61464258140E+02  0.61643694152E+02  0.47000000000E+01 0. -1.
         -5   -1    0    0    0  501 -0.00000000000E+00 -0.00000000000E+00 -0.29080716517E+03  0.29084514319E+03  0.47000000000E+01 0. -1.
         25    2    1    2    0    0  0.12494673014E+02 -0.24682315987E+02 -0.16604893141E+03  0.20967222883E+03  0.12499944938E+03 0.  0.
         25    2    1    2    0    0 -0.12494673014E+02  0.24682315987E+02 -0.63293975623E+02  0.14281660851E+03  0.12500049096E+03 0.  0.
          5    1    3    3  502    0  0.58104198053E+02 -0.38819094663E+02 -0.56184923180E+02  0.89787836229E+02  0.47000000000E+01 0.  1.
         -5    1    3    3    0  502 -0.45609525039E+02  0.14136778676E+02 -0.10986400823E+03  0.11988439260E+03  0.47000000000E+01 0.  1.
          5    1    4    4  503    0  0.40473446465E+02  0.44380888272E+02 -0.34119746060E+01  0.60344798311E+02  0.47000000000E+01 0. -1.
         -5    1    4    4    0  503 -0.52968119479E+02 -0.19698572285E+02 -0.59882001017E+02  0.82471810196E+02  0.47000000000E+01 0. -1.
<mgrwt>
<rscale>  0 0.12802496E+03</rscale>
<asrwt>0</asrwt>
<pdfrwt beam="1">  1        5 0.94727640E-02 0.12802522E+03</pdfrwt>
<pdfrwt beam="2">  1       -5 0.44756287E-01 0.12802522E+03</pdfrwt>
<totfact> 0.29931831E+02</totfact>
</mgrwt>
</event>
<event>
 8    1  0.3682083E-007  0.1524473E+03  0.7546771E-02  0.1197499E+00
          5   -1    0    0  501    0  0.00000000000E+00  0.00000000000E+00  0.21030169188E+03  0.21035420511E+03  0.47000000000E+01 0.  1.
         -5   -1    0    0    0  501 -0.00000000000E+00 -0.00000000000E+00 -0.14087225401E+03  0.14095063657E+03  0.47000000000E+01 0.  1.
         25    2    1    2    0    0  0.18829320759E+02 -0.85199588520E+02 -0.46953739780E+02  0.15951010934E+03  0.12500123238E+03 0.  0.
         25    2    1    2    0    0 -0.18829320759E+02  0.85199588520E+02  0.11638317764E+03  0.19179473235E+03  0.12500664828E+03 0.  0.
          5    1    4    4  502    0  0.41082368053E+02  0.27790062571E+02  0.12990330198E+01  0.49837997846E+02  0.47000000000E+01 0. -1.
         -5    1    4    4    0  502 -0.59911688812E+02  0.57409525949E+02  0.11508414462E+03  0.14195673450E+03  0.47000000000E+01 0. -1.
          5    1    3    3  503    0 -0.48585901498E+01  0.30527257512E+02  0.24932434095E+01  0.31365994519E+02  0.47000000000E+01 0.  1.
         -5    1    3    3    0  503  0.23687910909E+02 -0.11572684603E+03 -0.49446983189E+02  0.12814411482E+03  0.47000000000E+01 0.  1.
<mgrwt>
<rscale>  0 0.15244618E+03</rscale>
<asrwt>0</asrwt>
<pdfrwt beam="1">  1        5 0.32364175E-01 0.15244729E+03</pdfrwt>
<pdfrwt beam="2">  1       -5 0.21682723E-01 0.15244729E+03</pdfrwt>
<totfact> 0.13752794E+02</totfact>
</mgrwt>
</event>
<event>
 8    1  0.3682083E-007  0.1707963E+03  0.7546771E-02  0.1177021E+00
         -5   -1    0    0    0  501 -0.00000000000E+00  0.00000000000E+00  0.11150349660E+03  0.11160250783E+03  0.47000000000E+01 0. -1.
          5   -1    0    0  501    0  0.00000000000E+00 -0.00000000000E+00 -0.26412458763E+03  0.26416640170E+03  0.47000000000E+01 0. -1.
         25    2    1    2    0    0  0.76782548083E+02  0.87470220929E+02 -0.95461672362E+02  0.19566178642E+03  0.12499601808E+03 0.  0.
         25    2    1    2    0    0 -0.76782548083E+02 -0.87470220929E+02 -0.57159418664E+02  0.18010712311E+03  0.12499910965E+03 0.  0.
          5    1    4    4  502    0 -0.10919532423E+03 -0.76974366031E+02 -0.57959394511E+02  0.14570536460E+03  0.47000000000E+01 0. -1.
         -5    1    4    4    0  502  0.32412776148E+02 -0.10495854898E+02  0.79997584642E+00  0.34401758516E+02  0.47000000000E+01 0. -1.
          5    1    3    3  503    0  0.93216434047E+02  0.70524929342E+02 -0.11546225975E+03  0.16436755356E+03  0.47000000000E+01 0. -1.
         -5    1    3    3    0  503 -0.16433885964E+02  0.16945291587E+02  0.20000587389E+02  0.31294232867E+02  0.47000000000E+01 0. -1.
<mgrwt>
<rscale>  0 0.17079574E+03</rscale>
<asrwt>0</asrwt>
<pdfrwt beam="2">  1        5 0.40645385E-01 0.17079630E+03</pdfrwt>
<pdfrwt beam="1">  1       -5 0.17165217E-01 0.17079630E+03</pdfrwt>
<totfact> 0.13892823E+02</totfact>
</mgrwt>
</event>
<event>
 8    1  0.3682083E-007  0.2485233E+03  0.7546771E-02  0.1114242E+00
          5   -1    0    0  501    0  0.00000000000E+00  0.00000000000E+00  0.79712403317E+02  0.79850843719E+02  0.47000000000E+01 0.  1.
         -5   -1    0    0    0  501 -0.00000000000E+00 -0.00000000000E+00 -0.79241950688E+03  0.79243344508E+03  0.47000000000E+01 0.  1.
         25    2    1    2    0    0 -0.14928324785E+03  0.15444576138E+03 -0.42282368757E+03  0.49045157752E+03  0.12499559121E+03 0.  0.
         25    2    1    2    0    0  0.14928324785E+03 -0.15444576138E+03 -0.28988341599E+03  0.38183271128E+03  0.12499937296E+03 0.  0.
          5    1    4    4  502    0  0.14322935997E+03 -0.11203642388E+03 -0.28548530349E+03  0.33851256748E+03  0.47000000000E+01 0.  1.
         -5    1    4    4    0  502  0.60538878781E+01 -0.42409337498E+02 -0.43981125052E+01  0.43320143802E+02  0.47000000000E+01 0.  1.
          5    1    3    3  503    0 -0.22095684115E+02  0.41991579463E+02 -0.17170265677E+02  0.50679581941E+02  0.47000000000E+01 0.  1.
         -5    1    3    3    0  503 -0.12718756374E+03  0.11245418192E+03 -0.40565342190E+03  0.43977199558E+03  0.47000000000E+01 0.  1.
<mgrwt>
<rscale>  0 0.24852281E+03</rscale>
<asrwt>0</asrwt>
<pdfrwt beam="1">  1        5 0.12275169E-01 0.24852329E+03</pdfrwt>
<pdfrwt beam="2">  1       -5 0.12192241E+00 0.24852329E+03</pdfrwt>
<totfact> 0.22765110E+01</totfact>
</mgrwt>
</event>
<event>
 8    1  0.3682083E-007  0.1291391E+03  0.7546771E-02  0.1228740E+00
         -5   -1    0    0    0  501 -0.00000000000E+00  0.00000000000E+00  0.13823809641E+02  0.14600949044E+02  0.47000000000E+01 0. -1.
          5   -1    0    0  501    0  0.00000000000E+00 -0.00000000000E+00 -0.16089539010E+04  0.16089607656E+04  0.47000000000E+01 0. -1.
         25    2    1    2    0    0  0.23617921763E+02  0.22221418303E+02 -0.37491964744E+03  0.39653706459E+03  0.12500121560E+03 0.  0.
         25    2    1    2    0    0 -0.23617921763E+02 -0.22221418303E+02 -0.12202104439E+04  0.12270246501E+04  0.12499746777E+03 0.  0.
          5    1    3    3  502    0  0.45196017563E+02 -0.24556780020E+01 -0.35497285503E+03  0.35787781179E+03  0.47000000000E+01 0. -1.
         -5    1    3    3    0  502 -0.21578095799E+02  0.24677096305E+02 -0.19946792404E+02  0.38659252807E+02  0.47000000000E+01 0. -1.
          5    1    4    4  503    0 -0.20093414717E+02  0.50995672332E+02 -0.58523135972E+03  0.58781131183E+03  0.47000000000E+01 0. -1.
         -5    1    4    4    0  503 -0.35245070459E+01 -0.73217090635E+02 -0.63497908415E+03  0.63921333826E+03  0.47000000000E+01 0. -1.
<mgrwt>
<rscale>  0 0.12913817E+03</rscale>
<asrwt>0</asrwt>
<pdfrwt beam="2">  1        5 0.24759153E+00 0.12913908E+03</pdfrwt>
<pdfrwt beam="1">  1       -5 0.21870492E-02 0.12913908E+03</pdfrwt>
<totfact> 0.42413043E+01</totfact>
</mgrwt>
</event>
<event>
 8    1  0.3682083E-007  0.1437151E+03  0.7546771E-02  0.1208417E+00
         -5   -1    0    0    0  501 -0.00000000000E+00  0.00000000000E+00  0.14330936170E+03  0.14338641202E+03  0.47000000000E+01 0.  1.
          5   -1    0    0  501    0  0.00000000000E+00 -0.00000000000E+00 -0.26875310610E+03  0.26879420016E+03  0.47000000000E+01 0.  1.
         25    2    1    2    0    0  0.35993342296E+02 -0.61090166012E+02  0.77675024402E+02  0.16336287885E+03  0.12500596665E+03 0.  0.
         25    2    1    2    0    0 -0.35993342296E+02  0.61090166012E+02 -0.20311876880E+03  0.24881773333E+03  0.12500200441E+03 0.  0.
          5    1    3    3  502    0  0.41058918890E+02  0.58674516879E+01  0.85943308333E+02  0.95543728506E+02  0.47000000000E+01 0. -1.
         -5    1    3    3    0  502 -0.50655765943E+01 -0.66957617700E+02 -0.82682839308E+01  0.67819150344E+02  0.47000000000E+01 0. -1.
          5    1    4    4  503    0 -0.11211199774E+02  0.67970425505E+02 -0.21059383492E+03  0.22162473474E+03  0.47000000000E+01 0.  1.
         -5    1    4    4    0  503 -0.24782142522E+02 -0.68802594938E+01  0.74750661183E+01  0.27192998587E+02  0.47000000000E+01 0.  1.
<mgrwt>
<rscale>  0 0.14371421E+03</rscale>
<asrwt>0</asrwt>
<pdfrwt beam="2">  1        5 0.41355720E-01 0.14371507E+03</pdfrwt>
<pdfrwt beam="1">  1       -5 0.22056682E-01 0.14371507E+03</pdfrwt>
<totfact> 0.79622748E+01</totfact>
</mgrwt>
</event>
<event>
 8    1  0.3682083E-007  0.1376752E+03  0.7546771E-02  0.1216494E+00
          5   -1    0    0  501    0  0.00000000000E+00  0.00000000000E+00  0.63402089621E+03  0.63403831653E+03  0.47000000000E+01 0.  1.
         -5   -1    0    0    0  501 -0.00000000000E+00 -0.00000000000E+00 -0.36926479181E+02  0.37224385351E+02  0.47000000000E+01 0.  1.
         25    2    1    2    0    0 -0.36508760130E+02 -0.44658490742E+02  0.15068154449E+03  0.20410223152E+03  0.12500209078E+03 0.  0.
         25    2    1    2    0    0  0.36508760130E+02  0.44658490742E+02  0.44641287254E+03  0.46716047036E+03  0.12500872745E+03 0.  0.
          5    1    3    3  502    0  0.38248059611E+02 -0.75624801949E+01  0.97293921238E+02  0.10492045692E+03  0.47000000000E+01 0. -1.
         -5    1    3    3    0  502 -0.74756819741E+02 -0.37096010547E+02  0.53387623256E+02  0.99181774602E+02  0.47000000000E+01 0. -1.
          5    1    4    4  503    0 -0.19031006141E+02  0.49302161592E+01  0.34021785559E+03  0.34081778928E+03  0.47000000000E+01 0.  1.
         -5    1    4    4    0  503  0.55539766271E+02  0.39728274582E+02  0.10619501694E+03  0.12634268108E+03  0.47000000000E+01 0.  1.
<mgrwt>
<rscale>  0 0.13767366E+03</rscale>
<asrwt>0</asrwt>
<pdfrwt beam="1">  1        5 0.97565927E-01 0.13767517E+03</pdfrwt>
<pdfrwt beam="2">  1       -5 0.57052530E-02 0.13767517E+03</pdfrwt>
<totfact> 0.12776332E+02</totfact>
</mgrwt>
</event>
<event>
 8    1  0.3682083E-007  0.1372240E+03  0.7546771E-02  0.1217134E+00
          5   -1    0    0  501    0  0.00000000000E+00  0.00000000000E+00  0.24283209320E+02  0.24733868579E+02  0.47000000000E+01 0.  1.
         -5   -1    0    0    0  501 -0.00000000000E+00 -0.00000000000E+00 -0.76848088071E+03  0.76849525309E+03  0.47000000000E+01 0.  1.
         25    2    1    2    0    0 -0.42102119137E+02 -0.37845394855E+02 -0.38592658819E+03  0.40957746056E+03  0.12493799414E+03 0.  0.
         25    2    1    2    0    0  0.42102119137E+02  0.37845394855E+02 -0.35827108321E+03  0.38365166111E+03  0.12500226264E+03 0.  0.
          5    1    4    4  502    0 -0.29362753175E+02  0.54226943772E+02 -0.19595209742E+03  0.20548004085E+03  0.47000000000E+01 0. -1.
         -5    1    4    4    0  502  0.71464872312E+02 -0.16381548917E+02 -0.16231898578E+03  0.17817162026E+03  0.47000000000E+01 0. -1.
          5    1    3    3  503    0 -0.66651752660E+02 -0.63313717025E+02 -0.19877338991E+03  0.21905258144E+03  0.47000000000E+01 0.  1.
         -5    1    3    3    0  503  0.24549633523E+02  0.25468322171E+02 -0.18715319827E+03  0.19052487912E+03  0.47000000000E+01 0.  1.
<mgrwt>
<rscale>  0 0.13720937E+03</rscale>
<asrwt>0</asrwt>
<pdfrwt beam="1">  1        5 0.37716506E-02 0.13722401E+03</pdfrwt>
<pdfrwt beam="2">  1       -5 0.11826358E+00 0.13722401E+03</pdfrwt>
<totfact> 0.15721542E+02</totfact>
</mgrwt>
</event>
<event>
 8    1  0.3682083E-007  0.1997243E+03  0.7546771E-02  0.1149973E+00
         -5   -1    0    0    0  501 -0.00000000000E+00  0.00000000000E+00  0.52027581289E+02  0.52239441180E+02  0.47000000000E+01 0.  1.
          5   -1    0    0  501    0  0.00000000000E+00 -0.00000000000E+00 -0.77538927075E+03  0.77540351508E+03  0.47000000000E+01 0.  1.
         25    2    1    2    0    0 -0.15452368995E+03  0.19643136275E+02 -0.40977308253E+03  0.45585320806E+03  0.12499897831E+03 0.  0.
         25    2    1    2    0    0  0.15452368995E+03 -0.19643136275E+02 -0.31358860694E+03  0.37178974820E+03  0.12500551550E+03 0.  0.
          5    1    3    3  502    0 -0.93163279006E+01  0.20853336569E+02 -0.19599512614E+03  0.19737739254E+03  0.47000000000E+01 0. -1.
         -5    1    3    3    0  502 -0.14520736205E+03 -0.12102002948E+01 -0.21377795638E+03  0.25847581553E+03  0.47000000000E+01 0. -1.
          5    1    4    4  503    0 -0.79838370951E+01 -0.34838278307E+02 -0.66067522462E+02  0.75262572467E+02  0.47000000000E+01 0. -1.
         -5    1    4    4    0  503  0.16250752704E+03  0.15195142032E+02 -0.24752108447E+03  0.29652717573E+03  0.47000000000E+01 0. -1.
<mgrwt>
<rscale>  0 0.19972329E+03</rscale>
<asrwt>0</asrwt>
<pdfrwt beam="2">  1        5 0.11930804E+00 0.19972432E+03</pdfrwt>
<pdfrwt beam="1">  1       -5 0.80216365E-02 0.19972432E+03</pdfrwt>
<totfact> 0.48333125E+01</totfact>
</mgrwt>
</event>
<event>
 8    1  0.3682083E-007  0.1395270E+03  0.7546771E-02  0.1213968E+00
         -5   -1    0    0    0  501 -0.00000000000E+00  0.00000000000E+00  0.98076944116E+03  0.98078070266E+03  0.47000000000E+01 0. -1.
          5   -1    0    0  501    0  0.00000000000E+00 -0.00000000000E+00 -0.29938904668E+02  0.30305577255E+02  0.47000000000E+01 0. -1.
         25    2    1    2    0    0 -0.79698445437E+01  0.61476002298E+02  0.77075492774E+03  0.78328150169E+03  0.12499573981E+03 0.  0.
         25    2    1    2    0    0  0.79698445437E+01 -0.61476002298E+02  0.18007560875E+03  0.22780477823E+03  0.12499989934E+03 0.  0.
          5    1    3    3  502    0  0.28719767821E+01 -0.16864594754E+02  0.14569342716E+02  0.22956884676E+02  0.47000000000E+01 0. -1.
         -5    1    3    3    0  502 -0.10841821326E+02  0.78340597052E+02  0.75618558502E+03  0.76032461701E+03  0.47000000000E+01 0. -1.
          5    1    4    4  503    0 -0.42861587559E+02 -0.53698744265E+02  0.42666508628E+02  0.81013528390E+02  0.47000000000E+01 0.  1.
         -5    1    4    4    0  503  0.50831432103E+02 -0.77772580332E+01  0.13740910013E+03  0.14679124984E+03  0.47000000000E+01 0.  1.
<mgrwt>
<rscale>  0 0.13952610E+03</rscale>
<asrwt>0</asrwt>
<pdfrwt beam="2">  1        5 0.46350580E-02 0.13952703E+03</pdfrwt>
<pdfrwt beam="1">  1       -5 0.15091665E+00 0.13952703E+03</pdfrwt>
<totfact> 0.59293501E+01</totfact>
</mgrwt>
</event>
<event>
 8    1  0.3682083E-007  0.1277671E+03  0.7546771E-02  0.1230807E+00
          5   -1    0    0  501    0  0.00000000000E+00  0.00000000000E+00  0.75167315309E+02  0.75314110834E+02  0.47000000000E+01 0.  1.
         -5   -1    0    0    0  501 -0.00000000000E+00 -0.00000000000E+00 -0.25949632779E+03  0.25953888752E+03  0.47000000000E+01 0.  1.
         25    2    1    2    0    0  0.26347558071E+02  0.23859236093E+01 -0.16006009418E+03  0.20480153735E+03  0.12499819799E+03 0.  0.
         25    2    1    2    0    0 -0.26347558071E+02 -0.23859236093E+01 -0.24268918299E+02  0.13005146101E+03  0.12499806266E+03 0.  0.
          5    1    3    3  502    0 -0.14389524427E+02  0.21219545316E+02 -0.15745828328E+03  0.15960115442E+03  0.47000000000E+01 0.  1.
         -5    1    3    3    0  502  0.40737082498E+02 -0.18833621706E+02 -0.26018109007E+01  0.45200382930E+02  0.47000000000E+01 0.  1.
          5    1    4    4  503    0 -0.44048778499E+02 -0.87255619635E+01 -0.68339670937E+02  0.81907453523E+02  0.47000000000E+01 0.  1.
         -5    1    4    4    0  503  0.17701220428E+02  0.63396383541E+01  0.44070752637E+02  0.48144007489E+02  0.47000000000E+01 0.  1.
<mgrwt>
<rscale>  0 0.12776708E+03</rscale>
<asrwt>0</asrwt>
<pdfrwt beam="1">  1        5 0.11578768E-01 0.12776712E+03</pdfrwt>
<pdfrwt beam="2">  1       -5 0.39937077E-01 0.12776712E+03</pdfrwt>
<totfact> 0.26619508E+02</totfact>
</mgrwt>
</event>
<event>
 8    1  0.3682083E-007  0.1354363E+03  0.7546771E-02  0.1219608E+00
         -5   -1    0    0    0  501 -0.00000000000E+00  0.00000000000E+00  0.45249548354E+03  0.45251989196E+03  0.47000000000E+01 0.  1.
          5   -1    0    0  501    0  0.00000000000E+00 -0.00000000000E+00 -0.40860555030E+02  0.41129976384E+02  0.47000000000E+01 0.  1.
         25    2    1    2    0    0 -0.55194091654E+01 -0.51830412606E+02  0.23267200145E+03  0.26921565236E+03  0.12499580661E+03 0.  0.
         25    2    1    2    0    0  0.55194091654E+01  0.51830412606E+02  0.17896292706E+03  0.22443421599E+03  0.12500452990E+03 0.  0.
          5    1    3    3  502    0  0.27221946953E+02  0.30911586466E+02  0.11033402116E+03  0.11786537575E+03  0.47000000000E+01 0.  1.
         -5    1    3    3    0  502 -0.32741356119E+02 -0.82741999073E+02  0.12233798028E+03  0.15135027661E+03  0.47000000000E+01 0.  1.
          5    1    4    4  503    0  0.41900711307E+02 -0.25868821797E+02  0.68219620569E+02  0.84266673008E+02  0.47000000000E+01 0. -1.
         -5    1    4    4    0  503 -0.36381302141E+02  0.77699234403E+02  0.11074330649E+03  0.14016754298E+03  0.47000000000E+01 0. -1.
<mgrwt>
<rscale>  0 0.13543427E+03</rscale>
<asrwt>0</asrwt>
<pdfrwt beam="2">  1        5 0.63088416E-02 0.13543629E+03</pdfrwt>
<pdfrwt beam="1">  1       -5 0.69637292E-01 0.13543629E+03</pdfrwt>
<totfact> 0.23539138E+02</totfact>
</mgrwt>
</event>
<event>
 8    1  0.3682083E-007  0.1403253E+03  0.7546771E-02  0.1212894E+00
         -5   -1    0    0    0  501 -0.00000000000E+00  0.00000000000E+00  0.14713006130E+02  0.15445470190E+02  0.47000000000E+01 0.  1.
          5   -1    0    0  501    0  0.00000000000E+00 -0.00000000000E+00 -0.19733588643E+04  0.19733644613E+04  0.47000000000E+01 0.  1.
         25    2    1    2    0    0 -0.17494415905E+02 -0.61304310093E+02 -0.40075328489E+03  0.42461085595E+03  0.12500764222E+03 0.  0.
         25    2    1    2    0    0  0.17494415905E+02  0.61304310093E+02 -0.15578925732E+04  0.15641990756E+04  0.12500082070E+03 0.  0.
          5    1    3    3  502    0  0.44774857564E+02 -0.61882373065E+02 -0.24951204356E+03  0.26098384212E+03  0.47000000000E+01 0. -1.
         -5    1    3    3    0  502 -0.62269273468E+02  0.57806297229E+00 -0.15124124133E+03  0.16362701383E+03  0.47000000000E+01 0. -1.
          5    1    4    4  503    0 -0.21574434509E+01  0.12962651334E+02 -0.15269709853E+02  0.20686684868E+02  0.47000000000E+01 0. -1.
         -5    1    4    4    0  503  0.19651859355E+02  0.48341658759E+02 -0.15426228634E+04  0.15435123907E+04  0.47000000000E+01 0. -1.
<mgrwt>
<rscale>  0 0.14032376E+03</rscale>
<asrwt>0</asrwt>
<pdfrwt beam="2">  1        5 0.30365024E+00 0.14032528E+03</pdfrwt>
<pdfrwt beam="1">  1       -5 0.23203149E-02 0.14032528E+03</pdfrwt>
<totfact> 0.17489151E+01</totfact>
</mgrwt>
</event>
<event>
 8    1  0.3682083E-007  0.1277916E+03  0.7546771E-02  0.1230772E+00
         -5   -1    0    0    0  501 -0.00000000000E+00  0.00000000000E+00  0.22376044155E+03  0.22380979693E+03  0.47000000000E+01 0.  1.
          5   -1    0    0  501    0  0.00000000000E+00 -0.00000000000E+00 -0.74039224146E+02  0.74188251847E+02  0.47000000000E+01 0.  1.
         25    2    1    2    0    0 -0.42777745198E+01 -0.26201383753E+02  0.93746238745E+02  0.15848989312E+03  0.12500350826E+03 0.  0.
         25    2    1    2    0    0  0.42777745198E+01  0.26201383753E+02  0.55974978662E+02  0.13950815566E+03  0.12499806156E+03 0.  0.
          5    1    3    3  502    0  0.21432453897E+02 -0.61473819289E+02  0.12960581546E+02  0.66546579267E+02  0.47000000000E+01 0.  1.
         -5    1    3    3    0  502 -0.25710228417E+02  0.35272435536E+02  0.80785657198E+02  0.91943313856E+02  0.47000000000E+01 0.  1.
          5    1    4    4  503    0 -0.32758287300E+02 -0.15939222999E+02  0.72123719710E+02  0.80938774153E+02  0.47000000000E+01 0. -1.
         -5    1    4    4    0  503  0.37036061820E+02  0.42140606752E+02 -0.16148741048E+02  0.58569381506E+02  0.47000000000E+01 0. -1.
<mgrwt>
<rscale>  0 0.12779025E+03</rscale>
<asrwt>0</asrwt>
<pdfrwt beam="2">  1        5 0.11405910E-01 0.12779158E+03</pdfrwt>
<pdfrwt beam="1">  1       -5 0.34439943E-01 0.12779158E+03</pdfrwt>
<totfact> 0.36863678E+02</totfact>
</mgrwt>
</event>
<event>
 8    1  0.3682083E-007  0.1465876E+03  0.7546771E-02  0.1204739E+00
          5   -1    0    0  501    0  0.00000000000E+00  0.00000000000E+00  0.19007565421E+03  0.19013375377E+03  0.47000000000E+01 0.  1.
         -5   -1    0    0    0  501 -0.00000000000E+00 -0.00000000000E+00 -0.11826494450E+03  0.11835829965E+03  0.47000000000E+01 0.  1.
         25    2    1    2    0    0 -0.63183381362E+02  0.43156817229E+02  0.30806751531E+01  0.14659161988E+03  0.12499984762E+03 0.  0.
         25    2    1    2    0    0  0.63183381362E+02 -0.43156817229E+02  0.68730034559E+02  0.16190043354E+03  0.12503312432E+03 0.  0.
          5    1    3    3  502    0 -0.88506689524E+02  0.63852702807E+02 -0.12706003375E+02  0.10997333435E+03  0.47000000000E+01 0.  1.
         -5    1    3    3    0  502  0.25323308162E+02 -0.20695885578E+02  0.15786678528E+02  0.36618285529E+02  0.47000000000E+01 0.  1.
          5    1    4    4  503    0  0.64289479660E+02 -0.88584129517E+01 -0.18831517856E+02  0.67737173987E+02  0.47000000000E+01 0.  1.
         -5    1    4    4    0  503 -0.11060982975E+01 -0.34298404277E+02  0.87561552414E+02  0.94163259558E+02  0.47000000000E+01 0.  1.
<mgrwt>
<rscale>  0 0.14658053E+03</rscale>
<asrwt>0</asrwt>
<pdfrwt beam="1">  1        5 0.29254058E-01 0.14658763E+03</pdfrwt>
<pdfrwt beam="2">  1       -5 0.18206257E-01 0.14658763E+03</pdfrwt>
<totfact> 0.22967044E+02</totfact>
</mgrwt>
</event>
<event>
 8    1  0.3682083E-007  0.1610425E+03  0.7546771E-02  0.1187528E+00
          5   -1    0    0  501    0  0.00000000000E+00  0.00000000000E+00  0.23488951499E+02  0.23954557865E+02  0.47000000000E+01 0. -1.
         -5   -1    0    0    0  501 -0.00000000000E+00 -0.00000000000E+00 -0.11199205793E+04  0.11199304415E+04  0.47000000000E+01 0. -1.
         25    2    1    2    0    0  0.25142483505E+02  0.98360117406E+02 -0.63727367662E+03  0.65730438200E+03  0.12499781803E+03 0.  0.
         25    2    1    2    0    0 -0.25142483505E+02 -0.98360117406E+02 -0.45915795116E+03  0.48658061740E+03  0.12501126328E+03 0.  0.
          5    1    3    3  502    0  0.20300809683E+02  0.11530895213E+03 -0.62358063125E+03  0.63449442156E+03  0.47000000000E+01 0. -1.
         -5    1    3    3    0  502  0.48416738222E+01 -0.16948834726E+02 -0.13693045366E+02  0.22809960442E+02  0.47000000000E+01 0. -1.
          5    1    4    4  503    0 -0.74413690758E+02 -0.69705198250E+02 -0.32750345089E+03  0.34304054043E+03  0.47000000000E+01 0. -1.
         -5    1    4    4    0  503  0.49271207253E+02 -0.28654919156E+02 -0.13165450027E+03  0.14354007697E+03  0.47000000000E+01 0. -1.
<mgrwt>
<rscale>  0 0.16103985E+03</rscale>
<asrwt>0</asrwt>
<pdfrwt beam="1">  1        5 0.36502602E-02 0.16104246E+03</pdfrwt>
<pdfrwt beam="2">  1       -5 0.17233201E+00 0.16104246E+03</pdfrwt>
<totfact> 0.63015036E+01</totfact>
</mgrwt>
</event>
<event>
 8    1  0.3682083E-007  0.1762812E+03  0.7546771E-02  0.1171452E+00
         -5   -1    0    0    0  501 -0.00000000000E+00  0.00000000000E+00  0.11876710229E+04  0.11876803226E+04  0.47000000000E+01 0. -1.
          5   -1    0    0  501    0  0.00000000000E+00 -0.00000000000E+00 -0.34447977468E+02  0.34767127458E+02  0.47000000000E+01 0. -1.
         25    2    1    2    0    0 -0.10089840484E+03  0.72593689156E+02  0.87863817607E+03  0.89614736197E+03  0.12499887247E+03 0.  0.
         25    2    1    2    0    0  0.10089840484E+03 -0.72593689156E+02  0.27458486936E+03  0.32630008805E+03  0.12499826071E+03 0.  0.
          5    1    3    3  502    0 -0.42841922181E+01  0.91592680541E+01  0.50251796167E+03  0.50264165993E+03  0.47000000000E+01 0.  1.
         -5    1    3    3    0  502 -0.96614212626E+02  0.63434421102E+02  0.37612021440E+03  0.39350570204E+03  0.47000000000E+01 0.  1.
          5    1    4    4  503    0  0.97923683263E+02 -0.24606806243E+02  0.25476588898E+03  0.27408445933E+03  0.47000000000E+01 0. -1.
         -5    1    4    4    0  503  0.29747215816E+01 -0.47986882913E+02  0.19818980374E+02  0.52215628726E+02  0.47000000000E+01 0. -1.
<mgrwt>
<rscale>  0 0.17628106E+03</rscale>
<asrwt>0</asrwt>
<pdfrwt beam="2">  1        5 0.53249550E-02 0.17628117E+03</pdfrwt>
<pdfrwt beam="1">  1       -5 0.18274386E+00 0.17628117E+03</pdfrwt>
<totfact> 0.29051217E+01</totfact>
</mgrwt>
</event>
<event>
 8    1  0.3682083E-007  0.1270112E+03  0.7546771E-02  0.1231963E+00
          5   -1    0    0  501    0  0.00000000000E+00  0.00000000000E+00  0.10900463968E+04  0.10900565294E+04  0.47000000000E+01 0. -1.
         -5   -1    0    0    0  501 -0.00000000000E+00 -0.00000000000E+00 -0.16399551172E+02  0.17059756113E+02  0.47000000000E+01 0. -1.
         25    2    1    2    0    0  0.38790119062E+01  0.22170954144E+02  0.34831288273E+03  0.37074749683E+03  0.12500097676E+03 0.  0.
         25    2    1    2    0    0 -0.38790119062E+01 -0.22170954144E+02  0.72533396292E+03  0.73636878865E+03  0.12499214852E+03 0.  0.
          5    1    3    3  502    0  0.28104070741E+02  0.67971729435E+02  0.17768351375E+03  0.19236297943E+03  0.47000000000E+01 0.  1.
         -5    1    3    3    0  502 -0.24225058835E+02 -0.45800775291E+02  0.17062936898E+03  0.17838451740E+03  0.47000000000E+01 0.  1.
          5    1    4    4  503    0 -0.62162740466E+02 -0.82809145289E+01  0.46219564932E+03  0.46645437944E+03  0.47000000000E+01 0. -1.
         -5    1    4    4    0  503  0.58283728560E+02 -0.13890039615E+02  0.26313831360E+03  0.26991440921E+03  0.47000000000E+01 0. -1.
<mgrwt>
<rscale>  0 0.12700902E+03</rscale>
<asrwt>0</asrwt>
<pdfrwt beam="1">  1        5 0.16775101E+00 0.12701119E+03</pdfrwt>
<pdfrwt beam="2">  1       -5 0.25745723E-02 0.12701119E+03</pdfrwt>
<totfact> 0.11153858E+02</totfact>
</mgrwt>
</event>
<event>
 8    1  0.3682083E-007  0.1272055E+03  0.7546771E-02  0.1231665E+00
          5   -1    0    0  501    0  0.00000000000E+00  0.00000000000E+00  0.84110273877E+02  0.84241487235E+02  0.47000000000E+01 0. -1.
         -5   -1    0    0    0  501 -0.00000000000E+00 -0.00000000000E+00 -0.20654162101E+03  0.20659508999E+03  0.47000000000E+01 0. -1.
         25    2    1    2    0    0 -0.23274722240E+02  0.36392254170E+01 -0.99705535066E+02  0.16162432129E+03  0.12500508330E+03 0.  0.
         25    2    1    2    0    0  0.23274722240E+02 -0.36392254170E+01 -0.22725812066E+02  0.12921225594E+03  0.12499755155E+03 0.  0.
          5    1    3    3  502    0  0.16694054460E+02 -0.37899683174E+02 -0.94826821415E+02  0.10358230302E+03  0.47000000000E+01 0.  1.
         -5    1    3    3    0  502 -0.39968776700E+02  0.41538908591E+02 -0.48787136513E+01  0.58042018269E+02  0.47000000000E+01 0.  1.
          5    1    4    4  503    0  0.13205916483E+02  0.53729917251E+02 -0.39817321643E+02  0.68328686076E+02  0.47000000000E+01 0. -1.
         -5    1    4    4    0  503  0.10068805757E+02 -0.57369142668E+02  0.17091509577E+02  0.60883569865E+02  0.47000000000E+01 0. -1.
<mgrwt>
<rscale>  0 0.12720360E+03</rscale>
<asrwt>0</asrwt>
<pdfrwt beam="1">  1        5 0.12954249E-01 0.12720545E+03</pdfrwt>
<pdfrwt beam="2">  1       -5 0.31789840E-01 0.12720545E+03</pdfrwt>
<totfact> 0.34432266E+02</totfact>
</mgrwt>
</event>
<event>
 8    1  0.3682083E-007  0.1539857E+03  0.7546771E-02  0.1195660E+00
         -5   -1    0    0    0  501 -0.00000000000E+00  0.00000000000E+00  0.22819395994E+03  0.22824235661E+03  0.47000000000E+01 0.  1.
          5   -1    0    0  501    0  0.00000000000E+00 -0.00000000000E+00 -0.12871239236E+03  0.12879817524E+03  0.47000000000E+01 0.  1.
         25    2    1    2    0    0  0.40335784441E+02  0.80371582480E+02  0.12824204419E+03  0.20039204982E+03  0.12499753980E+03 0.  0.
         25    2    1    2    0    0 -0.40335784441E+02 -0.80371582480E+02 -0.28760476606E+02  0.15664848204E+03  0.12500006053E+03 0.  0.
          5    1    3    3  502    0  0.72141727315E+02  0.71751424523E+02  0.46180981943E+02  0.11183679553E+03  0.47000000000E+01 0.  1.
         -5    1    3    3    0  502 -0.31805942874E+02  0.86201579569E+01  0.82061062244E+02  0.88555254288E+02  0.47000000000E+01 0.  1.
          5    1    4    4  503    0 -0.61081730659E+02 -0.81181056140E+02  0.19813594400E+02  0.10361472009E+03  0.47000000000E+01 0.  1.
         -5    1    4    4    0  503  0.20745946219E+02  0.80947365977E+00 -0.48574071006E+02  0.53033761946E+02  0.47000000000E+01 0.  1.
<mgrwt>
<rscale>  0 0.15398514E+03</rscale>
<asrwt>0</asrwt>
<pdfrwt beam="2">  1        5 0.19812228E-01 0.15398565E+03</pdfrwt>
<pdfrwt beam="1">  1       -5 0.35117085E-01 0.15398565E+03</pdfrwt>
<totfact> 0.13884176E+02</totfact>
</mgrwt>
</event>
<event>
 8    1  0.3682083E-007  0.2600347E+03  0.7546771E-02  0.1107123E+00
         -5   -1    0    0    0  501 -0.00000000000E+00  0.00000000000E+00  0.18062111107E+03  0.18068225083E+03  0.47000000000E+01 0. -1.
          5   -1    0    0  501    0  0.00000000000E+00 -0.00000000000E+00 -0.62957630195E+03  0.62959384525E+03  0.47000000000E+01 0. -1.
         25    2    1    2    0    0  0.22798315007E+03  0.39494773892E+01  0.33527483535E+02  0.26218161359E+03  0.12499276486E+03 0.  0.
         25    2    1    2    0    0 -0.22798315007E+03 -0.39494773892E+01 -0.48248267441E+03  0.54809448249E+03  0.12500446208E+03 0.  0.
          5    1    3    3  502    0  0.15913122165E+03 -0.35348356047E+02  0.66600931640E+02  0.17615341630E+03  0.47000000000E+01 0. -1.
         -5    1    3    3    0  502  0.68851928417E+02  0.39297833437E+02 -0.33073448105E+02  0.86028197291E+02  0.47000000000E+01 0. -1.
          5    1    4    4  503    0 -0.72673904702E+02 -0.11938584136E+02 -0.51779563779E+02  0.90151203214E+02  0.47000000000E+01 0. -1.
         -5    1    4    4    0  503 -0.15530924536E+03  0.79891067465E+01 -0.43070311063E+03  0.45794327927E+03  0.47000000000E+01 0. -1.
<mgrwt>
<rscale>  0 0.26003327E+03</rscale>
<asrwt>0</asrwt>
<pdfrwt beam="2">  1        5 0.96863944E-01 0.26003467E+03</pdfrwt>
<pdfrwt beam="1">  1       -5 0.27793916E-01 0.26003467E+03</pdfrwt>
<totfact> 0.88801046E+00</totfact>
</mgrwt>
</event>
<event>
 8    1  0.3682083E-007  0.1288911E+03  0.7546771E-02  0.1229113E+00
          5   -1    0    0  501    0  0.00000000000E+00  0.00000000000E+00  0.62664615442E+03  0.62666377975E+03  0.47000000000E+01 0. -1.
         -5   -1    0    0    0  501 -0.00000000000E+00 -0.00000000000E+00 -0.27295871305E+02  0.27697555674E+02  0.47000000000E+01 0. -1.
         25    2    1    2    0    0 -0.26154608619E+02  0.17404225492E+02  0.23714702566E+03  0.26991040268E+03  0.12500377226E+03 0.  0.
         25    2    1    2    0    0  0.26154608619E+02 -0.17404225492E+02  0.36220325745E+03  0.38445093274E+03  0.12499739740E+03 0.  0.
          5    1    4    4  502    0  0.30720421885E+02 -0.21360772242E+02  0.21003918923E+02  0.43165744772E+02  0.47000000000E+01 0. -1.
         -5    1    4    4    0  502 -0.45658132661E+01  0.39565467504E+01  0.34119933853E+03  0.34128518796E+03  0.47000000000E+01 0. -1.
          5    1    3    3  503    0 -0.68210591497E+02 -0.22615190269E+01  0.19635379342E+03  0.20792955887E+03  0.47000000000E+01 0. -1.
         -5    1    3    3    0  503  0.42055982877E+02  0.19665744519E+02  0.40793232242E+02  0.61980843815E+02  0.47000000000E+01 0. -1.
<mgrwt>
<rscale>  0 0.12888955E+03</rscale>
<asrwt>0</asrwt>
<pdfrwt beam="1">  1        5 0.96439350E-01 0.12889109E+03</pdfrwt>
<pdfrwt beam="2">  1       -5 0.42316196E-02 0.12889109E+03</pdfrwt>
<totfact> 0.21095322E+02</totfact>
</mgrwt>
</event>
<event>
 8    1  0.3682083E-007  0.1504853E+03  0.7546771E-02  0.1199879E+00
          5   -1    0    0  501    0  0.00000000000E+00  0.00000000000E+00  0.14856669660E+03  0.14864102173E+03  0.47000000000E+01 0. -1.
         -5   -1    0    0    0  501 -0.00000000000E+00 -0.00000000000E+00 -0.16882077117E+03  0.16888618292E+03  0.47000000000E+01 0. -1.
         25    2    1    2    0    0 -0.83395774129E+02 -0.80498297386E+01 -0.59808202158E+02  0.16193469615E+03  0.12500467939E+03 0.  0.
         25    2    1    2    0    0  0.83395774129E+02  0.80498297386E+01  0.39554127588E+02  0.15559250849E+03  0.12499937915E+03 0.  0.
          5    1    4    4  502    0  0.56574665022E+02  0.23385412851E+02  0.82276521623E+02  0.10266005195E+03  0.47000000000E+01 0.  1.
         -5    1    4    4    0  502  0.26821109107E+02 -0.15335583113E+02 -0.42722394035E+02  0.52932456539E+02  0.47000000000E+01 0.  1.
          5    1    3    3  503    0 -0.71604085378E+02  0.14700224397E+02 -0.93860785711E+02  0.11905955961E+03  0.47000000000E+01 0.  1.
         -5    1    3    3    0  503 -0.11791688751E+02 -0.22750054135E+02  0.34052583553E+02  0.42875136541E+02  0.47000000000E+01 0.  1.
<mgrwt>
<rscale>  0 0.15048420E+03</rscale>
<asrwt>0</asrwt>
<pdfrwt beam="1">  1        5 0.22867164E-01 0.15048530E+03</pdfrwt>
<pdfrwt beam="2">  1       -5 0.25983175E-01 0.15048530E+03</pdfrwt>
<totfact> 0.19032253E+02</totfact>
</mgrwt>
</event>
<event>
 8    1  0.3682083E-007  0.1793670E+03  0.7546771E-02  0.1168418E+00
         -5   -1    0    0    0  501 -0.00000000000E+00  0.00000000000E+00  0.46665838664E+03  0.46668205432E+03  0.47000000000E+01 0. -1.
          5   -1    0    0  501    0  0.00000000000E+00 -0.00000000000E+00 -0.70153093559E+02  0.70310358667E+02  0.47000000000E+01 0. -1.
         25    2    1    2    0    0  0.75847314461E+02  0.10389069634E+03  0.23499839799E+03  0.29562753444E+03  0.12500120065E+03 0.  0.
         25    2    1    2    0    0 -0.75847314461E+02 -0.10389069634E+03  0.16150689509E+03  0.24136487855E+03  0.12500574201E+03 0.  0.
          5    1    4    4  502    0 -0.70989112676E+02 -0.59822887515E+02  0.22855581593E+02  0.95721991199E+02  0.47000000000E+01 0. -1.
         -5    1    4    4    0  502 -0.48582017850E+01 -0.44067808828E+02  0.13865131350E+03  0.14564288735E+03  0.47000000000E+01 0. -1.
          5    1    3    3  503    0  0.35000707297E+02 -0.20469370146E+02  0.24207484786E+02  0.47456684937E+02  0.47000000000E+01 0.  1.
         -5    1    3    3    0  503  0.40846607164E+02  0.12436006649E+03  0.21079091320E+03  0.24817084950E+03  0.47000000000E+01 0.  1.
<mgrwt>
<rscale>  0 0.17936623E+03</rscale>
<asrwt>0</asrwt>
<pdfrwt beam="2">  1        5 0.10806701E-01 0.17936702E+03</pdfrwt>
<pdfrwt beam="1">  1       -5 0.71807518E-01 0.17936702E+03</pdfrwt>
<totfact> 0.94848531E+01</totfact>
</mgrwt>
</event>
<event>
 8    1  0.3682083E-007  0.1819181E+03  0.7546771E-02  0.1165960E+00
         -5   -1    0    0    0  501 -0.00000000000E+00  0.00000000000E+00  0.30085722353E+03  0.30089393306E+03  0.47000000000E+01 0.  1.
          5   -1    0    0  501    0  0.00000000000E+00 -0.00000000000E+00 -0.10994355365E+03  0.11004396844E+03  0.47000000000E+01 0.  1.
         25    2    1    2    0    0 -0.13002398415E+03 -0.23712016470E+02  0.99274985223E+02  0.20724246516E+03  0.12500168197E+03 0.  0.
         25    2    1    2    0    0  0.13002398415E+03  0.23712016470E+02  0.91638684656E+02  0.20369543634E+03  0.12500274429E+03 0.  0.
          5    1    3    3  502    0 -0.41557452349E+02 -0.45891776120E+02 -0.12052371585E+02  0.63248925857E+02  0.47000000000E+01 0. -1.
         -5    1    3    3    0  502 -0.88466531803E+02  0.22179759650E+02  0.11132735681E+03  0.14399353930E+03  0.47000000000E+01 0. -1.
          5    1    4    4  503    0  0.69546458991E+02 -0.19278005677E+02 -0.14839672849E+02  0.73828567312E+02  0.47000000000E+01 0.  1.
         -5    1    4    4    0  503  0.60477525162E+02  0.42990022147E+02  0.10647835751E+03  0.12986686903E+03  0.47000000000E+01 0.  1.
<mgrwt>
<rscale>  0 0.18191788E+03</rscale>
<asrwt>0</asrwt>
<pdfrwt beam="2">  1        5 0.16924941E-01 0.18191806E+03</pdfrwt>
<pdfrwt beam="1">  1       -5 0.46296274E-01 0.18191806E+03</pdfrwt>
<totfact> 0.11079341E+02</totfact>
</mgrwt>
</event>
<event>
 8    1  0.3682083E-007  0.1256831E+03  0.7546771E-02  0.1234010E+00
          5   -1    0    0  501    0  0.00000000000E+00  0.00000000000E+00  0.84078778821E+03  0.84080092460E+03  0.47000000000E+01 0.  1.
         -5   -1    0    0    0  501 -0.00000000000E+00 -0.00000000000E+00 -0.18490122039E+02  0.19078118697E+02  0.47000000000E+01 0.  1.
         25    2    1    2    0    0 -0.45601747938E+01  0.12134038352E+02  0.42178029506E+03  0.44010480549E+03  0.12500236969E+03 0.  0.
         25    2    1    2    0    0  0.45601747938E+01 -0.12134038352E+02  0.40051737111E+03  0.41977423781E+03  0.12501286369E+03 0.  0.
          5    1    4    4  502    0  0.60338010462E+02 -0.26558834844E+02  0.17808552664E+03  0.18995418398E+03  0.47000000000E+01 0.  1.
         -5    1    4    4    0  502 -0.55777835668E+02  0.14424796493E+02  0.22243184447E+03  0.22982005383E+03  0.47000000000E+01 0.  1.
          5    1    3    3  503    0 -0.17549246184E+02 -0.15046155709E+02  0.40424565789E+03  0.40493333373E+03  0.47000000000E+01 0. -1.
         -5    1    3    3    0  503  0.12989071390E+02  0.27180194060E+02  0.17534637177E+02  0.35171471759E+02  0.47000000000E+01 0. -1.
<mgrwt>
<rscale>  0 0.12568051E+03</rscale>
<asrwt>0</asrwt>
<pdfrwt beam="1">  1        5 0.12939817E+00 0.12568312E+03</pdfrwt>
<pdfrwt beam="2">  1       -5 0.28908760E-02 0.12568312E+03</pdfrwt>
<totfact> 0.18646814E+02</totfact>
</mgrwt>
</event>
<event>
 8    1  0.3682083E-007  0.1564137E+03  0.7546771E-02  0.1192807E+00
          5   -1    0    0  501    0  0.00000000000E+00  0.00000000000E+00  0.10496864406E+04  0.10496969627E+04  0.47000000000E+01 0. -1.
         -5   -1    0    0    0  501 -0.00000000000E+00 -0.00000000000E+00 -0.29071256207E+02  0.29448734055E+02  0.47000000000E+01 0. -1.
         25    2    1    2    0    0 -0.86395479424E+02  0.37098676446E+02  0.26675432814E+03  0.30922918300E+03  0.12499730146E+03 0.  0.
         25    2    1    2    0    0  0.86395479424E+02 -0.37098676446E+02  0.75386085625E+03  0.76991651380E+03  0.12499902790E+03 0.  0.
          5    1    4    4  502    0  0.98728531565E+02 -0.66900837942E+02  0.65603630707E+03  0.66680489745E+03  0.47000000000E+01 0.  1.
         -5    1    4    4    0  502 -0.12333052140E+02  0.29802161497E+02  0.97824549177E+02  0.10311161635E+03  0.47000000000E+01 0.  1.
          5    1    3    3  503    0  0.27851445109E+02 -0.13488734977E+02  0.57381243921E+02  0.65363186273E+02  0.47000000000E+01 0.  1.
         -5    1    3    3    0  503 -0.11424692453E+03  0.50587411422E+02  0.20937308422E+03  0.24386599672E+03  0.47000000000E+01 0.  1.
<mgrwt>
<rscale>  0 0.15641336E+03</rscale>
<asrwt>0</asrwt>
<pdfrwt beam="1">  1        5 0.16152010E+00 0.15641371E+03</pdfrwt>
<pdfrwt beam="2">  1       -5 0.45023462E-02 0.15641371E+03</pdfrwt>
<totfact> 0.53264059E+01</totfact>
</mgrwt>
</event>
<event>
 8    1  0.3682083E-007  0.1542452E+03  0.7546771E-02  0.1195354E+00
          5   -1    0    0  501    0  0.00000000000E+00  0.00000000000E+00  0.47381571222E+02  0.47614108113E+02  0.47000000000E+01 0. -1.
         -5   -1    0    0    0  501 -0.00000000000E+00 -0.00000000000E+00 -0.51427521495E+03  0.51429669133E+03  0.47000000000E+01 0. -1.
         25    2    1    2    0    0  0.88843735184E+02 -0.16478905446E+02 -0.27920429744E+03  0.31897746584E+03  0.12500728139E+03 0.  0.
         25    2    1    2    0    0 -0.88843735184E+02  0.16478905446E+02 -0.18768934630E+03  0.24293333360E+03  0.12499820102E+03 0.  0.
          5    1    3    3  502    0  0.32833418028E+02 -0.58845325378E+02 -0.65938898420E+02  0.94397213853E+02  0.47000000000E+01 0. -1.
         -5    1    3    3    0  502  0.56010317156E+02  0.42366419933E+02 -0.21326539902E+03  0.22458025199E+03  0.47000000000E+01 0. -1.
          5    1    4    4  503    0 -0.11978512303E+03  0.36372884542E+01 -0.13815311492E+03  0.18294829523E+03  0.47000000000E+01 0. -1.
         -5    1    4    4    0  503  0.30941387851E+02  0.12841616991E+02 -0.49536231377E+02  0.59985038369E+02  0.47000000000E+01 0. -1.
<mgrwt>
<rscale>  0 0.15424337E+03</rscale>
<asrwt>0</asrwt>
<pdfrwt beam="1">  1        5 0.73090123E-02 0.15424521E+03</pdfrwt>
<pdfrwt beam="2">  1       -5 0.79138799E-01 0.15424521E+03</pdfrwt>
<totfact> 0.14294463E+02</totfact>
</mgrwt>
</event>
<event>
 8    1  0.3682083E-007  0.1472672E+03  0.7546771E-02  0.1203875E+00
         -5   -1    0    0    0  501 -0.00000000000E+00  0.00000000000E+00  0.79619719049E+03  0.79621106256E+03  0.47000000000E+01 0.  1.
          5   -1    0    0  501    0  0.00000000000E+00 -0.00000000000E+00 -0.28831535486E+02  0.29212111161E+02  0.47000000000E+01 0.  1.
         25    2    1    2    0    0 -0.64177455613E+02 -0.44051985078E+02  0.48638819678E+03  0.50819147673E+03  0.12500310339E+03 0.  0.
         25    2    1    2    0    0  0.64177455613E+02  0.44051985078E+02  0.28097745823E+03  0.31723169699E+03  0.12501317670E+03 0.  0.
          5    1    3    3  502    0  0.20616487825E+02  0.17045766741E+02  0.22516909140E+03  0.22680125100E+03  0.47000000000E+01 0. -1.
         -5    1    3    3    0  502 -0.84793943437E+02 -0.61097751820E+02  0.26121910538E+03  0.28139022573E+03  0.47000000000E+01 0. -1.
          5    1    4    4  503    0 -0.25037003752E+02 -0.19677066078E+02  0.10516850621E+03  0.10998428608E+03  0.47000000000E+01 0.  1.
         -5    1    4    4    0  503  0.89214459364E+02  0.63729051156E+02  0.17580895202E+03  0.20724741092E+03  0.47000000000E+01 0.  1.
<mgrwt>
<rscale>  0 0.14726503E+03</rscale>
<asrwt>0</asrwt>
<pdfrwt beam="2">  1        5 0.44659635E-02 0.14726716E+03</pdfrwt>
<pdfrwt beam="1">  1       -5 0.12252220E+00 0.14726716E+03</pdfrwt>
<totfact> 0.11126313E+02</totfact>
</mgrwt>
</event>
<event>
 8    1  0.3682083E-007  0.1637770E+03  0.7546771E-02  0.1184498E+00
          5   -1    0    0  501    0  0.00000000000E+00  0.00000000000E+00  0.98474032110E+02  0.98586129856E+02  0.47000000000E+01 0.  1.
         -5   -1    0    0    0  501 -0.00000000000E+00 -0.00000000000E+00 -0.30537544040E+03  0.30541160685E+03  0.47000000000E+01 0.  1.
         25    2    1    2    0    0 -0.27142118816E+02 -0.10227835826E+03 -0.17011675045E+03  0.23614063746E+03  0.12500053877E+03 0.  0.
         25    2    1    2    0    0  0.27142118816E+02  0.10227835826E+03 -0.36784657839E+02  0.16785709925E+03  0.12500135014E+03 0.  0.
          5    1    4    4  502    0  0.50985721926E+02 -0.45043042758E+01 -0.26590747396E+02  0.57870462625E+02  0.47000000000E+01 0. -1.
         -5    1    4    4    0  502 -0.23843603109E+02  0.10678266253E+03 -0.10193910443E+02  0.10998663663E+03  0.47000000000E+01 0. -1.
          5    1    3    3  503    0  0.25890113963E+02 -0.89381372255E+02 -0.15229201793E+03  0.17853368431E+03  0.47000000000E+01 0. -1.
         -5    1    3    3    0  503 -0.53032232779E+02 -0.12896986001E+02 -0.17824732521E+02  0.57606953147E+02  0.47000000000E+01 0. -1.
<mgrwt>
<rscale>  0 0.16377681E+03</rscale>
<asrwt>0</asrwt>
<pdfrwt beam="1">  1        5 0.15161256E-01 0.16377697E+03</pdfrwt>
<pdfrwt beam="2">  1       -5 0.46992241E-01 0.16377697E+03</pdfrwt>
<totfact> 0.12730066E+02</totfact>
</mgrwt>
</event>
<event>
 8    1  0.3682083E-007  0.1467782E+03  0.7546771E-02  0.1204490E+00
          5   -1    0    0  501    0  0.00000000000E+00  0.00000000000E+00  0.23243303597E+03  0.23248055018E+03  0.47000000000E+01 0. -1.
         -5   -1    0    0    0  501 -0.00000000000E+00 -0.00000000000E+00 -0.92590137741E+02  0.92709350159E+02  0.47000000000E+01 0. -1.
         25    2    1    2    0    0 -0.51271665826E+02  0.57354518987E+02  0.67507480185E+02  0.16155539683E+03  0.12499824718E+03 0.  0.
         25    2    1    2    0    0  0.51271665826E+02 -0.57354518987E+02  0.72335418045E+02  0.16363450351E+03  0.12500205386E+03 0.  0.
          5    1    3    3  502    0  0.39494254842E+02  0.26124701889E+01  0.11013640469E+02  0.41352284609E+02  0.47000000000E+01 0.  1.
         -5    1    3    3    0  502 -0.90765920668E+02  0.54742048798E+02  0.56493839717E+02  0.12020311222E+03  0.47000000000E+01 0.  1.
          5    1    4    4  503    0  0.25965770181E+02  0.23435092449E+02 -0.18103466170E+02  0.39664218971E+02  0.47000000000E+01 0. -1.
         -5    1    4    4    0  503  0.25305895645E+02 -0.80789611436E+02  0.90438884215E+02  0.12397028454E+03  0.47000000000E+01 0. -1.
<mgrwt>
<rscale>  0 0.14677738E+03</rscale>
<asrwt>0</asrwt>
<pdfrwt beam="1">  1        5 0.35771754E-01 0.14677819E+03</pdfrwt>
<pdfrwt beam="2">  1       -5 0.14257462E-01 0.14677819E+03</pdfrwt>
<totfact> 0.24083030E+02</totfact>
</mgrwt>
</event>
<event>
 8    1  0.3682083E-007  0.1280418E+03  0.7546771E-02  0.1230400E+00
         -5   -1    0    0    0  501 -0.00000000000E+00  0.00000000000E+00  0.14638579316E+02  0.15374589568E+02  0.47000000000E+01 0.  1.
          5   -1    0    0  501    0  0.00000000000E+00 -0.00000000000E+00 -0.10970344202E+04  0.10970444883E+04  0.47000000000E+01 0.  1.
         25    2    1    2    0    0 -0.22562059172E+02  0.16034642197E+02 -0.50186198821E+03  0.51793253558E+03  0.12498999936E+03 0.  0.
         25    2    1    2    0    0  0.22562059172E+02 -0.16034642197E+02 -0.58053385273E+03  0.59448654225E+03  0.12501415313E+03 0.  0.
          5    1    4    4  502    0 -0.76862737315E+01 -0.70368268234E+01 -0.55065712251E+03  0.55077577317E+03  0.47000000000E+01 0.  1.
         -5    1    4    4    0  502  0.30248332904E+02 -0.89978153734E+01 -0.29876730215E+02  0.43710769077E+02  0.47000000000E+01 0.  1.
          5    1    3    3  503    0 -0.14716163614E+02 -0.39779039782E+02 -0.39248346818E+03  0.39479653022E+03  0.47000000000E+01 0.  1.
         -5    1    3    3    0  503 -0.78458955576E+01  0.55813681979E+02 -0.10937852002E+03  0.12313600536E+03  0.47000000000E+01 0.  1.
<mgrwt>
<rscale>  0 0.12803587E+03</rscale>
<asrwt>0</asrwt>
<pdfrwt beam="2">  1        5 0.16883185E+00 0.12804177E+03</pdfrwt>
<pdfrwt beam="1">  1       -5 0.23094806E-02 0.12804177E+03</pdfrwt>
<totfact> 0.13061532E+02</totfact>
</mgrwt>
</event>
<event>
 8    1  0.3682083E-007  0.1745962E+03  0.7546771E-02  0.1173140E+00
          5   -1    0    0  501    0  0.00000000000E+00  0.00000000000E+00  0.45601865586E+02  0.45843430772E+02  0.47000000000E+01 0.  1.
         -5   -1    0    0    0  501 -0.00000000000E+00 -0.00000000000E+00 -0.81442098477E+03  0.81443454644E+03  0.47000000000E+01 0.  1.
         25    2    1    2    0    0 -0.14451911862E+02  0.12103937706E+03 -0.56773411875E+03  0.59397177092E+03  0.12498418499E+03 0.  0.
         25    2    1    2    0    0  0.14451911862E+02 -0.12103937706E+03 -0.20108500043E+03  0.26630620629E+03  0.12499771820E+03 0.  0.
          5    1    4    4  502    0  0.26051495976E+02 -0.52677453050E+02 -0.60568935738E+01  0.59265255101E+02  0.47000000000E+01 0.  1.
         -5    1    4    4    0  502 -0.11599584114E+02 -0.68361924010E+02 -0.19502810686E+03  0.20704095119E+03  0.47000000000E+01 0.  1.
          5    1    3    3  503    0 -0.57879634311E+02  0.72755625277E+02 -0.44908484042E+03  0.45863135193E+03  0.47000000000E+01 0.  1.
         -5    1    3    3    0  503  0.43427722450E+02  0.48283751783E+02 -0.11864927834E+03  0.13534041899E+03  0.47000000000E+01 0.  1.
<mgrwt>
<rscale>  0 0.17459374E+03</rscale>
<asrwt>0</asrwt>
<pdfrwt beam="1">  1        5 0.70352974E-02 0.17459616E+03</pdfrwt>
<pdfrwt beam="2">  1       -5 0.12531515E+00 0.17459616E+03</pdfrwt>
<totfact> 0.51450717E+01</totfact>
</mgrwt>
</event>
<event>
 8    1  0.3682083E-007  0.1455415E+03  0.7546771E-02  0.1206063E+00
          5   -1    0    0  501    0  0.00000000000E+00  0.00000000000E+00  0.22054355520E+04  0.22054405600E+04  0.47000000000E+01 0.  1.
         -5   -1    0    0    0  501 -0.00000000000E+00 -0.00000000000E+00 -0.99767900129E+01  0.11028433205E+02  0.47000000000E+01 0.  1.
         25    2    1    2    0    0  0.59119245019E+01  0.74304958437E+02  0.77279215136E+03  0.78637778947E+03  0.12500456336E+03 0.  0.
         25    2    1    2    0    0 -0.59119245019E+01 -0.74304958437E+02  0.14226666106E+04  0.14300912038E+04  0.12499755413E+03 0.  0.
          5    1    4    4  502    0  0.40766700232E+02 -0.36549397637E+02  0.25412062790E+03  0.25999454963E+03  0.47000000000E+01 0.  1.
         -5    1    4    4    0  502 -0.46678624734E+02 -0.37755560801E+02  0.11685459827E+04  0.11700966541E+04  0.47000000000E+01 0.  1.
          5    1    3    3  503    0 -0.55547928183E+02  0.25885725733E+02  0.45141552100E+03  0.45558062483E+03  0.47000000000E+01 0. -1.
         -5    1    3    3    0  503  0.61459852685E+02  0.48419232705E+02  0.32137663036E+03  0.33079716463E+03  0.47000000000E+01 0. -1.
<mgrwt>
<rscale>  0 0.14553996E+03</rscale>
<asrwt>0</asrwt>
<pdfrwt beam="1">  1        5 0.33937898E+00 0.14554147E+03</pdfrwt>
<pdfrwt beam="2">  1       -5 0.16161720E-02 0.14554147E+03</pdfrwt>
<totfact> 0.18434975E+01</totfact>
</mgrwt>
</event>
<event>
 8    1  0.3682083E-007  0.1289218E+03  0.7546771E-02  0.1229070E+00
         -5   -1    0    0    0  501 -0.00000000000E+00  0.00000000000E+00  0.74967533518E+03  0.74969006808E+03  0.47000000000E+01 0. -1.
          5   -1    0    0  501    0  0.00000000000E+00 -0.00000000000E+00 -0.26975175255E+02  0.27381564602E+02  0.47000000000E+01 0. -1.
         25    2    1    2    0    0  0.31314338433E+02 -0.41342110311E+01  0.52838962694E+03  0.54389009270E+03  0.12499262212E+03 0.  0.
         25    2    1    2    0    0 -0.31314338433E+02  0.41342110311E+01  0.19431053298E+03  0.23318153998E+03  0.12497746944E+03 0.  0.
          5    1    3    3  502    0 -0.52072016188E+01 -0.58222562992E+02  0.32455640298E+03  0.32981196235E+03  0.47000000000E+01 0. -1.
         -5    1    3    3    0  502  0.36521540052E+02  0.54088351961E+02  0.20383322396E+03  0.21407813035E+03  0.47000000000E+01 0. -1.
          5    1    4    4  503    0 -0.39259663473E+02  0.44590640186E+02  0.36229017748E+02  0.69744376800E+02  0.47000000000E+01 0. -1.
         -5    1    4    4    0  503  0.79453250400E+01 -0.40456429155E+02  0.15808151523E+03  0.16343716318E+03  0.47000000000E+01 0. -1.
<mgrwt>
<rscale>  0 0.12891814E+03</rscale>
<asrwt>0</asrwt>
<pdfrwt beam="2">  1        5 0.41824221E-02 0.12892182E+03</pdfrwt>
<pdfrwt beam="1">  1       -5 0.11536703E+00 0.12892182E+03</pdfrwt>
<totfact> 0.13837336E+02</totfact>
</mgrwt>
</event>
<event>
 8    1  0.3682083E-007  0.1535956E+03  0.7546771E-02  0.1196126E+00
          5   -1    0    0  501    0  0.00000000000E+00  0.00000000000E+00  0.15560053669E+03  0.15567150356E+03  0.47000000000E+01 0.  1.
         -5   -1    0    0    0  501 -0.00000000000E+00 -0.00000000000E+00 -0.15148290272E+03  0.15155579770E+03  0.47000000000E+01 0.  1.
         25    2    1    2    0    0 -0.14891231640E+02  0.88000733922E+02  0.36896004379E+01  0.15363111976E+03  0.12499211918E+03 0.  0.
         25    2    1    2    0    0  0.14891231640E+02 -0.88000733922E+02  0.42803353797E+00  0.15359618149E+03  0.12500290319E+03 0.  0.
          5    1    3    3  502    0  0.43296256274E+02  0.42879245101E+02 -0.34886395524E+02  0.70372907147E+02  0.47000000000E+01 0. -1.
         -5    1    3    3    0  502 -0.58187487914E+02  0.45121488822E+02  0.38575995962E+02  0.83258212614E+02  0.47000000000E+01 0. -1.
          5    1    4    4  503    0  0.11801905416E+02  0.16788062445E+02 -0.36677111514E+02  0.42289768516E+02  0.47000000000E+01 0.  1.
         -5    1    4    4    0  503  0.30893262240E+01 -0.10478879637E+03  0.37105145052E+02  0.11130641298E+03  0.47000000000E+01 0.  1.
<mgrwt>
<rscale>  0 0.15359339E+03</rscale>
<asrwt>0</asrwt>
<pdfrwt beam="1">  1        5 0.23949610E-01 0.15359559E+03</pdfrwt>
<pdfrwt beam="2">  1       -5 0.23316128E-01 0.15359559E+03</pdfrwt>
<totfact> 0.21591482E+02</totfact>
</mgrwt>
</event>
<event>
 8    1  0.3682083E-007  0.1456456E+03  0.7546771E-02  0.1205930E+00
          5   -1    0    0  501    0  0.00000000000E+00  0.00000000000E+00  0.69226279952E+03  0.69227875426E+03  0.47000000000E+01 0. -1.
         -5   -1    0    0    0  501 -0.00000000000E+00 -0.00000000000E+00 -0.32154010044E+02  0.32495697591E+02  0.47000000000E+01 0. -1.
         25    2    1    2    0    0  0.34090483213E+02  0.66509126940E+02  0.24695563179E+03  0.28670121081E+03  0.12499950080E+03 0.  0.
         25    2    1    2    0    0 -0.34090483213E+02 -0.66509126940E+02  0.41315315769E+03  0.43807324104E+03  0.12500803090E+03 0.  0.
          5    1    4    4  502    0 -0.48896799579E+02 -0.98367283951E+02  0.30101887789E+03  0.32047070756E+03  0.47000000000E+01 0.  1.
         -5    1    4    4    0  502  0.14806316366E+02  0.31858157011E+02  0.11213427980E+03  0.11760253347E+03  0.47000000000E+01 0.  1.
          5    1    3    3  503    0 -0.30213101139E+02  0.51538953032E+02  0.47253530773E+02  0.76315668972E+02  0.47000000000E+01 0. -1.
         -5    1    3    3    0  503  0.64303584352E+02  0.14970173908E+02  0.19970210101E+03  0.21038554184E+03  0.47000000000E+01 0. -1.
<mgrwt>
<rscale>  0 0.14564374E+03</rscale>
<asrwt>0</asrwt>
<pdfrwt beam="1">  1        5 0.10652947E+00 0.14564557E+03</pdfrwt>
<pdfrwt beam="2">  1       -5 0.49742821E-02 0.14564557E+03</pdfrwt>
<totfact> 0.13184088E+02</totfact>
</mgrwt>
</event>
<event>
 8    1  0.3682083E-007  0.1384726E+03  0.7546771E-02  0.1215405E+00
         -5   -1    0    0    0  501 -0.00000000000E+00  0.00000000000E+00  0.26352057864E+02  0.26767909027E+02  0.47000000000E+01 0.  1.
          5   -1    0    0  501    0  0.00000000000E+00 -0.00000000000E+00 -0.82387673527E+03  0.82389014129E+03  0.47000000000E+01 0.  1.
         25    2    1    2    0    0  0.26072893417E+02  0.53513369557E+02 -0.24879238256E+03  0.28472360414E+03  0.12500561845E+03 0.  0.
         25    2    1    2    0    0 -0.26072893417E+02 -0.53513369557E+02 -0.54873229484E+03  0.56593444617E+03  0.12502475542E+03 0.  0.
          5    1    3    3  502    0  0.55188254103E+01 -0.52409121532E+00  0.13909633167E+02  0.15693947889E+02  0.47000000000E+01 0.  1.
         -5    1    3    3    0  502  0.20554068007E+02  0.54037460773E+02 -0.26270201573E+03  0.26902965625E+03  0.47000000000E+01 0.  1.
          5    1    4    4  503    0 -0.40825998939E+02  0.20031571355E+02 -0.88553168627E+02  0.99658314828E+02  0.47000000000E+01 0.  1.
         -5    1    4    4    0  503  0.14753105522E+02 -0.73544940912E+02 -0.46017912622E+03  0.46627613134E+03  0.47000000000E+01 0.  1.
<mgrwt>
<rscale>  0 0.13846830E+03</rscale>
<asrwt>0</asrwt>
<pdfrwt beam="2">  1        5 0.12678327E+00 0.13847262E+03</pdfrwt>
<pdfrwt beam="1">  1       -5 0.40871832E-02 0.13847262E+03</pdfrwt>
<totfact> 0.11563356E+02</totfact>
</mgrwt>
</event>
<event>
 8    1  0.3682083E-007  0.1383065E+03  0.7546771E-02  0.1215629E+00
          5   -1    0    0  501    0  0.00000000000E+00  0.00000000000E+00  0.12351562124E+03  0.12360501078E+03  0.47000000000E+01 0. -1.
         -5   -1    0    0    0  501 -0.00000000000E+00 -0.00000000000E+00 -0.16748637030E+03  0.16755230299E+03  0.47000000000E+01 0. -1.
         25    2    1    2    0    0 -0.59165139656E+02  0.15737511043E+01 -0.62226806774E+02  0.15165115972E+03  0.12499163300E+03 0.  0.
         25    2    1    2    0    0  0.59165139656E+02 -0.15737511043E+01  0.18256057714E+02  0.13950615405E+03  0.12500277169E+03 0.  0.
          5    1    4    4  502    0  0.63599278301E+02  0.75457464221E-01 -0.43625225730E+02  0.77266578895E+02  0.47000000000E+01 0. -1.
         -5    1    4    4    0  502 -0.44341386448E+01 -0.16492085685E+01  0.61881283444E+02  0.62239575152E+02  0.47000000000E+01 0. -1.
          5    1    3    3  503    0  0.23577219560E+02 -0.39158916498E+02 -0.21041891835E+02  0.50538670693E+02  0.47000000000E+01 0.  1.
         -5    1    3    3    0  503 -0.82742359216E+02  0.40732667602E+02 -0.41184914938E+02  0.10111248903E+03  0.47000000000E+01 0.  1.
<mgrwt>
<rscale>  0 0.13830397E+03</rscale>
<asrwt>0</asrwt>
<pdfrwt beam="1">  1        5 0.19014351E-01 0.13830648E+03</pdfrwt>
<pdfrwt beam="2">  1       -5 0.25779082E-01 0.13830648E+03</pdfrwt>
<totfact> 0.26560762E+02</totfact>
</mgrwt>
</event>
<event>
 8    1  0.3682083E-007  0.1580771E+03  0.7546771E-02  0.1190885E+00
          5   -1    0    0  501    0  0.00000000000E+00  0.00000000000E+00  0.34789692998E+02  0.35105736553E+02  0.47000000000E+01 0. -1.
         -5   -1    0    0    0  501 -0.00000000000E+00 -0.00000000000E+00 -0.12349223378E+04  0.12349312817E+04  0.47000000000E+01 0. -1.
         25    2    1    2    0    0  0.83196945367E+02  0.49406628436E+02 -0.10121687831E+04  0.10244381921E+04  0.12500086927E+03 0.  0.
         25    2    1    2    0    0 -0.83196945367E+02 -0.49406628436E+02 -0.18796386175E+03  0.24559882614E+03  0.12500249368E+03 0.  0.
          5    1    4    4  502    0 -0.10355335064E+03 -0.49302205747E+02 -0.91204184218E+02  0.14660933510E+03  0.47000000000E+01 0.  1.
         -5    1    4    4    0  502  0.20356405274E+02 -0.10442268936E+00 -0.96759677531E+02  0.98989491036E+02  0.47000000000E+01 0.  1.
          5    1    3    3  503    0  0.15909046732E+02  0.62492381087E+02 -0.77002646258E+03  0.77273620243E+03  0.47000000000E+01 0. -1.
         -5    1    3    3    0  503  0.67287898636E+02 -0.13085752651E+02 -0.24214232050E+03  0.25170198967E+03  0.47000000000E+01 0. -1.
<mgrwt>
<rscale>  0 0.15807678E+03</rscale>
<asrwt>0</asrwt>
<pdfrwt beam="1">  1        5 0.53772604E-02 0.15807710E+03</pdfrwt>
<pdfrwt beam="2">  1       -5 0.19001302E+00 0.15807710E+03</pdfrwt>
<totfact> 0.24726051E+01</totfact>
</mgrwt>
</event>
<event>
 8    1  0.3682083E-007  0.1341882E+03  0.7546771E-02  0.1221373E+00
         -5   -1    0    0    0  501 -0.00000000000E+00  0.00000000000E+00  0.48027733056E+02  0.48257156386E+02  0.47000000000E+01 0. -1.
          5   -1    0    0  501    0  0.00000000000E+00 -0.00000000000E+00 -0.38183978005E+03  0.38186870470E+03  0.47000000000E+01 0. -1.
         25    2    1    2    0    0 -0.10048056176E+02  0.47729583491E+02 -0.13562297806E+03  0.19078219539E+03  0.12500070930E+03 0.  0.
         25    2    1    2    0    0  0.10048056176E+02 -0.47729583491E+02 -0.19818906893E+03  0.23934366570E+03  0.12500962640E+03 0.  0.
          5    1    3    3  502    0 -0.44179614321E+02  0.49166129718E+02 -0.14108150884E+03  0.15586926820E+03  0.47000000000E+01 0.  1.
         -5    1    3    3    0  502  0.34131558145E+02 -0.14365462270E+01  0.54585307760E+01  0.34912927186E+02  0.47000000000E+01 0.  1.
          5    1    4    4  503    0  0.57715082685E+02 -0.10874900308E+02 -0.15278704828E+03  0.16375367583E+03  0.47000000000E+01 0.  1.
         -5    1    4    4    0  503 -0.47667026510E+02 -0.36854683183E+02 -0.45402020649E+02  0.75589989865E+02  0.47000000000E+01 0.  1.
<mgrwt>
<rscale>  0 0.13418616E+03</rscale>
<asrwt>0</asrwt>
<pdfrwt beam="2">  1        5 0.58764453E-01 0.13418824E+03</pdfrwt>
<pdfrwt beam="1">  1       -5 0.74087552E-02 0.13418824E+03</pdfrwt>
<totfact> 0.26022321E+02</totfact>
</mgrwt>
</event>
<event>
 8    1  0.3682083E-007  0.1485771E+03  0.7546771E-02  0.1202235E+00
         -5   -1    0    0    0  501 -0.00000000000E+00  0.00000000000E+00  0.29438572596E+03  0.29442324238E+03  0.47000000000E+01 0.  1.
          5   -1    0    0  501    0  0.00000000000E+00 -0.00000000000E+00 -0.78787879239E+02  0.78927941282E+02  0.47000000000E+01 0.  1.
         25    2    1    2    0    0 -0.80078825179E+02  0.60407322254E+01  0.14939284780E+03  0.21069120136E+03  0.12499380251E+03 0.  0.
         25    2    1    2    0    0  0.80078825179E+02 -0.60407322254E+01  0.66204998920E+02  0.16265998230E+03  0.12500423702E+03 0.  0.
          5    1    4    4  502    0  0.60814856185E+02  0.25472359200E+02 -0.19749035271E+02  0.68988420841E+02  0.47000000000E+01 0. -1.
         -5    1    4    4    0  502  0.19263968994E+02 -0.31513091426E+02  0.85954034191E+02  0.93671561459E+02  0.47000000000E+01 0. -1.
          5    1    3    3  503    0 -0.75099473329E+02 -0.89782232986E+01  0.16890987076E+03  0.18513015375E+03  0.47000000000E+01 0. -1.
         -5    1    3    3    0  503 -0.49793518498E+01  0.15018955524E+02 -0.19517022953E+02  0.25561047608E+02  0.47000000000E+01 0. -1.
<mgrwt>
<rscale>  0 0.14857495E+03</rscale>
<asrwt>0</asrwt>
<pdfrwt beam="2">  1        5 0.12134872E-01 0.14857714E+03</pdfrwt>
<pdfrwt beam="1">  1       -5 0.45303771E-01 0.14857714E+03</pdfrwt>
<totfact> 0.19880802E+02</totfact>
</mgrwt>
</event>
<event>
 8    1  0.3682083E-007  0.1253499E+03  0.7546771E-02  0.1234528E+00
         -5   -1    0    0    0  501 -0.00000000000E+00  0.00000000000E+00  0.34983381799E+03  0.34986538870E+03  0.47000000000E+01 0. -1.
          5   -1    0    0  501    0  0.00000000000E+00 -0.00000000000E+00 -0.45764002297E+02  0.46004716130E+02  0.47000000000E+01 0. -1.
         25    2    1    2    0    0 -0.12551023951E+00 -0.93766009585E+01  0.18135963555E+03  0.22046295335E+03  0.12499863996E+03 0.  0.
         25    2    1    2    0    0  0.12551023951E+00  0.93766009585E+01  0.12271018014E+03  0.17540715148E+03  0.12498777573E+03 0.  0.
          5    1    4    4  502    0 -0.16421309947E+02 -0.51360074096E+02  0.88148091864E+02  0.10343931908E+03  0.47000000000E+01 0. -1.
         -5    1    4    4    0  502  0.16546820186E+02  0.60736675054E+02  0.34562088277E+02  0.71967832405E+02  0.47000000000E+01 0. -1.
          5    1    3    3  503    0  0.24568875557E+02  0.25303071403E+02  0.17325519121E+03  0.17687093134E+03  0.47000000000E+01 0.  1.
         -5    1    3    3    0  503 -0.24694385796E+02 -0.34679672361E+02  0.81044443336E+01  0.43592022010E+02  0.47000000000E+01 0.  1.
<mgrwt>
<rscale>  0 0.12534719E+03</rscale>
<asrwt>0</asrwt>
<pdfrwt beam="2">  1        5 0.70615607E-02 0.12534990E+03</pdfrwt>
<pdfrwt beam="1">  1       -5 0.53841532E-01 0.12534990E+03</pdfrwt>
<totfact> 0.33285039E+02</totfact>
</mgrwt>
</event>
<event>
 8    1  0.3682083E-007  0.1425412E+03  0.7546771E-02  0.1209955E+00
         -5   -1    0    0    0  501 -0.00000000000E+00  0.00000000000E+00  0.65747807005E+03  0.65749486887E+03  0.47000000000E+01 0. -1.
          5   -1    0    0  501    0  0.00000000000E+00 -0.00000000000E+00 -0.34583501759E+02  0.34901412492E+02  0.47000000000E+01 0. -1.
         25    2    1    2    0    0  0.42034478124E+02 -0.54051937204E+02  0.42680215581E+03  0.44997055881E+03  0.12499965730E+03 0.  0.
         25    2    1    2    0    0 -0.42034478124E+02  0.54051937204E+02  0.19609241248E+03  0.24242572256E+03  0.12501794854E+03 0.  0.
          5    1    4    4  502    0  0.66833155338E+01 -0.26311646879E+02  0.11485833455E+03  0.11811645306E+03  0.47000000000E+01 0. -1.
         -5    1    4    4    0  502 -0.48717793658E+02  0.80363584083E+02  0.81234077933E+02  0.12430926950E+03  0.47000000000E+01 0. -1.
          5    1    3    3  503    0 -0.18644896473E+02  0.26380274318E+02  0.18686935191E+03  0.18969922435E+03  0.47000000000E+01 0. -1.
         -5    1    3    3    0  503  0.60679374597E+02 -0.80432211522E+02  0.23993280390E+03  0.26027133445E+03  0.47000000000E+01 0. -1.
<mgrwt>
<rscale>  0 0.14253720E+03</rscale>
<asrwt>0</asrwt>
<pdfrwt beam="2">  1        5 0.53462860E-02 0.14254121E+03</pdfrwt>
<pdfrwt beam="1">  1       -5 0.10117621E+00 0.14254121E+03</pdfrwt>
<totfact> 0.13184476E+02</totfact>
</mgrwt>
</event>
<event>
 8    1  0.3682083E-007  0.1419084E+03  0.7546771E-02  0.1210793E+00
          5   -1    0    0  501    0  0.00000000000E+00  0.00000000000E+00  0.27623044958E+03  0.27627043142E+03  0.47000000000E+01 0. -1.
         -5   -1    0    0    0  501 -0.00000000000E+00 -0.00000000000E+00 -0.72911451758E+02  0.73062779837E+02  0.47000000000E+01 0. -1.
         25    2    1    2    0    0  0.42268028926E+02 -0.52216672653E+02  0.93899852825E+02  0.17013904643E+03  0.12496777819E+03 0.  0.
         25    2    1    2    0    0 -0.42268028926E+02  0.52216672653E+02  0.10941914500E+03  0.17919416483E+03  0.12499932897E+03 0.  0.
          5    1    3    3  502    0  0.58793860289E+02 -0.49006733041E+02  0.11778115717E+03  0.14054489985E+03  0.47000000000E+01 0. -1.
         -5    1    3    3    0  502 -0.16525831362E+02 -0.32099396128E+01 -0.23881304342E+02  0.29594146577E+02  0.47000000000E+01 0. -1.
          5    1    4    4  503    0 -0.47103624100E+02 -0.24179974977E+02  0.10762847213E+02  0.54234227876E+02  0.47000000000E+01 0. -1.
         -5    1    4    4    0  503  0.48355951735E+01  0.76396647630E+02  0.98656297787E+02  0.12495993695E+03  0.47000000000E+01 0. -1.
<mgrwt>
<rscale>  0 0.14190147E+03</rscale>
<asrwt>0</asrwt>
<pdfrwt beam="1">  1        5 0.42511708E-01 0.14190842E+03</pdfrwt>
<pdfrwt beam="2">  1       -5 0.11231863E-01 0.14190842E+03</pdfrwt>
<totfact> 0.25621593E+02</totfact>
</mgrwt>
</event>
<event>
 8    1  0.3682083E-007  0.1537853E+03  0.7546771E-02  0.1195900E+00
         -5   -1    0    0    0  501 -0.00000000000E+00  0.00000000000E+00  0.30931938615E+03  0.30935509152E+03  0.47000000000E+01 0. -1.
          5   -1    0    0  501    0  0.00000000000E+00 -0.00000000000E+00 -0.93814486541E+02  0.93932145110E+02  0.47000000000E+01 0. -1.
         25    2    1    2    0    0 -0.36841861165E+02 -0.81650280322E+02  0.19470142297E+03  0.24810999688E+03  0.12500334169E+03 0.  0.
         25    2    1    2    0    0  0.36841861165E+02  0.81650280322E+02  0.20803476641E+02  0.15517723975E+03  0.12499240011E+03 0.  0.
          5    1    3    3  502    0 -0.60499305520E+02 -0.24406690000E+02  0.29757653075E+02  0.71857222335E+02  0.47000000000E+01 0. -1.
         -5    1    3    3    0  502  0.23657444355E+02 -0.57243590322E+02  0.16494376989E+03  0.17625277454E+03  0.47000000000E+01 0. -1.
          5    1    4    4  503    0  0.74401662140E+02  0.21545156714E+02 -0.90511461031E+01  0.78126911835E+02  0.47000000000E+01 0.  1.
         -5    1    4    4    0  503 -0.37559800975E+02  0.60105123607E+02  0.29854622744E+02  0.77050327918E+02  0.47000000000E+01 0.  1.
<mgrwt>
<rscale>  0 0.15378310E+03</rscale>
<asrwt>0</asrwt>
<pdfrwt beam="2">  1        5 0.14444795E-01 0.15378533E+03</pdfrwt>
<pdfrwt beam="1">  1       -5 0.47599395E-01 0.15378533E+03</pdfrwt>
<totfact> 0.13263864E+02</totfact>
</mgrwt>
</event>
<event>
 8    1  0.3682083E-007  0.1457054E+03  0.7546771E-02  0.1205852E+00
         -5   -1    0    0    0  501 -0.00000000000E+00  0.00000000000E+00  0.11293787373E+03  0.11303562855E+03  0.47000000000E+01 0. -1.
          5   -1    0    0  501    0  0.00000000000E+00 -0.00000000000E+00 -0.20402441998E+03  0.20407854848E+03  0.47000000000E+01 0. -1.
         25    2    1    2    0    0  0.74830815593E+02 -0.20101890628E+01 -0.80744828383E+00  0.14570765136E+03  0.12500550335E+03 0.  0.
         25    2    1    2    0    0 -0.74830815593E+02  0.20101890628E+01 -0.90279097967E+02  0.17140652567E+03  0.12500475868E+03 0.  0.
          5    1    3    3  502    0 -0.15611094298E+02  0.27821985452E+02 -0.31955306505E+02  0.45398246150E+02  0.47000000000E+01 0.  1.
         -5    1    3    3    0  502  0.90441909891E+02 -0.29832174515E+02  0.31147858221E+02  0.10030940521E+03  0.47000000000E+01 0.  1.
          5    1    4    4  503    0 -0.87372805267E+02  0.27423222794E+02 -0.10477199122E+03  0.13923110426E+03  0.47000000000E+01 0.  1.
         -5    1    4    4    0  503  0.12541989674E+02 -0.25413033731E+02  0.14492893254E+02  0.32175421416E+02  0.47000000000E+01 0.  1.
<mgrwt>
<rscale>  0 0.14570525E+03</rscale>
<asrwt>0</asrwt>
<pdfrwt beam="2">  1        5 0.31400056E-01 0.14570541E+03</pdfrwt>
<pdfrwt beam="1">  1       -5 0.17386741E-01 0.14570541E+03</pdfrwt>
<totfact> 0.21708701E+02</totfact>
</mgrwt>
</event>
<event>
 8    1  0.3682083E-007  0.1264453E+03  0.7546771E-02  0.1232829E+00
          5   -1    0    0  501    0  0.00000000000E+00  0.00000000000E+00  0.17618826338E+03  0.17625094086E+03  0.47000000000E+01 0. -1.
         -5   -1    0    0    0  501 -0.00000000000E+00 -0.00000000000E+00 -0.14502125920E+03  0.14509740046E+03  0.47000000000E+01 0. -1.
         25    2    1    2    0    0  0.14244899937E+02  0.12619172572E+02 -0.82785431531E+02  0.15113205591E+03  0.12500123983E+03 0.  0.
         25    2    1    2    0    0 -0.14244899937E+02 -0.12619172572E+02  0.11395243571E+03  0.17021628541E+03  0.12500506200E+03 0.  0.
          5    1    4    4  502    0  0.33459414249E+02 -0.45056137617E+02  0.19800794133E+02  0.59697147228E+02  0.47000000000E+01 0. -1.
         -5    1    4    4    0  502 -0.47704314186E+02  0.32436965045E+02  0.94151641579E+02  0.11051913819E+03  0.47000000000E+01 0. -1.
          5    1    3    3  503    0  0.58873467475E+01  0.66164548032E+02 -0.23363890641E+02  0.70571734100E+02  0.47000000000E+01 0.  1.
         -5    1    3    3    0  503  0.83575531895E+01 -0.53545375460E+02 -0.59421540889E+02  0.80560321810E+02  0.47000000000E+01 0.  1.
<mgrwt>
<rscale>  0 0.12644440E+03</rscale>
<asrwt>0</asrwt>
<pdfrwt beam="1">  1        5 0.27116565E-01 0.12644535E+03</pdfrwt>
<pdfrwt beam="2">  1       -5 0.22321641E-01 0.12644535E+03</pdfrwt>
<totfact> 0.17297584E+02</totfact>
</mgrwt>
</event>
<event>
 8    1  0.3682083E-007  0.1376969E+03  0.7546771E-02  0.1216466E+00
          5   -1    0    0  501    0  0.00000000000E+00  0.00000000000E+00  0.37111844788E+03  0.37114820807E+03  0.47000000000E+01 0.  1.
         -5   -1    0    0    0  501 -0.00000000000E+00 -0.00000000000E+00 -0.77695741573E+02  0.77837768844E+02  0.47000000000E+01 0.  1.
         25    2    1    2    0    0 -0.11134648342E+02 -0.56669890135E+02  0.15159688348E+02  0.13851738760E+03  0.12498717404E+03 0.  0.
         25    2    1    2    0    0  0.11134648342E+02  0.56669890135E+02  0.27826301796E+03  0.31046858932E+03  0.12499992380E+03 0.  0.
          5    1    3    3  502    0  0.46921284192E+02 -0.49615301040E+01  0.34046334742E+02  0.58373509408E+02  0.47000000000E+01 0. -1.
         -5    1    3    3    0  502 -0.58055932534E+02 -0.51708360031E+02 -0.18886646394E+02  0.80143878191E+02  0.47000000000E+01 0. -1.
          5    1    4    4  503    0  0.62495697491E+02  0.14090402153E+02  0.18398981734E+03  0.19488097527E+03  0.47000000000E+01 0. -1.
         -5    1    4    4    0  503 -0.51361049149E+02  0.42579487982E+02  0.94273200620E+02  0.11558761405E+03  0.47000000000E+01 0. -1.
<mgrwt>
<rscale>  0 0.13769401E+03</rscale>
<asrwt>0</asrwt>
<pdfrwt beam="1">  1        5 0.57108360E-01 0.13769691E+03</pdfrwt>
<pdfrwt beam="2">  1       -5 0.11966405E-01 0.13769691E+03</pdfrwt>
<totfact> 0.12145978E+02</totfact>
</mgrwt>
</event>
<event>
 8    1  0.3682083E-007  0.1302488E+03  0.7546771E-02  0.1227087E+00
         -5   -1    0    0    0  501 -0.00000000000E+00  0.00000000000E+00  0.19524816453E+02  0.20082541112E+02  0.47000000000E+01 0. -1.
          5   -1    0    0  501    0  0.00000000000E+00 -0.00000000000E+00 -0.90604813256E+03  0.90606032278E+03  0.47000000000E+01 0. -1.
         25    2    1    2    0    0  0.32555616156E+02  0.16706958103E+02 -0.33453954593E+03  0.35900016479E+03  0.12500167973E+03 0.  0.
         25    2    1    2    0    0 -0.32555616156E+02 -0.16706958103E+02 -0.55198377018E+03  0.56714269910E+03  0.12500307201E+03 0.  0.
          5    1    4    4  502    0  0.26817803684E+02  0.36096926521E+02 -0.12796482206E+03  0.13571760528E+03  0.47000000000E+01 0.  1.
         -5    1    4    4    0  502 -0.59373419840E+02 -0.52803884624E+02 -0.42401894812E+03  0.43142509382E+03  0.47000000000E+01 0.  1.
          5    1    3    3  503    0  0.34104498679E+02  0.23446203270E+02 -0.23453247829E+02  0.47801528340E+02  0.47000000000E+01 0. -1.
         -5    1    3    3    0  503 -0.15488825229E+01 -0.67392451669E+01 -0.31108629810E+03  0.31119863645E+03  0.47000000000E+01 0. -1.
<mgrwt>
<rscale>  0 0.13024850E+03</rscale>
<asrwt>0</asrwt>
<pdfrwt beam="2">  1        5 0.13943583E+00 0.13024883E+03</pdfrwt>
<pdfrwt beam="1">  1       -5 0.30476582E-02 0.13024883E+03</pdfrwt>
<totfact> 0.14250711E+02</totfact>
</mgrwt>
</event>
<event>
 8    1  0.3682083E-007  0.1307288E+03  0.7546771E-02  0.1226381E+00
         -5   -1    0    0    0  501 -0.00000000000E+00  0.00000000000E+00  0.11796211222E+02  0.12698054938E+02  0.47000000000E+01 0. -1.
          5   -1    0    0  501    0  0.00000000000E+00 -0.00000000000E+00 -0.14380641254E+04  0.14380718058E+04  0.47000000000E+01 0. -1.
         25    2    1    2    0    0 -0.24761862411E+02  0.29168843267E+02 -0.58682278737E+03  0.60120635980E+03  0.12499652814E+03 0.  0.
         25    2    1    2    0    0  0.24761862411E+02 -0.29168843267E+02 -0.83944512677E+03  0.84956350094E+03  0.12500420000E+03 0.  0.
          5    1    4    4  502    0 -0.35087145035E+02 -0.52793160936E+02 -0.50184018416E+03  0.50584966742E+03  0.47000000000E+01 0.  1.
         -5    1    4    4    0  502  0.59849007446E+02  0.23624317669E+02 -0.33760494261E+03  0.34371383352E+03  0.47000000000E+01 0.  1.
          5    1    3    3  503    0 -0.29388266565E+02  0.36693489606E+02 -0.58906160432E+03  0.59095325202E+03  0.47000000000E+01 0. -1.
         -5    1    3    3    0  503  0.46264041535E+01 -0.75246463390E+01  0.22388169501E+01  0.10253107785E+02  0.47000000000E+01 0. -1.
<mgrwt>
<rscale>  0 0.13072697E+03</rscale>
<asrwt>0</asrwt>
<pdfrwt beam="2">  1        5 0.22131046E+00 0.13072881E+03</pdfrwt>
<pdfrwt beam="1">  1       -5 0.18847663E-02 0.13072881E+03</pdfrwt>
<totfact> 0.79334676E+01</totfact>
</mgrwt>
</event>
<event>
 8    1  0.3682083E-007  0.1272956E+03  0.7546771E-02  0.1231533E+00
          5   -1    0    0  501    0  0.00000000000E+00  0.00000000000E+00  0.35763258839E+03  0.35766347071E+03  0.47000000000E+01 0. -1.
         -5   -1    0    0    0  501 -0.00000000000E+00 -0.00000000000E+00 -0.45251561122E+02  0.45494986361E+02  0.47000000000E+01 0. -1.
         25    2    1    2    0    0 -0.98899818713E+01  0.21905571334E+02  0.14656015475E+03  0.19412377527E+03  0.12500598134E+03 0.  0.
         25    2    1    2    0    0  0.98899818713E+01 -0.21905571334E+02  0.16582087252E+03  0.20903468179E+03  0.12498508164E+03 0.  0.
          5    1    3    3  502    0 -0.14374620441E+02  0.59324704621E+02  0.23905467651E+02  0.65723752744E+02  0.47000000000E+01 0. -1.
         -5    1    3    3    0  502  0.44846385695E+01 -0.37419133286E+02  0.12265468710E+03  0.12840002253E+03  0.47000000000E+01 0. -1.
          5    1    4    4  503    0  0.22414857151E+02  0.47448721955E+02  0.97179365485E+02  0.11054287002E+03  0.47000000000E+01 0.  1.
         -5    1    4    4    0  503 -0.12524875279E+02 -0.69354293289E+02  0.68641507034E+02  0.98491811773E+02  0.47000000000E+01 0.  1.
<mgrwt>
<rscale>  0 0.12729043E+03</rscale>
<asrwt>0</asrwt>
<pdfrwt beam="1">  1        5 0.55041497E-01 0.12729557E+03</pdfrwt>
<pdfrwt beam="2">  1       -5 0.69828794E-02 0.12729557E+03</pdfrwt>
<totfact> 0.32538927E+02</totfact>
</mgrwt>
</event>
<event>
 8    1  0.3682083E-007  0.1378103E+03  0.7546771E-02  0.1216307E+00
          5   -1    0    0  501    0  0.00000000000E+00  0.00000000000E+00  0.18332097491E+03  0.18338121453E+03  0.47000000000E+01 0.  1.
         -5   -1    0    0    0  501 -0.00000000000E+00 -0.00000000000E+00 -0.10619831171E+03  0.10630226437E+03  0.47000000000E+01 0.  1.
         25    2    1    2    0    0 -0.56663307807E+02 -0.12454024383E+02  0.15342205057E+02  0.13866164871E+03  0.12500334552E+03 0.  0.
         25    2    1    2    0    0  0.56663307807E+02  0.12454024383E+02  0.61780458150E+02  0.15102183019E+03  0.12499974004E+03 0.  0.
          5    1    4    4  502    0 -0.38888573220E+02  0.12036522886E+02  0.27706826424E+02  0.49466728624E+02  0.47000000000E+01 0.  1.
         -5    1    4    4    0  502  0.95551881028E+02  0.41750149675E+00  0.34073631727E+02  0.10155510157E+03  0.47000000000E+01 0.  1.
          5    1    3    3  503    0 -0.22488349006E+02  0.47016629007E+02  0.39740648115E+02  0.65709195375E+02  0.47000000000E+01 0. -1.
         -5    1    3    3    0  503 -0.34174958801E+02 -0.59470653390E+02 -0.24398443058E+02  0.72952453333E+02  0.47000000000E+01 0. -1.
<mgrwt>
<rscale>  0 0.13780945E+03</rscale>
<asrwt>0</asrwt>
<pdfrwt beam="1">  1        5 0.28215857E-01 0.13781027E+03</pdfrwt>
<pdfrwt beam="2">  1       -5 0.16350832E-01 0.13781027E+03</pdfrwt>
<totfact> 0.29406637E+02</totfact>
</mgrwt>
</event>
<event>
 8    1  0.3682083E-007  0.1338509E+03  0.7546771E-02  0.1221851E+00
         -5   -1    0    0    0  501 -0.00000000000E+00  0.00000000000E+00  0.12415371667E+03  0.12424264712E+03  0.47000000000E+01 0.  1.
          5   -1    0    0  501    0  0.00000000000E+00 -0.00000000000E+00 -0.15850284404E+03  0.15857251202E+03  0.47000000000E+01 0.  1.
         25    2    1    2    0    0  0.17947516714E+02 -0.44356770909E+02  0.25390794013E+02  0.13623777102E+03  0.12500560527E+03 0.  0.
         25    2    1    2    0    0 -0.17947516714E+02  0.44356770909E+02 -0.59739921383E+02  0.14657738812E+03  0.12500574395E+03 0.  0.
          5    1    3    3  502    0 -0.28568436944E+02  0.32079023352E+02  0.16271562534E+02  0.46174376833E+02  0.47000000000E+01 0.  1.
         -5    1    3    3    0  502  0.46515953658E+02 -0.76435794261E+02  0.91192314784E+01  0.90063394183E+02  0.47000000000E+01 0.  1.
          5    1    4    4  503    0 -0.38535981098E+02 -0.14373107363E+02  0.19459362074E+02  0.45742374521E+02  0.47000000000E+01 0.  1.
         -5    1    4    4    0  503  0.20588464384E+02  0.58729878273E+02 -0.79199283457E+02  0.10083501360E+03  0.47000000000E+01 0.  1.
<mgrwt>
<rscale>  0 0.13385090E+03</rscale>
<asrwt>0</asrwt>
<pdfrwt beam="2">  1        5 0.24397253E-01 0.13385093E+03</pdfrwt>
<pdfrwt beam="1">  1       -5 0.19112772E-01 0.13385093E+03</pdfrwt>
<totfact> 0.28911368E+02</totfact>
</mgrwt>
</event>
<event>
 8    1  0.3682083E-007  0.1825838E+03  0.7546771E-02  0.1165327E+00
         -5   -1    0    0    0  501 -0.00000000000E+00  0.00000000000E+00  0.73557160121E+02  0.73707162509E+02  0.47000000000E+01 0.  1.
          5   -1    0    0  501    0  0.00000000000E+00 -0.00000000000E+00 -0.51543742390E+03  0.51545885185E+03  0.47000000000E+01 0.  1.
         25    2    1    2    0    0  0.57629150012E+02  0.11996118253E+03 -0.11807911318E+03  0.21743489638E+03  0.12499381164E+03 0.  0.
         25    2    1    2    0    0 -0.57629150012E+02 -0.11996118253E+03 -0.32380115059E+03  0.37173111798E+03  0.12500013883E+03 0.  0.
          5    1    3    3  502    0 -0.24145445293E+02 -0.89146274525E+01 -0.32295233553E+01  0.26362718603E+02  0.47000000000E+01 0.  1.
         -5    1    3    3    0  502  0.81774595305E+02  0.12887580998E+03 -0.11484958983E+03  0.19107217778E+03  0.47000000000E+01 0.  1.
          5    1    4    4  503    0  0.10305478226E+02 -0.40675840870E+01  0.75128938989E+01  0.14187378070E+02  0.47000000000E+01 0. -1.
         -5    1    4    4    0  503 -0.67934628238E+02 -0.11589359844E+03 -0.33131404449E+03  0.35754373991E+03  0.47000000000E+01 0. -1.
<mgrwt>
<rscale>  0 0.18258270E+03</rscale>
<asrwt>0</asrwt>
<pdfrwt beam="2">  1        5 0.79311250E-01 0.18258379E+03</pdfrwt>
<pdfrwt beam="1">  1       -5 0.11329673E-01 0.18258379E+03</pdfrwt>
<totfact> 0.69772375E+01</totfact>
</mgrwt>
</event>
<event>
 8    1  0.3682083E-007  0.1376996E+03  0.7546771E-02  0.1216460E+00
          5   -1    0    0  501    0  0.00000000000E+00  0.00000000000E+00  0.12796693164E+03  0.12805321391E+03  0.47000000000E+01 0. -1.
         -5   -1    0    0    0  501 -0.00000000000E+00 -0.00000000000E+00 -0.16248744334E+03  0.16255540361E+03  0.47000000000E+01 0. -1.
         25    2    1    2    0    0  0.36847365413E+02 -0.44475444703E+02 -0.60635005756E+02  0.15045455912E+03  0.12499670762E+03 0.  0.
         25    2    1    2    0    0 -0.36847365413E+02  0.44475444703E+02  0.26114494059E+02  0.14015405841E+03  0.12500159906E+03 0.  0.
          5    1    3    3  502    0  0.40464909297E+02 -0.73162436938E+02 -0.69803204364E+00  0.83742034319E+02  0.47000000000E+01 0. -1.
         -5    1    3    3    0  502 -0.36175438839E+01  0.28686992235E+02 -0.59936973712E+02  0.66712524799E+02  0.47000000000E+01 0. -1.
          5    1    4    4  503    0 -0.70929336194E+02  0.43137135578E+02 -0.17110860617E+02  0.84892018175E+02  0.47000000000E+01 0. -1.
         -5    1    4    4    0  503  0.34081970781E+02  0.13383091246E+01  0.43225354676E+02  0.55262040231E+02  0.47000000000E+01 0. -1.
<mgrwt>
<rscale>  0 0.13769854E+03</rscale>
<asrwt>0</asrwt>
<pdfrwt beam="1">  1        5 0.19699085E-01 0.13769965E+03</pdfrwt>
<pdfrwt beam="2">  1       -5 0.25009933E-01 0.13769965E+03</pdfrwt>
<totfact> 0.26319176E+02</totfact>
</mgrwt>
</event>
<event>
 8    1  0.3682083E-007  0.1395349E+03  0.7546771E-02  0.1213964E+00
          5   -1    0    0  501    0  0.00000000000E+00  0.00000000000E+00  0.85433952975E+02  0.85563136460E+02  0.47000000000E+01 0.  1.
         -5   -1    0    0    0  501 -0.00000000000E+00 -0.00000000000E+00 -0.22767952968E+03  0.22772803568E+03  0.47000000000E+01 0.  1.
         25    2    1    2    0    0 -0.32996305234E+02  0.52497649280E+02 -0.75093065925E+02  0.15845804845E+03  0.12500090091E+03 0.  0.
         25    2    1    2    0    0  0.32996305234E+02 -0.52497649280E+02 -0.67152510780E+02  0.15483312369E+03  0.12497630635E+03 0.  0.
          5    1    4    4  502    0 -0.10725160403E+02 -0.57978226073E+02  0.15415948319E+02  0.61124833144E+02  0.47000000000E+01 0. -1.
         -5    1    4    4    0  502  0.43721465637E+02  0.54805767926E+01 -0.82568459099E+02  0.93708290548E+02  0.47000000000E+01 0. -1.
          5    1    3    3  503    0  0.21411066043E+02  0.73249294011E+02 -0.62364248262E+02  0.98667534090E+02  0.47000000000E+01 0.  1.
         -5    1    3    3    0  503 -0.54407371277E+02 -0.20751644730E+02 -0.12728817664E+02  0.59790514359E+02  0.47000000000E+01 0.  1.
<mgrwt>
<rscale>  0 0.13952938E+03</rscale>
<asrwt>0</asrwt>
<pdfrwt beam="1">  1        5 0.13157354E-01 0.13953489E+03</pdfrwt>
<pdfrwt beam="2">  1       -5 0.35041288E-01 0.13953489E+03</pdfrwt>
<totfact> 0.28505691E+02</totfact>
</mgrwt>
</event>
<event>
 8    1  0.3682083E-007  0.1359970E+03  0.7546771E-02  0.1218820E+00
         -5   -1    0    0    0  501 -0.00000000000E+00  0.00000000000E+00  0.18108088995E+03  0.18114187452E+03  0.47000000000E+01 0.  1.
          5   -1    0    0  501    0  0.00000000000E+00 -0.00000000000E+00 -0.19033893825E+03  0.19039695748E+03  0.47000000000E+01 0.  1.
         25    2    1    2    0    0  0.16455917401E+02  0.50986066602E+02  0.12187714118E+03  0.18261660145E+03  0.12499763749E+03 0.  0.
         25    2    1    2    0    0 -0.16455917401E+02 -0.50986066602E+02 -0.13113518949E+03  0.18892223054E+03  0.12499918026E+03 0.  0.
          5    1    4    4  502    0 -0.16910219969E+02  0.33162254199E+02 -0.84833535277E+02  0.92760494558E+02  0.47000000000E+01 0.  1.
         -5    1    4    4    0  502  0.45430256746E+00 -0.84148320801E+02 -0.46301654211E+02  0.96161735982E+02  0.47000000000E+01 0.  1.
          5    1    3    3  503    0 -0.54080396911E+02  0.25900564110E+02  0.44262920163E+02  0.74678140393E+02  0.47000000000E+01 0. -1.
         -5    1    3    3    0  503  0.70536314312E+02  0.25085502492E+02  0.77614221016E+02  0.10793846106E+03  0.47000000000E+01 0. -1.
<mgrwt>
<rscale>  0 0.13599660E+03</rscale>
<asrwt>0</asrwt>
<pdfrwt beam="2">  1        5 0.29292068E-01 0.13599695E+03</pdfrwt>
<pdfrwt beam="1">  1       -5 0.27867753E-01 0.13599695E+03</pdfrwt>
<totfact> 0.99808804E+01</totfact>
</mgrwt>
</event>
<event>
 8    1  0.3682083E-007  0.1446615E+03  0.7546771E-02  0.1207192E+00
         -5   -1    0    0    0  501 -0.00000000000E+00  0.00000000000E+00  0.55295051722E+02  0.55494438865E+02  0.47000000000E+01 0.  1.
          5   -1    0    0  501    0  0.00000000000E+00 -0.00000000000E+00 -0.53485095238E+03  0.53487160260E+03  0.47000000000E+01 0.  1.
         25    2    1    2    0    0 -0.72407520664E+02 -0.76851857877E+01 -0.79731583722E+02  0.16517617312E+03  0.12499652633E+03 0.  0.
         25    2    1    2    0    0  0.72407520664E+02  0.76851857877E+01 -0.39982431694E+03  0.42518986834E+03  0.12500011439E+03 0.  0.
          5    1    3    3  502    0 -0.50868836802E+02  0.44682781704E+02 -0.84239626748E+02  0.10817852954E+03  0.47000000000E+01 0. -1.
         -5    1    3    3    0  502 -0.21538683862E+02 -0.52367967492E+02  0.45080430262E+01  0.56997643580E+02  0.47000000000E+01 0. -1.
          5    1    4    4  503    0 -0.20161498148E+02 -0.10436488997E+02 -0.22753525142E+03  0.22871332919E+03  0.47000000000E+01 0.  1.
         -5    1    4    4    0  503  0.92569018812E+02  0.18121674785E+02 -0.17228906551E+03  0.19647653915E+03  0.47000000000E+01 0.  1.
<mgrwt>
<rscale>  0 0.14466069E+03</rscale>
<asrwt>0</asrwt>
<pdfrwt beam="2">  1        5 0.82301684E-01 0.14466147E+03</pdfrwt>
<pdfrwt beam="1">  1       -5 0.85238574E-02 0.14466147E+03</pdfrwt>
<totfact> 0.98234182E+01</totfact>
</mgrwt>
</event>
<event>
 8    1  0.3682083E-007  0.1463754E+03  0.7546771E-02  0.1205000E+00
         -5   -1    0    0    0  501 -0.00000000000E+00  0.00000000000E+00  0.75787589521E+02  0.75933185930E+02  0.47000000000E+01 0. -1.
          5   -1    0    0  501    0  0.00000000000E+00 -0.00000000000E+00 -0.28527995627E+03  0.28531867000E+03  0.47000000000E+01 0. -1.
         25    2    1    2    0    0 -0.64860370433E+02 -0.39917142923E+02 -0.86189517872E+02  0.16986389298E+03  0.12499945279E+03 0.  0.
         25    2    1    2    0    0  0.64860370433E+02  0.39917142923E+02 -0.12330284887E+03  0.19138796294E+03  0.12500205545E+03 0.  0.
          5    1    4    4  502    0 -0.28194128423E+02  0.42809857226E+02 -0.58137869721E+02  0.77651108485E+02  0.47000000000E+01 0. -1.
         -5    1    4    4    0  502  0.93054498855E+02 -0.28927143032E+01 -0.65164979153E+02  0.11373685446E+03  0.47000000000E+01 0. -1.
          5    1    3    3  503    0 -0.56484952257E+02 -0.22484764222E+02 -0.11772111744E+03  0.13257626463E+03  0.47000000000E+01 0.  1.
         -5    1    3    3    0  503 -0.83754181757E+01 -0.17432378701E+02  0.31531599566E+02  0.37287628350E+02  0.47000000000E+01 0.  1.
<mgrwt>
<rscale>  0 0.14637485E+03</rscale>
<asrwt>0</asrwt>
<pdfrwt beam="2">  1        5 0.43903401E-01 0.14637541E+03</pdfrwt>
<pdfrwt beam="1">  1       -5 0.11673807E-01 0.14637541E+03</pdfrwt>
<totfact> 0.22621588E+02</totfact>
</mgrwt>
</event>
<event>
 8    1  0.3682083E-007  0.1368686E+03  0.7546771E-02  0.1217606E+00
         -5   -1    0    0    0  501 -0.00000000000E+00  0.00000000000E+00  0.54249911587E+02  0.54453125780E+02  0.47000000000E+01 0. -1.
          5   -1    0    0  501    0  0.00000000000E+00 -0.00000000000E+00 -0.47703003847E+03  0.47705319159E+03  0.47000000000E+01 0. -1.
         25    2    1    2    0    0 -0.43240290453E+02 -0.35184392779E+02 -0.71318274062E+02  0.15433504811E+03  0.12500138657E+03 0.  0.
         25    2    1    2    0    0  0.43240290453E+02  0.35184392779E+02 -0.35146185282E+03  0.37717126926E+03  0.12500027261E+03 0.  0.
          5    1    3    3  502    0 -0.45037551025E+02 -0.58486319816E+02 -0.95222468611E+02  0.12057544997E+03  0.47000000000E+01 0.  1.
         -5    1    3    3    0  502  0.17972605726E+01  0.23301927037E+02  0.23904194548E+02  0.33759598135E+02  0.47000000000E+01 0.  1.
          5    1    4    4  503    0  0.66524774355E+01 -0.45831912653E+02 -0.14635566102E+03  0.15358023696E+03  0.47000000000E+01 0. -1.
         -5    1    4    4    0  503  0.36587813017E+02  0.81016305432E+02 -0.20510619180E+03  0.22359103230E+03  0.47000000000E+01 0. -1.
<mgrwt>
<rscale>  0 0.13686834E+03</rscale>
<asrwt>0</asrwt>
<pdfrwt beam="2">  1        5 0.73406647E-01 0.13686859E+03</pdfrwt>
<pdfrwt beam="1">  1       -5 0.83635534E-02 0.13686859E+03</pdfrwt>
<totfact> 0.12973816E+02</totfact>
</mgrwt>
</event>
<event>
 8    1  0.3682083E-007  0.1260181E+03  0.7546771E-02  0.1233491E+00
         -5   -1    0    0    0  501 -0.00000000000E+00  0.00000000000E+00  0.67100845924E+02  0.67265247519E+02  0.47000000000E+01 0.  1.
          5   -1    0    0  501    0  0.00000000000E+00 -0.00000000000E+00 -0.24267338273E+03  0.24271889231E+03  0.47000000000E+01 0.  1.
         25    2    1    2    0    0  0.10892168963E+02 -0.11600528314E+02 -0.62422262000E+02  0.14062195897E+03  0.12499913980E+03 0.  0.
         25    2    1    2    0    0 -0.10892168963E+02  0.11600528314E+02 -0.11315027480E+03  0.16936218086E+03  0.12500940770E+03 0.  0.
          5    1    3    3  502    0 -0.20991000097E+02  0.41726042467E+02  0.68596658361E+01  0.47442910118E+02  0.47000000000E+01 0.  1.
         -5    1    3    3    0  502  0.31883169060E+02 -0.53326570782E+02 -0.69281927837E+02  0.93179048854E+02  0.47000000000E+01 0.  1.
          5    1    4    4  503    0  0.22855953178E+02  0.53848825833E+02 -0.20840009140E+02  0.62277496901E+02  0.47000000000E+01 0. -1.
         -5    1    4    4    0  503 -0.33748122141E+02 -0.42248297518E+02 -0.92310265661E+02  0.10708468395E+03  0.47000000000E+01 0. -1.
<mgrwt>
<rscale>  0 0.12601556E+03</rscale>
<asrwt>0</asrwt>
<pdfrwt beam="2">  1        5 0.37350513E-01 0.12601811E+03</pdfrwt>
<pdfrwt beam="1">  1       -5 0.10339354E-01 0.12601811E+03</pdfrwt>
<totfact> 0.37015979E+02</totfact>
</mgrwt>
</event>
<event>
 8    1  0.3682083E-007  0.1538747E+03  0.7546771E-02  0.1195793E+00
         -5   -1    0    0    0  501 -0.00000000000E+00  0.00000000000E+00  0.35896277036E+03  0.35899353825E+03  0.47000000000E+01 0. -1.
          5   -1    0    0  501    0  0.00000000000E+00 -0.00000000000E+00 -0.76120428173E+02  0.76265389170E+02  0.47000000000E+01 0. -1.
         25    2    1    2    0    0  0.89435167220E+02  0.73572283032E+01  0.22129566865E+03  0.26953196112E+03  0.12499170835E+03 0.  0.
         25    2    1    2    0    0 -0.89435167220E+02 -0.73572283032E+01  0.61546673531E+02  0.16572696630E+03  0.12499862556E+03 0.  0.
          5    1    3    3  502    0  0.15894965571E+02  0.25388576354E+02 -0.51155090126E+01  0.30748791395E+02  0.47000000000E+01 0. -1.
         -5    1    3    3    0  502  0.73540201649E+02 -0.18031348051E+02  0.22641117767E+03  0.23878316972E+03  0.47000000000E+01 0. -1.
          5    1    4    4  503    0 -0.92932919332E+02 -0.37149537347E+02  0.81702786549E+02  0.12928283316E+03  0.47000000000E+01 0.  1.
         -5    1    4    4    0  503  0.34977521119E+01  0.29792309044E+02 -0.20156113018E+02  0.36444133135E+02  0.47000000000E+01 0.  1.
<mgrwt>
<rscale>  0 0.15387333E+03</rscale>
<asrwt>0</asrwt>
<pdfrwt beam="2">  1        5 0.11724353E-01 0.15387474E+03</pdfrwt>
<pdfrwt beam="1">  1       -5 0.55238559E-01 0.15387474E+03</pdfrwt>
<totfact> 0.14028729E+02</totfact>
</mgrwt>
</event>
<event>
 8    1  0.3682083E-007  0.1439000E+03  0.7546771E-02  0.1208178E+00
         -5   -1    0    0    0  501 -0.00000000000E+00  0.00000000000E+00  0.37279359837E+02  0.37574468325E+02  0.47000000000E+01 0.  1.
          5   -1    0    0  501    0  0.00000000000E+00 -0.00000000000E+00 -0.56096314209E+03  0.56098283109E+03  0.47000000000E+01 0.  1.
         25    2    1    2    0    0 -0.37208846909E+02  0.60814707095E+02 -0.22604637048E+03  0.26796299997E+03  0.12499712340E+03 0.  0.
         25    2    1    2    0    0  0.37208846909E+02 -0.60814707095E+02 -0.29763741177E+03  0.33059429945E+03  0.12498653949E+03 0.  0.
          5    1    4    4  502    0  0.36851938425E+02  0.31146661909E+02 -0.13845523197E+03  0.14669737957E+03  0.47000000000E+01 0.  1.
         -5    1    4    4    0  502  0.35690848411E+00 -0.91961369004E+02 -0.15918217981E+03  0.18389691988E+03  0.47000000000E+01 0.  1.
          5    1    3    3  503    0 -0.23216062680E+02  0.68301769308E+02 -0.42885395403E+02  0.84055721970E+02  0.47000000000E+01 0. -1.
         -5    1    3    3    0  503 -0.13992784230E+02 -0.74870622132E+01 -0.18316097507E+03  0.18390727800E+03  0.47000000000E+01 0. -1.
<mgrwt>
<rscale>  0 0.14389769E+03</rscale>
<asrwt>0</asrwt>
<pdfrwt beam="2">  1        5 0.86326231E-01 0.14389999E+03</pdfrwt>
<pdfrwt beam="1">  1       -5 0.57595017E-02 0.14389999E+03</pdfrwt>
<totfact> 0.17077856E+02</totfact>
</mgrwt>
</event>
<event>
 8    1  0.3682083E-007  0.1837778E+03  0.7546771E-02  0.1164196E+00
          5   -1    0    0  501    0  0.00000000000E+00  0.00000000000E+00  0.11586208058E+03  0.11595737025E+03  0.47000000000E+01 0.  1.
         -5   -1    0    0    0  501 -0.00000000000E+00 -0.00000000000E+00 -0.38422692665E+03  0.38425567161E+03  0.47000000000E+01 0.  1.
         25    2    1    2    0    0  0.11802853909E+03  0.64951172578E+02 -0.25718140293E+03  0.31609526202E+03  0.12499819918E+03 0.  0.
         25    2    1    2    0    0 -0.11802853909E+03 -0.64951172578E+02 -0.11183443140E+02  0.18411777984E+03  0.12499958638E+03 0.  0.
          5    1    3    3  502    0  0.55771729936E+02  0.12971963061E+00 -0.20404203750E+03  0.21157917136E+03  0.47000000000E+01 0. -1.
         -5    1    3    3    0  502  0.62256809150E+02  0.64821452948E+02 -0.53139365437E+02  0.10451609066E+03  0.47000000000E+01 0. -1.
          5    1    4    4  503    0 -0.12099619424E+03 -0.54461462265E+02  0.34283852162E+02  0.13712622803E+03  0.47000000000E+01 0. -1.
         -5    1    4    4    0  503  0.29676551583E+01 -0.10489710313E+02 -0.45467295302E+02  0.46991551812E+02  0.47000000000E+01 0. -1.
<mgrwt>
<rscale>  0 0.18377759E+03</rscale>
<asrwt>0</asrwt>
<pdfrwt beam="1">  1        5 0.17834477E-01 0.18377782E+03</pdfrwt>
<pdfrwt beam="2">  1       -5 0.59121376E-01 0.18377782E+03</pdfrwt>
<totfact> 0.59659566E+01</totfact>
</mgrwt>
</event>
<event>
 8    1  0.3682083E-007  0.1321315E+03  0.7546771E-02  0.1224329E+00
          5   -1    0    0  501    0  0.00000000000E+00  0.00000000000E+00  0.53635938520E+02  0.53841470085E+02  0.47000000000E+01 0. -1.
         -5   -1    0    0    0  501 -0.00000000000E+00 -0.00000000000E+00 -0.45563956288E+03  0.45566380288E+03  0.47000000000E+01 0. -1.
         25    2    1    2    0    0 -0.45104899883E+00  0.42821570329E+02 -0.33756640899E+03  0.36250490875E+03  0.12499935223E+03 0.  0.
         25    2    1    2    0    0  0.45104899883E+00 -0.42821570329E+02 -0.64437215369E+02  0.14700036422E+03  0.12499224787E+03 0.  0.
          5    1    3    3  502    0  0.25325576172E+02  0.81068790144E+02 -0.20004248641E+03  0.21737667748E+03  0.47000000000E+01 0. -1.
         -5    1    3    3    0  502 -0.25776625171E+02 -0.38247219815E+02 -0.13752392258E+03  0.14512823126E+03  0.47000000000E+01 0. -1.
          5    1    4    4  503    0 -0.26452476111E+01 -0.61663280387E+02 -0.93366076849E+02  0.11202085426E+03  0.47000000000E+01 0.  1.
         -5    1    4    4    0  503  0.30962966099E+01  0.18841710059E+02  0.28928861480E+02  0.34979509962E+02  0.47000000000E+01 0.  1.
<mgrwt>
<rscale>  0 0.13212980E+03</rscale>
<asrwt>0</asrwt>
<pdfrwt beam="1">  1        5 0.82693579E-02 0.13213148E+03</pdfrwt>
<pdfrwt beam="2">  1       -5 0.70116067E-01 0.13213148E+03</pdfrwt>
<totfact> 0.14506210E+02</totfact>
</mgrwt>
</event>
<event>
 8    1  0.3682083E-007  0.1262939E+03  0.7546771E-02  0.1233062E+00
          5   -1    0    0  501    0  0.00000000000E+00  0.00000000000E+00  0.16975829691E+03  0.16982334754E+03  0.47000000000E+01 0.  1.
         -5   -1    0    0    0  501 -0.00000000000E+00 -0.00000000000E+00 -0.97851754904E+02  0.97964564704E+02  0.47000000000E+01 0.  1.
         25    2    1    2    0    0  0.17886596686E+02  0.22280107218E+01  0.87810844087E+01  0.12659881416E+03  0.12500103171E+03 0.  0.
         25    2    1    2    0    0 -0.17886596686E+02 -0.22280107218E+01  0.63125457601E+02  0.14118909809E+03  0.12499857459E+03 0.  0.
          5    1    4    4  502    0 -0.62158734810E+02  0.29265186549E+02  0.20133780451E+02  0.71746906359E+02  0.47000000000E+01 0.  1.
         -5    1    4    4    0  502  0.44272138124E+02 -0.31493197270E+02  0.42991677150E+02  0.69442191732E+02  0.47000000000E+01 0.  1.
          5    1    3    3  503    0  0.57269905238E+02 -0.12929869781E+02  0.42289710249E+02  0.72508848918E+02  0.47000000000E+01 0. -1.
         -5    1    3    3    0  503 -0.39383308552E+02  0.15157880502E+02 -0.33508625840E+02  0.54089965239E+02  0.47000000000E+01 0. -1.
<mgrwt>
<rscale>  0 0.12629330E+03</rscale>
<asrwt>0</asrwt>
<pdfrwt beam="1">  1        5 0.26130342E-01 0.12629391E+03</pdfrwt>
<pdfrwt beam="2">  1       -5 0.15067798E-01 0.12629391E+03</pdfrwt>
<totfact> 0.38362969E+02</totfact>
</mgrwt>
</event>
<event>
 8    1  0.3682083E-007  0.1638854E+03  0.7546771E-02  0.1184379E+00
          5   -1    0    0  501    0  0.00000000000E+00  0.00000000000E+00  0.63445524242E+03  0.63447265082E+03  0.47000000000E+01 0. -1.
         -5   -1    0    0    0  501 -0.00000000000E+00 -0.00000000000E+00 -0.44948140856E+02  0.45193200445E+02  0.47000000000E+01 0. -1.
         25    2    1    2    0    0 -0.83229656697E+02  0.65624551418E+02  0.21073417818E+03  0.26695938239E+03  0.12499864195E+03 0.  0.
         25    2    1    2    0    0  0.83229656697E+02 -0.65624551418E+02  0.37877292338E+03  0.41270646887E+03  0.12499577776E+03 0.  0.
          5    1    3    3  502    0 -0.12068599142E+02 -0.36125308296E+02  0.64617648333E+02  0.75154636988E+02  0.47000000000E+01 0.  1.
         -5    1    3    3    0  502 -0.71161057555E+02  0.10174985971E+03  0.14611652985E+03  0.19180474540E+03  0.47000000000E+01 0.  1.
          5    1    4    4  503    0  0.71896277391E+02 -0.10234746890E+03  0.28962613441E+03  0.31551460636E+03  0.47000000000E+01 0.  1.
         -5    1    4    4    0  503  0.11333379306E+02  0.36722917478E+02  0.89146788976E+02  0.97191862516E+02  0.47000000000E+01 0.  1.
<mgrwt>
<rscale>  0 0.16388483E+03</rscale>
<asrwt>0</asrwt>
<pdfrwt beam="1">  1        5 0.97628679E-01 0.16388538E+03</pdfrwt>
<pdfrwt beam="2">  1       -5 0.69352891E-02 0.16388538E+03</pdfrwt>
<totfact> 0.96859591E+01</totfact>
</mgrwt>
</event>
<event>
 8    1  0.3682083E-007  0.1393567E+03  0.7546771E-02  0.1214198E+00
         -5   -1    0    0    0  501 -0.00000000000E+00  0.00000000000E+00  0.42732066481E+03  0.42734651113E+03  0.47000000000E+01 0.  1.
          5   -1    0    0  501    0  0.00000000000E+00 -0.00000000000E+00 -0.46555119123E+02  0.46791763341E+02  0.47000000000E+01 0.  1.
         25    2    1    2    0    0 -0.61059535509E+02  0.81887640621E+01  0.22925200084E+03  0.26828486081E+03  0.12499985567E+03 0.  0.
         25    2    1    2    0    0  0.61059535509E+02 -0.81887640621E+01  0.15151354485E+03  0.20585341366E+03  0.12499580356E+03 0.  0.
          5    1    4    4  502    0 -0.20636516338E+02 -0.95352396125E+01  0.11307638344E+03  0.11543459227E+03  0.47000000000E+01 0. -1.
         -5    1    4    4    0  502  0.81696051847E+02  0.13464755504E+01  0.38437161409E+02  0.90418821386E+02  0.47000000000E+01 0. -1.
          5    1    3    3  503    0  0.29904698712E+02  0.25238324243E+02  0.11264170289E+03  0.11933778633E+03  0.47000000000E+01 0.  1.
         -5    1    3    3    0  503 -0.90964234221E+02 -0.17049560181E+02  0.11661029795E+03  0.14894707449E+03  0.47000000000E+01 0.  1.
<mgrwt>
<rscale>  0 0.13935578E+03</rscale>
<asrwt>0</asrwt>
<pdfrwt beam="2">  1        5 0.71825174E-02 0.13935669E+03</pdfrwt>
<pdfrwt beam="1">  1       -5 0.65761834E-01 0.13935669E+03</pdfrwt>
<totfact> 0.21686948E+02</totfact>
</mgrwt>
</event>
<event>
 8    1  0.3682083E-007  0.1430156E+03  0.7546771E-02  0.1209331E+00
          5   -1    0    0  501    0  0.00000000000E+00  0.00000000000E+00  0.14938634049E+03  0.14946025802E+03  0.47000000000E+01 0. -1.
         -5   -1    0    0    0  501 -0.00000000000E+00 -0.00000000000E+00 -0.13969859234E+03  0.13977763305E+03  0.47000000000E+01 0. -1.
         25    2    1    2    0    0 -0.20685693004E+02  0.66308010719E+02 -0.16123278828E+02  0.14392161906E+03  0.12501528759E+03 0.  0.
         25    2    1    2    0    0  0.20685693004E+02 -0.66308010719E+02  0.25811026987E+02  0.14531627201E+03  0.12500383840E+03 0.  0.
          5    1    4    4  502    0  0.68154493053E+02 -0.31482108998E+02  0.39102966649E+02  0.84777886922E+02  0.47000000000E+01 0.  1.
         -5    1    4    4    0  502 -0.47468800049E+02 -0.34825901721E+02 -0.13291939662E+02  0.60538385086E+02  0.47000000000E+01 0.  1.
          5    1    3    3  503    0 -0.56590102833E+02 -0.17712064247E+01  0.18003678818E+02  0.59596974435E+02  0.47000000000E+01 0. -1.
         -5    1    3    3    0  503  0.35904409829E+02  0.68079217144E+02 -0.34126957647E+02  0.84324644620E+02  0.47000000000E+01 0. -1.
<mgrwt>
<rscale>  0 0.14301313E+03</rscale>
<asrwt>0</asrwt>
<pdfrwt beam="1">  1        5 0.22994280E-01 0.14301564E+03</pdfrwt>
<pdfrwt beam="2">  1       -5 0.21503857E-01 0.14301564E+03</pdfrwt>
<totfact> 0.26553891E+02</totfact>
</mgrwt>
</event>
<event>
 8    1  0.3682083E-007  0.1611454E+03  0.7546771E-02  0.1187413E+00
          5   -1    0    0  501    0  0.00000000000E+00  0.00000000000E+00  0.18606585358E+03  0.18612520482E+03  0.47000000000E+01 0. -1.
         -5   -1    0    0    0  501 -0.00000000000E+00 -0.00000000000E+00 -0.14215144204E+03  0.14222911964E+03  0.47000000000E+01 0. -1.
         25    2    1    2    0    0 -0.98472462301E+02  0.25344062045E+02 -0.74051237647E+00  0.16114713808E+03  0.12501481689E+03 0.  0.
         25    2    1    2    0    0  0.98472462301E+02 -0.25344062045E+02  0.44654923918E+02  0.16720718637E+03  0.12500013452E+03 0.  0.
          5    1    3    3  502    0 -0.36928651196E+02  0.15625086531E+02  0.61101264553E+02  0.73234712659E+02  0.47000000000E+01 0.  1.
         -5    1    3    3    0  502 -0.61543811106E+02  0.97189755132E+01 -0.61841776929E+02  0.87912425425E+02  0.47000000000E+01 0.  1.
          5    1    4    4  503    0  0.69525646475E+02 -0.25947863461E+02 -0.35102095455E+02  0.82227454304E+02  0.47000000000E+01 0.  1.
         -5    1    4    4    0  503  0.28946815827E+02  0.60380141652E+00  0.79757019373E+02  0.84979732066E+02  0.47000000000E+01 0.  1.
<mgrwt>
<rscale>  0 0.16114259E+03</rscale>
<asrwt>0</asrwt>
<pdfrwt beam="1">  1        5 0.28636057E-01 0.16114544E+03</pdfrwt>
<pdfrwt beam="2">  1       -5 0.21879993E-01 0.16114544E+03</pdfrwt>
<totfact> 0.17516385E+02</totfact>
</mgrwt>
</event>
<event>
 8    1  0.3682083E-007  0.1464506E+03  0.7546771E-02  0.1204904E+00
         -5   -1    0    0    0  501 -0.00000000000E+00  0.00000000000E+00  0.18456666737E+03  0.18462650054E+03  0.47000000000E+01 0.  1.
          5   -1    0    0  501    0  0.00000000000E+00 -0.00000000000E+00 -0.11617437534E+03  0.11626940907E+03  0.47000000000E+01 0.  1.
         25    2    1    2    0    0 -0.40554458936E+01  0.76202670928E+02  0.29890687184E+02  0.14946983228E+03  0.12499793551E+03 0.  0.
         25    2    1    2    0    0  0.40554458936E+01 -0.76202670928E+02  0.38501604838E+02  0.15142607734E+03  0.12499675846E+03 0.  0.
          5    1    3    3  502    0 -0.23887369611E+02 -0.26327550654E+02 -0.10558435354E+02  0.37380702340E+02  0.47000000000E+01 0.  1.
         -5    1    3    3    0  502  0.19831923717E+02  0.10253022158E+03  0.40449122538E+02  0.11208912994E+03  0.47000000000E+01 0.  1.
          5    1    4    4  503    0  0.19032133676E+02 -0.10143571716E+03  0.55411724511E+02  0.11723470494E+03  0.47000000000E+01 0. -1.
         -5    1    4    4    0  503 -0.14976687782E+02  0.25233046235E+02 -0.16910119674E+02  0.34191372400E+02  0.47000000000E+01 0. -1.
<mgrwt>
<rscale>  0 0.14645035E+03</rscale>
<asrwt>0</asrwt>
<pdfrwt beam="2">  1        5 0.17884894E-01 0.14645060E+03</pdfrwt>
<pdfrwt beam="1">  1       -5 0.28406785E-01 0.14645060E+03</pdfrwt>
<totfact> 0.25130287E+02</totfact>
</mgrwt>
</event>
<event>
 8    1  0.3682083E-007  0.1286946E+03  0.7546771E-02  0.1229407E+00
          5   -1    0    0  501    0  0.00000000000E+00  0.00000000000E+00  0.23010092355E+03  0.23014891923E+03  0.47000000000E+01 0.  1.
         -5   -1    0    0    0  501 -0.00000000000E+00 -0.00000000000E+00 -0.72662782769E+02  0.72814627650E+02  0.47000000000E+01 0.  1.
         25    2    1    2    0    0  0.84052771289E+01 -0.29443845388E+02  0.62668189647E+02  0.14313975755E+03  0.12499639788E+03 0.  0.
         25    2    1    2    0    0 -0.84052771289E+01  0.29443845388E+02  0.94769951138E+02  0.15982378933E+03  0.12499884512E+03 0.  0.
          5    1    4    4  502    0 -0.26903991874E+02 -0.30554187023E+02  0.87275846865E+02  0.96418600744E+02  0.47000000000E+01 0. -1.
         -5    1    4    4    0  502  0.18498714745E+02  0.59998032411E+02  0.74941042733E+01  0.63405188584E+02  0.47000000000E+01 0. -1.
          5    1    3    3  503    0  0.62387997103E+02  0.44501994153E+01  0.18309833500E+02  0.65340695284E+02  0.47000000000E+01 0. -1.
         -5    1    3    3    0  503 -0.53982719974E+02 -0.33894044804E+02  0.44358356147E+02  0.77799062263E+02  0.47000000000E+01 0. -1.
<mgrwt>
<rscale>  0 0.12869401E+03</rscale>
<asrwt>0</asrwt>
<pdfrwt beam="1">  1        5 0.35415513E-01 0.12869460E+03</pdfrwt>
<pdfrwt beam="2">  1       -5 0.11194262E-01 0.12869460E+03</pdfrwt>
<totfact> 0.36121807E+02</totfact>
</mgrwt>
</event>
<event>
 8    1  0.3682083E-007  0.1312835E+03  0.7546771E-02  0.1225564E+00
         -5   -1    0    0    0  501 -0.00000000000E+00  0.00000000000E+00  0.66724943242E+02  0.66890268729E+02  0.47000000000E+01 0.  1.
          5   -1    0    0  501    0  0.00000000000E+00 -0.00000000000E+00 -0.25819982834E+03  0.25824260174E+03  0.47000000000E+01 0.  1.
         25    2    1    2    0    0  0.70856216797E+01  0.39493526082E+02 -0.89321070822E+02  0.15878756116E+03  0.12500116499E+03 0.  0.
         25    2    1    2    0    0 -0.70856216797E+01 -0.39493526082E+02 -0.10215381428E+03  0.16634530931E+03  0.12500166208E+03 0.  0.
          5    1    4    4  502    0 -0.16940408790E+02  0.40118677833E+02 -0.11668376034E+02  0.45329093972E+02  0.47000000000E+01 0.  1.
         -5    1    4    4    0  502  0.98547871104E+01 -0.79612203916E+02 -0.90485438242E+02  0.12101621534E+03  0.47000000000E+01 0.  1.
          5    1    3    3  503    0  0.10984270444E+01 -0.42841961489E+02 -0.53410418615E+02  0.68639660713E+02  0.47000000000E+01 0.  1.
         -5    1    3    3    0  503  0.59871946353E+01  0.82335487571E+02 -0.35910652207E+02  0.90147900448E+02  0.47000000000E+01 0.  1.
<mgrwt>
<rscale>  0 0.13128339E+03</rscale>
<asrwt>0</asrwt>
<pdfrwt beam="2">  1        5 0.39739058E-01 0.13128351E+03</pdfrwt>
<pdfrwt beam="1">  1       -5 0.10281384E-01 0.13128351E+03</pdfrwt>
<totfact> 0.33459831E+02</totfact>
</mgrwt>
</event>
<event>
 8    1  0.3682083E-007  0.1262214E+03  0.7546771E-02  0.1233186E+00
          5   -1    0    0  501    0  0.00000000000E+00  0.00000000000E+00  0.19804949346E+03  0.19810525450E+03  0.47000000000E+01 0. -1.
         -5   -1    0    0    0  501 -0.00000000000E+00 -0.00000000000E+00 -0.14535926272E+03  0.14543522702E+03  0.47000000000E+01 0. -1.
         25    2    1    2    0    0  0.15923184599E+02 -0.67053686571E+01 -0.88521319337E+02  0.15413997371E+03  0.12499839096E+03 0.  0.
         25    2    1    2    0    0 -0.15923184599E+02  0.67053686571E+01  0.14121155008E+03  0.18940050781E+03  0.12503335837E+03 0.  0.
          5    1    4    4  502    0  0.29277356832E+02 -0.43575411072E+02  0.34529878833E+02  0.63010972103E+02  0.47000000000E+01 0.  1.
         -5    1    4    4    0  502 -0.45200541430E+02  0.50280779729E+02  0.10668167125E+03  0.12638953571E+03  0.47000000000E+01 0.  1.
          5    1    3    3  503    0  0.19576977921E+01  0.18306918372E+02  0.28121234469E+02  0.33939205485E+02  0.47000000000E+01 0.  1.
         -5    1    3    3    0  503  0.13965486806E+02 -0.25012287030E+02 -0.11664255381E+03  0.12020076823E+03  0.47000000000E+01 0.  1.
<mgrwt>
<rscale>  0 0.12621277E+03</rscale>
<asrwt>0</asrwt>
<pdfrwt beam="1">  1        5 0.30479286E-01 0.12622143E+03</pdfrwt>
<pdfrwt beam="2">  1       -5 0.22373096E-01 0.12622143E+03</pdfrwt>
<totfact> 0.13706186E+02</totfact>
</mgrwt>
</event>
<event>
 8    1  0.3682083E-007  0.1661906E+03  0.7546771E-02  0.1181881E+00
         -5   -1    0    0    0  501 -0.00000000000E+00  0.00000000000E+00  0.17203613018E+03  0.17210031984E+03  0.47000000000E+01 0. -1.
          5   -1    0    0  501    0  0.00000000000E+00 -0.00000000000E+00 -0.17072963684E+03  0.17079431751E+03  0.47000000000E+01 0. -1.
         25    2    1    2    0    0  0.10550119181E+03  0.29380761830E+02  0.42786732555E+02  0.17161011335E+03  0.12500238350E+03 0.  0.
         25    2    1    2    0    0 -0.10550119181E+03 -0.29380761830E+02 -0.41480239211E+02  0.17128452400E+03  0.12499618905E+03 0.  0.
          5    1    3    3  502    0  0.77323163882E+02 -0.26775178613E+01 -0.33205570688E+02  0.84325207971E+02  0.47000000000E+01 0.  1.
         -5    1    3    3    0  502  0.28178027933E+02  0.32058279692E+02  0.75992303244E+02  0.87284905381E+02  0.47000000000E+01 0.  1.
          5    1    4    4  503    0 -0.63388047055E+02 -0.72823676920E+02  0.19121304549E+01  0.96680291024E+02  0.47000000000E+01 0.  1.
         -5    1    4    4    0  503 -0.42113144759E+02  0.43442915090E+02 -0.43392369666E+02  0.74604232978E+02  0.47000000000E+01 0.  1.
<mgrwt>
<rscale>  0 0.16618947E+03</rscale>
<asrwt>0</asrwt>
<pdfrwt beam="2">  1        5 0.26276011E-01 0.16619063E+03</pdfrwt>
<pdfrwt beam="1">  1       -5 0.26477010E-01 0.16619063E+03</pdfrwt>
<totfact> 0.14511509E+02</totfact>
</mgrwt>
</event>
<event>
 8    1  0.3682083E-007  0.1556477E+03  0.7546771E-02  0.1193700E+00
          5   -1    0    0  501    0  0.00000000000E+00  0.00000000000E+00  0.52315952568E+03  0.52318063736E+03  0.47000000000E+01 0.  1.
         -5   -1    0    0    0  501 -0.00000000000E+00 -0.00000000000E+00 -0.46536815290E+02  0.46773552114E+02  0.47000000000E+01 0.  1.
         25    2    1    2    0    0  0.28037780907E+02 -0.88401296908E+02  0.21293598775E+03  0.26375732693E+03  0.12500114470E+03 0.  0.
         25    2    1    2    0    0 -0.28037780907E+02  0.88401296908E+02  0.26368672264E+03  0.30619686254E+03  0.12499969793E+03 0.  0.
          5    1    3    3  502    0  0.13358456463E+02  0.25538114288E+02  0.93577634343E+02  0.98028094390E+02  0.47000000000E+01 0. -1.
         -5    1    3    3    0  502  0.14679324444E+02 -0.11393941120E+03  0.11935835341E+03  0.16572923254E+03  0.47000000000E+01 0. -1.
          5    1    4    4  503    0 -0.73194259309E+02  0.81515006577E+02  0.19005288988E+03  0.21941806408E+03  0.47000000000E+01 0. -1.
         -5    1    4    4    0  503  0.45156478402E+02  0.68862903309E+01  0.73633832754E+02  0.86778798461E+02  0.47000000000E+01 0. -1.
<mgrwt>
<rscale>  0 0.15564736E+03</rscale>
<asrwt>0</asrwt>
<pdfrwt beam="1">  1        5 0.80505919E-01 0.15564766E+03</pdfrwt>
<pdfrwt beam="2">  1       -5 0.71793443E-02 0.15564766E+03</pdfrwt>
<totfact> 0.14204847E+02</totfact>
</mgrwt>
</event>
<event>
 8    1  0.3682083E-007  0.1326753E+03  0.7546771E-02  0.1223544E+00
          5   -1    0    0  501    0  0.00000000000E+00  0.00000000000E+00  0.63967664719E+03  0.63969391350E+03  0.47000000000E+01 0. -1.
         -5   -1    0    0    0  501 -0.00000000000E+00 -0.00000000000E+00 -0.29912497923E+02  0.30279490287E+02  0.47000000000E+01 0. -1.
         25    2    1    2    0    0 -0.25009305683E+02 -0.36745904388E+02  0.20650006433E+03  0.24544857268E+03  0.12500799336E+03 0.  0.
         25    2    1    2    0    0  0.25009305683E+02  0.36745904388E+02  0.40326408494E+03  0.42452483110E+03  0.12499473252E+03 0.  0.
          5    1    3    3  502    0  0.32529697819E+02 -0.58291598019E+02  0.13762454076E+03  0.15303168254E+03  0.47000000000E+01 0. -1.
         -5    1    3    3    0  502 -0.57539003502E+02  0.21545693631E+02  0.68875523569E+02  0.92416890150E+02  0.47000000000E+01 0. -1.
          5    1    4    4  503    0  0.11163020242E+02  0.10831655684E+02  0.39257048909E+03  0.39290662592E+03  0.47000000000E+01 0.  1.
         -5    1    4    4    0  503  0.13846285441E+02  0.25914248703E+02  0.10693595844E+02  0.31618205174E+02  0.47000000000E+01 0.  1.
<mgrwt>
<rscale>  0 0.13267214E+03</rscale>
<asrwt>0</asrwt>
<pdfrwt beam="1">  1        5 0.98441358E-01 0.13267526E+03</pdfrwt>
<pdfrwt beam="2">  1       -5 0.46314808E-02 0.13267526E+03</pdfrwt>
<totfact> 0.17475692E+02</totfact>
</mgrwt>
</event>
<event>
 8    1  0.3682083E-007  0.1320861E+03  0.7546771E-02  0.1224394E+00
         -5   -1    0    0    0  501 -0.00000000000E+00  0.00000000000E+00  0.19475756448E+03  0.19481426776E+03  0.47000000000E+01 0. -1.
          5   -1    0    0  501    0  0.00000000000E+00 -0.00000000000E+00 -0.96711161376E+02  0.96825300075E+02  0.47000000000E+01 0. -1.
         25    2    1    2    0    0 -0.13762320241E+02 -0.40406396528E+02  0.88947083473E+02  0.15924038145E+03  0.12499534827E+03 0.  0.
         25    2    1    2    0    0  0.13762320241E+02  0.40406396528E+02  0.90993196326E+01  0.13239918638E+03  0.12499867438E+03 0.  0.
          5    1    4    4  502    0  0.68116424084E+02  0.20349601162E+02  0.18274299195E+02  0.73552658065E+02  0.47000000000E+01 0.  1.
         -5    1    4    4    0  502 -0.54354103842E+02  0.20056795366E+02 -0.91749795620E+01  0.58846528316E+02  0.47000000000E+01 0.  1.
          5    1    3    3  503    0  0.34362246896E+02 -0.43521498964E+02 -0.25463175284E+01  0.55708694265E+02  0.47000000000E+01 0.  1.
         -5    1    3    3    0  503 -0.48124567138E+02  0.31151024358E+01  0.91493401001E+02  0.10353168719E+03  0.47000000000E+01 0.  1.
<mgrwt>
<rscale>  0 0.13208535E+03</rscale>
<asrwt>0</asrwt>
<pdfrwt beam="2">  1        5 0.14891782E-01 0.13208613E+03</pdfrwt>
<pdfrwt beam="1">  1       -5 0.29975844E-01 0.13208613E+03</pdfrwt>
<totfact> 0.30513773E+02</totfact>
</mgrwt>
</event>
<event>
 8    1  0.3682083E-007  0.1831738E+03  0.7546771E-02  0.1164767E+00
         -5   -1    0    0    0  501 -0.00000000000E+00  0.00000000000E+00  0.24778469991E+03  0.24782927089E+03  0.47000000000E+01 0.  1.
          5   -1    0    0  501    0  0.00000000000E+00 -0.00000000000E+00 -0.13989290173E+03  0.13997183272E+03  0.47000000000E+01 0.  1.
         25    2    1    2    0    0  0.10783194479E+03 -0.79370205487E+02  0.18874396706E+02  0.18414270028E+03  0.12499973352E+03 0.  0.
         25    2    1    2    0    0 -0.10783194479E+03  0.79370205487E+02  0.89017401472E+02  0.20365840332E+03  0.12500115856E+03 0.  0.
          5    1    3    3  502    0  0.73942325551E+02 -0.16949456980E+02  0.64422518204E+02  0.99634845568E+02  0.47000000000E+01 0. -1.
         -5    1    3    3    0  502  0.33889619243E+02 -0.62420748507E+02 -0.45548121498E+02  0.84507854715E+02  0.47000000000E+01 0. -1.
          5    1    4    4  503    0 -0.11176408865E+03  0.18430750225E+02  0.86069031854E+02  0.14234069098E+03  0.47000000000E+01 0.  1.
         -5    1    4    4    0  503  0.39321438541E+01  0.60939455262E+02  0.29483696177E+01  0.61317712338E+02  0.47000000000E+01 0.  1.
<mgrwt>
<rscale>  0 0.18317357E+03</rscale>
<asrwt>0</asrwt>
<pdfrwt beam="2">  1        5 0.21531485E-01 0.18317382E+03</pdfrwt>
<pdfrwt beam="1">  1       -5 0.38130223E-01 0.18317382E+03</pdfrwt>
<totfact> 0.10590087E+02</totfact>
</mgrwt>
</event>
<event>
 8    1  0.3682083E-007  0.1297548E+03  0.7546771E-02  0.1227821E+00
          5   -1    0    0  501    0  0.00000000000E+00  0.00000000000E+00  0.45589521082E+03  0.45591943723E+03  0.47000000000E+01 0. -1.
         -5   -1    0    0    0  501 -0.00000000000E+00 -0.00000000000E+00 -0.37457202843E+02  0.37750921112E+02  0.47000000000E+01 0. -1.
         25    2    1    2    0    0  0.13856672426E+02  0.31906073674E+02  0.17555588556E+03  0.21830145560E+03  0.12500260659E+03 0.  0.
         25    2    1    2    0    0 -0.13856672426E+02 -0.31906073674E+02  0.24288212241E+03  0.27536890274E+03  0.12500520910E+03 0.  0.
          5    1    3    3  502    0  0.69510154926E+02  0.14964700072E+02  0.10135026263E+03  0.12389338005E+03  0.47000000000E+01 0. -1.
         -5    1    3    3    0  502 -0.55653482500E+02  0.16941373602E+02  0.74205622934E+02  0.94408075550E+02  0.47000000000E+01 0. -1.
          5    1    4    4  503    0  0.43378853178E+02  0.92504091216E+01  0.16174141251E+03  0.16777863240E+03  0.47000000000E+01 0.  1.
         -5    1    4    4    0  503 -0.57235525604E+02 -0.41156482796E+02  0.81140709906E+02  0.10759027034E+03  0.47000000000E+01 0.  1.
<mgrwt>
<rscale>  0 0.12975417E+03</rscale>
<asrwt>0</asrwt>
<pdfrwt beam="1">  1        5 0.70162179E-01 0.12975480E+03</pdfrwt>
<pdfrwt beam="2">  1       -5 0.57871041E-02 0.12975480E+03</pdfrwt>
<totfact> 0.26360744E+02</totfact>
</mgrwt>
</event>
<event>
 8    1  0.3682083E-007  0.1457774E+03  0.7546771E-02  0.1205763E+00
          5   -1    0    0  501    0  0.00000000000E+00  0.00000000000E+00  0.21893194801E+02  0.22392007024E+02  0.47000000000E+01 0. -1.
         -5   -1    0    0    0  501 -0.00000000000E+00 -0.00000000000E+00 -0.11772736195E+04  0.11772830013E+04  0.47000000000E+01 0. -1.
         25    2    1    2    0    0  0.46459513254E+02 -0.58885072970E+02 -0.83583209608E+03  0.84844937234E+03  0.12500042558E+03 0.  0.
         25    2    1    2    0    0 -0.46459513254E+02  0.58885072970E+02 -0.31954832859E+03  0.35122563597E+03  0.12498949901E+03 0.  0.
          5    1    4    4  502    0 -0.52045103162E+02  0.65249597468E+01 -0.38466173515E+02  0.65215062430E+02  0.47000000000E+01 0. -1.
         -5    1    4    4    0  502  0.55855899087E+01  0.52360113224E+02 -0.28108215508E+03  0.28601057354E+03  0.47000000000E+01 0. -1.
          5    1    3    3  503    0  0.82556863021E+02 -0.20730437031E+02 -0.63955384120E+03  0.64521050242E+03  0.47000000000E+01 0.  1.
         -5    1    3    3    0  503 -0.36097349768E+02 -0.38154635939E+02 -0.19627825489E+03  0.20323886992E+03  0.47000000000E+01 0.  1.
<mgrwt>
<rscale>  0 0.14577504E+03</rscale>
<asrwt>0</asrwt>
<pdfrwt beam="1">  1        5 0.34072766E-02 0.14577738E+03</pdfrwt>
<pdfrwt beam="2">  1       -5 0.18115806E+00 0.14577738E+03</pdfrwt>
<totfact> 0.59202762E+01</totfact>
</mgrwt>
</event>
<event>
 8    1  0.3682083E-007  0.1399328E+03  0.7546771E-02  0.1213425E+00
         -5   -1    0    0    0  501 -0.00000000000E+00  0.00000000000E+00  0.12636966994E+03  0.12645704203E+03  0.47000000000E+01 0.  1.
          5   -1    0    0  501    0  0.00000000000E+00 -0.00000000000E+00 -0.15482891792E+03  0.15490023829E+03  0.47000000000E+01 0.  1.
         25    2    1    2    0    0  0.32387651262E+02  0.53920357361E+02 -0.17289907841E+02  0.14099692308E+03  0.12499930605E+03 0.  0.
         25    2    1    2    0    0 -0.32387651262E+02 -0.53920357361E+02 -0.11169340137E+02  0.14036035725E+03  0.12497964168E+03 0.  0.
          5    1    4    4  502    0 -0.29217173868E+02 -0.47956469044E+02 -0.64930000954E+02  0.85973607554E+02  0.47000000000E+01 0. -1.
         -5    1    4    4    0  502 -0.31704773937E+01 -0.59638883175E+01  0.53760660818E+02  0.54386749694E+02  0.47000000000E+01 0. -1.
          5    1    3    3  503    0  0.23716568244E+02  0.52367346974E+02 -0.68083369468E+02  0.89231439732E+02  0.47000000000E+01 0.  1.
         -5    1    3    3    0  503  0.86710830178E+01  0.15530103869E+01  0.50793461627E+02  0.51765483346E+02  0.47000000000E+01 0.  1.
<mgrwt>
<rscale>  0 0.13992842E+03</rscale>
<asrwt>0</asrwt>
<pdfrwt beam="2">  1        5 0.23832041E-01 0.13993281E+03</pdfrwt>
<pdfrwt beam="1">  1       -5 0.19453695E-01 0.13993281E+03</pdfrwt>
<totfact> 0.29704544E+02</totfact>
</mgrwt>
</event>
<event>
 8    1  0.3682083E-007  0.1304655E+03  0.7546771E-02  0.1226770E+00
          5   -1    0    0  501    0  0.00000000000E+00  0.00000000000E+00  0.85693344101E+02  0.85822137139E+02  0.47000000000E+01 0.  1.
         -5   -1    0    0    0  501 -0.00000000000E+00 -0.00000000000E+00 -0.22457669609E+03  0.22462587212E+03  0.47000000000E+01 0.  1.
         25    2    1    2    0    0 -0.18912132884E+02  0.32201001105E+02 -0.12250300576E+03  0.17895823416E+03  0.12499795963E+03 0.  0.
         25    2    1    2    0    0  0.18912132884E+02 -0.32201001105E+02 -0.16380346234E+02  0.13148977510E+03  0.12500668771E+03 0.  0.
          5    1    4    4  502    0 -0.11637334747E+02 -0.75875232984E+02 -0.77955423297E+01  0.77300317080E+02  0.47000000000E+01 0. -1.
         -5    1    4    4    0  502  0.30549467631E+02  0.43674231879E+02 -0.85848039040E+01  0.54189458023E+02  0.47000000000E+01 0. -1.
          5    1    3    3  503    0 -0.60876364324E+02 -0.78440852985E+01 -0.27219595186E+02  0.67308675292E+02  0.47000000000E+01 0.  1.
         -5    1    3    3    0  503  0.41964231440E+02  0.40045086403E+02 -0.95283410572E+02  0.11164955887E+03  0.47000000000E+01 0.  1.
<mgrwt>
<rscale>  0 0.13046340E+03</rscale>
<asrwt>0</asrwt>
<pdfrwt beam="1">  1        5 0.13197281E-01 0.13046549E+03</pdfrwt>
<pdfrwt beam="2">  1       -5 0.34563951E-01 0.13046549E+03</pdfrwt>
<totfact> 0.28469618E+02</totfact>
</mgrwt>
</event>
<event>
 8    1  0.3682083E-007  0.1365742E+03  0.7546771E-02  0.1218018E+00
          5   -1    0    0  501    0  0.00000000000E+00  0.00000000000E+00  0.12237356295E+03  0.12246378612E+03  0.47000000000E+01 0.  1.
         -5   -1    0    0    0  501 -0.00000000000E+00 -0.00000000000E+00 -0.15241100775E+03  0.15248345905E+03  0.47000000000E+01 0.  1.
         25    2    1    2    0    0 -0.54999362510E+02 -0.16666087577E+01 -0.19768154370E+02  0.13799742269E+03  0.12499920512E+03 0.  0.
         25    2    1    2    0    0  0.54999362510E+02  0.16666087577E+01 -0.10269290429E+02  0.13694982248E+03  0.12498835182E+03 0.  0.
          5    1    4    4  502    0  0.92869560035E+02  0.17437648356E+02 -0.92192519059E+00  0.94613776520E+02  0.47000000000E+01 0. -1.
         -5    1    4    4    0  502 -0.37870197526E+02 -0.15771039598E+02 -0.93473652385E+01  0.42336045960E+02  0.47000000000E+01 0. -1.
          5    1    3    3  503    0  0.81051858241E+01  0.11525794668E+02  0.44458744441E+02  0.46874384659E+02  0.47000000000E+01 0.  1.
         -5    1    3    3    0  503 -0.63104548334E+02 -0.13192403425E+02 -0.64226898810E+02  0.91123038027E+02  0.47000000000E+01 0.  1.
<mgrwt>
<rscale>  0 0.13657170E+03</rscale>
<asrwt>0</asrwt>
<pdfrwt beam="1">  1        5 0.18839215E-01 0.13657419E+03</pdfrwt>
<pdfrwt beam="2">  1       -5 0.23460361E-01 0.13657419E+03</pdfrwt>
<totfact> 0.32217367E+02</totfact>
</mgrwt>
</event>
<event>
 8    1  0.3682083E-007  0.1383766E+03  0.7546771E-02  0.1215532E+00
         -5   -1    0    0    0  501 -0.00000000000E+00  0.00000000000E+00  0.36558347788E+02  0.36859229413E+02  0.47000000000E+01 0.  1.
          5   -1    0    0  501    0  0.00000000000E+00 -0.00000000000E+00 -0.60812580688E+03  0.60814396897E+03  0.47000000000E+01 0.  1.
         25    2    1    2    0    0 -0.24769987455E+02 -0.53929781026E+02 -0.16395348584E+03  0.21454327924E+03  0.12500439827E+03 0.  0.
         25    2    1    2    0    0  0.24769987455E+02  0.53929781026E+02 -0.40761397325E+03  0.43045991915E+03  0.12499846896E+03 0.  0.
          5    1    4    4  502    0 -0.28593332952E+02  0.68102502707E+01 -0.18915427917E+02  0.35268138756E+02  0.47000000000E+01 0.  1.
         -5    1    4    4    0  502  0.53363320407E+02  0.47119530755E+02 -0.38869854534E+03  0.39519178039E+03  0.47000000000E+01 0.  1.
          5    1    3    3  503    0 -0.17628290115E+01 -0.70268176803E+02 -0.17111875651E+03  0.18505254137E+03  0.47000000000E+01 0. -1.
         -5    1    3    3    0  503 -0.23007158444E+02  0.16338395777E+02  0.71652706688E+01  0.29490737867E+02  0.47000000000E+01 0. -1.
<mgrwt>
<rscale>  0 0.13837522E+03</rscale>
<asrwt>0</asrwt>
<pdfrwt beam="2">  1        5 0.93582351E-01 0.13837656E+03</pdfrwt>
<pdfrwt beam="1">  1       -5 0.56489035E-02 0.13837656E+03</pdfrwt>
<totfact> 0.14383477E+02</totfact>
</mgrwt>
</event>
<event>
 8    1  0.3682083E-007  0.1576720E+03  0.7546771E-02  0.1191356E+00
          5   -1    0    0  501    0  0.00000000000E+00  0.00000000000E+00  0.44594153392E+02  0.44841147585E+02  0.47000000000E+01 0. -1.
         -5   -1    0    0    0  501 -0.00000000000E+00 -0.00000000000E+00 -0.55573634075E+03  0.55575621493E+03  0.47000000000E+01 0. -1.
         25    2    1    2    0    0  0.35018244394E+02 -0.89474582604E+02 -0.26008024044E+03  0.30414174300E+03  0.12501395919E+03 0.  0.
         25    2    1    2    0    0 -0.35018244394E+02  0.89474582604E+02 -0.25106194692E+03  0.29645561951E+03  0.12498741849E+03 0.  0.
          5    1    3    3  502    0 -0.40860785251E+01 -0.28332032425E+02 -0.21839416749E+03  0.22031228403E+03  0.47000000000E+01 0. -1.
         -5    1    3    3    0  502  0.39104322919E+02 -0.61142550179E+02 -0.41686072952E+02  0.83829458972E+02  0.47000000000E+01 0. -1.
          5    1    4    4  503    0 -0.38788129749E+02  0.66992284110E+02 -0.26015366668E+03  0.27146731926E+03  0.47000000000E+01 0. -1.
         -5    1    4    4    0  503  0.37698853554E+01  0.22482298494E+02  0.90917197658E+01  0.24988300251E+02  0.47000000000E+01 0. -1.
<mgrwt>
<rscale>  0 0.15766677E+03</rscale>
<asrwt>0</asrwt>
<pdfrwt beam="1">  1        5 0.68811677E-02 0.15767203E+03</pdfrwt>
<pdfrwt beam="2">  1       -5 0.85518422E-01 0.15767203E+03</pdfrwt>
<totfact> 0.13312639E+02</totfact>
</mgrwt>
</event>
<event>
 8    1  0.3682083E-007  0.1443689E+03  0.7546771E-02  0.1207571E+00
         -5   -1    0    0    0  501 -0.00000000000E+00  0.00000000000E+00  0.25276348043E+03  0.25280717363E+03  0.47000000000E+01 0. -1.
          5   -1    0    0  501    0  0.00000000000E+00 -0.00000000000E+00 -0.94537908536E+02  0.94654667874E+02  0.47000000000E+01 0. -1.
         25    2    1    2    0    0 -0.63515060290E+02  0.34373883837E+02  0.14147520461E+03  0.20213264679E+03  0.12500658626E+03 0.  0.
         25    2    1    2    0    0  0.63515060290E+02 -0.34373883837E+02  0.16750367287E+02  0.14532919471E+03  0.12499709300E+03 0.  0.
          5    1    3    3  502    0  0.25623985080E+02  0.14264996505E+02 -0.43094803495E+01  0.30012336756E+02  0.47000000000E+01 0.  1.
         -5    1    3    3    0  502 -0.89139045370E+02  0.20108887332E+02  0.14578468496E+03  0.17212031004E+03  0.47000000000E+01 0.  1.
          5    1    4    4  503    0  0.55925526876E+02 -0.78035466680E+02  0.26506406387E+02  0.99708967480E+02  0.47000000000E+01 0.  1.
         -5    1    4    4    0  503  0.75895334139E+01  0.43661582843E+02 -0.97560390995E+01  0.45620227232E+02  0.47000000000E+01 0.  1.
<mgrwt>
<rscale>  0 0.14436682E+03</rscale>
<asrwt>0</asrwt>
<pdfrwt beam="2">  1        5 0.14556636E-01 0.14436888E+03</pdfrwt>
<pdfrwt beam="1">  1       -5 0.38899032E-01 0.14436888E+03</pdfrwt>
<totfact> 0.19467634E+02</totfact>
</mgrwt>
</event>
<event>
 8    1  0.3682083E-007  0.1693473E+03  0.7546771E-02  0.1178531E+00
         -5   -1    0    0    0  501 -0.00000000000E+00  0.00000000000E+00  0.13386993081E+03  0.13395241086E+03  0.47000000000E+01 0.  1.
          5   -1    0    0  501    0  0.00000000000E+00 -0.00000000000E+00 -0.21520605761E+03  0.21525737440E+03  0.47000000000E+01 0.  1.
         25    2    1    2    0    0 -0.61277004477E+02  0.96428125726E+02 -0.27879910657E+02  0.17162688301E+03  0.12500097138E+03 0.  0.
         25    2    1    2    0    0  0.61277004477E+02 -0.96428125726E+02 -0.53456216143E+02  0.17758290224E+03  0.12499946166E+03 0.  0.
          5    1    4    4  502    0  0.31655411944E+02 -0.26955224707E+02 -0.85669213179E+02  0.95341246746E+02  0.47000000000E+01 0.  1.
         -5    1    4    4    0  502  0.29621592533E+02 -0.69472901019E+02  0.32212997036E+02  0.82241655493E+02  0.47000000000E+01 0.  1.
          5    1    3    3  503    0  0.71929484486E+01  0.74250655250E+02 -0.56841645549E+02  0.93903998749E+02  0.47000000000E+01 0. -1.
         -5    1    3    3    0  503 -0.68469952926E+02  0.22177470476E+02  0.28961734892E+02  0.77722884264E+02  0.47000000000E+01 0. -1.
<mgrwt>
<rscale>  0 0.16934699E+03</rscale>
<asrwt>0</asrwt>
<pdfrwt beam="2">  1        5 0.33118916E-01 0.16934727E+03</pdfrwt>
<pdfrwt beam="1">  1       -5 0.20605666E-01 0.16934727E+03</pdfrwt>
<totfact> 0.14938776E+02</totfact>
</mgrwt>
</event>
<event>
 8    1  0.3682083E-007  0.1324653E+03  0.7546771E-02  0.1223845E+00
         -5   -1    0    0    0  501 -0.00000000000E+00  0.00000000000E+00  0.10852576306E+03  0.10862748846E+03  0.47000000000E+01 0. -1.
          5   -1    0    0  501    0  0.00000000000E+00 -0.00000000000E+00 -0.17008322816E+03  0.17014815457E+03  0.47000000000E+01 0. -1.
         25    2    1    2    0    0  0.29062105537E+02  0.32794806838E+02  0.57757389842E+00  0.13246155797E+03  0.12500250163E+03 0.  0.
         25    2    1    2    0    0 -0.29062105537E+02 -0.32794806838E+02 -0.62135038998E+02  0.14631408506E+03  0.12500777208E+03 0.  0.
          5    1    4    4  502    0 -0.34558295068E+02  0.22319134585E+02 -0.78171522940E+02  0.88460706109E+02  0.47000000000E+01 0.  1.
         -5    1    4    4    0  502  0.54961895310E+01 -0.55113941423E+02  0.16036483942E+02  0.57853378949E+02  0.47000000000E+01 0.  1.
          5    1    3    3  503    0  0.14011159078E+02 -0.21455386106E+02 -0.50163287315E+02  0.56525141008E+02  0.47000000000E+01 0.  1.
         -5    1    3    3    0  503  0.15050946459E+02  0.54250192944E+02  0.50740861213E+02  0.75936416958E+02  0.47000000000E+01 0.  1.
<mgrwt>
<rscale>  0 0.13246403E+03</rscale>
<asrwt>0</asrwt>
<pdfrwt beam="2">  1        5 0.26179470E-01 0.13246527E+03</pdfrwt>
<pdfrwt beam="1">  1       -5 0.16709091E-01 0.13246527E+03</pdfrwt>
<totfact> 0.32233506E+02</totfact>
</mgrwt>
</event>
<event>
 8    1  0.3682083E-007  0.1340042E+03  0.7546771E-02  0.1221633E+00
         -5   -1    0    0    0  501 -0.00000000000E+00  0.00000000000E+00  0.12396295207E+03  0.12405201927E+03  0.47000000000E+01 0.  1.
          5   -1    0    0  501    0  0.00000000000E+00 -0.00000000000E+00 -0.20716555917E+03  0.20721886716E+03  0.47000000000E+01 0.  1.
         25    2    1    2    0    0  0.16815479930E+02  0.45276005832E+02  0.49333942970E+02  0.14279527415E+03  0.12499590122E+03 0.  0.
         25    2    1    2    0    0 -0.16815479930E+02 -0.45276005832E+02 -0.13253655008E+03  0.18847561227E+03  0.12499776897E+03 0.  0.
          5    1    4    4  502    0  0.33312059430E+02 -0.21655705382E+02 -0.12633398764E+03  0.13251803391E+03  0.47000000000E+01 0. -1.
         -5    1    4    4    0  502 -0.50127539360E+02 -0.23620300450E+02 -0.62025624390E+01  0.55957578364E+02  0.47000000000E+01 0. -1.
          5    1    3    3  503    0 -0.36657508334E+02  0.65021039108E+02  0.40090295302E+02  0.84857705727E+02  0.47000000000E+01 0. -1.
         -5    1    3    3    0  503  0.53472988264E+02 -0.19745033276E+02  0.92436476685E+01  0.57937568426E+02  0.47000000000E+01 0. -1.
<mgrwt>
<rscale>  0 0.13400374E+03</rscale>
<asrwt>0</asrwt>
<pdfrwt beam="2">  1        5 0.31882577E-01 0.13400418E+03</pdfrwt>
<pdfrwt beam="1">  1       -5 0.19082175E-01 0.13400418E+03</pdfrwt>
<totfact> 0.17249220E+02</totfact>
</mgrwt>
</event>
<event>
 8    1  0.3682083E-007  0.1259626E+03  0.7546771E-02  0.1233574E+00
         -5   -1    0    0    0  501 -0.00000000000E+00  0.00000000000E+00  0.15040185568E+03  0.15047527435E+03  0.47000000000E+01 0. -1.
          5   -1    0    0  501    0  0.00000000000E+00 -0.00000000000E+00 -0.10894929246E+03  0.10905062278E+03  0.47000000000E+01 0. -1.
         25    2    1    2    0    0  0.11153578844E+02  0.10783052492E+02 -0.28740772581E+01  0.12599148246E+03  0.12499966716E+03 0.  0.
         25    2    1    2    0    0 -0.11153578844E+02 -0.10783052492E+02  0.44326640474E+02  0.13353441467E+03  0.12500364916E+03 0.  0.
          5    1    3    3  502    0 -0.28487001915E+02  0.47821796687E+02 -0.31853890281E+02  0.64305472882E+02  0.47000000000E+01 0. -1.
         -5    1    3    3    0  502  0.39640580759E+02 -0.37038744195E+02  0.28979813023E+02  0.61686009575E+02  0.47000000000E+01 0. -1.
          5    1    4    4  503    0 -0.68112774498E+02 -0.39223982552E+01  0.23140076259E+02  0.72196179865E+02  0.47000000000E+01 0. -1.
         -5    1    4    4    0  503  0.56959195654E+02 -0.68606542369E+01  0.21186564214E+02  0.61338234807E+02  0.47000000000E+01 0. -1.
<mgrwt>
<rscale>  0 0.12596166E+03</rscale>
<asrwt>0</asrwt>
<pdfrwt beam="2">  1        5 0.16774872E-01 0.12596265E+03</pdfrwt>
<pdfrwt beam="1">  1       -5 0.23152189E-01 0.12596265E+03</pdfrwt>
<totfact> 0.39727184E+02</totfact>
</mgrwt>
</event>
<event>
 8    1  0.3682083E-007  0.1847342E+03  0.7546771E-02  0.1163299E+00
         -5   -1    0    0    0  501 -0.00000000000E+00  0.00000000000E+00  0.18586222526E+03  0.18592164151E+03  0.47000000000E+01 0. -1.
          5   -1    0    0  501    0  0.00000000000E+00 -0.00000000000E+00 -0.26315254635E+03  0.26319451486E+03  0.47000000000E+01 0. -1.
         25    2    1    2    0    0  0.64663445065E+02 -0.11966729345E+03  0.84879489175E+02  0.20329958977E+03  0.12499829306E+03 0.  0.
         25    2    1    2    0    0 -0.64663445065E+02  0.11966729345E+03 -0.16216981026E+03  0.24581656659E+03  0.12500045920E+03 0.  0.
          5    1    3    3  502    0  0.35533072029E+02 -0.13606644917E+03  0.38398785597E+02  0.14585346939E+03  0.47000000000E+01 0.  1.
         -5    1    3    3    0  502  0.29130373036E+02  0.16399155717E+02  0.46480703578E+02  0.57446120379E+02  0.47000000000E+01 0.  1.
          5    1    4    4  503    0 -0.71394425594E+02  0.13245658431E+02 -0.95143565564E+02  0.11977896118E+03  0.47000000000E+01 0. -1.
         -5    1    4    4    0  503  0.67309805289E+01  0.10642163502E+03 -0.67026244701E+02  0.12603760542E+03  0.47000000000E+01 0. -1.
<mgrwt>
<rscale>  0 0.18473387E+03</rscale>
<asrwt>0</asrwt>
<pdfrwt beam="2">  1        5 0.40492806E-01 0.18473423E+03</pdfrwt>
<pdfrwt beam="1">  1       -5 0.28601987E-01 0.18473423E+03</pdfrwt>
<totfact> 0.54329778E+01</totfact>
</mgrwt>
</event>
<event>
 8    1  0.3682083E-007  0.1422484E+03  0.7546771E-02  0.1210336E+00
         -5   -1    0    0    0  501 -0.00000000000E+00  0.00000000000E+00  0.13962475205E+03  0.13970383454E+03  0.47000000000E+01 0.  1.
          5   -1    0    0  501    0  0.00000000000E+00 -0.00000000000E+00 -0.15229919414E+03  0.15237169861E+03  0.47000000000E+01 0.  1.
         25    2    1    2    0    0  0.23143948412E+02 -0.63823326240E+02  0.26136373197E+02  0.14462955456E+03  0.12500215490E+03 0.  0.
         25    2    1    2    0    0 -0.23143948412E+02  0.63823326240E+02 -0.38810815286E+02  0.14744597859E+03  0.12499991159E+03 0.  0.
          5    1    4    4  502    0 -0.67806765956E+02  0.53277912953E+01 -0.23598884829E+02  0.72146657820E+02  0.47000000000E+01 0. -1.
         -5    1    4    4    0  502  0.44662817544E+02  0.58495534945E+02 -0.15211930457E+02  0.75299320765E+02  0.47000000000E+01 0. -1.
          5    1    3    3  503    0  0.15801380583E+02 -0.10171867068E+03  0.23257342694E+02  0.10563789842E+03  0.47000000000E+01 0. -1.
         -5    1    3    3    0  503  0.73425678287E+01  0.37895344437E+02  0.28790305028E+01  0.38991656146E+02  0.47000000000E+01 0. -1.
<mgrwt>
<rscale>  0 0.14224787E+03</rscale>
<asrwt>0</asrwt>
<pdfrwt beam="2">  1        5 0.23442306E-01 0.14224837E+03</pdfrwt>
<pdfrwt beam="1">  1       -5 0.21492392E-01 0.14224837E+03</pdfrwt>
<totfact> 0.25577108E+02</totfact>
</mgrwt>
</event>
<event>
 8    1  0.3682083E-007  0.1421392E+03  0.7546771E-02  0.1210489E+00
          5   -1    0    0  501    0  0.00000000000E+00  0.00000000000E+00  0.33060208307E+03  0.33063549012E+03  0.47000000000E+01 0.  1.
         -5   -1    0    0    0  501 -0.00000000000E+00 -0.00000000000E+00 -0.61346828039E+02  0.61526606525E+02  0.47000000000E+01 0.  1.
         25    2    1    2    0    0 -0.55481755755E+02  0.38714299670E+02  0.14994294214E+03  0.20660693269E+03  0.12500606592E+03 0.  0.
         25    2    1    2    0    0  0.55481755755E+02 -0.38714299670E+02  0.11931231288E+03  0.18555516395E+03  0.12497307168E+03 0.  0.
          5    1    3    3  502    0  0.76892004733E+01  0.70290195529E+02  0.66408251461E+02  0.97118387824E+02  0.47000000000E+01 0. -1.
         -5    1    3    3    0  502 -0.63170956228E+02 -0.31575895858E+02  0.83534690682E+02  0.10948854487E+03  0.47000000000E+01 0. -1.
          5    1    4    4  503    0  0.33181709279E+02 -0.71716299973E+02  0.12191969074E+03  0.14536421328E+03  0.47000000000E+01 0.  1.
         -5    1    4    4    0  503  0.22300046476E+02  0.33002000303E+02 -0.26073778558E+01  0.40190950674E+02  0.47000000000E+01 0.  1.
<mgrwt>
<rscale>  0 0.14213190E+03</rscale>
<asrwt>0</asrwt>
<pdfrwt beam="1">  1        5 0.50878258E-01 0.14213915E+03</pdfrwt>
<pdfrwt beam="2">  1       -5 0.94543724E-02 0.14213915E+03</pdfrwt>
<totfact> 0.23784083E+02</totfact>
</mgrwt>
</event>
<event>
 8    1  0.3682083E-007  0.1274888E+03  0.7546771E-02  0.1231233E+00
         -5   -1    0    0    0  501 -0.00000000000E+00  0.00000000000E+00  0.28623309298E+03  0.28627167781E+03  0.47000000000E+01 0.  1.
          5   -1    0    0  501    0  0.00000000000E+00 -0.00000000000E+00 -0.61591811876E+02  0.61770877363E+02  0.47000000000E+01 0.  1.
         25    2    1    2    0    0  0.96043994106E+00 -0.25011263754E+02  0.16156517375E+03  0.20580334563E+03  0.12500090378E+03 0.  0.
         25    2    1    2    0    0 -0.96043994106E+00  0.25011263754E+02  0.63076107352E+02  0.14223920954E+03  0.12500764637E+03 0.  0.
          5    1    3    3  502    0  0.19209930207E+02 -0.49982829379E+02  0.14817418907E+02  0.55757964044E+02  0.47000000000E+01 0. -1.
         -5    1    3    3    0  502 -0.18249490266E+02  0.24971565625E+02  0.14674775484E+03  0.15004538159E+03  0.47000000000E+01 0. -1.
          5    1    4    4  503    0  0.32127837373E+02  0.38250876694E+02 -0.18196499241E+02  0.53371622485E+02  0.47000000000E+01 0. -1.
         -5    1    4    4    0  503 -0.33088277314E+02 -0.13239612940E+02  0.81272606592E+02  0.88867587054E+02  0.47000000000E+01 0. -1.
<mgrwt>
<rscale>  0 0.12748716E+03</rscale>
<asrwt>0</asrwt>
<pdfrwt beam="2">  1        5 0.94924056E-02 0.12748881E+03</pdfrwt>
<pdfrwt beam="1">  1       -5 0.44052603E-01 0.12748881E+03</pdfrwt>
<totfact> 0.30774701E+02</totfact>
</mgrwt>
</event>
<event>
 8    1  0.3682083E-007  0.1763589E+03  0.7546771E-02  0.1171374E+00
          5   -1    0    0  501    0  0.00000000000E+00  0.00000000000E+00  0.33566389159E+02  0.33893841346E+02  0.47000000000E+01 0. -1.
         -5   -1    0    0    0  501 -0.00000000000E+00 -0.00000000000E+00 -0.98100062313E+03  0.98101188198E+03  0.47000000000E+01 0. -1.
         25    2    1    2    0    0 -0.10926537182E+03 -0.59478175845E+02 -0.59839602444E+03  0.62384288565E+03  0.12500227608E+03 0.  0.
         25    2    1    2    0    0  0.10926537182E+03  0.59478175845E+02 -0.34903820953E+03  0.39106283767E+03  0.12500358562E+03 0.  0.
          5    1    4    4  502    0 -0.11236139263E+02  0.39531172794E+02 -0.35387739248E+02  0.54436628635E+02  0.47000000000E+01 0.  1.
         -5    1    4    4    0  502  0.12050151109E+03  0.19947003051E+02 -0.31365047028E+03  0.33662620904E+03  0.47000000000E+01 0.  1.
          5    1    3    3  503    0 -0.29579216519E+02 -0.86316255194E+02 -0.28203598227E+03  0.29646553131E+03  0.47000000000E+01 0.  1.
         -5    1    3    3    0  503 -0.79686155305E+02  0.26838079350E+02 -0.31636004218E+03  0.32737735434E+03  0.47000000000E+01 0.  1.
<mgrwt>
<rscale>  0 0.17635870E+03</rscale>
<asrwt>0</asrwt>
<pdfrwt beam="1">  1        5 0.51901153E-02 0.17635893E+03</pdfrwt>
<pdfrwt beam="2">  1       -5 0.15094921E+00 0.17635893E+03</pdfrwt>
<totfact> 0.52460322E+01</totfact>
</mgrwt>
</event>
<event>
 8    1  0.3682083E-007  0.3510732E+03  0.7546771E-02  0.1062176E+00
          5   -1    0    0  501    0  0.00000000000E+00  0.00000000000E+00  0.27438850257E+03  0.27442875276E+03  0.47000000000E+01 0.  1.
         -5   -1    0    0    0  501 -0.00000000000E+00 -0.00000000000E+00 -0.44911348038E+03  0.44913807260E+03  0.47000000000E+01 0.  1.
         25    2    1    2    0    0 -0.77839014760E+01 -0.32797306305E+03 -0.85589276801E+02  0.36135476779E+03  0.12499929876E+03 0.  0.
         25    2    1    2    0    0  0.77839014760E+01  0.32797306305E+03 -0.89135701004E+02  0.36221205757E+03  0.12500192897E+03 0.  0.
          5    1    3    3  502    0 -0.94745999889E+01 -0.64335642092E+02 -0.72269954964E+02  0.97333854741E+02  0.47000000000E+01 0.  1.
         -5    1    3    3    0  502  0.16906985129E+01 -0.26363742096E+03 -0.13319321837E+02  0.26402091305E+03  0.47000000000E+01 0.  1.
          5    1    4    4  503    0 -0.32401457267E+02  0.29505492467E+03 -0.61443834673E+02  0.30315787607E+03  0.47000000000E+01 0. -1.
         -5    1    4    4    0  503  0.40185358743E+02  0.32918138386E+02 -0.27691866331E+02  0.59054181503E+02  0.47000000000E+01 0. -1.
<mgrwt>
<rscale>  0 0.35107298E+03</rscale>
<asrwt>0</asrwt>
<pdfrwt beam="1">  1        5 0.42218604E-01 0.35107321E+03</pdfrwt>
<pdfrwt beam="2">  1       -5 0.69099369E-01 0.35107321E+03</pdfrwt>
<totfact> 0.89452196E+00</totfact>
</mgrwt>
</event>
<event>
 8    1  0.3682083E-007  0.1809954E+03  0.7546771E-02  0.1166845E+00
         -5   -1    0    0    0  501 -0.00000000000E+00  0.00000000000E+00  0.90727539280E+03  0.90728756653E+03  0.47000000000E+01 0. -1.
          5   -1    0    0  501    0  0.00000000000E+00 -0.00000000000E+00 -0.43349883681E+02  0.43603926603E+02  0.47000000000E+01 0. -1.
         25    2    1    2    0    0  0.80784486772E+02 -0.10298263301E+03  0.62785979603E+03  0.65342492209E+03  0.12499859727E+03 0.  0.
         25    2    1    2    0    0 -0.80784486772E+02  0.10298263301E+03  0.23606571309E+03  0.29746657105E+03  0.12501113547E+03 0.  0.
          5    1    3    3  502    0  0.10884066677E+03 -0.97370830175E+02  0.57344044305E+03  0.59176296018E+03  0.47000000000E+01 0.  1.
         -5    1    3    3    0  502 -0.28056179997E+02 -0.56118028366E+01  0.54419352986E+02  0.61661961910E+02  0.47000000000E+01 0.  1.
          5    1    4    4  503    0 -0.90752749476E+02  0.11726173382E+03  0.23677900847E+03  0.27941504005E+03  0.47000000000E+01 0. -1.
         -5    1    4    4    0  503  0.99682627041E+01 -0.14279100804E+02 -0.71329538275E+00  0.18051530999E+02  0.47000000000E+01 0. -1.
<mgrwt>
<rscale>  0 0.18099325E+03</rscale>
<asrwt>0</asrwt>
<pdfrwt beam="2">  1        5 0.66896910E-02 0.18099541E+03</pdfrwt>
<pdfrwt beam="1">  1       -5 0.13960131E+00 0.18099541E+03</pdfrwt>
<totfact> 0.42589089E+01</totfact>
</mgrwt>
</event>
<event>
 8    1  0.3682083E-007  0.1384416E+03  0.7546771E-02  0.1215450E+00
          5   -1    0    0  501    0  0.00000000000E+00  0.00000000000E+00  0.32276444532E+03  0.32279866351E+03  0.47000000000E+01 0.  1.
         -5   -1    0    0    0  501 -0.00000000000E+00 -0.00000000000E+00 -0.64201884133E+02  0.64373689705E+02  0.47000000000E+01 0.  1.
         25    2    1    2    0    0 -0.57794702162E+02  0.13917726364E+02  0.75562800778E+02  0.15772070161E+03  0.12502860532E+03 0.  0.
         25    2    1    2    0    0  0.57794702162E+02 -0.13917726364E+02  0.18299976041E+03  0.22945165161E+03  0.12500086964E+03 0.  0.
          5    1    4    4  502    0 -0.16047081419E+02  0.19333761351E+02 -0.37588769945E+01  0.25836453052E+02  0.47000000000E+01 0. -1.
         -5    1    4    4    0  502  0.73841783581E+02 -0.33251487715E+02  0.18675863740E+03  0.20361519856E+03  0.47000000000E+01 0. -1.
          5    1    3    3  503    0 -0.50376318795E+02  0.50253644345E+02 -0.23009412444E+01  0.71348346833E+02  0.47000000000E+01 0. -1.
         -5    1    3    3    0  503 -0.74183833672E+01 -0.36335917981E+02  0.77863742023E+02  0.86372354773E+02  0.47000000000E+01 0. -1.
<mgrwt>
<rscale>  0 0.13843536E+03</rscale>
<asrwt>0</asrwt>
<pdfrwt beam="1">  1        5 0.49671917E-01 0.13844162E+03</pdfrwt>
<pdfrwt beam="2">  1       -5 0.98930609E-02 0.13844162E+03</pdfrwt>
<totfact> 0.22922654E+02</totfact>
</mgrwt>
</event>
<event>
 8    1  0.3682083E-007  0.1263182E+03  0.7546771E-02  0.1233025E+00
          5   -1    0    0  501    0  0.00000000000E+00  0.00000000000E+00  0.65904873978E+02  0.66072251468E+02  0.47000000000E+01 0.  1.
         -5   -1    0    0    0  501 -0.00000000000E+00 -0.00000000000E+00 -0.28397340802E+03  0.28401229984E+03  0.47000000000E+01 0.  1.
         25    2    1    2    0    0 -0.10905156222E+02 -0.14588020282E+02 -0.17662288303E+03  0.21714495396E+03  0.12499822179E+03 0.  0.
         25    2    1    2    0    0  0.10905156222E+02  0.14588020282E+02 -0.41445651008E+02  0.13293959735E+03  0.12499384700E+03 0.  0.
          5    1    4    4  502    0 -0.36848658117E+02  0.44057423417E+02  0.77737426577E+01  0.58149817180E+02  0.47000000000E+01 0.  1.
         -5    1    4    4    0  502  0.47753814339E+02 -0.29469403135E+02 -0.49219393665E+02  0.74789780170E+02  0.47000000000E+01 0.  1.
          5    1    3    3  503    0  0.14884975256E+02 -0.21112498292E+02  0.10355900679E+02  0.28224718800E+02  0.47000000000E+01 0. -1.
         -5    1    3    3    0  503 -0.25790131478E+02  0.65244780094E+01 -0.18697878371E+03  0.18892023516E+03  0.47000000000E+01 0. -1.
<mgrwt>
<rscale>  0 0.12631712E+03</rscale>
<asrwt>0</asrwt>
<pdfrwt beam="1">  1        5 0.10155078E-01 0.12631820E+03</pdfrwt>
<pdfrwt beam="2">  1       -5 0.43704083E-01 0.12631820E+03</pdfrwt>
<totfact> 0.27725813E+02</totfact>
</mgrwt>
</event>
<event>
 8    1  0.3682083E-007  0.1369504E+03  0.7546771E-02  0.1217506E+00
         -5   -1    0    0    0  501 -0.00000000000E+00  0.00000000000E+00  0.21482612875E+03  0.21487753627E+03  0.47000000000E+01 0. -1.
          5   -1    0    0  501    0  0.00000000000E+00 -0.00000000000E+00 -0.94981032005E+02  0.95097247282E+02  0.47000000000E+01 0. -1.
         25    2    1    2    0    0  0.17381790670E+01 -0.55896950162E+02  0.10437834129E+03  0.17219248871E+03  0.12501169839E+03 0.  0.
         25    2    1    2    0    0 -0.17381790670E+01  0.55896950162E+02  0.15466755452E+02  0.13778229484E+03  0.12496899593E+03 0.  0.
          5    1    4    4  502    0 -0.26783990137E+01 -0.28723894122E+02  0.40004998789E+02  0.49545189907E+02  0.47000000000E+01 0.  1.
         -5    1    4    4    0  502  0.94021994671E+00  0.84620844285E+02 -0.24538243337E+02  0.88237104934E+02  0.47000000000E+01 0.  1.
          5    1    3    3  503    0  0.62576205163E+02 -0.28236318684E+02  0.63969526608E+02  0.93953507012E+02  0.47000000000E+01 0.  1.
         -5    1    3    3    0  503 -0.60838026096E+02 -0.27660631478E+02  0.40408814683E+02  0.78238981698E+02  0.47000000000E+01 0.  1.
<mgrwt>
<rscale>  0 0.13694067E+03</rscale>
<asrwt>0</asrwt>
<pdfrwt beam="2">  1        5 0.14625361E-01 0.13695041E+03</pdfrwt>
<pdfrwt beam="1">  1       -5 0.33063067E-01 0.13695041E+03</pdfrwt>
<totfact> 0.26303857E+02</totfact>
</mgrwt>
</event>
<event>
 8    1  0.3682083E-007  0.1263240E+03  0.7546771E-02  0.1233028E+00
          5   -1    0    0  501    0  0.00000000000E+00  0.00000000000E+00  0.77599786854E+02  0.77741989425E+02  0.47000000000E+01 0.  1.
         -5   -1    0    0    0  501 -0.00000000000E+00 -0.00000000000E+00 -0.23885577495E+03  0.23890201176E+03  0.47000000000E+01 0.  1.
         25    2    1    2    0    0 -0.11812520507E+02  0.13638236820E+02 -0.13999923398E+03  0.18854405720E+03  0.12499415524E+03 0.  0.
         25    2    1    2    0    0  0.11812520507E+02 -0.13638236820E+02 -0.21256754110E+02  0.12809994399E+03  0.12502883232E+03 0.  0.
          5    1    3    3  502    0 -0.27910659415E+02 -0.51573322855E+02 -0.61076797981E+02  0.84801402057E+02  0.47000000000E+01 0. -1.
         -5    1    3    3    0  502  0.16098138908E+02  0.65211559675E+02 -0.78922436001E+02  0.10374265514E+03  0.47000000000E+01 0. -1.
          5    1    4    4  503    0  0.11472956093E+02 -0.61791620568E+01 -0.73663993792E+02  0.74955218275E+02  0.47000000000E+01 0. -1.
         -5    1    4    4    0  503  0.33956441349E+00 -0.74590747633E+01  0.52407239682E+02  0.53144725716E+02  0.47000000000E+01 0. -1.
<mgrwt>
<rscale>  0 0.12631539E+03</rscale>
<asrwt>0</asrwt>
<pdfrwt beam="1">  1        5 0.11952924E-01 0.12632397E+03</pdfrwt>
<pdfrwt beam="2">  1       -5 0.36761537E-01 0.12632397E+03</pdfrwt>
<totfact> 0.29647720E+02</totfact>
</mgrwt>
</event>
<event>
 8    1  0.3682083E-007  0.1564810E+03  0.7546771E-02  0.1192730E+00
         -5   -1    0    0    0  501 -0.00000000000E+00  0.00000000000E+00  0.93072225991E+02  0.93190821710E+02  0.47000000000E+01 0. -1.
          5   -1    0    0  501    0  0.00000000000E+00 -0.00000000000E+00 -0.26437842680E+03  0.26442020073E+03  0.47000000000E+01 0. -1.
         25    2    1    2    0    0 -0.49788362904E+02 -0.79892278704E+02 -0.71712513445E+02  0.17212464404E+03  0.12499020451E+03 0.  0.
         25    2    1    2    0    0  0.49788362904E+02  0.79892278704E+02 -0.99593687359E+02  0.18548637840E+03  0.12499854693E+03 0.  0.
          5    1    4    4  502    0  0.61442191325E+02  0.15774733865E+02  0.31956269973E+01  0.63688987551E+02  0.47000000000E+01 0.  1.
         -5    1    4    4    0  502 -0.11653828421E+02  0.64117544839E+02 -0.10278931436E+03  0.12179739085E+03  0.47000000000E+01 0.  1.
          5    1    3    3  503    0  0.27971195560E+02  0.15939239277E+02 -0.20310884861E+02  0.38354519598E+02  0.47000000000E+01 0.  1.
         -5    1    3    3    0  503 -0.77759558464E+02 -0.95831517982E+02 -0.51401628585E+02  0.13377012444E+03  0.47000000000E+01 0.  1.
<mgrwt>
<rscale>  0 0.15647930E+03</rscale>
<asrwt>0</asrwt>
<pdfrwt beam="2">  1        5 0.40685940E-01 0.15648097E+03</pdfrwt>
<pdfrwt beam="1">  1       -5 0.14331140E-01 0.15648097E+03</pdfrwt>
<totfact> 0.18755494E+02</totfact>
</mgrwt>
</event>
<event>
 8    1  0.3682083E-007  0.1251207E+03  0.7546771E-02  0.1234882E+00
         -5   -1    0    0    0  501 -0.00000000000E+00  0.00000000000E+00  0.49262712385E+03  0.49264954395E+03  0.47000000000E+01 0. -1.
          5   -1    0    0  501    0  0.00000000000E+00 -0.00000000000E+00 -0.31897825160E+02  0.32242227744E+02  0.47000000000E+01 0. -1.
         25    2    1    2    0    0 -0.83756977487E+00  0.54519534936E+01  0.25636574094E+03  0.28526781028E+03  0.12499562045E+03 0.  0.
         25    2    1    2    0    0  0.83756977487E+00 -0.54519534936E+01  0.20436355775E+03  0.23962396141E+03  0.12499901531E+03 0.  0.
          5    1    4    4  502    0 -0.27542411019E+02 -0.58269020070E+02  0.96800071485E+02  0.11638817356E+03  0.47000000000E+01 0. -1.
         -5    1    4    4    0  502  0.28379980794E+02  0.52817066577E+02  0.10756348626E+03  0.12323578786E+03  0.47000000000E+01 0. -1.
          5    1    3    3  503    0  0.40930143869E+01  0.55729588702E+02  0.58644880132E+02  0.81140937814E+02  0.47000000000E+01 0. -1.
         -5    1    3    3    0  503 -0.49305841618E+01 -0.50277635208E+02  0.19772086081E+03  0.20412687246E+03  0.47000000000E+01 0. -1.
<mgrwt>
<rscale>  0 0.12511981E+03</rscale>
<asrwt>0</asrwt>
<pdfrwt beam="2">  1        5 0.49355752E-02 0.12512066E+03</pdfrwt>
<pdfrwt beam="1">  1       -5 0.75817000E-01 0.12512066E+03</pdfrwt>
<totfact> 0.28449352E+02</totfact>
</mgrwt>
</event>
<event>
 8    1  0.3682083E-007  0.1251892E+03  0.7546771E-02  0.1234775E+00
          5   -1    0    0  501    0  0.00000000000E+00  0.00000000000E+00  0.12440499096E+02  0.13298722411E+02  0.47000000000E+01 0.  1.
         -5   -1    0    0    0  501 -0.00000000000E+00 -0.00000000000E+00 -0.12175754925E+04  0.12175845638E+04  0.47000000000E+01 0.  1.
         25    2    1    2    0    0  0.13969195747E+01 -0.67126896062E+01 -0.58789670310E+03  0.60107808437E+03  0.12500127364E+03 0.  0.
         25    2    1    2    0    0 -0.13969195747E+01  0.67126896062E+01 -0.61723829033E+03  0.62980520184E+03  0.12499789448E+03 0.  0.
          5    1    4    4  502    0  0.22532930551E+02 -0.51586180620E+02 -0.20060624563E+03  0.20840782801E+03  0.47000000000E+01 0.  1.
         -5    1    4    4    0  502 -0.23929850126E+02  0.58298870226E+02 -0.41663204471E+03  0.42139737383E+03  0.47000000000E+01 0.  1.
          5    1    3    3  503    0 -0.24439892453E+02  0.27934284555E+02 -0.55639384681E+02  0.67048219398E+02  0.47000000000E+01 0. -1.
         -5    1    3    3    0  503  0.25836812028E+02 -0.34646974161E+02 -0.53225731842E+03  0.53402986497E+03  0.47000000000E+01 0. -1.
<mgrwt>
<rscale>  0 0.12518833E+03</rscale>
<asrwt>0</asrwt>
<pdfrwt beam="1">  1        5 0.19806389E-02 0.12518918E+03</pdfrwt>
<pdfrwt beam="2">  1       -5 0.18738593E+00 0.12518918E+03</pdfrwt>
<totfact> 0.12201739E+02</totfact>
</mgrwt>
</event>
<event>
 8    1  0.3682083E-007  0.1371355E+03  0.7546771E-02  0.1217238E+00
          5   -1    0    0  501    0  0.00000000000E+00  0.00000000000E+00  0.84231658812E+02  0.84362683375E+02  0.47000000000E+01 0. -1.
         -5   -1    0    0    0  501 -0.00000000000E+00 -0.00000000000E+00 -0.23915343001E+03  0.23919960930E+03  0.47000000000E+01 0. -1.
         25    2    1    2    0    0 -0.40665772914E+02 -0.39080561900E+02 -0.11958453854E+03  0.18195223830E+03  0.12500063904E+03 0.  0.
         25    2    1    2    0    0  0.40665772914E+02  0.39080561900E+02 -0.35337232664E+02  0.14161005437E+03  0.12499476822E+03 0.  0.
          5    1    4    4  502    0  0.27441344754E+02  0.80072049404E+02  0.14279637629E+01  0.84786140248E+02  0.47000000000E+01 0.  1.
         -5    1    4    4    0  502  0.13224428160E+02 -0.40991487504E+02 -0.36765196427E+02  0.56823914123E+02  0.47000000000E+01 0.  1.
          5    1    3    3  503    0 -0.54931129991E+02 -0.63817911444E+02 -0.32831555128E+02  0.90499479972E+02  0.47000000000E+01 0. -1.
         -5    1    3    3    0  503  0.14265357077E+02  0.24737349544E+02 -0.86752983409E+02  0.91452758325E+02  0.47000000000E+01 0. -1.
<mgrwt>
<rscale>  0 0.13713420E+03</rscale>
<asrwt>0</asrwt>
<pdfrwt beam="1">  1        5 0.12972348E-01 0.13713554E+03</pdfrwt>
<pdfrwt beam="2">  1       -5 0.36806466E-01 0.13713554E+03</pdfrwt>
<totfact> 0.26327220E+02</totfact>
</mgrwt>
</event>
<event>
 8    1  0.3682083E-007  0.1935647E+03  0.7546771E-02  0.1155285E+00
         -5   -1    0    0    0  501 -0.00000000000E+00  0.00000000000E+00  0.49902889484E+03  0.49905102733E+03  0.47000000000E+01 0. -1.
          5   -1    0    0  501    0  0.00000000000E+00 -0.00000000000E+00 -0.95840236330E+02  0.95955410998E+02  0.47000000000E+01 0. -1.
         25    2    1    2    0    0  0.10379698683E+03 -0.10520702035E+03  0.34027080688E+03  0.39147274183E+03  0.12499741587E+03 0.  0.
         25    2    1    2    0    0 -0.10379698683E+03  0.10520702035E+03  0.62917851626E+02  0.20353369650E+03  0.12499991182E+03 0.  0.
          5    1    4    4  502    0 -0.44816138289E+02  0.83630899191E+02  0.93701204558E+02  0.13343395103E+03  0.47000000000E+01 0.  1.
         -5    1    4    4    0  502 -0.58980848537E+02  0.21576121160E+02 -0.30783352932E+02  0.70099745479E+02  0.47000000000E+01 0.  1.
          5    1    3    3  503    0  0.39542854633E+01 -0.74040484393E+02  0.71846969680E+02  0.10335234276E+03  0.47000000000E+01 0.  1.
         -5    1    3    3    0  503  0.99842701363E+02 -0.31166535958E+02  0.26842383720E+03  0.28812039906E+03  0.47000000000E+01 0.  1.
<mgrwt>
<rscale>  0 0.19356434E+03</rscale>
<asrwt>0</asrwt>
<pdfrwt beam="2">  1        5 0.14755213E-01 0.19356474E+03</pdfrwt>
<pdfrwt beam="1">  1       -5 0.76784241E-01 0.19356474E+03</pdfrwt>
<totfact> 0.47573521E+01</totfact>
</mgrwt>
</event>
<event>
 8    1  0.3682083E-007  0.1514444E+03  0.7546771E-02  0.1198711E+00
         -5   -1    0    0    0  501 -0.00000000000E+00  0.00000000000E+00  0.91273630758E+02  0.91394560405E+02  0.47000000000E+01 0. -1.
          5   -1    0    0  501    0  0.00000000000E+00 -0.00000000000E+00 -0.27481313523E+03  0.27485332324E+03  0.47000000000E+01 0. -1.
         25    2    1    2    0    0  0.35754529640E+02 -0.77669032398E+02 -0.37838491391E+02  0.15609982851E+03  0.12499816017E+03 0.  0.
         25    2    1    2    0    0 -0.35754529640E+02  0.77669032398E+02 -0.14570101309E+03  0.21014805514E+03  0.12499021915E+03 0.  0.
          5    1    3    3  502    0  0.79961395969E+02 -0.29645861311E+02 -0.28247178102E+02  0.89959407562E+02  0.47000000000E+01 0. -1.
         -5    1    3    3    0  502 -0.44206866329E+02 -0.48023171087E+02 -0.95913132893E+01  0.66140420943E+02  0.47000000000E+01 0. -1.
          5    1    4    4  503    0 -0.77367590890E+02  0.19889497072E+02 -0.74145461826E+02  0.10909159327E+03  0.47000000000E+01 0.  1.
         -5    1    4    4    0  503  0.41613061250E+02  0.57779535326E+02 -0.71555551259E+02  0.10105646187E+03  0.47000000000E+01 0.  1.
<mgrwt>
<rscale>  0 0.15144276E+03</rscale>
<asrwt>0</asrwt>
<pdfrwt beam="2">  1        5 0.42291337E-01 0.15144440E+03</pdfrwt>
<pdfrwt beam="1">  1       -5 0.14054491E-01 0.15144440E+03</pdfrwt>
<totfact> 0.17747122E+02</totfact>
</mgrwt>
</event>
<event>
 8    1  0.3682083E-007  0.1373389E+03  0.7546771E-02  0.1216956E+00
         -5   -1    0    0    0  501 -0.00000000000E+00  0.00000000000E+00  0.26752645650E+03  0.26756773895E+03  0.47000000000E+01 0. -1.
          5   -1    0    0  501    0  0.00000000000E+00 -0.00000000000E+00 -0.83987251258E+02  0.84118656515E+02  0.47000000000E+01 0. -1.
         25    2    1    2    0    0 -0.42962497624E+02  0.37244935697E+02  0.16247173246E+03  0.21274106108E+03  0.12501493424E+03 0.  0.
         25    2    1    2    0    0  0.42962497624E+02 -0.37244935697E+02  0.21067472776E+02  0.13894533438E+03  0.12501602337E+03 0.  0.
          5    1    3    3  502    0  0.84971866974E+00 -0.28502195543E+02  0.11896371155E+03  0.12242365718E+03  0.47000000000E+01 0. -1.
         -5    1    3    3    0  502 -0.43812216293E+02  0.65747131239E+02  0.43508020912E+02  0.90317403895E+02  0.47000000000E+01 0. -1.
          5    1    4    4  503    0  0.15923668764E+02 -0.52957914886E+02 -0.41191302567E+02  0.69115247111E+02  0.47000000000E+01 0.  1.
         -5    1    4    4    0  503  0.27038828859E+02  0.15712979189E+02  0.62258775344E+02  0.69830087272E+02  0.47000000000E+01 0.  1.
<mgrwt>
<rscale>  0 0.13733863E+03</rscale>
<asrwt>0</asrwt>
<pdfrwt beam="2">  1        5 0.12934399E-01 0.13733888E+03</pdfrwt>
<pdfrwt beam="1">  1       -5 0.41171201E-01 0.13733888E+03</pdfrwt>
<totfact> 0.21075566E+02</totfact>
</mgrwt>
</event>
<event>
 8    1  0.3682083E-007  0.1468269E+03  0.7546771E-02  0.1204430E+00
         -5   -1    0    0    0  501 -0.00000000000E+00  0.00000000000E+00  0.28867729041E+02  0.29247833766E+02  0.47000000000E+01 0.  1.
          5   -1    0    0  501    0  0.00000000000E+00 -0.00000000000E+00 -0.77011706386E+03  0.77013140570E+03  0.47000000000E+01 0.  1.
         25    2    1    2    0    0 -0.21089734586E+02  0.74067993046E+02 -0.44770386857E+03  0.47116546938E+03  0.12500920408E+03 0.  0.
         25    2    1    2    0    0  0.21089734586E+02 -0.74067993046E+02 -0.29354546625E+03  0.32821377009E+03  0.12499797447E+03 0.  0.
          5    1    3    3  502    0  0.50407783244E+02  0.29594443235E+02 -0.13292391196E+03  0.14528465870E+03  0.47000000000E+01 0. -1.
         -5    1    3    3    0  502 -0.71497517830E+02  0.44473549811E+02 -0.31477995660E+03  0.32588081068E+03  0.47000000000E+01 0. -1.
          5    1    4    4  503    0 -0.39666113152E+02 -0.10336700536E+02 -0.17881684495E+03  0.18351512730E+03  0.47000000000E+01 0. -1.
         -5    1    4    4    0  503  0.60755847738E+02 -0.63731292509E+02 -0.11472862130E+03  0.14469864279E+03  0.47000000000E+01 0. -1.
<mgrwt>
<rscale>  0 0.14682453E+03</rscale>
<asrwt>0</asrwt>
<pdfrwt beam="2">  1        5 0.11850988E+00 0.14682692E+03</pdfrwt>
<pdfrwt beam="1">  1       -5 0.44715317E-02 0.14682692E+03</pdfrwt>
<totfact> 0.12080391E+02</totfact>
</mgrwt>
</event>
<event>
 8    1  0.3682083E-007  0.1824089E+03  0.7546771E-02  0.1165492E+00
         -5   -1    0    0    0  501 -0.00000000000E+00  0.00000000000E+00  0.40475025953E+03  0.40477754704E+03  0.47000000000E+01 0. -1.
          5   -1    0    0  501    0  0.00000000000E+00 -0.00000000000E+00 -0.85545490285E+02  0.85674505590E+02  0.47000000000E+01 0. -1.
         25    2    1    2    0    0 -0.63255659544E+02 -0.11681735692E+03  0.20871293342E+03  0.27718822517E+03  0.12499860103E+03 0.  0.
         25    2    1    2    0    0  0.63255659544E+02  0.11681735692E+03  0.11049183583E+03  0.21326382745E+03  0.12500176389E+03 0.  0.
          5    1    4    4  502    0  0.23654250772E+02  0.11158251677E+03  0.22277081822E+02  0.11631225216E+03  0.47000000000E+01 0.  1.
         -5    1    4    4    0  502  0.39601408773E+02  0.52348401499E+01  0.88214754004E+02  0.96951575295E+02  0.47000000000E+01 0.  1.
          5    1    3    3  503    0  0.20877376992E+02 -0.35954148369E+01  0.90560190141E+02  0.93123734442E+02  0.47000000000E+01 0.  1.
         -5    1    3    3    0  503 -0.84133036536E+02 -0.11322194208E+03  0.11815274327E+03  0.18406449073E+03  0.47000000000E+01 0.  1.
<mgrwt>
<rscale>  0 0.18240838E+03</rscale>
<asrwt>0</asrwt>
<pdfrwt beam="2">  1        5 0.13172868E-01 0.18240892E+03</pdfrwt>
<pdfrwt beam="1">  1       -5 0.62281295E-01 0.18240892E+03</pdfrwt>
<totfact> 0.92226163E+01</totfact>
</mgrwt>
</event>
<event>
 8    1  0.3682083E-007  0.1880420E+03  0.7546771E-02  0.1160241E+00
         -5   -1    0    0    0  501 -0.00000000000E+00  0.00000000000E+00  0.25163663992E+02  0.25598827815E+02  0.47000000000E+01 0.  1.
          5   -1    0    0  501    0  0.00000000000E+00 -0.00000000000E+00 -0.14728502843E+04  0.14728577834E+04  0.47000000000E+01 0.  1.
         25    2    1    2    0    0 -0.14043797192E+03  0.29371293683E+01 -0.54903173695E+03  0.58033875703E+03  0.12500309618E+03 0.  0.
         25    2    1    2    0    0  0.14043797192E+03 -0.29371293683E+01 -0.89865488341E+03  0.91811785418E+03  0.12501337527E+03 0.  0.
          5    1    3    3  502    0 -0.10786326153E+03  0.14434893898E+02 -0.52906812501E+03  0.54016480842E+03  0.47000000000E+01 0.  1.
         -5    1    3    3    0  502 -0.32574710384E+02 -0.11497764530E+02 -0.19963611937E+02  0.40173948616E+02  0.47000000000E+01 0.  1.
          5    1    4    4  503    0 -0.19257198914E+02  0.43927527621E+01 -0.21720732077E+03  0.21815417984E+03  0.47000000000E+01 0. -1.
         -5    1    4    4    0  503  0.15969517083E+03 -0.73298821304E+01 -0.68144756264E+03  0.69996367433E+03  0.47000000000E+01 0. -1.
<mgrwt>
<rscale>  0 0.18804029E+03</rscale>
<asrwt>0</asrwt>
<pdfrwt beam="2">  1        5 0.22662634E+00 0.18804200E+03</pdfrwt>
<pdfrwt beam="1">  1       -5 0.39053850E-02 0.18804200E+03</pdfrwt>
<totfact> 0.24887285E+01</totfact>
</mgrwt>
</event>
<event>
 8    1  0.3682083E-007  0.1582368E+03  0.7546771E-02  0.1190702E+00
          5   -1    0    0  501    0  0.00000000000E+00  0.00000000000E+00  0.10337643122E+03  0.10348321860E+03  0.47000000000E+01 0.  1.
         -5   -1    0    0    0  501 -0.00000000000E+00 -0.00000000000E+00 -0.24505984815E+03  0.24510491463E+03  0.47000000000E+01 0.  1.
         25    2    1    2    0    0  0.31074825492E+02 -0.91915111017E+02 -0.90459881319E+02  0.18226871737E+03  0.12499945116E+03 0.  0.
         25    2    1    2    0    0 -0.31074825492E+02  0.91915111017E+02 -0.51223535618E+02  0.16631941586E+03  0.12499706028E+03 0.  0.
          5    1    3    3  502    0 -0.46295083395E+02 -0.48905261154E+02 -0.24652566976E+02  0.71866531665E+02  0.47000000000E+01 0. -1.
         -5    1    3    3    0  502  0.77369908887E+02 -0.43009849863E+02 -0.65807314343E+02  0.11040218570E+03  0.47000000000E+01 0. -1.
          5    1    4    4  503    0 -0.47797205580E+02  0.82426638645E+02 -0.84605706406E+02  0.12751054535E+03  0.47000000000E+01 0.  1.
         -5    1    4    4    0  503  0.16722380088E+02  0.94884723722E+01  0.33382170788E+02  0.38808870510E+02  0.47000000000E+01 0.  1.
<mgrwt>
<rscale>  0 0.15823636E+03</rscale>
<asrwt>0</asrwt>
<pdfrwt beam="1">  1        5 0.15915747E-01 0.15823683E+03</pdfrwt>
<pdfrwt beam="2">  1       -5 0.37713196E-01 0.15823683E+03</pdfrwt>
<totfact> 0.18169137E+02</totfact>
</mgrwt>
</event>
<event>
 8    1  0.3682083E-007  0.1558785E+03  0.7546771E-02  0.1193434E+00
         -5   -1    0    0    0  501 -0.00000000000E+00  0.00000000000E+00  0.22982498155E+03  0.22987303483E+03  0.47000000000E+01 0.  1.
          5   -1    0    0  501    0  0.00000000000E+00 -0.00000000000E+00 -0.11533204489E+03  0.11542777213E+03  0.47000000000E+01 0.  1.
         25    2    1    2    0    0 -0.10536246424E+01 -0.93107515023E+02  0.10735319438E+03  0.18925891738E+03  0.12499643990E+03 0.  0.
         25    2    1    2    0    0  0.10536246424E+01  0.93107515023E+02  0.71397422787E+01  0.15604188958E+03  0.12501190305E+03 0.  0.
          5    1    4    4  502    0 -0.38364220010E+01 -0.26379723529E+02  0.22736441521E+02  0.35350300144E+02  0.47000000000E+01 0. -1.
         -5    1    4    4    0  502  0.48900466435E+01  0.11948723855E+03 -0.15596699242E+02  0.12069158943E+03  0.47000000000E+01 0. -1.
          5    1    3    3  503    0  0.18527834319E+02 -0.10452284587E+03  0.12206291984E+03  0.16183248238E+03  0.47000000000E+01 0.  1.
         -5    1    3    3    0  503 -0.19581458961E+02  0.11415330850E+02 -0.14709725466E+02  0.27426434999E+02  0.47000000000E+01 0.  1.
<mgrwt>
<rscale>  0 0.15587536E+03</rscale>
<asrwt>0</asrwt>
<pdfrwt beam="2">  1        5 0.17754452E-01 0.15587846E+03</pdfrwt>
<pdfrwt beam="1">  1       -5 0.35368749E-01 0.15587846E+03</pdfrwt>
<totfact> 0.16843448E+02</totfact>
</mgrwt>
</event>
<event>
 8    1  0.3682083E-007  0.1380581E+03  0.7546771E-02  0.1215972E+00
          5   -1    0    0  501    0  0.00000000000E+00  0.00000000000E+00  0.38673091751E+02  0.38957643995E+02  0.47000000000E+01 0. -1.
         -5   -1    0    0    0  501 -0.00000000000E+00 -0.00000000000E+00 -0.59016026436E+03  0.59017897931E+03  0.47000000000E+01 0. -1.
         25    2    1    2    0    0 -0.57594625650E+02 -0.10736140017E+02 -0.40487012229E+03  0.42776144316E+03  0.12501052244E+03 0.  0.
         25    2    1    2    0    0  0.57594625650E+02  0.10736140017E+02 -0.14661705031E+03  0.20137518015E+03  0.12499199227E+03 0.  0.
          5    1    3    3  502    0  0.27690897366E+02 -0.42528521462E+01 -0.24270915344E+03  0.24436590538E+03  0.47000000000E+01 0. -1.
         -5    1    3    3    0  502 -0.85285523017E+02 -0.64832878712E+01 -0.16216096885E+03  0.18339553778E+03  0.47000000000E+01 0. -1.
          5    1    4    4  503    0  0.72191503511E+02  0.20217158235E+02 -0.16142381863E+03  0.17804517934E+03  0.47000000000E+01 0.  1.
         -5    1    4    4    0  503 -0.14596877861E+02 -0.94810182173E+01  0.14806768317E+02  0.23330000808E+02  0.47000000000E+01 0.  1.
<mgrwt>
<rscale>  0 0.13805390E+03</rscale>
<asrwt>0</asrwt>
<pdfrwt beam="1">  1        5 0.59730351E-02 0.13805809E+03</pdfrwt>
<pdfrwt beam="2">  1       -5 0.90817208E-01 0.13805809E+03</pdfrwt>
<totfact> 0.14059627E+02</totfact>
</mgrwt>
</event>
<event>
 8    1  0.3682083E-007  0.1331454E+03  0.7546771E-02  0.1222862E+00
         -5   -1    0    0    0  501 -0.00000000000E+00  0.00000000000E+00  0.32829409168E+02  0.33164138860E+02  0.47000000000E+01 0. -1.
          5   -1    0    0  501    0  0.00000000000E+00 -0.00000000000E+00 -0.54545186538E+03  0.54547211427E+03  0.47000000000E+01 0. -1.
         25    2    1    2    0    0  0.41581980972E+02  0.19308319737E+02 -0.22011308466E+03  0.25724981390E+03  0.12500329739E+03 0.  0.
         25    2    1    2    0    0 -0.41581980972E+02 -0.19308319737E+02 -0.29250937155E+03  0.32138643923E+03  0.12500255408E+03 0.  0.
          5    1    4    4  502    0 -0.60937013743E+02 -0.44010937160E+02 -0.94454966916E+02  0.12080609674E+03  0.47000000000E+01 0. -1.
         -5    1    4    4    0  502  0.19355032770E+02  0.24702617423E+02 -0.19805440463E+03  0.20058034249E+03  0.47000000000E+01 0. -1.
          5    1    3    3  503    0  0.45448001427E+02 -0.16923113842E+02 -0.18184878804E+02  0.52006657583E+02  0.47000000000E+01 0. -1.
         -5    1    3    3    0  503 -0.38660204543E+01  0.36231433580E+02 -0.20192820586E+03  0.20524315632E+03  0.47000000000E+01 0. -1.
<mgrwt>
<rscale>  0 0.13314522E+03</rscale>
<asrwt>0</asrwt>
<pdfrwt beam="2">  1        5 0.83942971E-01 0.13314540E+03</pdfrwt>
<pdfrwt beam="1">  1       -5 0.50779848E-02 0.13314540E+03</pdfrwt>
<totfact> 0.21932634E+02</totfact>
</mgrwt>
</event>
<event>
 8    1  0.3682083E-007  0.1315759E+03  0.7546771E-02  0.1225139E+00
          5   -1    0    0  501    0  0.00000000000E+00  0.00000000000E+00  0.56424130945E+02  0.56619542146E+02  0.47000000000E+01 0. -1.
         -5   -1    0    0    0  501 -0.00000000000E+00 -0.00000000000E+00 -0.30827895320E+03  0.30831477906E+03  0.47000000000E+01 0. -1.
         25    2    1    2    0    0 -0.33466444277E+01  0.40923769913E+02 -0.14141374690E+03  0.19315815763E+03  0.12500508420E+03 0.  0.
         25    2    1    2    0    0  0.33466444277E+01 -0.40923769913E+02 -0.11044107536E+03  0.17177616358E+03  0.12499545701E+03 0.  0.
          5    1    4    4  502    0 -0.60053720209E+02 -0.26677622228E+02 -0.47785350481E+02  0.81385960456E+02  0.47000000000E+01 0. -1.
         -5    1    4    4    0  502  0.63400364637E+02 -0.14246147685E+02 -0.62655724878E+02  0.90390203120E+02  0.47000000000E+01 0. -1.
          5    1    3    3  503    0  0.47309616016E+01  0.33432071120E+02 -0.16404658058E+03  0.16755135326E+03  0.47000000000E+01 0.  1.
         -5    1    3    3    0  503 -0.80776060293E+01  0.74916987934E+01  0.22632833682E+02  0.25606804378E+02  0.47000000000E+01 0.  1.
<mgrwt>
<rscale>  0 0.13157365E+03</rscale>
<asrwt>0</asrwt>
<pdfrwt beam="1">  1        5 0.86984232E-02 0.13157593E+03</pdfrwt>
<pdfrwt beam="2">  1       -5 0.47445318E-01 0.13157593E+03</pdfrwt>
<totfact> 0.31015975E+02</totfact>
</mgrwt>
</event>
<event>
 8    1  0.3682083E-007  0.1304252E+03  0.7546771E-02  0.1226828E+00
         -5   -1    0    0    0  501 -0.00000000000E+00  0.00000000000E+00  0.18748916727E+03  0.18754806809E+03  0.47000000000E+01 0. -1.
          5   -1    0    0  501    0  0.00000000000E+00 -0.00000000000E+00 -0.99775342569E+02  0.99885979921E+02  0.47000000000E+01 0. -1.
         25    2    1    2    0    0  0.35381897340E+02 -0.11561887896E+02  0.87420027157E+02  0.15700851179E+03  0.12499542278E+03 0.  0.
         25    2    1    2    0    0 -0.35381897340E+02  0.11561887896E+02  0.29379754715E+00  0.13042553622E+03  0.12500071308E+03 0.  0.
          5    1    4    4  502    0 -0.42123631622E+01  0.41527555437E+02 -0.49098104452E+02  0.64614206834E+02  0.47000000000E+01 0.  1.
         -5    1    4    4    0  502 -0.31169534178E+02 -0.29965667541E+02  0.49391901999E+02  0.65811329383E+02  0.47000000000E+01 0.  1.
          5    1    3    3  503    0 -0.30978001546E+02 -0.29861417119E+02  0.75446088967E+02  0.86980130792E+02  0.47000000000E+01 0.  1.
         -5    1    3    3    0  503  0.66359898887E+02  0.18299529223E+02  0.11973938190E+02  0.70028381002E+02  0.47000000000E+01 0.  1.
<mgrwt>
<rscale>  0 0.13042394E+03</rscale>
<asrwt>0</asrwt>
<pdfrwt beam="2">  1        5 0.15363094E-01 0.13042521E+03</pdfrwt>
<pdfrwt beam="1">  1       -5 0.28857528E-01 0.13042521E+03</pdfrwt>
<totfact> 0.30923488E+02</totfact>
</mgrwt>
</event>
<event>
 8    1  0.3682083E-007  0.1316713E+03  0.7546771E-02  0.1224997E+00
         -5   -1    0    0    0  501 -0.00000000000E+00  0.00000000000E+00  0.13056499377E+03  0.13064956027E+03  0.47000000000E+01 0.  1.
          5   -1    0    0  501    0  0.00000000000E+00 -0.00000000000E+00 -0.13707342008E+03  0.13715397366E+03  0.47000000000E+01 0.  1.
         25    2    1    2    0    0  0.97005751639E+01  0.40224797309E+02  0.20877541495E+02  0.13331439717E+03  0.12499888510E+03 0.  0.
         25    2    1    2    0    0 -0.97005751639E+01 -0.40224797309E+02 -0.27385967800E+02  0.13448913677E+03  0.12500080479E+03 0.  0.
          5    1    4    4  502    0  0.93497729556E+01 -0.39308242781E+02 -0.73700750866E+02  0.84181036363E+02  0.47000000000E+01 0.  1.
         -5    1    4    4    0  502 -0.19050348119E+02 -0.91655452780E+00  0.46314783066E+02  0.50308100403E+02  0.47000000000E+01 0.  1.
          5    1    3    3  503    0  0.10204773067E+02  0.73964927011E+02  0.48750878446E+02  0.89295498041E+02  0.47000000000E+01 0.  1.
         -5    1    3    3    0  503 -0.50419790312E+00 -0.33740129702E+02 -0.27873336951E+02  0.44018899130E+02  0.47000000000E+01 0.  1.
<mgrwt>
<rscale>  0 0.13167087E+03</rscale>
<asrwt>0</asrwt>
<pdfrwt beam="2">  1        5 0.21100920E-01 0.13167132E+03</pdfrwt>
<pdfrwt beam="1">  1       -5 0.20099624E-01 0.13167132E+03</pdfrwt>
<totfact> 0.34448043E+02</totfact>
</mgrwt>
</event>
<event>
 8    1  0.3682083E-007  0.1543668E+03  0.7546771E-02  0.1195208E+00
         -5   -1    0    0    0  501 -0.00000000000E+00  0.00000000000E+00  0.19388862933E+04  0.19388919899E+04  0.47000000000E+01 0.  1.
          5   -1    0    0  501    0  0.00000000000E+00 -0.00000000000E+00 -0.17579547546E+02  0.18196991288E+02  0.47000000000E+01 0.  1.
         25    2    1    2    0    0 -0.72449679942E+02  0.54373191365E+02  0.15082662970E+04  0.15161450656E+04  0.12499294890E+03 0.  0.
         25    2    1    2    0    0  0.72449679942E+02 -0.54373191365E+02  0.41304044875E+03  0.44094391553E+03  0.12499489699E+03 0.  0.
          5    1    4    4  502    0 -0.83907220503E+01 -0.50716949476E+02  0.62050185574E+02  0.80715108316E+02  0.47000000000E+01 0. -1.
         -5    1    4    4    0  502  0.80840401993E+02 -0.36562418882E+01  0.35099026318E+03  0.36022880721E+03  0.47000000000E+01 0. -1.
          5    1    3    3  503    0 -0.59294957643E+02  0.89414657151E+02  0.84343682843E+03  0.85024622697E+03  0.47000000000E+01 0. -1.
         -5    1    3    3    0  503 -0.13154722299E+02 -0.35041465786E+02  0.66482946859E+03  0.66589883868E+03  0.47000000000E+01 0. -1.
<mgrwt>
<rscale>  0 0.15436646E+03</rscale>
<asrwt>0</asrwt>
<pdfrwt beam="2">  1        5 0.27524790E-02 0.15436685E+03</pdfrwt>
<pdfrwt beam="1">  1       -5 0.29833820E+00 0.15436685E+03</pdfrwt>
<totfact> 0.14686007E+01</totfact>
</mgrwt>
</event>
<event>
 8    1  0.3682083E-007  0.1290981E+03  0.7546771E-02  0.1228800E+00
          5   -1    0    0  501    0  0.00000000000E+00  0.00000000000E+00  0.11473856972E+03  0.11483479168E+03  0.47000000000E+01 0.  1.
         -5   -1    0    0    0  501 -0.00000000000E+00 -0.00000000000E+00 -0.16979184924E+03  0.16985688702E+03  0.47000000000E+01 0.  1.
         25    2    1    2    0    0  0.31788626108E+02 -0.55725657991E+01 -0.81828432627E+02  0.15284705498E+03  0.12499903836E+03 0.  0.
         25    2    1    2    0    0 -0.31788626108E+02  0.55725657991E+01  0.26775153108E+02  0.13184462371E+03  0.12499810294E+03 0.  0.
          5    1    3    3  502    0  0.37305378102E+02 -0.52736693954E+01 -0.11384999801E+03  0.12001422779E+03  0.47000000000E+01 0.  1.
         -5    1    3    3    0  502 -0.55167519940E+01 -0.29889640369E+00  0.32021565388E+02  0.32832827193E+02  0.47000000000E+01 0.  1.
          5    1    4    4  503    0 -0.34844148937E+02 -0.44782655796E+02 -0.22451197885E+02  0.61202510257E+02  0.47000000000E+01 0. -1.
         -5    1    4    4    0  503  0.30555228293E+01  0.50355221595E+02  0.49226350993E+02  0.70642113458E+02  0.47000000000E+01 0. -1.
<mgrwt>
<rscale>  0 0.12909791E+03</rscale>
<asrwt>0</asrwt>
<pdfrwt beam="1">  1        5 0.17664492E-01 0.12909814E+03</pdfrwt>
<pdfrwt beam="2">  1       -5 0.26134228E-01 0.12909814E+03</pdfrwt>
<totfact> 0.28933725E+02</totfact>
</mgrwt>
</event>
<event>
 8    1  0.3682083E-007  0.1426733E+03  0.7546771E-02  0.1209782E+00
         -5   -1    0    0    0  501 -0.00000000000E+00  0.00000000000E+00  0.37809090008E+02  0.38100095633E+02  0.47000000000E+01 0.  1.
          5   -1    0    0  501    0  0.00000000000E+00 -0.00000000000E+00 -0.59636318601E+03  0.59638170631E+03  0.47000000000E+01 0.  1.
         25    2    1    2    0    0 -0.25839315165E+02  0.63699090626E+02 -0.17831981009E+03  0.22836139460E+03  0.12500291003E+03 0.  0.
         25    2    1    2    0    0  0.25839315165E+02 -0.63699090626E+02 -0.38023428591E+03  0.40612040735E+03  0.12502171305E+03 0.  0.
          5    1    3    3  502    0  0.23129960931E+02  0.85459947130E+02 -0.11685537394E+03  0.14668219413E+03  0.47000000000E+01 0. -1.
         -5    1    3    3    0  502 -0.48969276095E+02 -0.21760856504E+02 -0.61464436158E+02  0.81679200469E+02  0.47000000000E+01 0. -1.
          5    1    4    4  503    0  0.47577408641E+02 -0.47908514428E+02 -0.80606418828E+02  0.10525360005E+03  0.47000000000E+01 0. -1.
         -5    1    4    4    0  503 -0.21738093476E+02 -0.15790576198E+02 -0.29962786708E+03  0.30086680730E+03  0.47000000000E+01 0. -1.
<mgrwt>
<rscale>  0 0.14266919E+03</rscale>
<asrwt>0</asrwt>
<pdfrwt beam="2">  1        5 0.91771985E-01 0.14267331E+03</pdfrwt>
<pdfrwt beam="1">  1       -5 0.58405932E-02 0.14267331E+03</pdfrwt>
<totfact> 0.14392129E+02</totfact>
</mgrwt>
</event>
<event>
 8    1  0.3682083E-007  0.1283573E+03  0.7546771E-02  0.1229919E+00
         -5   -1    0    0    0  501 -0.00000000000E+00  0.00000000000E+00  0.64630142366E+02  0.64800812512E+02  0.47000000000E+01 0.  1.
          5   -1    0    0  501    0  0.00000000000E+00 -0.00000000000E+00 -0.25587159504E+03  0.25591475758E+03  0.47000000000E+01 0.  1.
         25    2    1    2    0    0  0.25351935279E+02  0.14259471551E+02 -0.10792728622E+03  0.16770182819E+03  0.12501820235E+03 0.  0.
         25    2    1    2    0    0 -0.25351935279E+02 -0.14259471551E+02 -0.83314166451E+02  0.15301374190E+03  0.12500360685E+03 0.  0.
          5    1    4    4  502    0 -0.39457555501E+02 -0.63758747287E+02 -0.37590156098E+02  0.84007061473E+02  0.47000000000E+01 0. -1.
         -5    1    4    4    0  502  0.14105620222E+02  0.49499275736E+02 -0.45724010353E+02  0.69006680423E+02  0.47000000000E+01 0. -1.
          5    1    3    3  503    0 -0.24319269161E+02  0.57021034211E+02 -0.59709945795E+02  0.86198566240E+02  0.47000000000E+01 0.  1.
         -5    1    3    3    0  503  0.49671204440E+02 -0.42761562660E+02 -0.48217340424E+02  0.81503261955E+02  0.47000000000E+01 0.  1.
<mgrwt>
<rscale>  0 0.12835378E+03</rscale>
<asrwt>0</asrwt>
<pdfrwt beam="2">  1        5 0.39381309E-01 0.12835733E+03</pdfrwt>
<pdfrwt beam="1">  1       -5 0.99595476E-02 0.12835733E+03</pdfrwt>
<totfact> 0.35731274E+02</totfact>
</mgrwt>
</event>
<event>
 8    1  0.3682083E-007  0.1408346E+03  0.7546771E-02  0.1212215E+00
         -5   -1    0    0    0  501 -0.00000000000E+00  0.00000000000E+00  0.63718424292E+02  0.63891529910E+02  0.47000000000E+01 0.  1.
          5   -1    0    0  501    0  0.00000000000E+00 -0.00000000000E+00 -0.32870532307E+03  0.32873892288E+03  0.47000000000E+01 0.  1.
         25    2    1    2    0    0 -0.12778633644E+02  0.63580033965E+02 -0.86490642114E+02  0.16527254101E+03  0.12501466891E+03 0.  0.
         25    2    1    2    0    0  0.12778633644E+02 -0.63580033965E+02 -0.17849625667E+03  0.22735791178E+03  0.12499996883E+03 0.  0.
          5    1    3    3  502    0 -0.55911743045E+02  0.58682688590E+01 -0.72271454456E+02  0.91683219396E+02  0.47000000000E+01 0.  1.
         -5    1    3    3    0  502  0.43133109400E+02  0.57711765106E+02 -0.14219187659E+02  0.73589321616E+02  0.47000000000E+01 0.  1.
          5    1    4    4  503    0  0.62024387687E+02 -0.30820458419E+01 -0.87663806442E+02  0.10753397898E+03  0.47000000000E+01 0.  1.
         -5    1    4    4    0  503 -0.49245754043E+02 -0.60497988123E+02 -0.90832450225E+02  0.11982393280E+03  0.47000000000E+01 0.  1.
<mgrwt>
<rscale>  0 0.14083133E+03</rscale>
<asrwt>0</asrwt>
<pdfrwt beam="2">  1        5 0.50585949E-01 0.14083459E+03</pdfrwt>
<pdfrwt beam="1">  1       -5 0.98187352E-02 0.14083459E+03</pdfrwt>
<totfact> 0.22473779E+02</totfact>
</mgrwt>
</event>
<event>
 8    1  0.3682083E-007  0.1543975E+03  0.7546771E-02  0.1195174E+00
         -5   -1    0    0    0  501 -0.00000000000E+00  0.00000000000E+00  0.18406419003E+03  0.18412418649E+03  0.47000000000E+01 0. -1.
          5   -1    0    0  501    0  0.00000000000E+00 -0.00000000000E+00 -0.15312994753E+03  0.15320205884E+03  0.47000000000E+01 0. -1.
         25    2    1    2    0    0 -0.68768104167E+02  0.59008679796E+02  0.81859238754E+02  0.17475561172E+03  0.12501004927E+03 0.  0.
         25    2    1    2    0    0  0.68768104167E+02 -0.59008679796E+02 -0.50924996256E+02  0.16257063361E+03  0.12499911690E+03 0.  0.
          5    1    4    4  502    0  0.13923733408E+02 -0.82258538099E+01 -0.80356705754E+02  0.82102528479E+02  0.47000000000E+01 0.  1.
         -5    1    4    4    0  502  0.54844370759E+02 -0.50782825986E+02  0.29431709498E+02  0.80468105129E+02  0.47000000000E+01 0.  1.
          5    1    3    3  503    0 -0.53666214271E+02  0.64061131406E+02  0.11231154618E+03  0.14007092673E+03  0.47000000000E+01 0.  1.
         -5    1    3    3    0  503 -0.15101889897E+02 -0.50524516096E+01 -0.30452307421E+02  0.34684684992E+02  0.47000000000E+01 0.  1.
<mgrwt>
<rscale>  0 0.15439529E+03</rscale>
<asrwt>0</asrwt>
<pdfrwt beam="2">  1        5 0.23568616E-01 0.15439750E+03</pdfrwt>
<pdfrwt beam="1">  1       -5 0.28327730E-01 0.15439750E+03</pdfrwt>
<totfact> 0.15324206E+02</totfact>
</mgrwt>
</event>
<event>
 8    1  0.3682083E-007  0.1555305E+03  0.7546771E-02  0.1193838E+00
         -5   -1    0    0    0  501 -0.00000000000E+00  0.00000000000E+00  0.84899056804E+02  0.85029052954E+02  0.47000000000E+01 0. -1.
          5   -1    0    0  501    0  0.00000000000E+00 -0.00000000000E+00 -0.28578397033E+03  0.28582261579E+03  0.47000000000E+01 0. -1.
         25    2    1    2    0    0  0.46382127621E+02 -0.80074781541E+02 -0.11262131567E+03  0.19202420233E+03  0.12500584440E+03 0.  0.
         25    2    1    2    0    0 -0.46382127621E+02  0.80074781541E+02 -0.88263597861E+02  0.17882746642E+03  0.12500211053E+03 0.  0.
          5    1    3    3  502    0  0.84658698541E+02 -0.79314810655E+02 -0.75509562642E+02  0.13849808114E+03  0.47000000000E+01 0. -1.
         -5    1    3    3    0  502 -0.38276570920E+02 -0.75997088590E+00 -0.37111753024E+02  0.53526121190E+02  0.47000000000E+01 0. -1.
          5    1    4    4  503    0  0.73600337610E+01  0.46855781505E+02  0.21346896807E+02  0.52224652806E+02  0.47000000000E+01 0.  1.
         -5    1    4    4    0  503 -0.53742161382E+02  0.33219000036E+02 -0.10961049467E+03  0.12660281361E+03  0.47000000000E+01 0.  1.
<mgrwt>
<rscale>  0 0.15552974E+03</rscale>
<asrwt>0</asrwt>
<pdfrwt beam="2">  1        5 0.43979737E-01 0.15553049E+03</pdfrwt>
<pdfrwt beam="1">  1       -5 0.13074366E-01 0.15553049E+03</pdfrwt>
<totfact> 0.18794946E+02</totfact>
</mgrwt>
</event>
<event>
 8    1  0.3682083E-007  0.1429357E+03  0.7546771E-02  0.1209434E+00
         -5   -1    0    0    0  501 -0.00000000000E+00  0.00000000000E+00  0.23393867130E+03  0.23398587976E+03  0.47000000000E+01 0. -1.
          5   -1    0    0  501    0  0.00000000000E+00 -0.00000000000E+00 -0.97177184457E+02  0.97290776434E+02  0.47000000000E+01 0. -1.
         25    2    1    2    0    0 -0.12578595757E+02 -0.68163673591E+02  0.12137748699E+03  0.18751546920E+03  0.12500019749E+03 0.  0.
         25    2    1    2    0    0  0.12578595757E+02  0.68163673591E+02  0.15383999853E+02  0.14376118700E+03  0.12500441579E+03 0.  0.
          5    1    3    3  502    0 -0.46264308338E+02  0.17420694986E+02  0.31345346610E+02  0.58723824755E+02  0.47000000000E+01 0. -1.
         -5    1    3    3    0  502  0.33685712581E+02 -0.85584368578E+02  0.90032140378E+02  0.12879164444E+03  0.47000000000E+01 0. -1.
          5    1    4    4  503    0  0.16790532773E+00 -0.13103020425E+02 -0.41439008825E+02  0.43714972136E+02  0.47000000000E+01 0. -1.
         -5    1    4    4    0  503  0.12410690429E+02  0.81266694016E+02  0.56823008678E+02  0.10004621486E+03  0.47000000000E+01 0. -1.
<mgrwt>
<rscale>  0 0.14293477E+03</rscale>
<asrwt>0</asrwt>
<pdfrwt beam="2">  1        5 0.14962705E-01 0.14293569E+03</pdfrwt>
<pdfrwt beam="1">  1       -5 0.36002934E-01 0.14293569E+03</pdfrwt>
<totfact> 0.21594027E+02</totfact>
</mgrwt>
</event>
<event>
 8    1  0.3682083E-007  0.1311024E+03  0.7546771E-02  0.1225830E+00
         -5   -1    0    0    0  501 -0.00000000000E+00  0.00000000000E+00  0.40525395430E+02  0.40797030219E+02  0.47000000000E+01 0.  1.
          5   -1    0    0  501    0  0.00000000000E+00 -0.00000000000E+00 -0.43024414504E+03  0.43026981574E+03  0.47000000000E+01 0.  1.
         25    2    1    2    0    0  0.34453452892E+01 -0.39381504322E+02 -0.16309788197E+03  0.20925610028E+03  0.12499769244E+03 0.  0.
         25    2    1    2    0    0 -0.34453452892E+01  0.39381504322E+02 -0.22662086764E+03  0.26181074568E+03  0.12500030247E+03 0.  0.
          5    1    3    3  502    0 -0.52961116768E+02 -0.32622201474E+02 -0.12779227663E+03  0.14220423300E+03  0.47000000000E+01 0. -1.
         -5    1    3    3    0  502  0.56406462057E+02 -0.67593028488E+01 -0.35305605340E+02  0.67051867276E+02  0.47000000000E+01 0. -1.
          5    1    4    4  503    0 -0.46448200904E+02  0.37811298925E+02 -0.44889930213E+02  0.74995503386E+02  0.47000000000E+01 0.  1.
         -5    1    4    4    0  503  0.43002855615E+02  0.15702053974E+01 -0.18173093743E+03  0.18681524230E+03  0.47000000000E+01 0.  1.
<mgrwt>
<rscale>  0 0.13110181E+03</rscale>
<asrwt>0</asrwt>
<pdfrwt beam="2">  1        5 0.66214273E-01 0.13110244E+03</pdfrwt>
<pdfrwt beam="1">  1       -5 0.62575462E-02 0.13110244E+03</pdfrwt>
<totfact> 0.26416943E+02</totfact>
</mgrwt>
</event>
<event>
 8    1  0.3682083E-007  0.1258934E+03  0.7546771E-02  0.1233687E+00
         -5   -1    0    0    0  501 -0.00000000000E+00  0.00000000000E+00  0.45156053191E+02  0.45399990527E+02  0.47000000000E+01 0.  1.
          5   -1    0    0  501    0  0.00000000000E+00 -0.00000000000E+00 -0.40697330126E+03  0.40700043973E+03  0.47000000000E+01 0.  1.
         25    2    1    2    0    0 -0.31211262633E+01 -0.14669645930E+02 -0.96114462887E+02  0.15838918049E+03  0.12499681028E+03 0.  0.
         25    2    1    2    0    0  0.31211262633E+01  0.14669645930E+02 -0.26570278518E+03  0.29401124976E+03  0.12497881818E+03 0.  0.
          5    1    4    4  502    0  0.46334593861E+02 -0.28766062295E+02 -0.69847297527E+02  0.88741849767E+02  0.47000000000E+01 0. -1.
         -5    1    4    4    0  502 -0.43213467598E+02  0.43435708225E+02 -0.19585548765E+03  0.20526940000E+03  0.47000000000E+01 0. -1.
          5    1    3    3  503    0  0.22780043817E+02  0.18405320106E+02 -0.10997360967E+03  0.11390334073E+03  0.47000000000E+01 0. -1.
         -5    1    3    3    0  503 -0.25901170080E+02 -0.33074966036E+02  0.13859146785E+02  0.44485839763E+02  0.47000000000E+01 0. -1.
<mgrwt>
<rscale>  0 0.12588891E+03</rscale>
<asrwt>0</asrwt>
<pdfrwt beam="2">  1        5 0.62632127E-01 0.12589338E+03</pdfrwt>
<pdfrwt beam="1">  1       -5 0.69679374E-02 0.12589338E+03</pdfrwt>
<totfact> 0.24554484E+02</totfact>
</mgrwt>
</event>
<event>
 8    1  0.3682083E-007  0.1533219E+03  0.7546771E-02  0.1196451E+00
         -5   -1    0    0    0  501 -0.00000000000E+00  0.00000000000E+00  0.31512702871E+03  0.31516207612E+03  0.47000000000E+01 0.  1.
          5   -1    0    0  501    0  0.00000000000E+00 -0.00000000000E+00 -0.78144264838E+02  0.78285478392E+02  0.47000000000E+01 0.  1.
         25    2    1    2    0    0  0.86399181831E+02  0.20423931227E+02  0.16102990317E+03  0.22234709895E+03  0.12500258842E+03 0.  0.
         25    2    1    2    0    0 -0.86399181831E+02 -0.20423931227E+02  0.75952860703E+02  0.17110045556E+03  0.12499829301E+03 0.  0.
          5    1    4    4  502    0 -0.88630970221E+02 -0.59945467327E+02  0.75844259771E+02  0.13123776010E+03  0.47000000000E+01 0. -1.
         -5    1    4    4    0  502  0.22317883908E+01  0.39521536100E+02  0.10860093176E+00  0.39862695460E+02  0.47000000000E+01 0. -1.
          5    1    3    3  503    0  0.13806958334E+02  0.47851859169E+02  0.79444531363E+01  0.50652116047E+02  0.47000000000E+01 0.  1.
         -5    1    3    3    0  503  0.72592223497E+02 -0.27427927942E+02  0.15308545003E+03  0.17169498291E+03  0.47000000000E+01 0.  1.
<mgrwt>
<rscale>  0 0.15332102E+03</rscale>
<asrwt>0</asrwt>
<pdfrwt beam="2">  1        5 0.12035753E-01 0.15332189E+03</pdfrwt>
<pdfrwt beam="1">  1       -5 0.48494640E-01 0.15332189E+03</pdfrwt>
<totfact> 0.17665805E+02</totfact>
</mgrwt>
</event>
<event>
 8    1  0.3682083E-007  0.1279904E+03  0.7546771E-02  0.1230473E+00
         -5   -1    0    0    0  501 -0.00000000000E+00  0.00000000000E+00  0.12571957375E+03  0.12580739734E+03  0.47000000000E+01 0.  1.
          5   -1    0    0  501    0  0.00000000000E+00 -0.00000000000E+00 -0.13808990911E+03  0.13816987008E+03  0.47000000000E+01 0.  1.
         25    2    1    2    0    0 -0.23265453900E+02 -0.14602294779E+02  0.25515851439E+02  0.13049724876E+03  0.12499585954E+03 0.  0.
         25    2    1    2    0    0  0.23265453900E+02  0.14602294779E+02 -0.37886186797E+02  0.13348001866E+03  0.12500817522E+03 0.  0.
          5    1    3    3  502    0  0.26426475495E+02  0.17662956460E+02 -0.33725031487E+02  0.46581180608E+02  0.47000000000E+01 0.  1.
         -5    1    3    3    0  502 -0.49691929394E+02 -0.32265251239E+02  0.59240882926E+02  0.83916068153E+02  0.47000000000E+01 0.  1.
          5    1    4    4  503    0 -0.49221452696E+02  0.23611349880E+02 -0.15934734921E+02  0.57063587564E+02  0.47000000000E+01 0. -1.
         -5    1    4    4    0  503  0.72486906595E+02 -0.90090551014E+01 -0.21951451876E+02  0.76416431093E+02  0.47000000000E+01 0. -1.
<mgrwt>
<rscale>  0 0.12798743E+03</rscale>
<asrwt>0</asrwt>
<pdfrwt beam="2">  1        5 0.21257508E-01 0.12799044E+03</pdfrwt>
<pdfrwt beam="1">  1       -5 0.19354379E-01 0.12799044E+03</pdfrwt>
<totfact> 0.36071105E+02</totfact>
</mgrwt>
</event>
<event>
 8    1  0.3682083E-007  0.1966959E+03  0.7546771E-02  0.1152558E+00
         -5   -1    0    0    0  501 -0.00000000000E+00  0.00000000000E+00  0.10437702488E+03  0.10448278960E+03  0.47000000000E+01 0. -1.
          5   -1    0    0  501    0  0.00000000000E+00 -0.00000000000E+00 -0.55078183745E+03  0.55080189040E+03  0.47000000000E+01 0. -1.
         25    2    1    2    0    0 -0.64392817063E+02 -0.13753955444E+03 -0.35697064873E+02  0.19990556061E+03  0.12499755517E+03 0.  0.
         25    2    1    2    0    0  0.64392817063E+02  0.13753955444E+03 -0.41070774770E+03  0.45537911939E+03  0.12500289767E+03 0.  0.
          5    1    3    3  502    0 -0.85265214025E+02 -0.48457145523E+02 -0.44635653392E+02  0.10785491750E+03  0.47000000000E+01 0.  1.
         -5    1    3    3    0  502  0.20872396962E+02 -0.89082408912E+02  0.89385885194E+01  0.92050643111E+02  0.47000000000E+01 0.  1.
          5    1    4    4  503    0  0.17597993743E+02  0.91689592189E+02 -0.96401316103E+02  0.13428318750E+03  0.47000000000E+01 0.  1.
         -5    1    4    4    0  503  0.46794823321E+02  0.45849962246E+02 -0.31430643160E+03  0.32109593188E+03  0.47000000000E+01 0.  1.
<mgrwt>
<rscale>  0 0.19669508E+03</rscale>
<asrwt>0</asrwt>
<pdfrwt beam="2">  1        5 0.84745344E-01 0.19669593E+03</pdfrwt>
<pdfrwt beam="1">  1       -5 0.16067682E-01 0.19669593E+03</pdfrwt>
<totfact> 0.32473200E+01</totfact>
</mgrwt>
</event>
<event>
 8    1  0.3682083E-007  0.1340800E+03  0.7546771E-02  0.1221526E+00
         -5   -1    0    0    0  501 -0.00000000000E+00  0.00000000000E+00  0.22206715993E+03  0.22211689157E+03  0.47000000000E+01 0. -1.
          5   -1    0    0  501    0  0.00000000000E+00 -0.00000000000E+00 -0.95900435198E+02  0.96015537655E+02  0.47000000000E+01 0. -1.
         25    2    1    2    0    0  0.38350974458E+02  0.29708080047E+02  0.12609312546E+03  0.18405686586E+03  0.12499634523E+03 0.  0.
         25    2    1    2    0    0 -0.38350974458E+02 -0.29708080047E+02  0.73599268490E-01  0.13407556336E+03  0.12499153576E+03 0.  0.
          5    1    4    4  502    0 -0.12844429003E+02  0.48917931576E+02  0.55788122818E+01  0.51099476833E+02  0.47000000000E+01 0. -1.
         -5    1    4    4    0  502 -0.25506545455E+02 -0.78626011623E+02 -0.55052130133E+01  0.82976086526E+02  0.47000000000E+01 0. -1.
          5    1    3    3  503    0  0.73280704525E+02  0.13150746620E+01  0.11661749935E+03  0.13781698819E+03  0.47000000000E+01 0. -1.
         -5    1    3    3    0  503 -0.34929730067E+02  0.28393005385E+02  0.94756261085E+01  0.46239877676E+02  0.47000000000E+01 0. -1.
<mgrwt>
<rscale>  0 0.13407891E+03</rscale>
<asrwt>0</asrwt>
<pdfrwt beam="2">  1        5 0.14766593E-01 0.13408003E+03</pdfrwt>
<pdfrwt beam="1">  1       -5 0.34176858E-01 0.13408003E+03</pdfrwt>
<totfact> 0.24025903E+02</totfact>
</mgrwt>
</event>
<event>
 8    1  0.3682083E-007  0.1314215E+03  0.7546771E-02  0.1225362E+00
          5   -1    0    0  501    0  0.00000000000E+00  0.00000000000E+00  0.33000520729E+02  0.33333532191E+02  0.47000000000E+01 0. -1.
         -5   -1    0    0    0  501 -0.00000000000E+00 -0.00000000000E+00 -0.13115247389E+04  0.13115331603E+04  0.47000000000E+01 0. -1.
         25    2    1    2    0    0  0.21536950725E+02  0.34364538356E+02 -0.11614536843E+04  0.11688653799E+04  0.12500741465E+03 0.  0.
         25    2    1    2    0    0 -0.21536950725E+02 -0.34364538356E+02 -0.11707053378E+03  0.17600131261E+03  0.12500476158E+03 0.  0.
          5    1    3    3  502    0  0.39472062849E+02  0.15848647559E+02 -0.12578490494E+03  0.13286517860E+03  0.47000000000E+01 0. -1.
         -5    1    3    3    0  502 -0.17935112123E+02  0.18515890797E+02 -0.10356687794E+04  0.10360002013E+04  0.47000000000E+01 0. -1.
          5    1    4    4  503    0 -0.52458553553E+02 -0.65032175670E+02 -0.55413559725E+02  0.10036850260E+03  0.47000000000E+01 0. -1.
         -5    1    4    4    0  503  0.30921602827E+02  0.30667637315E+02 -0.61656974057E+02  0.75632810008E+02  0.47000000000E+01 0. -1.
<mgrwt>
<rscale>  0 0.13142089E+03</rscale>
<asrwt>0</asrwt>
<pdfrwt beam="1">  1        5 0.51032683E-02 0.13142152E+03</pdfrwt>
<pdfrwt beam="2">  1       -5 0.20179926E+00 0.13142152E+03</pdfrwt>
<totfact> 0.21331976E+01</totfact>
</mgrwt>
</event>
<event>
 8    1  0.3682083E-007  0.1514760E+03  0.7546771E-02  0.1198672E+00
         -5   -1    0    0    0  501 -0.00000000000E+00  0.00000000000E+00  0.24572106391E+03  0.24576600914E+03  0.47000000000E+01 0. -1.
          5   -1    0    0  501    0  0.00000000000E+00 -0.00000000000E+00 -0.94201238292E+02  0.94318414404E+02  0.47000000000E+01 0. -1.
         25    2    1    2    0    0 -0.43951197682E+02 -0.73395859278E+02  0.92709696320E+02  0.17759253694E+03  0.12500144579E+03 0.  0.
         25    2    1    2    0    0  0.43951197682E+02  0.73395859278E+02  0.58810129296E+02  0.16249188660E+03  0.12500528775E+03 0.  0.
          5    1    3    3  502    0  0.34556836212E+02 -0.18154102749E+02  0.67687731409E+02  0.78278128228E+02  0.47000000000E+01 0. -1.
         -5    1    3    3    0  502 -0.78508033894E+02 -0.55241756529E+02  0.25021964911E+02  0.99314408715E+02  0.47000000000E+01 0. -1.
          5    1    4    4  503    0  0.22357949107E+02 -0.30256425681E+02  0.39526254604E+02  0.54769918626E+02  0.47000000000E+01 0. -1.
         -5    1    4    4    0  503  0.21593248575E+02  0.10365228496E+03  0.19283874692E+02  0.10772196798E+03  0.47000000000E+01 0. -1.
<mgrwt>
<rscale>  0 0.15147522E+03</rscale>
<asrwt>0</asrwt>
<pdfrwt beam="2">  1        5 0.14504969E-01 0.15147601E+03</pdfrwt>
<pdfrwt beam="1">  1       -5 0.37815712E-01 0.15147601E+03</pdfrwt>
<totfact> 0.21084200E+02</totfact>
</mgrwt>
</event>
<event>
 8    1  0.3682083E-007  0.1372774E+03  0.7546771E-02  0.1217041E+00
         -5   -1    0    0    0  501 -0.00000000000E+00  0.00000000000E+00  0.31431660844E+03  0.31435174621E+03  0.47000000000E+01 0.  1.
          5   -1    0    0  501    0  0.00000000000E+00 -0.00000000000E+00 -0.63604471718E+02  0.63777886626E+02  0.47000000000E+01 0.  1.
         25    2    1    2    0    0 -0.15648117563E+02  0.54551387053E+02  0.17137052776E+03  0.21957446861E+03  0.12499748825E+03 0.  0.
         25    2    1    2    0    0  0.15648117563E+02 -0.54551387053E+02  0.79341608961E+02  0.15855516422E+03  0.12499572703E+03 0.  0.
          5    1    3    3  502    0  0.49770273098E+02  0.31537855210E+02  0.11787376134E+03  0.13186367964E+03  0.47000000000E+01 0. -1.
         -5    1    3    3    0  502 -0.65418390661E+02  0.23013531843E+02  0.53496766425E+02  0.87710788974E+02  0.47000000000E+01 0. -1.
          5    1    4    4  503    0 -0.28360971512E+02 -0.80494720383E+02  0.42968293810E+02  0.95666655568E+02  0.47000000000E+01 0.  1.
         -5    1    4    4    0  503  0.44009089075E+02  0.25943333330E+02  0.36373315151E+02  0.62888508653E+02  0.47000000000E+01 0.  1.
<mgrwt>
<rscale>  0 0.13727702E+03</rscale>
<asrwt>0</asrwt>
<pdfrwt beam="2">  1        5 0.98013459E-02 0.13727742E+03</pdfrwt>
<pdfrwt beam="1">  1       -5 0.48372443E-01 0.13727742E+03</pdfrwt>
<totfact> 0.24569745E+02</totfact>
</mgrwt>
</event>
<event>
 8    1  0.3682083E-007  0.1438803E+03  0.7546771E-02  0.1208208E+00
          5   -1    0    0  501    0  0.00000000000E+00  0.00000000000E+00  0.15080169617E+03  0.15087492027E+03  0.47000000000E+01 0. -1.
         -5   -1    0    0    0  501 -0.00000000000E+00 -0.00000000000E+00 -0.13721511872E+03  0.13729558917E+03  0.47000000000E+01 0. -1.
         25    2    1    2    0    0  0.61512236935E+02  0.35856749392E+02  0.28136756343E+01  0.14390777557E+03  0.12502827412E+03 0.  0.
         25    2    1    2    0    0 -0.61512236935E+02 -0.35856749392E+02  0.10772901808E+02  0.14426273388E+03  0.12500487671E+03 0.  0.
          5    1    4    4  502    0 -0.59534448017E+02 -0.65285230110E+02 -0.30260198606E+02  0.93510862422E+02  0.47000000000E+01 0.  1.
         -5    1    4    4    0  502 -0.19777889176E+01  0.29428480718E+02  0.41033100414E+02  0.50751871453E+02  0.47000000000E+01 0.  1.
          5    1    3    3  503    0 -0.29802316473E+02  0.18747078947E+02 -0.28727321048E+02  0.45683476343E+02  0.47000000000E+01 0.  1.
         -5    1    3    3    0  503  0.91314553408E+02  0.17109670444E+02  0.31540996683E+02  0.98224299226E+02  0.47000000000E+01 0.  1.
<mgrwt>
<rscale>  0 0.14387518E+03</rscale>
<asrwt>0</asrwt>
<pdfrwt beam="1">  1        5 0.23212084E-01 0.14388027E+03</pdfrwt>
<pdfrwt beam="2">  1       -5 0.21121841E-01 0.14388027E+03</pdfrwt>
<totfact> 0.27032251E+02</totfact>
</mgrwt>
</event>
<event>
 8    1  0.3682083E-007  0.1253785E+03  0.7546771E-02  0.1234483E+00
         -5   -1    0    0    0  501 -0.00000000000E+00  0.00000000000E+00  0.13366489277E+03  0.13374749927E+03  0.47000000000E+01 0. -1.
          5   -1    0    0  501    0  0.00000000000E+00 -0.00000000000E+00 -0.14019722365E+03  0.14027598340E+03  0.47000000000E+01 0. -1.
         25    2    1    2    0    0  0.79879120266E+01 -0.53383403738E+01  0.51914514441E+02  0.13569128487E+03  0.12499881345E+03 0.  0.
         25    2    1    2    0    0 -0.79879120266E+01  0.53383403738E+01 -0.58446845316E+02  0.13833219779E+03  0.12500983402E+03 0.  0.
          5    1    4    4  502    0  0.48379961682E+02  0.33595033343E+02 -0.13096872920E+02  0.60521608025E+02  0.47000000000E+01 0. -1.
         -5    1    4    4    0  502 -0.56367873709E+02 -0.28256692969E+02 -0.45349972396E+02  0.77810589770E+02  0.47000000000E+01 0. -1.
          5    1    3    3  503    0  0.50907065835E+02  0.16025456411E+01  0.71388677429E+02  0.87821015535E+02  0.47000000000E+01 0. -1.
         -5    1    3    3    0  503 -0.42919153808E+02 -0.69408860149E+01 -0.19474162988E+02  0.47870269337E+02  0.47000000000E+01 0. -1.
<mgrwt>
<rscale>  0 0.12537573E+03</rscale>
<asrwt>0</asrwt>
<pdfrwt beam="2">  1        5 0.21581217E-01 0.12537848E+03</pdfrwt>
<pdfrwt beam="1">  1       -5 0.20576242E-01 0.12537848E+03</pdfrwt>
<totfact> 0.31045639E+02</totfact>
</mgrwt>
</event>
<event>
 8    1  0.3682083E-007  0.1738195E+03  0.7546771E-02  0.1173922E+00
          5   -1    0    0  501    0  0.00000000000E+00  0.00000000000E+00  0.81817966822E+03  0.81819316759E+03  0.47000000000E+01 0.  1.
         -5   -1    0    0    0  501 -0.00000000000E+00 -0.00000000000E+00 -0.54308108486E+02  0.54511105725E+02  0.47000000000E+01 0.  1.
         25    2    1    2    0    0  0.28110118418E+02  0.11746545792E+03  0.13452691713E+03  0.21979699739E+03  0.12499966427E+03 0.  0.
         25    2    1    2    0    0 -0.28110118418E+02 -0.11746545792E+03  0.62934464261E+03  0.65290727593E+03  0.12499967688E+03 0.  0.
          5    1    4    4  502    0 -0.35719498554E+02  0.82001846736E+01  0.65916652791E+02  0.75566002414E+02  0.47000000000E+01 0.  1.
         -5    1    4    4    0  502  0.76093801359E+01 -0.12566564259E+03  0.56342798981E+03  0.57734127351E+03  0.47000000000E+01 0.  1.
          5    1    3    3  503    0  0.19113337308E+01  0.11580707969E+03  0.14952912327E+03  0.18919826006E+03  0.47000000000E+01 0.  1.
         -5    1    3    3    0  503  0.26198784688E+02  0.16583782315E+01 -0.15002206137E+02  0.30598737334E+02  0.47000000000E+01 0.  1.
<mgrwt>
<rscale>  0 0.17381954E+03</rscale>
<asrwt>0</asrwt>
<pdfrwt beam="1">  1        5 0.12589045E+00 0.17381954E+03</pdfrwt>
<pdfrwt beam="2">  1       -5 0.83717471E-02 0.17381954E+03</pdfrwt>
<totfact> 0.37674742E+01</totfact>
</mgrwt>
</event>
<event>
 8    1  0.3682083E-007  0.1809223E+03  0.7546771E-02  0.1166914E+00
          5   -1    0    0  501    0  0.00000000000E+00  0.00000000000E+00  0.15143564565E+03  0.15150856336E+03  0.47000000000E+01 0.  1.
         -5   -1    0    0    0  501 -0.00000000000E+00 -0.00000000000E+00 -0.22527251389E+03  0.22532153806E+03  0.47000000000E+01 0.  1.
         25    2    1    2    0    0 -0.12751995130E+03 -0.29100456107E+02  0.13055311619E+01  0.18092701875E+03  0.12499882870E+03 0.  0.
         25    2    1    2    0    0  0.12751995130E+03  0.29100456107E+02 -0.75142399404E+02  0.19590308268E+03  0.12499385221E+03 0.  0.
          5    1    4    4  502    0  0.39705503819E+02  0.51776079106E+02  0.15887001821E+02  0.67318468699E+02  0.47000000000E+01 0.  1.
         -5    1    4    4    0  502  0.87814447478E+02 -0.22675622998E+02 -0.91029401225E+02  0.12858461398E+03  0.47000000000E+01 0.  1.
          5    1    3    3  503    0 -0.36988774211E+02  0.59823329545E+01 -0.56406784340E+02  0.67880579290E+02  0.47000000000E+01 0.  1.
         -5    1    3    3    0  503 -0.90531177087E+02 -0.35082789062E+02  0.57712315502E+02  0.11304643946E+03  0.47000000000E+01 0.  1.
<mgrwt>
<rscale>  0 0.18092145E+03</rscale>
<asrwt>0</asrwt>
<pdfrwt beam="1">  1        5 0.23307172E-01 0.18092231E+03</pdfrwt>
<pdfrwt beam="2">  1       -5 0.34666690E-01 0.18092231E+03</pdfrwt>
<totfact> 0.11008478E+02</totfact>
</mgrwt>
</event>
<event>
 8    1  0.3682083E-007  0.1268843E+03  0.7546771E-02  0.1232156E+00
         -5   -1    0    0    0  501 -0.00000000000E+00  0.00000000000E+00  0.69367750501E+02  0.69526792027E+02  0.47000000000E+01 0.  1.
          5   -1    0    0  501    0  0.00000000000E+00 -0.00000000000E+00 -0.26899454797E+03  0.26903560515E+03  0.47000000000E+01 0.  1.
         25    2    1    2    0    0  0.20258143539E+02 -0.79844076430E+01 -0.36745165403E+02  0.13209192128E+03  0.12499570130E+03 0.  0.
         25    2    1    2    0    0 -0.20258143539E+02  0.79844076430E+01 -0.16288163206E+03  0.20647047589E+03  0.12500195281E+03 0.  0.
          5    1    3    3  502    0 -0.25406414470E+02 -0.32991018595E+02 -0.61366369071E+02  0.74308912367E+02  0.47000000000E+01 0.  1.
         -5    1    3    3    0  502  0.45664558009E+02  0.25006610952E+02  0.24621203668E+02  0.57783008917E+02  0.47000000000E+01 0.  1.
          5    1    4    4  503    0 -0.32424566112E+02 -0.17500571192E+02  0.38090069663E+01  0.37339269056E+02  0.47000000000E+01 0. -1.
         -5    1    4    4    0  503  0.12166422573E+02  0.25484978835E+02 -0.16669063903E+03  0.16913120683E+03  0.47000000000E+01 0. -1.
<mgrwt>
<rscale>  0 0.12688278E+03</rscale>
<asrwt>0</asrwt>
<pdfrwt beam="2">  1        5 0.41399168E-01 0.12688432E+03</pdfrwt>
<pdfrwt beam="1">  1       -5 0.10687354E-01 0.12688432E+03</pdfrwt>
<totfact> 0.28399346E+02</totfact>
</mgrwt>
</event>
<event>
 8    1  0.3682083E-007  0.1659438E+03  0.7546771E-02  0.1182147E+00
          5   -1    0    0  501    0  0.00000000000E+00  0.00000000000E+00  0.52814761967E+02  0.53023476702E+02  0.47000000000E+01 0.  1.
         -5   -1    0    0    0  501 -0.00000000000E+00 -0.00000000000E+00 -0.52103625814E+03  0.52105745585E+03  0.47000000000E+01 0.  1.
         25    2    1    2    0    0  0.10816868278E+03 -0.14464852553E+02 -0.24615411950E+03  0.29686560175E+03  0.12501055579E+03 0.  0.
         25    2    1    2    0    0 -0.10816868278E+03  0.14464852553E+02 -0.22206737667E+03  0.27721533081E+03  0.12499889583E+03 0.  0.
          5    1    4    4  502    0 -0.12009346987E+03 -0.19825968103E+02 -0.13006864841E+03  0.17820059993E+03  0.47000000000E+01 0. -1.
         -5    1    4    4    0  502  0.11924787088E+02  0.34290820656E+02 -0.91998728268E+02  0.99014730880E+02  0.47000000000E+01 0. -1.
          5    1    3    3  503    0  0.85015043036E+02 -0.37170552465E+02 -0.24719939096E+03  0.26408111709E+03  0.47000000000E+01 0.  1.
         -5    1    3    3    0  503  0.23153639744E+02  0.22705699912E+02  0.10452714571E+01  0.32784484658E+02  0.47000000000E+01 0.  1.
<mgrwt>
<rscale>  0 0.16594157E+03</rscale>
<asrwt>0</asrwt>
<pdfrwt beam="1">  1        5 0.81430340E-02 0.16594377E+03</pdfrwt>
<pdfrwt beam="2">  1       -5 0.80177106E-01 0.16594377E+03</pdfrwt>
<totfact> 0.11784748E+02</totfact>
</mgrwt>
</event>
<event>
 8    1  0.3682083E-007  0.1364224E+03  0.7546771E-02  0.1218226E+00
         -5   -1    0    0    0  501 -0.00000000000E+00  0.00000000000E+00  0.32942675392E+03  0.32946028015E+03  0.47000000000E+01 0. -1.
          5   -1    0    0  501    0  0.00000000000E+00 -0.00000000000E+00 -0.57307531192E+02  0.57499940273E+02  0.47000000000E+01 0. -1.
         25    2    1    2    0    0  0.75683487870E+01 -0.54099142368E+02  0.16088038482E+03  0.21093497096E+03  0.12500826631E+03 0.  0.
         25    2    1    2    0    0 -0.75683487870E+01  0.54099142368E+02  0.11123883791E+03  0.17602524946E+03  0.12500724891E+03 0.  0.
          5    1    4    4  502    0 -0.72944904949E+01 -0.39930232080E+02  0.45746886849E+02  0.61339226291E+02  0.47000000000E+01 0. -1.
         -5    1    4    4    0  502 -0.27385829208E+00  0.94029374448E+02  0.65491951059E+02  0.11468602317E+03  0.47000000000E+01 0. -1.
          5    1    3    3  503    0 -0.55911314826E+02 -0.10006111764E+02  0.50795939800E+02  0.76344711005E+02  0.47000000000E+01 0. -1.
         -5    1    3    3    0  503  0.63479663613E+02 -0.44093030604E+02  0.11008444502E+03  0.13459025996E+03  0.47000000000E+01 0. -1.
<mgrwt>
<rscale>  0 0.13642214E+03</rscale>
<asrwt>0</asrwt>
<pdfrwt beam="2">  1        5 0.88339231E-02 0.13642237E+03</pdfrwt>
<pdfrwt beam="1">  1       -5 0.50698418E-01 0.13642237E+03</pdfrwt>
<totfact> 0.26584182E+02</totfact>
</mgrwt>
</event>
<event>
 8    1  0.3682083E-007  0.1320579E+03  0.7546771E-02  0.1224435E+00
         -5   -1    0    0    0  501 -0.00000000000E+00  0.00000000000E+00  0.29297636994E+02  0.29672235059E+02  0.47000000000E+01 0.  1.
          5   -1    0    0  501    0  0.00000000000E+00 -0.00000000000E+00 -0.62769213166E+03  0.62770972762E+03  0.47000000000E+01 0.  1.
         25    2    1    2    0    0  0.92829108019E+01  0.41625175593E+02 -0.21982413251E+03  0.25643957910E+03  0.12497912154E+03 0.  0.
         25    2    1    2    0    0 -0.92829108019E+01 -0.41625175593E+02 -0.37857036216E+03  0.40094238358E+03  0.12498179134E+03 0.  0.
          5    1    3    3  502    0 -0.78759778660E+00  0.82114276852E+02 -0.10005395406E+03  0.12952319675E+03  0.47000000000E+01 0. -1.
         -5    1    3    3    0  502  0.10070508589E+02 -0.40489101259E+02 -0.11977017844E+03  0.12691638235E+03  0.47000000000E+01 0. -1.
          5    1    4    4  503    0 -0.19021468179E+02 -0.44869088915E+02 -0.42941883781E+02  0.65124087513E+02  0.47000000000E+01 0.  1.
         -5    1    4    4    0  503  0.97385573769E+01  0.32439133224E+01 -0.33562847838E+03  0.33581829606E+03  0.47000000000E+01 0.  1.
<mgrwt>
<rscale>  0 0.13205722E+03</rscale>
<asrwt>0</asrwt>
<pdfrwt beam="2">  1        5 0.96598179E-01 0.13205785E+03</pdfrwt>
<pdfrwt beam="1">  1       -5 0.45374980E-02 0.13205785E+03</pdfrwt>
<totfact> 0.18890755E+02</totfact>
</mgrwt>
</event>
<event>
 8    1  0.3682083E-007  0.1387164E+03  0.7546771E-02  0.1215067E+00
         -5   -1    0    0    0  501 -0.00000000000E+00  0.00000000000E+00  0.15780137773E+03  0.15787135526E+03  0.47000000000E+01 0.  1.
          5   -1    0    0  501    0  0.00000000000E+00 -0.00000000000E+00 -0.12577374946E+03  0.12586153524E+03  0.47000000000E+01 0.  1.
         25    2    1    2    0    0 -0.57947160739E+02  0.16047695263E+02  0.41227678543E+02  0.14471173701E+03  0.12500545344E+03 0.  0.
         25    2    1    2    0    0  0.57947160739E+02 -0.16047695263E+02 -0.92000502759E+01  0.13902115349E+03  0.12500735271E+03 0.  0.
          5    1    4    4  502    0  0.23051595159E+02  0.25220518310E+02 -0.57063284927E+02  0.66676525628E+02  0.47000000000E+01 0. -1.
         -5    1    4    4    0  502  0.34895565580E+02 -0.41268213574E+02  0.47863234651E+02  0.72344627858E+02  0.47000000000E+01 0. -1.
          5    1    3    3  503    0 -0.43248775393E+01 -0.47011287325E+02 -0.82595392260E+01  0.48156782387E+02  0.47000000000E+01 0. -1.
         -5    1    3    3    0  503 -0.53622283200E+02  0.63058982588E+02  0.49487217769E+02  0.96554954628E+02  0.47000000000E+01 0. -1.
<mgrwt>
<rscale>  0 0.13871597E+03</rscale>
<asrwt>0</asrwt>
<pdfrwt beam="2">  1        5 0.19361943E-01 0.13871640E+03</pdfrwt>
<pdfrwt beam="1">  1       -5 0.24289271E-01 0.13871640E+03</pdfrwt>
<totfact> 0.28814172E+02</totfact>
</mgrwt>
</event>
<event>
 8    1  0.3682083E-007  0.1410797E+03  0.7546771E-02  0.1211886E+00
         -5   -1    0    0    0  501 -0.00000000000E+00  0.00000000000E+00  0.20560553986E+04  0.20560607706E+04  0.47000000000E+01 0.  1.
          5   -1    0    0  501    0  0.00000000000E+00 -0.00000000000E+00 -0.10343373758E+02  0.11361134657E+02  0.47000000000E+01 0.  1.
         25    2    1    2    0    0 -0.98544909745E+00 -0.65392081085E+02  0.13632774247E+04  0.13705571740E+04  0.12499814018E+03 0.  0.
         25    2    1    2    0    0  0.98544909745E+00  0.65392081085E+02  0.68243460018E+03  0.69686473125E+03  0.12500549893E+03 0.  0.
          5    1    4    4  502    0  0.43972966460E+02  0.49046797129E+01  0.96892533321E+02  0.10662049838E+03  0.47000000000E+01 0.  1.
         -5    1    4    4    0  502 -0.42987517362E+02  0.60487401372E+02  0.58554206686E+03  0.59024423287E+03  0.47000000000E+01 0.  1.
          5    1    3    3  503    0 -0.25388333260E+01  0.10876661444E+02  0.11778327223E+02  0.16898710927E+02  0.47000000000E+01 0. -1.
         -5    1    3    3    0  503  0.15533842286E+01 -0.76268742529E+02  0.13514990975E+04  0.13536584630E+04  0.47000000000E+01 0. -1.
<mgrwt>
<rscale>  0 0.14107803E+03</rscale>
<asrwt>0</asrwt>
<pdfrwt beam="2">  1        5 0.16699929E-02 0.14107966E+03</pdfrwt>
<pdfrwt beam="1">  1       -5 0.31639453E+00 0.14107966E+03</pdfrwt>
<totfact> 0.24464962E+01</totfact>
</mgrwt>
</event>
<event>
 8    1  0.3682083E-007  0.1525506E+03  0.7546771E-02  0.1197374E+00
          5   -1    0    0  501    0  0.00000000000E+00  0.00000000000E+00  0.13869963017E+03  0.13877923983E+03  0.47000000000E+01 0. -1.
         -5   -1    0    0    0  501 -0.00000000000E+00 -0.00000000000E+00 -0.17017266932E+03  0.17023756161E+03  0.47000000000E+01 0. -1.
         25    2    1    2    0    0  0.43640402843E+02 -0.75782370249E+02 -0.34649165611E+02  0.15643313625E+03  0.12499323597E+03 0.  0.
         25    2    1    2    0    0 -0.43640402843E+02  0.75782370249E+02  0.31761264641E+01  0.15258366519E+03  0.12499693877E+03 0.  0.
          5    1    4    4  502    0 -0.10735703213E+01  0.93761333160E+02  0.30476734530E+02  0.98707960656E+02  0.47000000000E+01 0. -1.
         -5    1    4    4    0  502 -0.42566832522E+02 -0.17978962911E+02 -0.27300608066E+02  0.53875704535E+02  0.47000000000E+01 0. -1.
          5    1    3    3  503    0 -0.18550086917E+02 -0.27803650138E+02 -0.64076950464E+02  0.72423023041E+02  0.47000000000E+01 0.  1.
         -5    1    3    3    0  503  0.62190489761E+02 -0.47978720111E+02  0.29427784853E+02  0.84010113210E+02  0.47000000000E+01 0.  1.
<mgrwt>
<rscale>  0 0.15254985E+03</rscale>
<asrwt>0</asrwt>
<pdfrwt beam="1">  1        5 0.21349520E-01 0.15255061E+03</pdfrwt>
<pdfrwt beam="2">  1       -5 0.26191526E-01 0.15255061E+03</pdfrwt>
<totfact> 0.21436241E+02</totfact>
</mgrwt>
</event>
<event>
 8    1  0.3682083E-007  0.1418032E+03  0.7546771E-02  0.1210924E+00
          5   -1    0    0  501    0  0.00000000000E+00  0.00000000000E+00  0.12461861275E+03  0.12470721168E+03  0.47000000000E+01 0. -1.
         -5   -1    0    0    0  501 -0.00000000000E+00 -0.00000000000E+00 -0.16922307262E+03  0.16928832892E+03  0.47000000000E+01 0. -1.
         25    2    1    2    0    0 -0.58485311963E+00 -0.66942688884E+02 -0.54345163552E+02  0.15185814122E+03  0.12500333038E+03 0.  0.
         25    2    1    2    0    0  0.58485311963E+00  0.66942688884E+02  0.97407036835E+01  0.14213739937E+03  0.12500597323E+03 0.  0.
          5    1    3    3  502    0  0.22163152223E+02 -0.38890654999E+02  0.33929794739E+02  0.56364965481E+02  0.47000000000E+01 0.  1.
         -5    1    3    3    0  502 -0.22748005343E+02 -0.28052033885E+02 -0.88274958290E+02  0.95493175742E+02  0.47000000000E+01 0.  1.
          5    1    4    4  503    0 -0.42144727117E+01  0.10388260202E+03  0.10342399228E+02  0.10458686344E+03  0.47000000000E+01 0.  1.
         -5    1    4    4    0  503  0.47993258313E+01 -0.36939913139E+02 -0.60169554417E+00  0.37550535930E+02  0.47000000000E+01 0.  1.
<mgrwt>
<rscale>  0 0.14180266E+03</rscale>
<asrwt>0</asrwt>
<pdfrwt beam="1">  1        5 0.19183929E-01 0.14180324E+03</pdfrwt>
<pdfrwt beam="2">  1       -5 0.26046154E-01 0.14180324E+03</pdfrwt>
<totfact> 0.25830683E+02</totfact>
</mgrwt>
</event>
<event>
 8    1  0.3682083E-007  0.1370302E+03  0.7546771E-02  0.1217383E+00
          5   -1    0    0  501    0  0.00000000000E+00  0.00000000000E+00  0.34536199944E+03  0.34539397890E+03  0.47000000000E+01 0.  1.
         -5   -1    0    0    0  501 -0.00000000000E+00 -0.00000000000E+00 -0.65370815938E+02  0.65539557341E+02  0.47000000000E+01 0.  1.
         25    2    1    2    0    0 -0.84401552835E+00 -0.56146547082E+02  0.55326637025E+02  0.14777794762E+03  0.12499655166E+03 0.  0.
         25    2    1    2    0    0  0.84401552835E+00  0.56146547082E+02  0.22466454648E+03  0.26315558862E+03  0.12499423293E+03 0.  0.
          5    1    3    3  502    0  0.83362569245E+01  0.29434467075E+02 -0.16948025276E+02  0.35287484924E+02  0.47000000000E+01 0.  1.
         -5    1    3    3    0  502 -0.91802724529E+01 -0.85581014157E+02  0.72274662301E+02  0.11249046269E+03  0.47000000000E+01 0.  1.
          5    1    4    4  503    0  0.35020375149E+02 -0.16166864521E+02  0.20717484463E+02  0.44035194408E+02  0.47000000000E+01 0.  1.
         -5    1    4    4    0  503 -0.34176359621E+02  0.72313411603E+02  0.20394706202E+03  0.21912039421E+03  0.47000000000E+01 0.  1.
<mgrwt>
<rscale>  0 0.13702971E+03</rscale>
<asrwt>0</asrwt>
<pdfrwt beam="1">  1        5 0.53148054E-01 0.13703023E+03</pdfrwt>
<pdfrwt beam="2">  1       -5 0.10072489E-01 0.13703023E+03</pdfrwt>
<totfact> 0.19169124E+02</totfact>
</mgrwt>
</event>
<event>
 8    1  0.3682083E-007  0.1385166E+03  0.7546771E-02  0.1215344E+00
         -5   -1    0    0    0  501 -0.00000000000E+00  0.00000000000E+00  0.63069280752E+02  0.63244163166E+02  0.47000000000E+01 0. -1.
          5   -1    0    0  501    0  0.00000000000E+00 -0.00000000000E+00 -0.33385744232E+03  0.33389052366E+03  0.47000000000E+01 0. -1.
         25    2    1    2    0    0  0.39875679449E+01 -0.59512831254E+02 -0.75602155036E+02  0.15779304345E+03  0.12500112373E+03 0.  0.
         25    2    1    2    0    0 -0.39875679449E+01  0.59512831254E+02 -0.19518600653E+03  0.23934164338E+03  0.12501666820E+03 0.  0.
          5    1    4    4  502    0 -0.51157560438E+02 -0.60259410474E+01 -0.11172116764E+03  0.12311424473E+03  0.47000000000E+01 0. -1.
         -5    1    4    4    0  502  0.47169992493E+02  0.65538772301E+02 -0.83464838887E+02  0.11622739865E+03  0.47000000000E+01 0. -1.
          5    1    3    3  503    0  0.63872535386E+01 -0.54400955368E+02 -0.10981109777E+03  0.12280402333E+03  0.47000000000E+01 0. -1.
         -5    1    3    3    0  503 -0.23996855937E+01 -0.51118758852E+01  0.34208942733E+02  0.34989020120E+02  0.47000000000E+01 0. -1.
<mgrwt>
<rscale>  0 0.13851308E+03</rscale>
<asrwt>0</asrwt>
<pdfrwt beam="2">  1        5 0.51378679E-01 0.13851659E+03</pdfrwt>
<pdfrwt beam="1">  1       -5 0.97189637E-02 0.13851659E+03</pdfrwt>
<totfact> 0.22010269E+02</totfact>
</mgrwt>
</event>
<event>
 8    1  0.3682083E-007  0.1344229E+03  0.7546771E-02  0.1221046E+00
         -5   -1    0    0    0  501 -0.00000000000E+00  0.00000000000E+00  0.30775823837E+03  0.30779412483E+03  0.47000000000E+01 0.  1.
          5   -1    0    0  501    0  0.00000000000E+00 -0.00000000000E+00 -0.60314415016E+02  0.60497261581E+02  0.47000000000E+01 0.  1.
         25    2    1    2    0    0  0.61511687868E+01 -0.48994849365E+02  0.15498239185E+03  0.20513920639E+03  0.12499688025E+03 0.  0.
         25    2    1    2    0    0 -0.61511687868E+01  0.48994849365E+02  0.92461431500E+02  0.16315218003E+03  0.12502473911E+03 0.  0.
          5    1    4    4  502    0 -0.58826483593E+02  0.17517313287E+02  0.13469030214E+02  0.63015206194E+02  0.47000000000E+01 0.  1.
         -5    1    4    4    0  502  0.52675314806E+02  0.31477536078E+02  0.78992401287E+02  0.10013697383E+03  0.47000000000E+01 0.  1.
          5    1    3    3  503    0 -0.26853268596E+02 -0.80433572088E+02  0.76724851748E+02  0.11445283058E+03  0.47000000000E+01 0. -1.
         -5    1    3    3    0  503  0.33004437383E+02  0.31438722724E+02  0.78257540101E+02  0.90686375802E+02  0.47000000000E+01 0. -1.
<mgrwt>
<rscale>  0 0.13441643E+03</rscale>
<asrwt>0</asrwt>
<pdfrwt beam="2">  1        5 0.92959663E-02 0.13442291E+03</pdfrwt>
<pdfrwt beam="1">  1       -5 0.47364248E-01 0.13442291E+03</pdfrwt>
<totfact> 0.27957879E+02</totfact>
</mgrwt>
</event>
<event>
 8    1  0.3682083E-007  0.1302458E+03  0.7546771E-02  0.1227094E+00
          5   -1    0    0  501    0  0.00000000000E+00  0.00000000000E+00  0.59419150620E+03  0.59421009419E+03  0.47000000000E+01 0. -1.
         -5   -1    0    0    0  501 -0.00000000000E+00 -0.00000000000E+00 -0.31917673449E+02  0.32261864150E+02  0.47000000000E+01 0. -1.
         25    2    1    2    0    0  0.12584376447E+02 -0.34303830087E+02  0.17683131865E+03  0.21962077593E+03  0.12501540175E+03 0.  0.
         25    2    1    2    0    0 -0.12584376447E+02  0.34303830087E+02  0.38544251410E+03  0.40685118241E+03  0.12500733445E+03 0.  0.
          5    1    4    4  502    0  0.46467760492E+02  0.24923674632E+02  0.28491381977E+03  0.28979029835E+03  0.47000000000E+01 0.  1.
         -5    1    4    4    0  502 -0.59052136939E+02  0.93801554549E+01  0.10052869433E+03  0.11706088406E+03  0.47000000000E+01 0.  1.
          5    1    3    3  503    0  0.47000038154E+00 -0.66628047685E+02  0.17191760635E+03  0.18443771581E+03  0.47000000000E+01 0. -1.
         -5    1    3    3    0  503  0.12114376065E+02  0.32324217598E+02  0.49137122953E+01  0.35183060119E+02  0.47000000000E+01 0. -1.
<mgrwt>
<rscale>  0 0.13024387E+03</rscale>
<asrwt>0</asrwt>
<pdfrwt beam="1">  1        5 0.91441980E-01 0.13024581E+03</pdfrwt>
<pdfrwt beam="2">  1       -5 0.49383176E-02 0.13024581E+03</pdfrwt>
<totfact> 0.18635085E+02</totfact>
</mgrwt>
</event>
<event>
 8    1  0.3682083E-007  0.1402039E+03  0.7546771E-02  0.1213075E+00
          5   -1    0    0  501    0  0.00000000000E+00  0.00000000000E+00  0.12208950679E+03  0.12217993971E+03  0.47000000000E+01 0.  1.
         -5   -1    0    0    0  501 -0.00000000000E+00 -0.00000000000E+00 -0.16133922222E+03  0.16140766595E+03  0.47000000000E+01 0.  1.
         25    2    1    2    0    0 -0.61870125307E+02  0.13687105445E+02 -0.28160415771E+02  0.14294587094E+03  0.12500105496E+03 0.  0.
         25    2    1    2    0    0  0.61870125307E+02 -0.13687105445E+02 -0.11089299661E+02  0.14064173473E+03  0.12506748466E+03 0.  0.
          5    1    4    4  502    0  0.65294602076E+02  0.33741056152E+02 -0.40978481258E+02  0.84280305272E+02  0.47000000000E+01 0. -1.
         -5    1    4    4    0  502 -0.34244767696E+01 -0.47428161597E+02  0.29889181597E+02  0.56361429454E+02  0.47000000000E+01 0. -1.
          5    1    3    3  503    0 -0.90382184345E+02  0.23773888141E+02  0.99098433806E+01  0.94097991478E+02  0.47000000000E+01 0. -1.
         -5    1    3    3    0  503  0.28512059038E+02 -0.10086782696E+02 -0.38070259151E+02  0.48847879459E+02  0.47000000000E+01 0. -1.
<mgrwt>
<rscale>  0 0.14018905E+03</rscale>
<asrwt>0</asrwt>
<pdfrwt beam="1">  1        5 0.18795222E-01 0.14020387E+03</pdfrwt>
<pdfrwt beam="2">  1       -5 0.24833640E-01 0.14020387E+03</pdfrwt>
<totfact> 0.29291260E+02</totfact>
</mgrwt>
</event>
<event>
 8    1  0.3682083E-007  0.1252175E+03  0.7546771E-02  0.1234730E+00
         -5   -1    0    0    0  501 -0.00000000000E+00  0.00000000000E+00  0.24135220833E+03  0.24139796699E+03  0.47000000000E+01 0.  1.
          5   -1    0    0  501    0  0.00000000000E+00 -0.00000000000E+00 -0.67567912371E+02  0.67731180281E+02  0.47000000000E+01 0.  1.
         25    2    1    2    0    0 -0.72017871300E+00 -0.73525026428E+01  0.11797193102E+03  0.17203718177E+03  0.12499934980E+03 0.  0.
         25    2    1    2    0    0  0.72017871300E+00  0.73525026428E+01  0.55812364945E+02  0.13709196551E+03  0.12499843588E+03 0.  0.
          5    1    3    3  502    0  0.58982140768E+02 -0.14879525757E+02  0.80444398470E+02  0.10096377797E+03  0.47000000000E+01 0.  1.
         -5    1    3    3    0  502 -0.59702319481E+02  0.75270231141E+01  0.37527532548E+02  0.71073403799E+02  0.47000000000E+01 0.  1.
          5    1    4    4  503    0  0.60674952325E+01 -0.37690451237E+02 -0.23880493930E+02  0.45274193567E+02  0.47000000000E+01 0. -1.
         -5    1    4    4    0  503 -0.53473165195E+01  0.45042953880E+02  0.79692858875E+02  0.91817771939E+02  0.47000000000E+01 0. -1.
<mgrwt>
<rscale>  0 0.12521724E+03</rscale>
<asrwt>0</asrwt>
<pdfrwt beam="2">  1        5 0.10411142E-01 0.12521747E+03</pdfrwt>
<pdfrwt beam="1">  1       -5 0.37147189E-01 0.12521747E+03</pdfrwt>
<totfact> 0.36889305E+02</totfact>
</mgrwt>
</event>
<event>
 8    1  0.3682083E-007  0.1259933E+03  0.7546771E-02  0.1233531E+00
          5   -1    0    0  501    0  0.00000000000E+00  0.00000000000E+00  0.14565997825E+03  0.14573578581E+03  0.47000000000E+01 0. -1.
         -5   -1    0    0    0  501 -0.00000000000E+00 -0.00000000000E+00 -0.11747867913E+03  0.11757265860E+03  0.47000000000E+01 0. -1.
         25    2    1    2    0    0 -0.15566311605E+02  0.30153977739E+01 -0.21639588568E+02  0.12782252375E+03  0.12497569005E+03 0.  0.
         25    2    1    2    0    0  0.15566311605E+02 -0.30153977739E+01  0.49820887688E+02  0.13548592066E+03  0.12499164439E+03 0.  0.
          5    1    4    4  502    0 -0.33371439781E+02  0.29022961718E+02 -0.16036112716E+02  0.47278242469E+02  0.47000000000E+01 0. -1.
         -5    1    4    4    0  502  0.48937751386E+02 -0.32038359492E+02  0.65857000404E+02  0.88207678192E+02  0.47000000000E+01 0. -1.
          5    1    3    3  503    0 -0.23602762293E+02 -0.58307324317E+02 -0.18421943021E+02  0.65713715779E+02  0.47000000000E+01 0. -1.
         -5    1    3    3    0  503  0.80364506882E+01  0.61322722090E+02 -0.32176455472E+01  0.62108807967E+02  0.47000000000E+01 0. -1.
<mgrwt>
<rscale>  0 0.12598935E+03</rscale>
<asrwt>0</asrwt>
<pdfrwt beam="1">  1        5 0.22422288E-01 0.12599331E+03</pdfrwt>
<pdfrwt beam="2">  1       -5 0.18086704E-01 0.12599331E+03</pdfrwt>
<totfact> 0.36765413E+02</totfact>
</mgrwt>
</event>
<event>
 8    1  0.3682083E-007  0.1620310E+03  0.7546771E-02  0.1186423E+00
         -5   -1    0    0    0  501 -0.00000000000E+00  0.00000000000E+00  0.53272272527E+03  0.53274345798E+03  0.47000000000E+01 0.  1.
          5   -1    0    0  501    0  0.00000000000E+00 -0.00000000000E+00 -0.49329254055E+02  0.49552651852E+02  0.47000000000E+01 0.  1.
         25    2    1    2    0    0 -0.21399342061E+02  0.10086036766E+03  0.22409853162E+03  0.27653817905E+03  0.12498986756E+03 0.  0.
         25    2    1    2    0    0  0.21399342061E+02 -0.10086036766E+03  0.25929493960E+03  0.30575793078E+03  0.12499320353E+03 0.  0.
          5    1    3    3  502    0 -0.63246747143E+02  0.56883287144E+02  0.68062558543E+02  0.10904339162E+03  0.47000000000E+01 0.  1.
         -5    1    3    3    0  502  0.41847405082E+02  0.43977080517E+02  0.15603597308E+03  0.16749478743E+03  0.47000000000E+01 0.  1.
          5    1    4    4  503    0  0.55754818023E+02 -0.10502018010E+03  0.15271668449E+03  0.19360349605E+03  0.47000000000E+01 0. -1.
         -5    1    4    4    0  503 -0.34355475962E+02  0.41598124410E+01  0.10657825511E+03  0.11215443473E+03  0.47000000000E+01 0. -1.
<mgrwt>
<rscale>  0 0.16203036E+03</rscale>
<asrwt>0</asrwt>
<pdfrwt beam="2">  1        5 0.76078955E-02 0.16203100E+03</pdfrwt>
<pdfrwt beam="1">  1       -5 0.81976120E-01 0.16203100E+03</pdfrwt>
<totfact> 0.12488931E+02</totfact>
</mgrwt>
</event>
<event>
 8    1  0.3682083E-007  0.1263548E+03  0.7546771E-02  0.1232974E+00
          5   -1    0    0  501    0  0.00000000000E+00  0.00000000000E+00  0.11650011068E+03  0.11659487891E+03  0.47000000000E+01 0.  1.
         -5   -1    0    0    0  501 -0.00000000000E+00 -0.00000000000E+00 -0.13684323779E+03  0.13692392679E+03  0.47000000000E+01 0.  1.
         25    2    1    2    0    0  0.17340086835E+02 -0.59515518106E+01 -0.11291915692E+02  0.12684025104E+03  0.12499936937E+03 0.  0.
         25    2    1    2    0    0 -0.17340086835E+02  0.59515518106E+01 -0.90512114111E+01  0.12667855467E+03  0.12501772756E+03 0.  0.
          5    1    4    4  502    0 -0.19858529085E+02  0.54038377833E+02 -0.39074764921E+02  0.69738330277E+02  0.47000000000E+01 0.  1.
         -5    1    4    4    0  502  0.25184422495E+01 -0.48086826023E+02  0.30023553509E+02  0.56940224390E+02  0.47000000000E+01 0.  1.
          5    1    3    3  503    0 -0.29247874215E+02  0.13807866763E+01 -0.54924499444E+02  0.62419030408E+02  0.47000000000E+01 0. -1.
         -5    1    3    3    0  503  0.46587961050E+02 -0.73323384868E+01  0.43632583751E+02  0.64421220629E+02  0.47000000000E+01 0. -1.
<mgrwt>
<rscale>  0 0.12635024E+03</rscale>
<asrwt>0</asrwt>
<pdfrwt beam="1">  1        5 0.17936591E-01 0.12635479E+03</pdfrwt>
<pdfrwt beam="2">  1       -5 0.21066303E-01 0.12635479E+03</pdfrwt>
<totfact> 0.42027219E+02</totfact>
</mgrwt>
</event>
<event>
 8    1  0.3682083E-007  0.1536790E+03  0.7546771E-02  0.1196024E+00
         -5   -1    0    0    0  501 -0.00000000000E+00  0.00000000000E+00  0.48635581039E+03  0.48637851957E+03  0.47000000000E+01 0.  1.
          5   -1    0    0  501    0  0.00000000000E+00 -0.00000000000E+00 -0.16058858306E+03  0.16065734657E+03  0.47000000000E+01 0.  1.
         25    2    1    2    0    0  0.15067982352E+02  0.88118325843E+02  0.43311885763E+03  0.45957499316E+03  0.12500138424E+03 0.  0.
         25    2    1    2    0    0 -0.15067982352E+02 -0.88118325843E+02 -0.10735163030E+03  0.18746087298E+03  0.12500129172E+03 0.  0.
          5    1    3    3  502    0 -0.98739039014E+00  0.72305896000E+02  0.43032819495E+03  0.43638694172E+03  0.47000000000E+01 0.  1.
         -5    1    3    3    0  502  0.16055372742E+02  0.15812429843E+02  0.27906626834E+01  0.23188051441E+02  0.47000000000E+01 0.  1.
          5    1    4    4  503    0  0.12168245589E+02  0.22724179656E+02  0.56201006397E+01  0.26797949044E+02  0.47000000000E+01 0. -1.
         -5    1    4    4    0  503 -0.27236227941E+02 -0.11084250550E+03 -0.11297173094E+03  0.16066292394E+03  0.47000000000E+01 0. -1.
<mgrwt>
<rscale>  0 0.15367896E+03</rscale>
<asrwt>0</asrwt>
<pdfrwt beam="2">  1        5 0.24712973E-01 0.15367898E+03</pdfrwt>
<pdfrwt beam="1">  1       -5 0.74831006E-01 0.15367898E+03</pdfrwt>
<totfact> 0.18115260E+01</totfact>
</mgrwt>
</event>
<event>
 8    1  0.3682083E-007  0.1253211E+03  0.7546771E-02  0.1234572E+00
         -5   -1    0    0    0  501 -0.00000000000E+00  0.00000000000E+00  0.51686822586E+01  0.69860773178E+01  0.47000000000E+01 0. -1.
          5   -1    0    0  501    0  0.00000000000E+00 -0.00000000000E+00 -0.26055632627E+04  0.26055675017E+04  0.47000000000E+01 0. -1.
         25    2    1    2    0    0  0.48893458306E+01 -0.74167330945E+01 -0.11766339894E+04  0.11832890244E+04  0.12500582643E+03 0.  0.
         25    2    1    2    0    0 -0.48893458306E+01  0.74167330945E+01 -0.14237605911E+04  0.14292645547E+04  0.12499613129E+03 0.  0.
          5    1    4    4  502    0 -0.31836705907E+02  0.17188902882E+02 -0.13420268525E+04  0.13425226989E+04  0.47000000000E+01 0.  1.
         -5    1    4    4    0  502  0.26947360076E+02 -0.97721697877E+01 -0.81733738599E+02  0.86741855772E+02  0.47000000000E+01 0.  1.
          5    1    3    3  503    0  0.39874602178E+02 -0.37822308730E+02 -0.27639756257E+03  0.28184785529E+03  0.47000000000E+01 0.  1.
         -5    1    3    3    0  503 -0.34985256347E+02  0.30405575635E+02 -0.90023642678E+03  0.90144116907E+03  0.47000000000E+01 0.  1.
<mgrwt>
<rscale>  0 0.12531865E+03</rscale>
<asrwt>0</asrwt>
<pdfrwt beam="2">  1        5 0.40099512E+00 0.12532107E+03</pdfrwt>
<pdfrwt beam="1">  1       -5 0.93530966E-03 0.12532107E+03</pdfrwt>
<totfact> 0.16039476E+01</totfact>
</mgrwt>
</event>
<event>
 8    1  0.3682083E-007  0.1392242E+03  0.7546771E-02  0.1214377E+00
          5   -1    0    0  501    0  0.00000000000E+00  0.00000000000E+00  0.44592828715E+03  0.44595305502E+03  0.47000000000E+01 0. -1.
         -5   -1    0    0    0  501 -0.00000000000E+00 -0.00000000000E+00 -0.43804032672E+02  0.44055456850E+02  0.47000000000E+01 0. -1.
         25    2    1    2    0    0 -0.60860262630E+02  0.73817345978E+01  0.17523822462E+03  0.22381186190E+03  0.12499941034E+03 0.  0.
         25    2    1    2    0    0  0.60860262630E+02 -0.73817345978E+01  0.22688602985E+03  0.26619664997E+03  0.12499969736E+03 0.  0.
          5    1    4    4  502    0  0.36628527931E+02  0.29028383554E+02  0.14290362496E+02  0.49097867270E+02  0.47000000000E+01 0.  1.
         -5    1    4    4    0  502  0.24231734699E+02 -0.36410118152E+02  0.21259566736E+03  0.21709878270E+03  0.47000000000E+01 0.  1.
          5    1    3    3  503    0  0.49507766283E+01  0.47585244642E+02  0.23440979814E+02  0.53483036857E+02  0.47000000000E+01 0.  1.
         -5    1    3    3    0  503 -0.65811039259E+02 -0.40203510044E+02  0.15179724481E+03  0.17032882504E+03  0.47000000000E+01 0.  1.
<mgrwt>
<rscale>  0 0.13922416E+03</rscale>
<asrwt>0</asrwt>
<pdfrwt beam="1">  1        5 0.68625598E-01 0.13922423E+03</pdfrwt>
<pdfrwt beam="2">  1       -5 0.67603274E-02 0.13922423E+03</pdfrwt>
<totfact> 0.21845028E+02</totfact>
</mgrwt>
</event>
<event>
 8    1  0.3682083E-007  0.1251241E+03  0.7546771E-02  0.1234876E+00
          5   -1    0    0  501    0  0.00000000000E+00  0.00000000000E+00  0.36054310990E+02  0.36359363869E+02  0.47000000000E+01 0. -1.
         -5   -1    0    0    0  501 -0.00000000000E+00 -0.00000000000E+00 -0.44780861670E+03  0.44783328057E+03  0.47000000000E+01 0. -1.
         25    2    1    2    0    0  0.45999754690E+01  0.32707057488E+01 -0.25123083400E+03  0.28066524015E+03  0.12499675110E+03 0.  0.
         25    2    1    2    0    0 -0.45999754690E+01 -0.32707057488E+01 -0.16052347171E+03  0.20352740429E+03  0.12499504805E+03 0.  0.
          5    1    4    4  502    0 -0.19517461378E+02  0.47269269708E+02 -0.23175906671E+02  0.56342948161E+02  0.47000000000E+01 0. -1.
         -5    1    4    4    0  502  0.14917485909E+02 -0.50539975457E+02 -0.13734756503E+03  0.14718445613E+03  0.47000000000E+01 0. -1.
          5    1    3    3  503    0 -0.57961304096E+02  0.13061456373E+02 -0.14691075331E+03  0.15854013326E+03  0.47000000000E+01 0. -1.
         -5    1    3    3    0  503  0.62561279565E+02 -0.97907506246E+01 -0.10432008069E+03  0.12212510689E+03  0.47000000000E+01 0. -1.
<mgrwt>
<rscale>  0 0.12512369E+03</rscale>
<asrwt>0</asrwt>
<pdfrwt beam="1">  1        5 0.55721802E-02 0.12512412E+03</pdfrwt>
<pdfrwt beam="2">  1       -5 0.68918992E-01 0.12512412E+03</pdfrwt>
<totfact> 0.28851908E+02</totfact>
</mgrwt>
</event>
<event>
 8    1  0.3682083E-007  0.1721177E+03  0.7546771E-02  0.1175658E+00
         -5   -1    0    0    0  501 -0.00000000000E+00  0.00000000000E+00  0.15008747938E+03  0.15016105176E+03  0.47000000000E+01 0. -1.
          5   -1    0    0  501    0  0.00000000000E+00 -0.00000000000E+00 -0.20036882980E+03  0.20042394557E+03  0.47000000000E+01 0. -1.
         25    2    1    2    0    0 -0.33390179753E+02 -0.11351050368E+03 -0.31998744981E+01  0.17214739911E+03  0.12499979710E+03 0.  0.
         25    2    1    2    0    0  0.33390179753E+02  0.11351050368E+03 -0.47081475924E+02  0.17843759822E+03  0.12499509004E+03 0.  0.
          5    1    3    3  502    0 -0.42470730275E+02 -0.13032943351E+03 -0.28507309018E+02  0.14008669044E+03  0.47000000000E+01 0. -1.
         -5    1    3    3    0  502  0.90805505219E+01  0.16818929835E+02  0.25307434520E+02  0.32060708672E+02  0.47000000000E+01 0. -1.
          5    1    4    4  503    0  0.65416610869E+02  0.70227451683E+02  0.13744361478E+02  0.97068148328E+02  0.47000000000E+01 0.  1.
         -5    1    4    4    0  503 -0.32026431116E+02  0.43283051996E+02 -0.60825837402E+02  0.81369449892E+02  0.47000000000E+01 0.  1.
<mgrwt>
<rscale>  0 0.17211680E+03</rscale>
<asrwt>0</asrwt>
<pdfrwt beam="2">  1        5 0.30835873E-01 0.17211766E+03</pdfrwt>
<pdfrwt beam="1">  1       -5 0.23100281E-01 0.17211766E+03</pdfrwt>
<totfact> 0.13936341E+02</totfact>
</mgrwt>
</event>
<event>
 8    1  0.3682083E-007  0.1560897E+03  0.7546771E-02  0.1193184E+00
         -5   -1    0    0    0  501 -0.00000000000E+00  0.00000000000E+00  0.40044440407E+02  0.40319315564E+02  0.47000000000E+01 0.  1.
          5   -1    0    0  501    0  0.00000000000E+00 -0.00000000000E+00 -0.68684382392E+03  0.68685990453E+03  0.47000000000E+01 0.  1.
         25    2    1    2    0    0  0.91449176419E+02 -0.19394432008E+02 -0.19873152869E+03  0.25270184094E+03  0.12499961624E+03 0.  0.
         25    2    1    2    0    0 -0.91449176419E+02  0.19394432008E+02 -0.44806785483E+03  0.47447737916E+03  0.12499953976E+03 0.  0.
          5    1    4    4  502    0 -0.88881754688E+02 -0.35832966200E+02 -0.33591634908E+03  0.34935061380E+03  0.47000000000E+01 0. -1.
         -5    1    4    4    0  502 -0.25674217308E+01  0.55227398208E+02 -0.11215150574E+03  0.12512676535E+03  0.47000000000E+01 0. -1.
          5    1    3    3  503    0  0.71047286582E+02 -0.23413305735E+02 -0.27024259846E+02  0.79676222528E+02  0.47000000000E+01 0.  1.
         -5    1    3    3    0  503  0.20401889836E+02  0.40188737272E+01 -0.17170726884E+03  0.17302561841E+03  0.47000000000E+01 0.  1.
<mgrwt>
<rscale>  0 0.15608970E+03</rscale>
<asrwt>0</asrwt>
<pdfrwt beam="2">  1        5 0.10569065E+00 0.15608972E+03</pdfrwt>
<pdfrwt beam="1">  1       -5 0.61830648E-02 0.15608972E+03</pdfrwt>
<totfact> 0.95443614E+01</totfact>
</mgrwt>
</event>
<event>
 8    1  0.3682083E-007  0.1416078E+03  0.7546771E-02  0.1211183E+00
          5   -1    0    0  501    0  0.00000000000E+00  0.00000000000E+00  0.34251066024E+02  0.34572033839E+02  0.47000000000E+01 0. -1.
         -5   -1    0    0    0  501 -0.00000000000E+00 -0.00000000000E+00 -0.71574832517E+03  0.71576375641E+03  0.47000000000E+01 0. -1.
         25    2    1    2    0    0  0.13531524493E+02  0.65143389945E+02 -0.50265515173E+03  0.52222119035E+03  0.12500402664E+03 0.  0.
         25    2    1    2    0    0 -0.13531524493E+02 -0.65143389945E+02 -0.17884210742E+03  0.22811459990E+03  0.12500003158E+03 0.  0.
          5    1    4    4  502    0 -0.67642433964E+01 -0.22558963484E+02 -0.18297468170E+03  0.18454399466E+03  0.47000000000E+01 0.  1.
         -5    1    4    4    0  502 -0.67672810965E+01 -0.42584426461E+02  0.41325742868E+01  0.43570605237E+02  0.47000000000E+01 0.  1.
          5    1    3    3  503    0  0.10470505936E+02  0.27059020805E+02 -0.47225743680E+03  0.47317121501E+03  0.47000000000E+01 0.  1.
         -5    1    3    3    0  503  0.30610185565E+01  0.38084369140E+02 -0.30397714932E+02  0.49049975336E+02  0.47000000000E+01 0.  1.
<mgrwt>
<rscale>  0 0.14160692E+03</rscale>
<asrwt>0</asrwt>
<pdfrwt beam="1">  1        5 0.52952721E-02 0.14160780E+03</pdfrwt>
<pdfrwt beam="2">  1       -5 0.11014099E+00 0.14160780E+03</pdfrwt>
<totfact> 0.10839817E+02</totfact>
</mgrwt>
</event>
<event>
 8    1  0.3682083E-007  0.1263471E+03  0.7546771E-02  0.1232980E+00
          5   -1    0    0  501    0  0.00000000000E+00  0.00000000000E+00  0.10235643814E+03  0.10246428856E+03  0.47000000000E+01 0.  1.
         -5   -1    0    0    0  501 -0.00000000000E+00 -0.00000000000E+00 -0.17173310119E+03  0.17179740407E+03  0.47000000000E+01 0.  1.
         25    2    1    2    0    0 -0.58238786014E+01  0.17413118117E+02 -0.76528000948E+02  0.14771636726E+03  0.12500582379E+03 0.  0.
         25    2    1    2    0    0  0.58238786014E+01 -0.17413118117E+02  0.71513378975E+01  0.12654532537E+03  0.12500177397E+03 0.  0.
          5    1    3    3  502    0  0.11484858230E+02  0.40182364482E+01 -0.10817164522E+03  0.10895523403E+03  0.47000000000E+01 0.  1.
         -5    1    3    3    0  502 -0.17308736831E+02  0.13394881669E+02  0.31643644276E+02  0.38761133223E+02  0.47000000000E+01 0.  1.
          5    1    4    4  503    0  0.16280323789E+02  0.20695063172E+02  0.56879296420E+02  0.62854426603E+02  0.47000000000E+01 0. -1.
         -5    1    4    4    0  503 -0.10456445187E+02 -0.38108181290E+02 -0.49727958522E+02  0.63690898769E+02  0.47000000000E+01 0. -1.
<mgrwt>
<rscale>  0 0.12634610E+03</rscale>
<asrwt>0</asrwt>
<pdfrwt beam="1">  1        5 0.15760387E-01 0.12634710E+03</pdfrwt>
<pdfrwt beam="2">  1       -5 0.26433720E-01 0.12634710E+03</pdfrwt>
<totfact> 0.34590729E+02</totfact>
</mgrwt>
</event>
<event>
 8    1  0.3682083E-007  0.1250975E+03  0.7546771E-02  0.1234921E+00
          5   -1    0    0  501    0  0.00000000000E+00  0.00000000000E+00  0.10681998298E+03  0.10692333124E+03  0.47000000000E+01 0. -1.
         -5   -1    0    0    0  501 -0.00000000000E+00 -0.00000000000E+00 -0.19448294444E+03  0.19453972777E+03  0.47000000000E+01 0. -1.
         25    2    1    2    0    0  0.38887517020E+01  0.26683735134E+01 -0.11883915073E+03  0.17253925101E+03  0.12499922715E+03 0.  0.
         25    2    1    2    0    0 -0.38887517020E+01 -0.26683735134E+01  0.31176189260E+02  0.12892380799E+03  0.12500860324E+03 0.  0.
          5    1    3    3  502    0  0.39491996964E+02  0.48005140982E+02 -0.85396630786E+02  0.10572977790E+03  0.47000000000E+01 0.  1.
         -5    1    3    3    0  502 -0.35603245262E+02 -0.45336767468E+02 -0.33442519943E+02  0.66809473114E+02  0.47000000000E+01 0.  1.
          5    1    4    4  503    0 -0.55386657479E+02  0.24870193455E+02  0.34954155978E+02  0.70214609372E+02  0.47000000000E+01 0. -1.
         -5    1    4    4    0  503  0.51497905777E+02 -0.27538566969E+02 -0.37779667174E+01  0.58709198620E+02  0.47000000000E+01 0. -1.
<mgrwt>
<rscale>  0 0.12509519E+03</rscale>
<asrwt>0</asrwt>
<pdfrwt beam="1">  1        5 0.16446161E-01 0.12509754E+03</pdfrwt>
<pdfrwt beam="2">  1       -5 0.29932771E-01 0.12509754E+03</pdfrwt>
<totfact> 0.25052435E+02</totfact>
</mgrwt>
</event>
<event>
 8    1  0.3682083E-007  0.1482805E+03  0.7546771E-02  0.1202605E+00
          5   -1    0    0  501    0  0.00000000000E+00  0.00000000000E+00  0.73516812553E+02  0.73666897098E+02  0.47000000000E+01 0.  1.
         -5   -1    0    0    0  501 -0.00000000000E+00 -0.00000000000E+00 -0.42385590256E+03  0.42388196014E+03  0.47000000000E+01 0.  1.
         25    2    1    2    0    0  0.37228397403E+02 -0.70530683894E+02 -0.31038895125E+03  0.34398898214E+03  0.12500635117E+03 0.  0.
         25    2    1    2    0    0 -0.37228397403E+02  0.70530683894E+02 -0.39950138751E+02  0.15355987509E+03  0.12499636278E+03 0.  0.
          5    1    3    3  502    0 -0.49496385729E+01 -0.69792471892E+02 -0.67207249406E+02  0.97130800612E+02  0.47000000000E+01 0.  1.
         -5    1    3    3    0  502  0.42178035976E+02 -0.73821200161E+00 -0.24318170185E+03  0.24685818153E+03  0.47000000000E+01 0.  1.
          5    1    4    4  503    0 -0.25438644156E+02 -0.25078679261E+02  0.18787032223E+02  0.40633820270E+02  0.47000000000E+01 0. -1.
         -5    1    4    4    0  503 -0.11789753247E+02  0.95609363155E+02 -0.58737170973E+02  0.11292605483E+03  0.47000000000E+01 0. -1.
<mgrwt>
<rscale>  0 0.14827844E+03</rscale>
<asrwt>0</asrwt>
<pdfrwt beam="1">  1        5 0.11323829E-01 0.14828054E+03</pdfrwt>
<pdfrwt beam="2">  1       -5 0.65222148E-01 0.14828054E+03</pdfrwt>
<totfact> 0.10241909E+02</totfact>
</mgrwt>
</event>
<event>
 8    1  0.3682083E-007  0.1473979E+03  0.7546771E-02  0.1203716E+00
          5   -1    0    0  501    0  0.00000000000E+00  0.00000000000E+00  0.30084590538E+03  0.30088261628E+03  0.47000000000E+01 0.  1.
         -5   -1    0    0    0  501 -0.00000000000E+00 -0.00000000000E+00 -0.90696987505E+02  0.90818684985E+02  0.47000000000E+01 0.  1.
         25    2    1    2    0    0  0.10810125443E+02 -0.77364574001E+02  0.16447456456E+02  0.14831268558E+03  0.12499599097E+03 0.  0.
         25    2    1    2    0    0 -0.10810125443E+02  0.77364574001E+02  0.19370146141E+03  0.24338861568E+03  0.12496249824E+03 0.  0.
          5    1    4    4  502    0 -0.21848732117E+02 -0.28275268735E+02  0.24581848344E+02  0.43625854549E+02  0.47000000000E+01 0.  1.
         -5    1    4    4    0  502  0.11038606674E+02  0.10563984274E+03  0.16911961307E+03  0.19976276113E+03  0.47000000000E+01 0.  1.
          5    1    3    3  503    0 -0.31514525495E+02 -0.93286330567E+02 -0.35576623345E+01  0.98642038448E+02  0.47000000000E+01 0. -1.
         -5    1    3    3    0  503  0.42324650938E+02  0.15921756566E+02  0.20005118790E+02  0.49670647137E+02  0.47000000000E+01 0. -1.
<mgrwt>
<rscale>  0 0.14739078E+03</rscale>
<asrwt>0</asrwt>
<pdfrwt beam="1">  1        5 0.46296170E-01 0.14739788E+03</pdfrwt>
<pdfrwt beam="2">  1       -5 0.13965568E-01 0.14739788E+03</pdfrwt>
<totfact> 0.14739805E+02</totfact>
</mgrwt>
</event>
<event>
 8    1  0.3682083E-007  0.1598357E+03  0.7546771E-02  0.1188883E+00
          5   -1    0    0  501    0  0.00000000000E+00  0.00000000000E+00  0.58354986027E+03  0.58356878722E+03  0.47000000000E+01 0.  1.
         -5   -1    0    0    0  501 -0.00000000000E+00 -0.00000000000E+00 -0.60599211270E+02  0.60781201095E+02  0.47000000000E+01 0.  1.
         25    2    1    2    0    0  0.16405405025E+02  0.98250325654E+02  0.91332516208E+02  0.18408739517E+03  0.12499710693E+03 0.  0.
         25    2    1    2    0    0 -0.16405405025E+02 -0.98250325654E+02  0.43161813279E+03  0.46026259314E+03  0.12500071315E+03 0.  0.
          5    1    3    3  502    0  0.47747842387E+02  0.80174174688E+02  0.87966066443E+01  0.93846816824E+02  0.47000000000E+01 0.  1.
         -5    1    3    3    0  502 -0.31342437362E+02  0.18076150966E+02  0.82535909563E+02  0.90240578351E+02  0.47000000000E+01 0.  1.
          5    1    4    4  503    0 -0.40934801677E+02  0.12842658525E+02  0.16055692006E+03  0.16625644783E+03  0.47000000000E+01 0.  1.
         -5    1    4    4    0  503  0.24529396652E+02 -0.11109298418E+03  0.27106121273E+03  0.29400614531E+03  0.47000000000E+01 0.  1.
<mgrwt>
<rscale>  0 0.15983497E+03</rscale>
<asrwt>0</asrwt>
<pdfrwt beam="1">  1        5 0.89792351E-01 0.15983567E+03</pdfrwt>
<pdfrwt beam="2">  1       -5 0.93384113E-02 0.15983567E+03</pdfrwt>
<totfact> 0.70465030E+01</totfact>
</mgrwt>
</event>
<event>
 8    1  0.3682083E-007  0.1499145E+03  0.7546771E-02  0.1200578E+00
          5   -1    0    0  501    0  0.00000000000E+00  0.00000000000E+00  0.13424848735E+03  0.13433073497E+03  0.47000000000E+01 0. -1.
         -5   -1    0    0    0  501 -0.00000000000E+00 -0.00000000000E+00 -0.18019455760E+03  0.18025584203E+03  0.47000000000E+01 0. -1.
         25    2    1    2    0    0 -0.75826821779E+02 -0.33169651516E+02 -0.65127279684E+02  0.16344997054E+03  0.12499759049E+03 0.  0.
         25    2    1    2    0    0  0.75826821779E+02  0.33169651516E+02  0.19181209441E+02  0.15113660646E+03  0.12499768932E+03 0.  0.
          5    1    3    3  502    0 -0.61819133339E+01  0.19655140079E+02  0.28365270740E+02  0.35372576498E+02  0.47000000000E+01 0. -1.
         -5    1    3    3    0  502 -0.69644908445E+02 -0.52824791595E+02 -0.93492550424E+02  0.12807739404E+03  0.47000000000E+01 0. -1.
          5    1    4    4  503    0  0.92410714633E+02  0.90074942440E+01 -0.26490445120E+02  0.96668034087E+02  0.47000000000E+01 0. -1.
         -5    1    4    4    0  503 -0.16583892854E+02  0.24162157272E+02  0.45671654562E+02  0.54468572375E+02  0.47000000000E+01 0. -1.
<mgrwt>
<rscale>  0 0.14991447E+03</rscale>
<asrwt>0</asrwt>
<pdfrwt beam="1">  1        5 0.20664654E-01 0.14991449E+03</pdfrwt>
<pdfrwt beam="2">  1       -5 0.27733281E-01 0.14991449E+03</pdfrwt>
<totfact> 0.20283166E+02</totfact>
</mgrwt>
</event>
<event>
 8    1  0.3682083E-007  0.1552218E+03  0.7546771E-02  0.1194200E+00
         -5   -1    0    0    0  501 -0.00000000000E+00  0.00000000000E+00  0.48445157193E+02  0.48672612992E+02  0.47000000000E+01 0.  1.
          5   -1    0    0  501    0  0.00000000000E+00 -0.00000000000E+00 -0.50801234197E+03  0.50803408310E+03  0.47000000000E+01 0.  1.
         25    2    1    2    0    0  0.33376059052E+02 -0.85760967693E+02 -0.18686956852E+03  0.24292803786E+03  0.12499956418E+03 0.  0.
         25    2    1    2    0    0 -0.33376059052E+02  0.85760967693E+02 -0.27269761626E+03  0.31377865823E+03  0.12499660616E+03 0.  0.
          5    1    3    3  502    0  0.66404411010E+02 -0.78876854564E+02 -0.18100194259E+03  0.20836241794E+03  0.47000000000E+01 0.  1.
         -5    1    3    3    0  502 -0.33028351957E+02 -0.68841131295E+01 -0.58676259235E+01  0.34565619922E+02  0.47000000000E+01 0.  1.
          5    1    4    4  503    0 -0.36579379857E+02  0.11279909756E+03 -0.16929080023E+03  0.20674417158E+03  0.47000000000E+01 0.  1.
         -5    1    4    4    0  503  0.32033208046E+01 -0.27038129866E+02 -0.10340681603E+03  0.10703448665E+03  0.47000000000E+01 0.  1.
<mgrwt>
<rscale>  0 0.15522117E+03</rscale>
<asrwt>0</asrwt>
<pdfrwt beam="2">  1        5 0.78174910E-01 0.15522176E+03</pdfrwt>
<pdfrwt beam="1">  1       -5 0.74722704E-02 0.15522176E+03</pdfrwt>
<totfact> 0.14189016E+02</totfact>
</mgrwt>
</event>
<event>
 8    1  0.3682083E-007  0.1543858E+03  0.7546771E-02  0.1195187E+00
          5   -1    0    0  501    0  0.00000000000E+00  0.00000000000E+00  0.31600204567E+03  0.31603699605E+03  0.47000000000E+01 0.  1.
         -5   -1    0    0    0  501 -0.00000000000E+00 -0.00000000000E+00 -0.85133549390E+02  0.85263188022E+02  0.47000000000E+01 0.  1.
         25    2    1    2    0    0  0.17891896036E+02  0.88819093909E+02  0.47350190631E+02  0.16148376835E+03  0.12500406194E+03 0.  0.
         25    2    1    2    0    0 -0.17891896036E+02 -0.88819093909E+02  0.18351830565E+03  0.23981641572E+03  0.12499597334E+03 0.  0.
          5    1    4    4  502    0 -0.54398496250E+02  0.28026981097E+01  0.78575743561E+02  0.95725069795E+02  0.47000000000E+01 0. -1.
         -5    1    4    4    0  502  0.36506600214E+02 -0.91621792018E+02  0.10494256209E+03  0.14409134592E+03  0.47000000000E+01 0. -1.
          5    1    3    3  503    0  0.59202670400E+02  0.44493002559E+02 -0.13564868588E+02  0.75436590055E+02  0.47000000000E+01 0.  1.
         -5    1    3    3    0  503 -0.41310774365E+02  0.44326091350E+02  0.60915059219E+02  0.86047178296E+02  0.47000000000E+01 0.  1.
<mgrwt>
<rscale>  0 0.15438414E+03</rscale>
<asrwt>0</asrwt>
<pdfrwt beam="1">  1        5 0.48628359E-01 0.15438577E+03</pdfrwt>
<pdfrwt beam="2">  1       -5 0.13110130E-01 0.15438577E+03</pdfrwt>
<totfact> 0.15113239E+02</totfact>
</mgrwt>
</event>
<event>
 8    1  0.3682083E-007  0.1288814E+03  0.7546771E-02  0.1229127E+00
         -5   -1    0    0    0  501 -0.00000000000E+00  0.00000000000E+00  0.32827783973E+02  0.33162530069E+02  0.47000000000E+01 0.  1.
          5   -1    0    0  501    0  0.00000000000E+00 -0.00000000000E+00 -0.57881244460E+03  0.57883152646E+03  0.47000000000E+01 0.  1.
         25    2    1    2    0    0  0.21204817986E+02  0.23151539229E+02 -0.16232721133E+03  0.20726925904E+03  0.12499913651E+03 0.  0.
         25    2    1    2    0    0 -0.21204817986E+02 -0.23151539229E+02 -0.38365744930E+03  0.40472479749E+03  0.12499394077E+03 0.  0.
          5    1    3    3  502    0 -0.63390669013E+01  0.82400223305E+01 -0.17335677520E+03  0.17373181414E+03  0.47000000000E+01 0.  1.
         -5    1    3    3    0  502  0.27543884887E+02  0.14911516898E+02  0.11029563871E+02  0.33537444895E+02  0.47000000000E+01 0.  1.
          5    1    4    4  503    0  0.46630738878E+02 -0.29080255269E+02 -0.23115473682E+03  0.23764403929E+03  0.47000000000E+01 0. -1.
         -5    1    4    4    0  503 -0.67835556863E+02  0.59287160398E+01 -0.15250271248E+03  0.16708075820E+03  0.47000000000E+01 0. -1.
<mgrwt>
<rscale>  0 0.12888017E+03</rscale>
<asrwt>0</asrwt>
<pdfrwt beam="2">  1        5 0.89075279E-01 0.12888143E+03</pdfrwt>
<pdfrwt beam="1">  1       -5 0.50776463E-02 0.12888143E+03</pdfrwt>
<totfact> 0.18865371E+02</totfact>
</mgrwt>
</event>
<event>
 8    1  0.3682083E-007  0.1350078E+03  0.7546771E-02  0.1220210E+00
          5   -1    0    0  501    0  0.00000000000E+00  0.00000000000E+00  0.40697804094E+03  0.40700517909E+03  0.47000000000E+01 0.  1.
         -5   -1    0    0    0  501 -0.00000000000E+00 -0.00000000000E+00 -0.53363342871E+02  0.53569920313E+02  0.47000000000E+01 0.  1.
         25    2    1    2    0    0 -0.25526301582E+02 -0.44138648348E+02  0.83881034667E+02  0.15894062528E+03  0.12500512805E+03 0.  0.
         25    2    1    2    0    0  0.25526301582E+02  0.44138648348E+02  0.26973366340E+03  0.30163447412E+03  0.12500917749E+03 0.  0.
          5    1    3    3  502    0  0.46353812880E+01 -0.29020597362E+01 -0.31686390346E+02  0.32496554334E+02  0.47000000000E+01 0. -1.
         -5    1    3    3    0  502 -0.30161682870E+02 -0.41236588611E+02  0.11556742501E+03  0.12644407095E+03  0.47000000000E+01 0. -1.
          5    1    4    4  503    0  0.27964838066E+02  0.65826670617E+02  0.26995533064E+03  0.27930834802E+03  0.47000000000E+01 0.  1.
         -5    1    4    4    0  503 -0.24385364842E+01 -0.21688022270E+02 -0.22166724354E+00  0.22326126097E+02  0.47000000000E+01 0.  1.
<mgrwt>
<rscale>  0 0.13500687E+03</rscale>
<asrwt>0</asrwt>
<pdfrwt beam="1">  1        5 0.62629981E-01 0.13500780E+03</pdfrwt>
<pdfrwt beam="2">  1       -5 0.82277236E-02 0.13500780E+03</pdfrwt>
<totfact> 0.18953490E+02</totfact>
</mgrwt>
</event>
<event>
 8    1  0.3682083E-007  0.1435340E+03  0.7546771E-02  0.1208670E+00
         -5   -1    0    0    0  501 -0.00000000000E+00  0.00000000000E+00  0.26215000318E+02  0.26632991602E+02  0.47000000000E+01 0. -1.
          5   -1    0    0  501    0  0.00000000000E+00 -0.00000000000E+00 -0.86991236834E+03  0.86992506493E+03  0.47000000000E+01 0. -1.
         25    2    1    2    0    0 -0.67630351874E+02  0.19630379421E+02 -0.27698676720E+03  0.31196741595E+03  0.12507111226E+03 0.  0.
         25    2    1    2    0    0  0.67630351874E+02 -0.19630379421E+02 -0.56671060082E+03  0.58459064057E+03  0.12500438262E+03 0.  0.
          5    1    3    3  502    0 -0.82879108752E+02 -0.32278930874E+02 -0.16484517579E+03  0.18736834852E+03  0.47000000000E+01 0. -1.
         -5    1    3    3    0  502  0.15248756879E+02  0.51909310295E+02 -0.11214159141E+03  0.12459906744E+03  0.47000000000E+01 0. -1.
          5    1    4    4  503    0  0.19364020385E+02 -0.61878641183E+02 -0.41116335821E+03  0.41627073961E+03  0.47000000000E+01 0.  1.
         -5    1    4    4    0  503  0.48266331489E+02  0.42248261762E+02 -0.15554724261E+03  0.16831990096E+03  0.47000000000E+01 0.  1.
<mgrwt>
<rscale>  0 0.14351943E+03</rscale>
<asrwt>0</asrwt>
<pdfrwt beam="2">  1        5 0.13386578E+00 0.14353397E+03</pdfrwt>
<pdfrwt beam="1">  1       -5 0.40662075E-02 0.14353397E+03</pdfrwt>
<totfact> 0.10235686E+02</totfact>
</mgrwt>
</event>
<event>
 8    1  0.3682083E-007  0.1386904E+03  0.7546771E-02  0.1215104E+00
         -5   -1    0    0    0  501 -0.00000000000E+00  0.00000000000E+00  0.89204255874E+03  0.89205494035E+03  0.47000000000E+01 0. -1.
          5   -1    0    0  501    0  0.00000000000E+00 -0.00000000000E+00 -0.21633242500E+02  0.22137912753E+02  0.47000000000E+01 0. -1.
         25    2    1    2    0    0 -0.54480770770E+02  0.25321342343E+02  0.49181361597E+03  0.51099347547E+03  0.12499749740E+03 0.  0.
         25    2    1    2    0    0  0.54480770770E+02 -0.25321342343E+02  0.37859570027E+03  0.40319937763E+03  0.12500283637E+03 0.  0.
          5    1    3    3  502    0  0.11705989293E+01 -0.29355558587E+01  0.39904057566E+03  0.39908076728E+03  0.47000000000E+01 0.  1.
         -5    1    3    3    0  502 -0.55651369700E+02  0.28256898202E+02  0.92773040310E+02  0.11191270819E+03  0.47000000000E+01 0.  1.
          5    1    4    4  503    0  0.95226557866E+02 -0.17827985806E+02  0.26422578628E+03  0.28146632220E+03  0.47000000000E+01 0.  1.
         -5    1    4    4    0  503 -0.40745787095E+02 -0.74933565376E+01  0.11436991399E+03  0.12173305543E+03  0.47000000000E+01 0.  1.
<mgrwt>
<rscale>  0 0.13868922E+03</rscale>
<asrwt>0</asrwt>
<pdfrwt beam="2">  1        5 0.33679638E-02 0.13869042E+03</pdfrwt>
<pdfrwt beam="1">  1       -5 0.13727712E+00 0.13869042E+03</pdfrwt>
<totfact> 0.12892493E+02</totfact>
</mgrwt>
</event>
<event>
 8    1  0.3682083E-007  0.1306951E+03  0.7546771E-02  0.1226429E+00
         -5   -1    0    0    0  501 -0.00000000000E+00  0.00000000000E+00  0.24339524079E+03  0.24344061542E+03  0.47000000000E+01 0. -1.
          5   -1    0    0  501    0  0.00000000000E+00 -0.00000000000E+00 -0.70047930892E+02  0.70205431573E+02  0.47000000000E+01 0. -1.
         25    2    1    2    0    0 -0.17891540838E+02 -0.33722254209E+02  0.87222759366E+02  0.15712743003E+03  0.12499568734E+03 0.  0.
         25    2    1    2    0    0  0.17891540838E+02  0.33722254209E+02  0.86124550528E+02  0.15651861697E+03  0.12499336619E+03 0.  0.
          5    1    3    3  502    0 -0.37598795594E+02  0.34274811313E+02  0.65204989314E+02  0.82838473864E+02  0.47000000000E+01 0. -1.
         -5    1    3    3    0  502  0.19707254756E+02 -0.67997065522E+02  0.22017770053E+02  0.74288956163E+02  0.47000000000E+01 0. -1.
          5    1    4    4  503    0 -0.50740455759E+01 -0.41572263663E+02  0.60243122420E+02  0.73520900726E+02  0.47000000000E+01 0.  1.
         -5    1    4    4    0  503  0.22965586414E+02  0.75294517872E+02  0.25881428108E+02  0.82997716244E+02  0.47000000000E+01 0.  1.
<mgrwt>
<rscale>  0 0.13069458E+03</rscale>
<asrwt>0</asrwt>
<pdfrwt beam="2">  1        5 0.10792210E-01 0.13069514E+03</pdfrwt>
<pdfrwt beam="1">  1       -5 0.37461028E-01 0.13069514E+03</pdfrwt>
<totfact> 0.34595841E+02</totfact>
</mgrwt>
</event>
<event>
 8    1  0.3682083E-007  0.1305734E+03  0.7546771E-02  0.1226610E+00
          5   -1    0    0  501    0  0.00000000000E+00  0.00000000000E+00  0.20581173575E+02  0.21111009112E+02  0.47000000000E+01 0.  1.
         -5   -1    0    0    0  501 -0.00000000000E+00 -0.00000000000E+00 -0.82164990857E+03  0.82166335093E+03  0.47000000000E+01 0.  1.
         25    2    1    2    0    0  0.37709760897E+02 -0.11497187137E+01 -0.43120518958E+03  0.45053915332E+03  0.12499706090E+03 0.  0.
         25    2    1    2    0    0 -0.37709760897E+02  0.11497187137E+01 -0.36986354541E+03  0.39223520672E+03  0.12500426890E+03 0.  0.
          5    1    3    3  502    0 -0.40035058487E+02 -0.38127933150E+01 -0.25041463408E+03  0.25366695146E+03  0.47000000000E+01 0. -1.
         -5    1    3    3    0  502  0.77744819384E+02  0.26630746013E+01 -0.18079055550E+03  0.19687220186E+03  0.47000000000E+01 0. -1.
          5    1    4    4  503    0 -0.40220182992E+02 -0.16067497211E+02 -0.37158517339E+03  0.37413026965E+03  0.47000000000E+01 0. -1.
         -5    1    4    4    0  503  0.25104220950E+01  0.17217215925E+02  0.17216279752E+01  0.18104937066E+02  0.47000000000E+01 0. -1.
<mgrwt>
<rscale>  0 0.13057168E+03</rscale>
<asrwt>0</asrwt>
<pdfrwt beam="1">  1        5 0.32081256E-02 0.13057341E+03</pdfrwt>
<pdfrwt beam="2">  1       -5 0.12644944E+00 0.13057341E+03</pdfrwt>
<totfact> 0.16951604E+02</totfact>
</mgrwt>
</event>
<event>
 8    1  0.3682083E-007  0.1489599E+03  0.7546771E-02  0.1201763E+00
         -5   -1    0    0    0  501 -0.00000000000E+00  0.00000000000E+00  0.30271162275E+03  0.30274810742E+03  0.47000000000E+01 0. -1.
          5   -1    0    0  501    0  0.00000000000E+00 -0.00000000000E+00 -0.76528474895E+02  0.76672664423E+02  0.47000000000E+01 0. -1.
         25    2    1    2    0    0 -0.73008526048E+02 -0.35041451248E+02  0.15274972178E+03  0.21334396092E+03  0.12500007990E+03 0.  0.
         25    2    1    2    0    0  0.73008526048E+02  0.35041451248E+02  0.73433426073E+02  0.16607681092E+03  0.12502356130E+03 0.  0.
          5    1    3    3  502    0 -0.67390240526E+02 -0.44870590453E+02  0.17220682989E+03  0.19034730538E+03  0.47000000000E+01 0.  1.
         -5    1    3    3    0  502 -0.56182855220E+01  0.98291392059E+01 -0.19457108112E+02  0.22996655535E+02  0.47000000000E+01 0.  1.
          5    1    4    4  503    0  0.62279737042E+02 -0.11311408699E+02  0.94494762572E+02  0.11383349141E+03  0.47000000000E+01 0. -1.
         -5    1    4    4    0  503  0.10728789006E+02  0.46352859946E+02 -0.21061336499E+02  0.52243319514E+02  0.47000000000E+01 0. -1.
<mgrwt>
<rscale>  0 0.14895493E+03</rscale>
<asrwt>0</asrwt>
<pdfrwt beam="2">  1        5 0.11787509E-01 0.14895986E+03</pdfrwt>
<pdfrwt beam="1">  1       -5 0.46584917E-01 0.14895986E+03</pdfrwt>
<totfact> 0.19761910E+02</totfact>
</mgrwt>
</event>
<event>
 8    1  0.3682083E-007  0.1335529E+03  0.7546771E-02  0.1222278E+00
         -5   -1    0    0    0  501 -0.00000000000E+00  0.00000000000E+00  0.71105193980E+02  0.71260357921E+02  0.47000000000E+01 0.  1.
          5   -1    0    0  501    0  0.00000000000E+00 -0.00000000000E+00 -0.32345060172E+03  0.32348474732E+03  0.47000000000E+01 0.  1.
         25    2    1    2    0    0  0.21670547317E+02  0.41722872550E+02 -0.32395966405E+02  0.13742591698E+03  0.12500389315E+03 0.  0.
         25    2    1    2    0    0 -0.21670547317E+02 -0.41722872550E+02 -0.21994944133E+03  0.25731918826E+03  0.12499998877E+03 0.  0.
          5    1    3    3  502    0  0.13767334631E+02 -0.32728607197E+02  0.24396574724E+02  0.43335713795E+02  0.47000000000E+01 0.  1.
         -5    1    3    3    0  502  0.79032126866E+01  0.74451479747E+02 -0.56792541128E+02  0.94090203183E+02  0.47000000000E+01 0.  1.
          5    1    4    4  503    0 -0.43141081526E+02  0.33084205780E+02 -0.10640758912E+03  0.11958420720E+03  0.47000000000E+01 0.  1.
         -5    1    4    4    0  503  0.21470534209E+02 -0.74807078330E+02 -0.11354185221E+03  0.13773498107E+03  0.47000000000E+01 0.  1.
<mgrwt>
<rscale>  0 0.13355201E+03</rscale>
<asrwt>0</asrwt>
<pdfrwt beam="2">  1        5 0.49776193E-01 0.13355293E+03</pdfrwt>
<pdfrwt beam="1">  1       -5 0.10953823E-01 0.13355293E+03</pdfrwt>
<totfact> 0.18865133E+02</totfact>
</mgrwt>
</event>
<event>
 8    1  0.3682083E-007  0.1376711E+03  0.7546771E-02  0.1216502E+00
          5   -1    0    0  501    0  0.00000000000E+00  0.00000000000E+00  0.41745240021E+03  0.41747885748E+03  0.47000000000E+01 0.  1.
         -5   -1    0    0    0  501 -0.00000000000E+00 -0.00000000000E+00 -0.45629142253E+02  0.45870563794E+02  0.47000000000E+01 0.  1.
         25    2    1    2    0    0 -0.52903212299E+02 -0.22952835134E+02  0.16482548429E+03  0.21475747929E+03  0.12501100802E+03 0.  0.
         25    2    1    2    0    0  0.52903212299E+02  0.22952835134E+02  0.20699777366E+03  0.24859194198E+03  0.12499717118E+03 0.  0.
          5    1    4    4  502    0 -0.91381118397E+00  0.25834964257E+02  0.19011215772E+03  0.19191926152E+03  0.47000000000E+01 0. -1.
         -5    1    4    4    0  502  0.53817023483E+02 -0.28821291237E+01  0.16885615945E+02  0.56672680462E+02  0.47000000000E+01 0. -1.
          5    1    3    3  503    0 -0.56375260997E+02 -0.59632715523E+02  0.55203012100E+02  0.99013601885E+02  0.47000000000E+01 0. -1.
         -5    1    3    3    0  503  0.34720486982E+01  0.36679880390E+02  0.10962247219E+03  0.11574387741E+03  0.47000000000E+01 0. -1.
<mgrwt>
<rscale>  0 0.13766797E+03</rscale>
<asrwt>0</asrwt>
<pdfrwt beam="1">  1        5 0.64244054E-01 0.13767111E+03</pdfrwt>
<pdfrwt beam="2">  1       -5 0.70404739E-02 0.13767111E+03</pdfrwt>
<totfact> 0.23534498E+02</totfact>
</mgrwt>
</event>
<event>
 8    1  0.3682083E-007  0.1584345E+03  0.7546771E-02  0.1190477E+00
          5   -1    0    0  501    0  0.00000000000E+00  0.00000000000E+00  0.60336329716E+02  0.60519110069E+02  0.47000000000E+01 0. -1.
         -5   -1    0    0    0  501 -0.00000000000E+00 -0.00000000000E+00 -0.42560960666E+03  0.42563555688E+03  0.47000000000E+01 0. -1.
         25    2    1    2    0    0 -0.53385586639E+01 -0.97190687743E+02 -0.22066410005E+03  0.27164755022E+03  0.12500086598E+03 0.  0.
         25    2    1    2    0    0  0.53385586639E+01  0.97190687743E+02 -0.14460917689E+03  0.21450711673E+03  0.12500783613E+03 0.  0.
          5    1    3    3  502    0 -0.51085935879E+02 -0.82772881282E+02 -0.19274725672E+03  0.21595072978E+03  0.47000000000E+01 0. -1.
         -5    1    3    3    0  502  0.45747377215E+02 -0.14417806461E+02 -0.27916843333E+02  0.55696820438E+02  0.47000000000E+01 0. -1.
          5    1    4    4  503    0 -0.12271561444E+02  0.12030609545E+03 -0.84578303448E+02  0.14764730690E+03  0.47000000000E+01 0. -1.
         -5    1    4    4    0  503  0.17610120108E+02 -0.23115407704E+02 -0.60030873440E+02  0.66859809822E+02  0.47000000000E+01 0. -1.
<mgrwt>
<rscale>  0 0.15843312E+03</rscale>
<asrwt>0</asrwt>
<pdfrwt beam="1">  1        5 0.92985687E-02 0.15843449E+03</pdfrwt>
<pdfrwt beam="2">  1       -5 0.65494455E-01 0.15843449E+03</pdfrwt>
<totfact> 0.14636860E+02</totfact>
</mgrwt>
</event>
<event>
 8    1  0.3682083E-007  0.1822606E+03  0.7546771E-02  0.1165633E+00
         -5   -1    0    0    0  501 -0.00000000000E+00  0.00000000000E+00  0.12704553958E+02  0.13546058145E+02  0.47000000000E+01 0.  1.
          5   -1    0    0  501    0  0.00000000000E+00 -0.00000000000E+00 -0.25338097867E+04  0.25338141457E+04  0.47000000000E+01 0.  1.
         25    2    1    2    0    0 -0.48974632937E+02 -0.12326830996E+03 -0.12114730326E+04  0.12251062817E+04  0.12499960706E+03 0.  0.
         25    2    1    2    0    0  0.48974632937E+02  0.12326830996E+03 -0.13096322002E+04  0.13222539222E+04  0.12500137701E+03 0.  0.
          5    1    4    4  502    0 -0.32356333313E+02  0.47798622915E+02 -0.24070073365E+03  0.24756933138E+03  0.47000000000E+01 0.  1.
         -5    1    4    4    0  502  0.81330966249E+02  0.75469687048E+02 -0.10689314665E+04  0.10746845909E+04  0.47000000000E+01 0.  1.
          5    1    3    3  503    0 -0.43321375778E+02 -0.10390858588E+03 -0.46902285411E+03  0.48236735326E+03  0.47000000000E+01 0.  1.
         -5    1    3    3    0  503 -0.56532571586E+01 -0.19359724085E+02 -0.74245017848E+03  0.74273892840E+03  0.47000000000E+01 0.  1.
<mgrwt>
<rscale>  0 0.18226032E+03</rscale>
<asrwt>0</asrwt>
<pdfrwt beam="2">  1        5 0.38988157E+00 0.18226062E+03</pdfrwt>
<pdfrwt beam="1">  1       -5 0.20196152E-02 0.18226062E+03</pdfrwt>
<totfact> 0.61774175E+00</totfact>
</mgrwt>
</event>
<event>
 8    1  0.3682083E-007  0.1255033E+03  0.7546771E-02  0.1234286E+00
          5   -1    0    0  501    0  0.00000000000E+00  0.00000000000E+00  0.53721499353E+01  0.71379265146E+01  0.47000000000E+01 0. -1.
         -5   -1    0    0    0  501 -0.00000000000E+00 -0.00000000000E+00 -0.26477287595E+04  0.26477329310E+04  0.47000000000E+01 0. -1.
         25    2    1    2    0    0  0.97018514052E+01  0.55416520067E+01 -0.16168524503E+04  0.16217160408E+04  0.12500494027E+03 0.  0.
         25    2    1    2    0    0 -0.97018514052E+01 -0.55416520067E+01 -0.10255041592E+04  0.10331548166E+04  0.12500103525E+03 0.  0.
          5    1    4    4  502    0  0.38354019076E+02 -0.17356208081E+01 -0.11436073688E+03  0.12072494066E+03  0.47000000000E+01 0. -1.
         -5    1    4    4    0  502 -0.48055870482E+02 -0.38060311986E+01 -0.91114342230E+03  0.91242987597E+03  0.47000000000E+01 0. -1.
          5    1    3    3  503    0  0.20313131570E+02 -0.36937116636E+02 -0.13889941450E+04  0.13896416080E+04  0.47000000000E+01 0.  1.
         -5    1    3    3    0  503 -0.10611280164E+02  0.42478768643E+02 -0.22785830538E+03  0.23207443285E+03  0.47000000000E+01 0.  1.
<mgrwt>
<rscale>  0 0.12550230E+03</rscale>
<asrwt>0</asrwt>
<pdfrwt beam="1">  1        5 0.96263657E-03 0.12550327E+03</pdfrwt>
<pdfrwt beam="2">  1       -5 0.40747814E+00 0.12550327E+03</pdfrwt>
<totfact> 0.13821255E+01</totfact>
</mgrwt>
</event>
<event>
 8    1  0.3682083E-007  0.1710821E+03  0.7546771E-02  0.1176725E+00
          5   -1    0    0  501    0  0.00000000000E+00  0.00000000000E+00  0.11376741488E+03  0.11386445753E+03  0.47000000000E+01 0.  1.
         -5   -1    0    0    0  501 -0.00000000000E+00 -0.00000000000E+00 -0.42117979193E+03  0.42120601507E+03  0.47000000000E+01 0.  1.
         25    2    1    2    0    0  0.11316878644E+03 -0.28941914714E+02 -0.32069465668E+03  0.36347351696E+03  0.12499250400E+03 0.  0.
         25    2    1    2    0    0 -0.11316878644E+03  0.28941914714E+02  0.13282279631E+02  0.17159695564E+03  0.12499715029E+03 0.  0.
          5    1    4    4  502    0 -0.79032061556E+02  0.77990690513E+02  0.79899483237E+01  0.11142057186E+03  0.47000000000E+01 0.  1.
         -5    1    4    4    0  502 -0.34136724888E+02 -0.49048775799E+02  0.52923313072E+01  0.60176383774E+02  0.47000000000E+01 0.  1.
          5    1    3    3  503    0  0.15987970306E+02  0.35973801193E+02 -0.15926298305E+03  0.16412348198E+03  0.47000000000E+01 0. -1.
         -5    1    3    3    0  503  0.97180816138E+02 -0.64915715906E+02 -0.16143167363E+03  0.19935003499E+03  0.47000000000E+01 0. -1.
<mgrwt>
<rscale>  0 0.17108128E+03</rscale>
<asrwt>0</asrwt>
<pdfrwt beam="1">  1        5 0.17512161E-01 0.17108213E+03</pdfrwt>
<pdfrwt beam="2">  1       -5 0.64806372E-01 0.17108213E+03</pdfrwt>
<totfact> 0.49365863E+01</totfact>
</mgrwt>
</event>
<event>
 8    1  0.3682083E-007  0.1459024E+03  0.7546771E-02  0.1205605E+00
         -5   -1    0    0    0  501 -0.00000000000E+00  0.00000000000E+00  0.69000249425E+02  0.69160136066E+02  0.47000000000E+01 0. -1.
          5   -1    0    0  501    0  0.00000000000E+00 -0.00000000000E+00 -0.35381100044E+03  0.35384221630E+03  0.47000000000E+01 0. -1.
         25    2    1    2    0    0  0.32518130446E+02  0.67850812012E+02 -0.66284286190E+02  0.16025324697E+03  0.12500534017E+03 0.  0.
         25    2    1    2    0    0 -0.32518130446E+02 -0.67850812012E+02 -0.21852646483E+03  0.26274910539E+03  0.12498845968E+03 0.  0.
          5    1    3    3  502    0  0.65890064446E+02  0.60605625161E+02 -0.48129838789E+01  0.89776373326E+02  0.47000000000E+01 0. -1.
         -5    1    3    3    0  502 -0.33371934000E+02  0.72451868510E+01 -0.61471302312E+02  0.70476873648E+02  0.47000000000E+01 0. -1.
          5    1    4    4  503    0 -0.62824929360E+02 -0.84511407167E+02 -0.19154481198E+03  0.21863360832E+03  0.47000000000E+01 0. -1.
         -5    1    4    4    0  503  0.30306798914E+02  0.16660595155E+02 -0.26981652849E+02  0.44115497071E+02  0.47000000000E+01 0. -1.
<mgrwt>
<rscale>  0 0.14589874E+03</rscale>
<asrwt>0</asrwt>
<pdfrwt beam="2">  1        5 0.54447161E-01 0.14590235E+03</pdfrwt>
<pdfrwt beam="1">  1       -5 0.10630123E-01 0.14590235E+03</pdfrwt>
<totfact> 0.16908643E+02</totfact>
</mgrwt>
</event>
<event>
 8    1  0.3682083E-007  0.2118822E+03  0.7546771E-02  0.1140084E+00
         -5   -1    0    0    0  501 -0.00000000000E+00  0.00000000000E+00  0.13099986914E+03  0.13108415509E+03  0.47000000000E+01 0.  1.
          5   -1    0    0  501    0  0.00000000000E+00 -0.00000000000E+00 -0.48904355915E+03  0.48906614353E+03  0.47000000000E+01 0.  1.
         25    2    1    2    0    0  0.71224044866E+02 -0.15554767803E+03 -0.92991866324E+01  0.21208620774E+03  0.12500455964E+03 0.  0.
         25    2    1    2    0    0 -0.71224044866E+02  0.15554767803E+03 -0.34874450338E+03  0.40806409089E+03  0.12500251568E+03 0.  0.
          5    1    4    4  502    0 -0.48842430040E+02  0.63702806285E+02 -0.27937281954E+03  0.29071445234E+03  0.47000000000E+01 0.  1.
         -5    1    4    4    0  502 -0.22381614827E+02  0.91844871748E+02 -0.69371683838E+02  0.11734963855E+03  0.47000000000E+01 0.  1.
          5    1    3    3  503    0 -0.13455642110E+02 -0.91650096079E+01  0.33533569474E+02  0.37571824382E+02  0.47000000000E+01 0.  1.
         -5    1    3    3    0  503  0.84679686977E+02 -0.14638266843E+03 -0.42832756106E+02  0.17451438335E+03  0.47000000000E+01 0.  1.
<mgrwt>
<rscale>  0 0.21188194E+03</rscale>
<asrwt>0</asrwt>
<pdfrwt beam="2">  1        5 0.75245691E-01 0.21188224E+03</pdfrwt>
<pdfrwt beam="1">  1       -5 0.20162047E-01 0.21188224E+03</pdfrwt>
<totfact> 0.28626900E+01</totfact>
</mgrwt>
</event>
<event>
 8    1  0.3682083E-007  0.1327343E+03  0.7546771E-02  0.1223454E+00
         -5   -1    0    0    0  501 -0.00000000000E+00  0.00000000000E+00  0.19077741158E+03  0.19083529749E+03  0.47000000000E+01 0. -1.
          5   -1    0    0  501    0  0.00000000000E+00 -0.00000000000E+00 -0.94600484209E+02  0.94717166409E+02  0.47000000000E+01 0. -1.
         25    2    1    2    0    0 -0.15481102356E+02  0.41869990991E+02  0.70722692154E+02  0.15039955975E+03  0.12500227083E+03 0.  0.
         25    2    1    2    0    0  0.15481102356E+02 -0.41869990991E+02  0.25454235214E+02  0.13515290415E+03  0.12500251491E+03 0.  0.
          5    1    3    3  502    0  0.77757159358E+01  0.49698959832E+02  0.99922666272E+02  0.11196909217E+03  0.47000000000E+01 0.  1.
         -5    1    3    3    0  502 -0.23256818292E+02 -0.78289688409E+01 -0.29199974118E+02  0.38430467583E+02  0.47000000000E+01 0.  1.
          5    1    4    4  503    0  0.37404661971E+02 -0.59230967913E+02 -0.27242771914E+02  0.75310523293E+02  0.47000000000E+01 0.  1.
         -5    1    4    4    0  503 -0.21923559614E+02  0.17360976922E+02  0.52697007128E+02  0.59842380853E+02  0.47000000000E+01 0.  1.
<mgrwt>
<rscale>  0 0.13273422E+03</rscale>
<asrwt>0</asrwt>
<pdfrwt beam="2">  1        5 0.14567349E-01 0.13273428E+03</pdfrwt>
<pdfrwt beam="1">  1       -5 0.29363799E-01 0.13273428E+03</pdfrwt>
<totfact> 0.33118944E+02</totfact>
</mgrwt>
</event>
<event>
 8    1  0.3682083E-007  0.1313086E+03  0.7546771E-02  0.1225533E+00
          5   -1    0    0  501    0  0.00000000000E+00  0.00000000000E+00  0.31422153411E+03  0.31425668250E+03  0.47000000000E+01 0. -1.
         -5   -1    0    0    0  501 -0.00000000000E+00 -0.00000000000E+00 -0.57351881412E+02  0.57544142200E+02  0.47000000000E+01 0. -1.
         25    2    1    2    0    0 -0.34623093265E+02  0.20352537024E+02  0.88747691963E+02  0.15848689506E+03  0.12501583391E+03 0.  0.
         25    2    1    2    0    0  0.34623093265E+02 -0.20352537024E+02  0.16812196073E+03  0.21331392964E+03  0.12499941819E+03 0.  0.
          5    1    4    4  502    0 -0.37448004376E+01 -0.38772083037E+02  0.16585759641E+03  0.17043512032E+03  0.47000000000E+01 0. -1.
         -5    1    4    4    0  502  0.38367893703E+02  0.18419546013E+02  0.22643643240E+01  0.42878809315E+02  0.47000000000E+01 0. -1.
          5    1    3    3  503    0  0.17740744726E+01  0.61466430674E+02  0.10161999818E+02  0.62503005371E+02  0.47000000000E+01 0.  1.
         -5    1    3    3    0  503 -0.36397167738E+02 -0.41113893650E+02  0.78585692144E+02  0.95983889691E+02  0.47000000000E+01 0.  1.
<mgrwt>
<rscale>  0 0.13130467E+03</rscale>
<asrwt>0</asrwt>
<pdfrwt beam="1">  1        5 0.48359268E-01 0.13130858E+03</pdfrwt>
<pdfrwt beam="2">  1       -5 0.88408593E-02 0.13130858E+03</pdfrwt>
<totfact> 0.28951705E+02</totfact>
</mgrwt>
</event>
<event>
 8    1  0.3682083E-007  0.1694295E+03  0.7546771E-02  0.1178448E+00
         -5   -1    0    0    0  501 -0.00000000000E+00  0.00000000000E+00  0.16428390769E+03  0.16435112512E+03  0.47000000000E+01 0. -1.
          5   -1    0    0  501    0  0.00000000000E+00 -0.00000000000E+00 -0.19006392685E+03  0.19012203000E+03  0.47000000000E+01 0. -1.
         25    2    1    2    0    0 -0.65594341130E+02  0.93680280594E+02  0.37670321425E+02  0.17356676055E+03  0.12501101827E+03 0.  0.
         25    2    1    2    0    0  0.65594341130E+02 -0.93680280594E+02 -0.63450340586E+02  0.18090639457E+03  0.12499026088E+03 0.  0.
          5    1    3    3  502    0 -0.12359202724E+02  0.10849130231E+03  0.43858935788E+02  0.11776590685E+03  0.47000000000E+01 0.  1.
         -5    1    3    3    0  502 -0.53235138406E+02 -0.14811021712E+02 -0.61886143629E+01  0.55800853694E+02  0.47000000000E+01 0.  1.
          5    1    4    4  503    0 -0.22831406812E+02 -0.61555018661E+02 -0.55990439537E+02  0.86413614546E+02  0.47000000000E+01 0.  1.
         -5    1    4    4    0  503  0.88425747941E+02 -0.32125261934E+02 -0.74599010495E+01  0.94492780026E+02  0.47000000000E+01 0.  1.
<mgrwt>
<rscale>  0 0.16942571E+03</rscale>
<asrwt>0</asrwt>
<pdfrwt beam="2">  1        5 0.29250244E-01 0.16942953E+03</pdfrwt>
<pdfrwt beam="1">  1       -5 0.25284087E-01 0.16942953E+03</pdfrwt>
<totfact> 0.12945953E+02</totfact>
</mgrwt>
</event>
<event>
 8    1  0.3682083E-007  0.1277007E+03  0.7546771E-02  0.1230925E+00
          5   -1    0    0  501    0  0.00000000000E+00  0.00000000000E+00  0.65166237898E+02  0.65335507665E+02  0.47000000000E+01 0.  1.
         -5   -1    0    0    0  501 -0.00000000000E+00 -0.00000000000E+00 -0.25270767620E+03  0.25275137905E+03  0.47000000000E+01 0.  1.
         25    2    1    2    0    0  0.19149399687E+02 -0.17470743598E+02 -0.11130396416E+03  0.16939903813E+03  0.12504213407E+03 0.  0.
         25    2    1    2    0    0 -0.19149399687E+02  0.17470743598E+02 -0.76237474144E+02  0.14868784858E+03  0.12499598978E+03 0.  0.
          5    1    3    3  502    0 -0.78416425288E+01 -0.61681692939E+02 -0.22131515609E+02  0.66166582083E+02  0.47000000000E+01 0.  1.
         -5    1    3    3    0  502  0.26991042216E+02  0.44210949341E+02 -0.89172448549E+02  0.10323245605E+03  0.47000000000E+01 0.  1.
          5    1    4    4  503    0 -0.41474727444E+02  0.55304767466E+02 -0.11386443110E+02  0.70217600413E+02  0.47000000000E+01 0. -1.
         -5    1    4    4    0  503  0.22325327757E+02 -0.37834023867E+02 -0.64851031034E+02  0.78470248168E+02  0.47000000000E+01 0. -1.
<mgrwt>
<rscale>  0 0.12768937E+03</rscale>
<asrwt>0</asrwt>
<pdfrwt beam="1">  1        5 0.10041958E-01 0.12770067E+03</pdfrwt>
<pdfrwt beam="2">  1       -5 0.38894486E-01 0.12770067E+03</pdfrwt>
<totfact> 0.36056603E+02</totfact>
</mgrwt>
</event>
<event>
 8    1  0.3682083E-007  0.1655020E+03  0.7546771E-02  0.1182622E+00
          5   -1    0    0  501    0  0.00000000000E+00  0.00000000000E+00  0.13495886944E+03  0.13504068439E+03  0.47000000000E+01 0. -1.
         -5   -1    0    0    0  501 -0.00000000000E+00 -0.00000000000E+00 -0.20293060174E+03  0.20298502192E+03  0.47000000000E+01 0. -1.
         25    2    1    2    0    0 -0.12095324718E+02 -0.10779623568E+03 -0.38549073813E+02  0.16992871063E+03  0.12499364103E+03 0.  0.
         25    2    1    2    0    0  0.12095324718E+02  0.10779623568E+03 -0.29422658490E+02  0.16809699567E+03  0.12499832725E+03 0.  0.
          5    1    4    4  502    0  0.33161196381E+02  0.90652079880E+02  0.31158196961E+02  0.10154007962E+03  0.47000000000E+01 0.  1.
         -5    1    4    4    0  502 -0.21065871663E+02  0.17144155801E+02 -0.60580855451E+02  0.66556916051E+02  0.47000000000E+01 0.  1.
          5    1    3    3  503    0 -0.87712368771E+01 -0.11801313367E+03  0.11064826945E+02  0.11894769737E+03  0.47000000000E+01 0. -1.
         -5    1    3    3    0  503 -0.33240878405E+01  0.10216897990E+02 -0.49613900758E+02  0.50981013259E+02  0.47000000000E+01 0. -1.
<mgrwt>
<rscale>  0 0.16550110E+03</rscale>
<asrwt>0</asrwt>
<pdfrwt beam="1">  1        5 0.20773383E-01 0.16550199E+03</pdfrwt>
<pdfrwt beam="2">  1       -5 0.31230572E-01 0.16550199E+03</pdfrwt>
<totfact> 0.16419863E+02</totfact>
</mgrwt>
</event>
<event>
 8    1  0.3682083E-007  0.1298120E+03  0.7546771E-02  0.1227735E+00
          5   -1    0    0  501    0  0.00000000000E+00  0.00000000000E+00  0.97744242211E+03  0.97745372194E+03  0.47000000000E+01 0. -1.
         -5   -1    0    0    0  501 -0.00000000000E+00 -0.00000000000E+00 -0.20777345620E+02  0.21302302482E+02  0.47000000000E+01 0. -1.
         25    2    1    2    0    0  0.32043338360E+02 -0.14085339105E+02  0.26584625801E+03  0.29584650652E+03  0.12500300080E+03 0.  0.
         25    2    1    2    0    0 -0.32043338360E+02  0.14085339105E+02  0.69081881847E+03  0.70290951790E+03  0.12500391230E+03 0.  0.
          5    1    4    4  502    0  0.47662093063E+02 -0.34784686916E+01  0.24728662189E+03  0.25190581221E+03  0.47000000000E+01 0.  1.
         -5    1    4    4    0  502 -0.79705431423E+02  0.17563807796E+02  0.44353219658E+03  0.45100370569E+03  0.47000000000E+01 0.  1.
          5    1    3    3  503    0  0.17979537594E+02  0.45468695276E+02  0.19953933923E+03  0.20549623822E+03  0.47000000000E+01 0. -1.
         -5    1    3    3    0  503  0.14063800766E+02 -0.59554034380E+02  0.66306918782E+02  0.90350268296E+02  0.47000000000E+01 0. -1.
<mgrwt>
<rscale>  0 0.12981176E+03</rscale>
<asrwt>0</asrwt>
<pdfrwt beam="1">  1        5 0.15041705E+00 0.12981198E+03</pdfrwt>
<pdfrwt beam="2">  1       -5 0.32377643E-02 0.12981198E+03</pdfrwt>
<totfact> 0.10523914E+02</totfact>
</mgrwt>
</event>
<event>
 8    1  0.3682083E-007  0.1578423E+03  0.7546771E-02  0.1191159E+00
         -5   -1    0    0    0  501 -0.00000000000E+00  0.00000000000E+00  0.36966174290E+03  0.36969162036E+03  0.47000000000E+01 0. -1.
          5   -1    0    0  501    0  0.00000000000E+00 -0.00000000000E+00 -0.67292470394E+02  0.67456404972E+02  0.47000000000E+01 0. -1.
         25    2    1    2    0    0 -0.43347218740E+02  0.86052518463E+02  0.14771133616E+03  0.21617780251E+03  0.12502074293E+03 0.  0.
         25    2    1    2    0    0  0.43347218740E+02 -0.86052518463E+02  0.15465793635E+03  0.22097022282E+03  0.12499897917E+03 0.  0.
          5    1    4    4  502    0 -0.30552062255E+02 -0.71488801996E+02  0.52367911909E+02  0.93853958449E+02  0.47000000000E+01 0. -1.
         -5    1    4    4    0  502  0.73899280995E+02 -0.14563716467E+02  0.10229002444E+03  0.12711626437E+03  0.47000000000E+01 0. -1.
          5    1    3    3  503    0  0.27409871938E+02  0.83688730445E+01  0.93379368368E+02  0.97791285667E+02  0.47000000000E+01 0.  1.
         -5    1    3    3    0  503 -0.70757090677E+02  0.77683645418E+02  0.54331967797E+02  0.11838651685E+03  0.47000000000E+01 0.  1.
<mgrwt>
<rscale>  0 0.15783803E+03</rscale>
<asrwt>0</asrwt>
<pdfrwt beam="2">  1        5 0.10367597E-01 0.15784234E+03</pdfrwt>
<pdfrwt beam="1">  1       -5 0.56885945E-01 0.15784234E+03</pdfrwt>
<totfact> 0.16485357E+02</totfact>
</mgrwt>
</event>
<event>
 8    1  0.3682083E-007  0.1284669E+03  0.7546771E-02  0.1229755E+00
         -5   -1    0    0    0  501 -0.00000000000E+00  0.00000000000E+00  0.24266781220E+03  0.24271332282E+03  0.47000000000E+01 0.  1.
          5   -1    0    0  501    0  0.00000000000E+00 -0.00000000000E+00 -0.68229264461E+02  0.68390953560E+02  0.47000000000E+01 0.  1.
         25    2    1    2    0    0 -0.22959590407E+02  0.18731313569E+02  0.98528125441E+02  0.16188583393E+03  0.12498490639E+03 0.  0.
         25    2    1    2    0    0  0.22959590407E+02 -0.18731313569E+02  0.75910422294E+02  0.14921844245E+03  0.12500298578E+03 0.  0.
          5    1    3    3  502    0  0.15479406437E+01 -0.50928573741E+02  0.22830907875E+02  0.56030849520E+02  0.47000000000E+01 0. -1.
         -5    1    3    3    0  502 -0.24507531051E+02  0.69659887310E+02  0.75697217567E+02  0.10585498442E+03  0.47000000000E+01 0. -1.
          5    1    4    4  503    0  0.67738070440E+02 -0.37397113246E+02  0.59735870757E+02  0.97864470167E+02  0.47000000000E+01 0. -1.
         -5    1    4    4    0  503 -0.44778480033E+02  0.18665799677E+02  0.16174551537E+02  0.51353972281E+02  0.47000000000E+01 0. -1.
<mgrwt>
<rscale>  0 0.12846253E+03</rscale>
<asrwt>0</asrwt>
<pdfrwt beam="2">  1        5 0.10512748E-01 0.12846693E+03</pdfrwt>
<pdfrwt beam="1">  1       -5 0.37349448E-01 0.12846693E+03</pdfrwt>
<totfact> 0.36213341E+02</totfact>
</mgrwt>
</event>
<event>
 8    1  0.3682083E-007  0.1509448E+03  0.7546771E-02  0.1199319E+00
         -5   -1    0    0    0  501 -0.00000000000E+00  0.00000000000E+00  0.10538500495E+04  0.10538605301E+04  0.47000000000E+01 0. -1.
          5   -1    0    0  501    0  0.00000000000E+00 -0.00000000000E+00 -0.24219459225E+02  0.24671283006E+02  0.47000000000E+01 0. -1.
         25    2    1    2    0    0  0.84379881865E+02 -0.59105876273E+01  0.69850348678E+03  0.71462679121E+03  0.12501771943E+03 0.  0.
         25    2    1    2    0    0 -0.84379881865E+02  0.59105876273E+01  0.33112710350E+03  0.36390502186E+03  0.12500722680E+03 0.  0.
          5    1    3    3  502    0  0.16745388171E+02 -0.30175353159E+02  0.53299874173E+03  0.53413547780E+03  0.47000000000E+01 0.  1.
         -5    1    3    3    0  502  0.67634493693E+02  0.24264765532E+02  0.16550474505E+03  0.18049131341E+03  0.47000000000E+01 0.  1.
          5    1    4    4  503    0 -0.61852030949E+02 -0.46604454614E+02  0.10459759808E+03  0.13023208686E+03  0.47000000000E+01 0.  1.
         -5    1    4    4    0  503 -0.22527850915E+02  0.52515042241E+02  0.22652950542E+03  0.23367293501E+03  0.47000000000E+01 0.  1.
<mgrwt>
<rscale>  0 0.15094262E+03</rscale>
<asrwt>0</asrwt>
<pdfrwt beam="2">  1        5 0.37616326E-02 0.15094479E+03</pdfrwt>
<pdfrwt beam="1">  1       -5 0.16216634E+00 0.15094479E+03</pdfrwt>
<totfact> 0.70065724E+01</totfact>
</mgrwt>
</event>
<event>
 8    1  0.3682083E-007  0.1887605E+03  0.7546771E-02  0.1159584E+00
         -5   -1    0    0    0  501 -0.00000000000E+00  0.00000000000E+00  0.40240798454E+02  0.40514341414E+02  0.47000000000E+01 0.  1.
          5   -1    0    0  501    0  0.00000000000E+00 -0.00000000000E+00 -0.88215132628E+03  0.88216384671E+03  0.47000000000E+01 0.  1.
         25    2    1    2    0    0 -0.12217623873E+03  0.71261905840E+02 -0.42212274851E+03  0.46240400833E+03  0.12499823828E+03 0.  0.
         25    2    1    2    0    0  0.12217623873E+03 -0.71261905840E+02 -0.41978777931E+03  0.46027417980E+03  0.12500099359E+03 0.  0.
          5    1    4    4  502    0  0.12228089849E+03 -0.72796644730E+02 -0.42779176094E+03  0.45086566774E+03  0.47000000000E+01 0.  1.
         -5    1    4    4    0  502 -0.10465976381E+00  0.15347388898E+01  0.80039816326E+01  0.94085120557E+01  0.47000000000E+01 0.  1.
          5    1    3    3  503    0 -0.52289216581E+02  0.34000902653E+02 -0.45071016691E+02  0.77095460939E+02  0.47000000000E+01 0. -1.
         -5    1    3    3    0  503 -0.69887022145E+02  0.37261003188E+02 -0.37705173182E+03  0.38530854739E+03  0.47000000000E+01 0. -1.
<mgrwt>
<rscale>  0 0.18876008E+03</rscale>
<asrwt>0</asrwt>
<pdfrwt beam="2">  1        5 0.13573758E+00 0.18876054E+03</pdfrwt>
<pdfrwt beam="1">  1       -5 0.62128976E-02 0.18876054E+03</pdfrwt>
<totfact> 0.52632016E+01</totfact>
</mgrwt>
</event>
<event>
 8    1  0.3682083E-007  0.1830510E+03  0.7546771E-02  0.1164883E+00
         -5   -1    0    0    0  501 -0.00000000000E+00  0.00000000000E+00  0.74856080086E+02  0.75003484758E+02  0.47000000000E+01 0.  1.
          5   -1    0    0  501    0  0.00000000000E+00 -0.00000000000E+00 -0.48125090437E+03  0.48127385443E+03  0.47000000000E+01 0.  1.
         25    2    1    2    0    0  0.24485075892E+02 -0.13146572005E+03 -0.12903708159E+03  0.22396033895E+03  0.12499964202E+03 0.  0.
         25    2    1    2    0    0 -0.24485075892E+02  0.13146572005E+03 -0.27735774269E+03  0.33231700024E+03  0.12499806689E+03 0.  0.
          5    1    4    4  502    0 -0.26801456592E+02 -0.55498035144E+01 -0.61870818016E+01  0.28451509199E+02  0.47000000000E+01 0.  1.
         -5    1    4    4    0  502  0.23163807002E+01  0.13701552357E+03 -0.27117066089E+03  0.30386549104E+03  0.47000000000E+01 0.  1.
          5    1    3    3  503    0  0.45624883473E+02  0.19795619146E+01 -0.19151134214E+02  0.49743387490E+02  0.47000000000E+01 0. -1.
         -5    1    3    3    0  503 -0.21139807581E+02 -0.13344528197E+03 -0.10988594738E+03  0.17421695146E+03  0.47000000000E+01 0. -1.
<mgrwt>
<rscale>  0 0.18305072E+03</rscale>
<asrwt>0</asrwt>
<pdfrwt beam="2">  1        5 0.74051703E-01 0.18305099E+03</pdfrwt>
<pdfrwt beam="1">  1       -5 0.11529425E-01 0.18305099E+03</pdfrwt>
<totfact> 0.79301259E+01</totfact>
</mgrwt>
</event>
<event>
 8    1  0.3682083E-007  0.1711245E+03  0.7546771E-02  0.1176681E+00
          5   -1    0    0  501    0  0.00000000000E+00  0.00000000000E+00  0.62808584168E+02  0.62984190438E+02  0.47000000000E+01 0. -1.
         -5   -1    0    0    0  501 -0.00000000000E+00 -0.00000000000E+00 -0.46578418596E+03  0.46580789806E+03  0.47000000000E+01 0. -1.
         25    2    1    2    0    0 -0.11622252146E+03  0.12290821286E+02 -0.20914716163E+03  0.27023251989E+03  0.12499736319E+03 0.  0.
         25    2    1    2    0    0  0.11622252146E+03 -0.12290821286E+02 -0.19382844016E+03  0.25855956861E+03  0.12499939009E+03 0.  0.
          5    1    3    3  502    0 -0.28168966133E+02  0.12098984617E+02  0.11137321207E+02  0.32954605224E+02  0.47000000000E+01 0. -1.
         -5    1    3    3    0  502 -0.88053555323E+02  0.19183666893E+00 -0.22028448284E+03  0.23727791466E+03  0.47000000000E+01 0. -1.
          5    1    4    4  503    0  0.34384045364E+02 -0.64937180677E+02 -0.79714938902E+02  0.10851572003E+03  0.47000000000E+01 0.  1.
         -5    1    4    4    0  503  0.81838476092E+02  0.52646359391E+02 -0.11411350126E+03  0.15004384858E+03  0.47000000000E+01 0.  1.
<mgrwt>
<rscale>  0 0.17112411E+03</rscale>
<asrwt>0</asrwt>
<pdfrwt beam="1">  1        5 0.96781916E-02 0.17112448E+03</pdfrwt>
<pdfrwt beam="2">  1       -5 0.71674435E-01 0.17112448E+03</pdfrwt>
<totfact> 0.11403132E+02</totfact>
</mgrwt>
</event>
<event>
 8    1  0.3682083E-007  0.1379409E+03  0.7546771E-02  0.1216147E+00
          5   -1    0    0  501    0  0.00000000000E+00  0.00000000000E+00  0.27332203151E+03  0.27336243874E+03  0.47000000000E+01 0.  1.
         -5   -1    0    0    0  501 -0.00000000000E+00 -0.00000000000E+00 -0.72891896073E+02  0.73043264666E+02  0.47000000000E+01 0.  1.
         25    2    1    2    0    0 -0.57787331278E+02 -0.68383424503E+01  0.62712165550E+02  0.15152727147E+03  0.12506622129E+03 0.  0.
         25    2    1    2    0    0  0.57787331278E+02  0.68383424503E+01  0.13771796989E+03  0.19487843193E+03  0.12500090166E+03 0.  0.
          5    1    3    3  502    0 -0.29541055421E+02  0.57184377257E+02  0.46501354855E+02  0.79543654436E+02  0.47000000000E+01 0.  1.
         -5    1    3    3    0  502 -0.28246275857E+02 -0.64022719707E+02  0.16210810695E+02  0.71983617038E+02  0.47000000000E+01 0.  1.
          5    1    4    4  503    0 -0.22826947880E+02 -0.33312879219E+02  0.74081151054E+02  0.84503990514E+02  0.47000000000E+01 0.  1.
         -5    1    4    4    0  503  0.80614279158E+02  0.40151221669E+02  0.63636818838E+02  0.11037444141E+03  0.47000000000E+01 0.  1.
<mgrwt>
<rscale>  0 0.13792612E+03</rscale>
<asrwt>0</asrwt>
<pdfrwt beam="1">  1        5 0.42064295E-01 0.13794092E+03</pdfrwt>
<pdfrwt beam="2">  1       -5 0.11228890E-01 0.13794092E+03</pdfrwt>
<totfact> 0.25949369E+02</totfact>
</mgrwt>
</event>
<event>
 8    1  0.3682083E-007  0.1895434E+03  0.7546771E-02  0.1158877E+00
          5   -1    0    0  501    0  0.00000000000E+00  0.00000000000E+00  0.43402102888E+02  0.43655841936E+02  0.47000000000E+01 0.  1.
         -5   -1    0    0    0  501 -0.00000000000E+00 -0.00000000000E+00 -0.88640362865E+03  0.88641608903E+03  0.47000000000E+01 0.  1.
         25    2    1    2    0    0  0.28615037913E+01 -0.14243357321E+03 -0.54386785118E+03  0.57595047898E+03  0.12502481237E+03 0.  0.
         25    2    1    2    0    0 -0.28615037913E+01  0.14243357321E+03 -0.29913367458E+03  0.35412145198E+03  0.12500214601E+03 0.  0.
          5    1    3    3  502    0  0.30077512819E+02  0.10725499520E+02 -0.12516880319E+03  0.12926334519E+03  0.47000000000E+01 0.  1.
         -5    1    3    3    0  502 -0.27216009028E+02 -0.15315907272E+03 -0.41869904799E+03  0.44668713379E+03  0.47000000000E+01 0.  1.
          5    1    4    4  503    0  0.40352653622E+02  0.12446513049E+03 -0.15711810572E+03  0.20451917883E+03  0.47000000000E+01 0. -1.
         -5    1    4    4    0  503 -0.43214157413E+02  0.17968442711E+02 -0.14201556886E+03  0.14960227315E+03  0.47000000000E+01 0. -1.
<mgrwt>
<rscale>  0 0.18953970E+03</rscale>
<asrwt>0</asrwt>
<pdfrwt beam="1">  1        5 0.66977241E-02 0.18954344E+03</pdfrwt>
<pdfrwt beam="2">  1       -5 0.13639025E+00 0.18954344E+03</pdfrwt>
<totfact> 0.45791531E+01</totfact>
</mgrwt>
</event>
<event>
 8    1  0.3682083E-007  0.1588623E+03  0.7546771E-02  0.1189995E+00
          5   -1    0    0  501    0  0.00000000000E+00  0.00000000000E+00  0.46659683148E+02  0.46895799721E+02  0.47000000000E+01 0.  1.
         -5   -1    0    0    0  501 -0.00000000000E+00 -0.00000000000E+00 -0.59487382657E+03  0.59489239324E+03  0.47000000000E+01 0.  1.
         25    2    1    2    0    0 -0.91778355948E+02 -0.34356351403E+02 -0.37229464841E+03  0.40477221214E+03  0.12503444718E+03 0.  0.
         25    2    1    2    0    0  0.91778355948E+02  0.34356351403E+02 -0.17591949501E+03  0.23701598083E+03  0.12500112375E+03 0.  0.
          5    1    3    3  502    0  0.20403840989E+02  0.19554063766E+02 -0.12046502286E+03  0.12382483543E+03  0.47000000000E+01 0.  1.
         -5    1    3    3    0  502 -0.11218219694E+03 -0.53910415169E+02 -0.25182962555E+03  0.28094737671E+03  0.47000000000E+01 0.  1.
          5    1    4    4  503    0  0.29031405591E+02  0.68732905824E+02 -0.43671162223E+02  0.86581148430E+02  0.47000000000E+01 0.  1.
         -5    1    4    4    0  503  0.62746950358E+02 -0.34376554421E+02 -0.13224833279E+03  0.15043483240E+03  0.47000000000E+01 0.  1.
<mgrwt>
<rscale>  0 0.15885577E+03</rscale>
<asrwt>0</asrwt>
<pdfrwt beam="1">  1        5 0.71980042E-02 0.15886233E+03</pdfrwt>
<pdfrwt beam="2">  1       -5 0.91538636E-01 0.15886233E+03</pdfrwt>
<totfact> 0.10518633E+02</totfact>
</mgrwt>
</event>
<event>
 8    1  0.3682083E-007  0.1453716E+03  0.7546771E-02  0.1206279E+00
          5   -1    0    0  501    0  0.00000000000E+00  0.00000000000E+00  0.12584333642E+03  0.12593107369E+03  0.47000000000E+01 0.  1.
         -5   -1    0    0    0  501 -0.00000000000E+00 -0.00000000000E+00 -0.16797508545E+03  0.16804082639E+03  0.47000000000E+01 0.  1.
         25    2    1    2    0    0  0.74204059370E+02  0.76638754548E+00 -0.26462767165E+02  0.14775831998E+03  0.12500165319E+03 0.  0.
         25    2    1    2    0    0 -0.74204059370E+02 -0.76638754548E+00 -0.15668981872E+02  0.14621358009E+03  0.12500425686E+03 0.  0.
          5    1    4    4  502    0 -0.92816934887E+02 -0.38910090627E+02 -0.21770493762E+02  0.10307775198E+03  0.47000000000E+01 0. -1.
         -5    1    4    4    0  502  0.18612875517E+02  0.38143703082E+02  0.61015118905E+01  0.43135828115E+02  0.47000000000E+01 0. -1.
          5    1    3    3  503    0  0.10065935879E+03 -0.25314400284E+02 -0.37601709993E+01  0.10396804442E+03  0.47000000000E+01 0.  1.
         -5    1    3    3    0  503 -0.26455299421E+02  0.26080787829E+02 -0.22702596166E+02  0.43790275563E+02  0.47000000000E+01 0.  1.
<mgrwt>
<rscale>  0 0.14537101E+03</rscale>
<asrwt>0</asrwt>
<pdfrwt beam="1">  1        5 0.19372319E-01 0.14537157E+03</pdfrwt>
<pdfrwt beam="2">  1       -5 0.25854127E-01 0.14537157E+03</pdfrwt>
<totfact> 0.25946015E+02</totfact>
</mgrwt>
</event>
<event>
 8    1  0.3682083E-007  0.1502920E+03  0.7546771E-02  0.1200118E+00
          5   -1    0    0  501    0  0.00000000000E+00  0.00000000000E+00  0.23508408429E+02  0.23973636913E+02  0.47000000000E+01 0.  1.
         -5   -1    0    0    0  501 -0.00000000000E+00 -0.00000000000E+00 -0.11959790090E+04  0.11959882441E+04  0.47000000000E+01 0.  1.
         25    2    1    2    0    0 -0.26172255523E+02  0.79214556978E+02 -0.86234018337E+03  0.87533894662E+03  0.12501098598E+03 0.  0.
         25    2    1    2    0    0  0.26172255523E+02 -0.79214556978E+02 -0.31013041725E+03  0.34462293442E+03  0.12499663287E+03 0.  0.
          5    1    4    4  502    0  0.58319764078E+02 -0.95442809880E+02 -0.25635599154E+03  0.27973381854E+03  0.47000000000E+01 0. -1.
         -5    1    4    4    0  502 -0.32147508555E+02  0.16228252902E+02 -0.53774425710E+02  0.64889115874E+02  0.47000000000E+01 0. -1.
          5    1    3    3  503    0 -0.55673945845E+02  0.46945172261E+02 -0.76563548694E+03  0.76910547151E+03  0.47000000000E+01 0. -1.
         -5    1    3    3    0  503  0.29501690322E+02  0.32269384717E+02 -0.96704696428E+02  0.10623347511E+03  0.47000000000E+01 0. -1.
<mgrwt>
<rscale>  0 0.15028900E+03</rscale>
<asrwt>0</asrwt>
<pdfrwt beam="1">  1        5 0.36531763E-02 0.15029198E+03</pdfrwt>
<pdfrwt beam="2">  1       -5 0.18403322E+00 0.15029198E+03</pdfrwt>
<totfact> 0.50866508E+01</totfact>
</mgrwt>
</event>
<event>
 8    1  0.3682083E-007  0.1771082E+03  0.7546771E-02  0.1170632E+00
         -5   -1    0    0    0  501 -0.00000000000E+00  0.00000000000E+00  0.45231634885E+02  0.45475166787E+02  0.47000000000E+01 0.  1.
          5   -1    0    0  501    0  0.00000000000E+00 -0.00000000000E+00 -0.70049785035E+03  0.70051361753E+03  0.47000000000E+01 0.  1.
         25    2    1    2    0    0 -0.65258953251E+02 -0.10715968540E+03 -0.37022140648E+03  0.41040294907E+03  0.12499904655E+03 0.  0.
         25    2    1    2    0    0  0.65258953251E+02  0.10715968540E+03 -0.28504480899E+03  0.33558583525E+03  0.12500152213E+03 0.  0.
          5    1    4    4  502    0 -0.40434412344E+01 -0.10613453855E+00 -0.14827465076E+03  0.14840425445E+03  0.47000000000E+01 0. -1.
         -5    1    4    4    0  502  0.69302394485E+02  0.10726581993E+03 -0.13677015823E+03  0.18718158080E+03  0.47000000000E+01 0. -1.
          5    1    3    3  503    0  0.18390637500E+02 -0.89084514792E+02 -0.17853080499E+03  0.20042356312E+03  0.47000000000E+01 0. -1.
         -5    1    3    3    0  503 -0.83649590750E+02 -0.18075170603E+02 -0.19169060149E+03  0.20997938595E+03  0.47000000000E+01 0. -1.
<mgrwt>
<rscale>  0 0.17710775E+03</rscale>
<asrwt>0</asrwt>
<pdfrwt beam="2">  1        5 0.10778884E+00 0.17710819E+03</pdfrwt>
<pdfrwt beam="1">  1       -5 0.69786597E-02 0.17710819E+03</pdfrwt>
<totfact> 0.76773170E+01</totfact>
</mgrwt>
</event>
<event>
 8    1  0.3682083E-007  0.1251018E+03  0.7546771E-02  0.1234913E+00
         -5   -1    0    0    0  501 -0.00000000000E+00  0.00000000000E+00  0.18429388254E+03  0.18435380425E+03  0.47000000000E+01 0.  1.
          5   -1    0    0  501    0  0.00000000000E+00 -0.00000000000E+00 -0.88075265903E+02  0.88200580859E+02  0.47000000000E+01 0.  1.
         25    2    1    2    0    0  0.47912227813E+01 -0.79371876642E+00  0.74451459450E+02  0.14557982728E+03  0.12500752174E+03 0.  0.
         25    2    1    2    0    0 -0.47912227813E+01  0.79371876642E+00  0.21767157189E+02  0.12697455783E+03  0.12500057360E+03 0.  0.
          5    1    3    3  502    0  0.51187564549E+01 -0.12550327766E+00  0.10974604076E+03  0.10996590781E+03  0.47000000000E+01 0.  1.
         -5    1    3    3    0  502 -0.32753367360E+00 -0.66821548876E+00 -0.35294581307E+02  0.35613919468E+02  0.47000000000E+01 0.  1.
          5    1    4    4  503    0 -0.49824178111E+02  0.92689389813E+01 -0.28874692699E+02  0.58516662864E+02  0.47000000000E+01 0. -1.
         -5    1    4    4    0  503  0.45032955330E+02 -0.84752202149E+01  0.50641849888E+02  0.68457894968E+02  0.47000000000E+01 0. -1.
<mgrwt>
<rscale>  0 0.12510009E+03</rscale>
<asrwt>0</asrwt>
<pdfrwt beam="2">  1        5 0.13564290E-01 0.12510182E+03</pdfrwt>
<pdfrwt beam="1">  1       -5 0.28367154E-01 0.12510182E+03</pdfrwt>
<totfact> 0.39402846E+02</totfact>
</mgrwt>
</event>
<event>
 8    1  0.3682083E-007  0.1448500E+03  0.7546771E-02  0.1206948E+00
         -5   -1    0    0    0  501 -0.00000000000E+00  0.00000000000E+00  0.12303574357E+03  0.12312548150E+03  0.47000000000E+01 0. -1.
          5   -1    0    0  501    0  0.00000000000E+00 -0.00000000000E+00 -0.17385726250E+03  0.17392078002E+03  0.47000000000E+01 0. -1.
         25    2    1    2    0    0  0.55264876745E+02 -0.47964267859E+02 -0.43160827144E+01  0.14491379960E+03  0.12500641244E+03 0.  0.
         25    2    1    2    0    0 -0.55264876745E+02  0.47964267859E+02 -0.46505436216E+02  0.15213246192E+03  0.12500701092E+03 0.  0.
          5    1    4    4  502    0 -0.21477149401E+02  0.65744205510E+02  0.22707786656E+02  0.72947255461E+02  0.47000000000E+01 0. -1.
         -5    1    4    4    0  502 -0.33787727344E+02 -0.17779937651E+02 -0.69213222872E+02  0.79185206461E+02  0.47000000000E+01 0. -1.
          5    1    3    3  503    0 -0.65343853873E+01 -0.62557245727E+02 -0.37225998197E+02  0.73239143407E+02  0.47000000000E+01 0.  1.
         -5    1    3    3    0  503  0.61799262132E+02  0.14592977868E+02  0.32909915482E+02  0.71674656191E+02  0.47000000000E+01 0.  1.
<mgrwt>
<rscale>  0 0.14484990E+03</rscale>
<asrwt>0</asrwt>
<pdfrwt beam="2">  1        5 0.26759060E-01 0.14485003E+03</pdfrwt>
<pdfrwt beam="1">  1       -5 0.18940365E-01 0.14485003E+03</pdfrwt>
<totfact> 0.25288159E+02</totfact>
</mgrwt>
</event>
<event>
 8    1  0.3682083E-007  0.1567081E+03  0.7546771E-02  0.1192470E+00
          5   -1    0    0  501    0  0.00000000000E+00  0.00000000000E+00  0.20342628619E+03  0.20348057380E+03  0.47000000000E+01 0. -1.
         -5   -1    0    0    0  501 -0.00000000000E+00 -0.00000000000E+00 -0.12061494817E+03  0.12070648583E+03  0.47000000000E+01 0. -1.
         25    2    1    2    0    0  0.47451297460E+01 -0.94398076021E+02  0.43853169381E+02  0.16270901176E+03  0.12497043263E+03 0.  0.
         25    2    1    2    0    0 -0.47451297460E+01  0.94398076021E+02  0.38958168642E+02  0.16147804787E+03  0.12499563203E+03 0.  0.
          5    1    4    4  502    0  0.25239602851E+02  0.52405946348E+02  0.77420001707E+02  0.96950334858E+02  0.47000000000E+01 0.  1.
         -5    1    4    4    0  502 -0.29984732597E+02  0.41992129673E+02 -0.38461833065E+02  0.64527713009E+02  0.47000000000E+01 0.  1.
          5    1    3    3  503    0 -0.15853481690E+02 -0.11527810553E+03  0.88401963160E+01  0.11679303733E+03  0.47000000000E+01 0.  1.
         -5    1    3    3    0  503  0.20598611436E+02  0.20880029514E+02  0.35012973065E+02  0.45915974436E+02  0.47000000000E+01 0.  1.
<mgrwt>
<rscale>  0 0.15670305E+03</rscale>
<asrwt>0</asrwt>
<pdfrwt beam="1">  1        5 0.31307569E-01 0.15670808E+03</pdfrwt>
<pdfrwt beam="2">  1       -5 0.18567363E-01 0.15670808E+03</pdfrwt>
<totfact> 0.19810514E+02</totfact>
</mgrwt>
</event>
<event>
 8    1  0.3682083E-007  0.1799323E+03  0.7546771E-02  0.1167870E+00
          5   -1    0    0  501    0  0.00000000000E+00  0.00000000000E+00  0.58353844962E+02  0.58542815288E+02  0.47000000000E+01 0.  1.
         -5   -1    0    0    0  501 -0.00000000000E+00 -0.00000000000E+00 -0.61580001003E+03  0.61581794578E+03  0.47000000000E+01 0.  1.
         25    2    1    2    0    0  0.34502620541E+01  0.12937365886E+03 -0.38577647657E+03  0.42567195990E+03  0.12499471849E+03 0.  0.
         25    2    1    2    0    0 -0.34502620541E+01 -0.12937365886E+03 -0.17166968849E+03  0.24868880117E+03  0.12500475978E+03 0.  0.
          5    1    4    4  502    0 -0.54109250771E+02 -0.10257850260E+03 -0.14377199336E+03  0.18477726129E+03  0.47000000000E+01 0.  1.
         -5    1    4    4    0  502  0.50658988717E+02 -0.26795156256E+02 -0.27897695130E+02  0.63911539882E+02  0.47000000000E+01 0.  1.
          5    1    3    3  503    0  0.28770991307E+02 -0.15201164071E+02 -0.63130743491E+02  0.71178831850E+02  0.47000000000E+01 0.  1.
         -5    1    3    3    0  503 -0.25320729252E+02  0.14457482293E+03 -0.32264573308E+03  0.35449312805E+03  0.47000000000E+01 0.  1.
<mgrwt>
<rscale>  0 0.17993057E+03</rscale>
<asrwt>0</asrwt>
<pdfrwt beam="1">  1        5 0.89934309E-02 0.17993231E+03</pdfrwt>
<pdfrwt beam="2">  1       -5 0.94754375E-01 0.17993231E+03</pdfrwt>
<totfact> 0.68392921E+01</totfact>
</mgrwt>
</event>
<event>
 8    1  0.3682083E-007  0.1430493E+03  0.7546771E-02  0.1209285E+00
          5   -1    0    0  501    0  0.00000000000E+00  0.00000000000E+00  0.26487638563E+02  0.26901393954E+02  0.47000000000E+01 0.  1.
         -5   -1    0    0    0  501 -0.00000000000E+00 -0.00000000000E+00 -0.10009819694E+04  0.10009930036E+04  0.47000000000E+01 0.  1.
         25    2    1    2    0    0 -0.21630246072E+02  0.66111880885E+02 -0.73613769304E+03  0.74990698509E+03  0.12499253908E+03 0.  0.
         25    2    1    2    0    0  0.21630246072E+02 -0.66111880885E+02 -0.23835663784E+03  0.27798741242E+03  0.12499786526E+03 0.  0.
          5    1    4    4  502    0  0.28080731570E+02  0.10263296511E+02 -0.29918033330E+01  0.30412228264E+02  0.47000000000E+01 0.  1.
         -5    1    4    4    0  502 -0.64504854985E+01 -0.76375177396E+02 -0.23536483451E+03  0.24757518416E+03  0.47000000000E+01 0.  1.
          5    1    3    3  503    0 -0.29657181762E+01  0.57642457399E+01  0.26306643877E+01  0.84280726368E+01  0.47000000000E+01 0. -1.
         -5    1    3    3    0  503 -0.18664527896E+02  0.60347635145E+02 -0.73876835743E+03  0.74147891245E+03  0.47000000000E+01 0. -1.
<mgrwt>
<rscale>  0 0.14304818E+03</rscale>
<asrwt>0</asrwt>
<pdfrwt beam="1">  1        5 0.41076982E-02 0.14304934E+03</pdfrwt>
<pdfrwt beam="2">  1       -5 0.15402987E+00 0.14304934E+03</pdfrwt>
<totfact> 0.68926068E+01</totfact>
</mgrwt>
</event>
<event>
 8    1  0.3682083E-007  0.1428960E+03  0.7546771E-02  0.1209485E+00
         -5   -1    0    0    0  501 -0.00000000000E+00  0.00000000000E+00  0.42513917411E+03  0.42516515304E+03  0.47000000000E+01 0.  1.
          5   -1    0    0  501    0  0.00000000000E+00 -0.00000000000E+00 -0.48198544221E+02  0.48427158342E+02  0.47000000000E+01 0.  1.
         25    2    1    2    0    0  0.66863289493E+02 -0.17986836418E+02  0.16948265972E+03  0.22168363924E+03  0.12500015278E+03 0.  0.
         25    2    1    2    0    0 -0.66863289493E+02  0.17986836418E+02  0.20745797017E+03  0.25190867215E+03  0.12499977580E+03 0.  0.
          5    1    3    3  502    0 -0.32743499297E+01  0.46842160717E+02  0.52552103876E+02  0.70630892744E+02  0.47000000000E+01 0. -1.
         -5    1    3    3    0  502  0.70137639423E+02 -0.64828997135E+02  0.11693055585E+03  0.15105274649E+03  0.47000000000E+01 0. -1.
          5    1    4    4  503    0  0.12566228857E+02  0.48378200343E+02  0.40591854754E+02  0.64561203896E+02  0.47000000000E+01 0. -1.
         -5    1    4    4    0  503 -0.79429518351E+02 -0.30391363925E+02  0.16686611541E+03  0.18734746825E+03  0.47000000000E+01 0. -1.
<mgrwt>
<rscale>  0 0.14289591E+03</rscale>
<asrwt>0</asrwt>
<pdfrwt beam="2">  1        5 0.74347448E-02 0.14289599E+03</pdfrwt>
<pdfrwt beam="1">  1       -5 0.65425610E-01 0.14289599E+03</pdfrwt>
<totfact> 0.20856003E+02</totfact>
</mgrwt>
</event>
<event>
 8    1  0.3682083E-007  0.1310353E+03  0.7546771E-02  0.1225928E+00
          5   -1    0    0  501    0  0.00000000000E+00  0.00000000000E+00  0.72184670430E+02  0.72337518931E+02  0.47000000000E+01 0. -1.
         -5   -1    0    0    0  501 -0.00000000000E+00 -0.00000000000E+00 -0.28661430207E+03  0.28665283558E+03  0.47000000000E+01 0. -1.
         25    2    1    2    0    0  0.24700792350E+02  0.30568956593E+02 -0.18154004487E+03  0.22389047728E+03  0.12500227068E+03 0.  0.
         25    2    1    2    0    0 -0.24700792350E+02 -0.30568956593E+02 -0.32889586767E+02  0.13509987724E+03  0.12500264662E+03 0.  0.
          5    1    3    3  502    0 -0.50257701336E+02  0.21854095423E+02 -0.67692609744E+02  0.87222803465E+02  0.47000000000E+01 0.  1.
         -5    1    3    3    0  502  0.74958493686E+02  0.87148611694E+01 -0.11384743512E+03  0.13666767381E+03  0.47000000000E+01 0.  1.
          5    1    4    4  503    0 -0.90673061707E+01 -0.70179660867E+02  0.13239759493E+02  0.72144175593E+02  0.47000000000E+01 0. -1.
         -5    1    4    4    0  503 -0.15633486180E+02  0.39610704274E+02 -0.46129346260E+02  0.62955701645E+02  0.47000000000E+01 0. -1.
<mgrwt>
<rscale>  0 0.13103522E+03</rscale>
<asrwt>0</asrwt>
<pdfrwt beam="1">  1        5 0.11120056E-01 0.13103531E+03</pdfrwt>
<pdfrwt beam="2">  1       -5 0.44109229E-01 0.13103531E+03</pdfrwt>
<totfact> 0.23510918E+02</totfact>
</mgrwt>
</event>
<event>
 8    1  0.3682083E-007  0.1293398E+03  0.7546771E-02  0.1228454E+00
         -5   -1    0    0    0  501 -0.00000000000E+00  0.00000000000E+00  0.12738863104E+03  0.12747530473E+03  0.47000000000E+01 0.  1.
          5   -1    0    0  501    0  0.00000000000E+00 -0.00000000000E+00 -0.13622125682E+03  0.13630231403E+03  0.47000000000E+01 0.  1.
         25    2    1    2    0    0 -0.33188234301E+02 -0.11457398893E+01  0.21128320964E+02  0.13105414486E+03  0.12500404522E+03 0.  0.
         25    2    1    2    0    0  0.33188234301E+02  0.11457398893E+01 -0.29960946750E+02  0.13272347391E+03  0.12496035603E+03 0.  0.
          5    1    3    3  502    0 -0.51594839145E+02  0.33952336987E+02  0.51778259051E+02  0.80733306160E+02  0.47000000000E+01 0.  1.
         -5    1    3    3    0  502  0.18406604844E+02 -0.35098076876E+02 -0.30649938086E+02  0.50320838695E+02  0.47000000000E+01 0.  1.
          5    1    4    4  503    0 -0.23818046710E+01 -0.58896990040E+02 -0.17579867548E+02  0.61690114056E+02  0.47000000000E+01 0.  1.
         -5    1    4    4    0  503  0.35570038972E+02  0.60042729929E+02 -0.12381079203E+02  0.71033359853E+02  0.47000000000E+01 0.  1.
<mgrwt>
<rscale>  0 0.12932924E+03</rscale>
<asrwt>0</asrwt>
<pdfrwt beam="2">  1        5 0.20970019E-01 0.12933980E+03</pdfrwt>
<pdfrwt beam="1">  1       -5 0.19611153E-01 0.12933980E+03</pdfrwt>
<totfact> 0.36248546E+02</totfact>
</mgrwt>
</event>
<event>
 8    1  0.3682083E-007  0.1679279E+03  0.7546771E-02  0.1180033E+00
          5   -1    0    0  501    0  0.00000000000E+00  0.00000000000E+00  0.75735983543E+03  0.75737441885E+03  0.47000000000E+01 0.  1.
         -5   -1    0    0    0  501 -0.00000000000E+00 -0.00000000000E+00 -0.38172233766E+02  0.38460491815E+02  0.47000000000E+01 0.  1.
         25    2    1    2    0    0  0.74831667225E+02  0.83479347177E+02  0.29206116450E+03  0.33688308487E+03  0.12498763633E+03 0.  0.
         25    2    1    2    0    0 -0.74831667225E+02 -0.83479347177E+02  0.42712643717E+03  0.45895182580E+03  0.12502481854E+03 0.  0.
          5    1    3    3  502    0  0.59918596923E+02  0.21742735050E+02  0.36703492897E+02  0.73703603545E+02  0.47000000000E+01 0. -1.
         -5    1    3    3    0  502  0.14913070302E+02  0.61736612126E+02  0.25535767160E+03  0.26317948132E+03  0.47000000000E+01 0. -1.
          5    1    4    4  503    0 -0.95082279381E+02 -0.53545418270E+02  0.19096016080E+03  0.21999005588E+03  0.47000000000E+01 0.  1.
         -5    1    4    4    0  503  0.20250612156E+02 -0.29933928907E+02  0.23616627636E+03  0.23896176992E+03  0.47000000000E+01 0.  1.
<mgrwt>
<rscale>  0 0.16792100E+03</rscale>
<asrwt>0</asrwt>
<pdfrwt beam="1">  1        5 0.11654020E+00 0.16792792E+03</pdfrwt>
<pdfrwt beam="2">  1       -5 0.58959466E-02 0.16792792E+03</pdfrwt>
<totfact> 0.82737503E+01</totfact>
</mgrwt>
</event>
<event>
 8    1  0.3682083E-007  0.1490548E+03  0.7546771E-02  0.1201641E+00
          5   -1    0    0  501    0  0.00000000000E+00  0.00000000000E+00  0.55926736688E+03  0.55928711558E+03  0.47000000000E+01 0. -1.
         -5   -1    0    0    0  501 -0.00000000000E+00 -0.00000000000E+00 -0.40882806383E+02  0.41152082059E+02  0.47000000000E+01 0. -1.
         25    2    1    2    0    0 -0.78352877375E+02  0.21266168411E+02  0.31290593997E+03  0.34659410668E+03  0.12500369675E+03 0.  0.
         25    2    1    2    0    0  0.78352877375E+02 -0.21266168411E+02  0.20547862052E+03  0.25384509096E+03  0.12499777359E+03 0.  0.
          5    1    4    4  502    0 -0.29481901275E+02 -0.10522708457E+02  0.90033666168E+02  0.95436161594E+02  0.47000000000E+01 0.  1.
         -5    1    4    4    0  502  0.10783477865E+03 -0.10743459954E+02  0.11544495435E+03  0.15840892937E+03  0.47000000000E+01 0.  1.
          5    1    3    3  503    0 -0.75500135432E+02  0.14627676403E+02  0.32372140394E+03  0.33276399556E+03  0.47000000000E+01 0. -1.
         -5    1    3    3    0  503 -0.28527419425E+01  0.66384920076E+01 -0.10815463971E+02  0.13830111121E+02  0.47000000000E+01 0. -1.
<mgrwt>
<rscale>  0 0.14905361E+03</rscale>
<asrwt>0</asrwt>
<pdfrwt beam="1">  1        5 0.86063364E-01 0.14905485E+03</pdfrwt>
<pdfrwt beam="2">  1       -5 0.63118953E-02 0.14905485E+03</pdfrwt>
<totfact> 0.14912688E+02</totfact>
</mgrwt>
</event>
<event>
 8    1  0.3682083E-007  0.1504468E+03  0.7546771E-02  0.1199927E+00
         -5   -1    0    0    0  501 -0.00000000000E+00  0.00000000000E+00  0.35897357947E+03  0.35900434644E+03  0.47000000000E+01 0. -1.
          5   -1    0    0  501    0  0.00000000000E+00 -0.00000000000E+00 -0.12508580717E+03  0.12517407541E+03  0.47000000000E+01 0. -1.
         25    2    1    2    0    0 -0.73722497903E+02 -0.39674754861E+02  0.28748594305E+03  0.32446929016E+03  0.12499223951E+03 0.  0.
         25    2    1    2    0    0  0.73722497903E+02  0.39674754861E+02 -0.53598170746E+02  0.15970913168E+03  0.12500059986E+03 0.  0.
          5    1    3    3  502    0  0.34256852844E+02 -0.63796008833E+00  0.82785789745E+02  0.89719094643E+02  0.47000000000E+01 0.  1.
         -5    1    3    3    0  502 -0.10797935075E+03 -0.39036794773E+02  0.20470015331E+03  0.23475019552E+03  0.47000000000E+01 0.  1.
          5    1    4    4  503    0  0.76288336595E+02 -0.28806165034E+02 -0.26586988455E+02  0.85899146675E+02  0.47000000000E+01 0.  1.
         -5    1    4    4    0  503 -0.25658386924E+01  0.68480919895E+02 -0.27011182291E+02  0.73809985006E+02  0.47000000000E+01 0.  1.
<mgrwt>
<rscale>  0 0.15044507E+03</rscale>
<asrwt>0</asrwt>
<pdfrwt beam="2">  1        5 0.19253127E-01 0.15044681E+03</pdfrwt>
<pdfrwt beam="1">  1       -5 0.55235861E-01 0.15044681E+03</pdfrwt>
<totfact> 0.56634183E+01</totfact>
</mgrwt>
</event>
<event>
 8    1  0.3682083E-007  0.1270121E+03  0.7546771E-02  0.1231959E+00
          5   -1    0    0  501    0  0.00000000000E+00  0.00000000000E+00  0.22226087913E+03  0.22231056743E+03  0.47000000000E+01 0.  1.
         -5   -1    0    0    0  501 -0.00000000000E+00 -0.00000000000E+00 -0.76826611555E+02  0.76970242582E+02  0.47000000000E+01 0.  1.
         25    2    1    2    0    0  0.19488408385E+02 -0.11251942957E+02  0.37030549884E+02  0.13229749434E+03  0.12499984441E+03 0.  0.
         25    2    1    2    0    0 -0.19488408385E+02  0.11251942957E+02  0.10840371769E+03  0.16698331567E+03  0.12500262966E+03 0.  0.
          5    1    4    4  502    0 -0.74458382248E+01 -0.17943776500E+02  0.12797920260E+03  0.12953063699E+03  0.47000000000E+01 0. -1.
         -5    1    4    4    0  502 -0.12042570160E+02  0.29195719458E+02 -0.19575484911E+02  0.37452678679E+02  0.47000000000E+01 0. -1.
          5    1    3    3  503    0  0.23375283022E+02 -0.66778663197E+02  0.16659660993E+02  0.72838369141E+02  0.47000000000E+01 0. -1.
         -5    1    3    3    0  503 -0.38868746374E+01  0.55526720239E+02  0.20370888891E+02  0.59459125197E+02  0.47000000000E+01 0. -1.
<mgrwt>
<rscale>  0 0.12701137E+03</rscale>
<asrwt>0</asrwt>
<pdfrwt beam="1">  1        5 0.34208851E-01 0.12701205E+03</pdfrwt>
<pdfrwt beam="2">  1       -5 0.11834350E-01 0.12701205E+03</pdfrwt>
<totfact> 0.34929503E+02</totfact>
</mgrwt>
</event>
<event>
 8    1  0.3682083E-007  0.2099445E+03  0.7546771E-02  0.1141612E+00
         -5   -1    0    0    0  501 -0.00000000000E+00  0.00000000000E+00  0.32191528667E+03  0.32194959511E+03  0.47000000000E+01 0.  1.
          5   -1    0    0  501    0  0.00000000000E+00 -0.00000000000E+00 -0.15845227314E+03  0.15852196335E+03  0.47000000000E+01 0.  1.
         25    2    1    2    0    0 -0.12396650595E+03  0.11439239783E+03  0.17044154111E+03  0.27042009373E+03  0.12499357133E+03 0.  0.
         25    2    1    2    0    0  0.12396650595E+03 -0.11439239783E+03 -0.69785275833E+01  0.21005146474E+03  0.12497840898E+03 0.  0.
          5    1    4    4  502    0  0.14886766831E+03 -0.89928590288E+02  0.76889044642E+00  0.17398682482E+03  0.47000000000E+01 0. -1.
         -5    1    4    4    0  502 -0.24901162357E+02 -0.24463807542E+02 -0.77474180297E+01  0.36064639916E+02  0.47000000000E+01 0. -1.
          5    1    3    3  503    0 -0.74835508773E+02  0.13628263181E+03  0.13370250330E+03  0.20511401340E+03  0.47000000000E+01 0. -1.
         -5    1    3    3    0  503 -0.49130997181E+02 -0.21890233980E+02  0.36739037814E+02  0.65306080323E+02  0.47000000000E+01 0. -1.
<mgrwt>
<rscale>  0 0.20994228E+03</rscale>
<asrwt>0</asrwt>
<pdfrwt beam="2">  1        5 0.24385273E-01 0.20994454E+03</pdfrwt>
<pdfrwt beam="1">  1       -5 0.49533428E-01 0.20994454E+03</pdfrwt>
<totfact> 0.50216516E+01</totfact>
</mgrwt>
</event>
<event>
 8    1  0.3682083E-007  0.1679751E+03  0.7546771E-02  0.1179976E+00
          5   -1    0    0  501    0  0.00000000000E+00  0.00000000000E+00  0.13824023739E+03  0.13832011145E+03  0.47000000000E+01 0. -1.
         -5   -1    0    0    0  501 -0.00000000000E+00 -0.00000000000E+00 -0.21277101513E+03  0.21282291907E+03  0.47000000000E+01 0. -1.
         25    2    1    2    0    0 -0.11018416603E+02 -0.11167653888E+03 -0.73024526939E+02  0.18316116753E+03  0.12498950722E+03 0.  0.
         25    2    1    2    0    0  0.11018416603E+02  0.11167653888E+03 -0.15062508082E+01  0.16798186299E+03  0.12499033028E+03 0.  0.
          5    1    4    4  502    0  0.92955799704E+01  0.13352095959E+03  0.21754188979E+02  0.13568194130E+03  0.47000000000E+01 0.  1.
         -5    1    4    4    0  502  0.17228366321E+01 -0.21844420714E+02 -0.23260439788E+02  0.32299921695E+02  0.47000000000E+01 0.  1.
          5    1    3    3  503    0 -0.15978198296E+00 -0.13851203429E+03 -0.58484102501E+02  0.15042635879E+03  0.47000000000E+01 0. -1.
         -5    1    3    3    0  503 -0.10858634620E+02  0.26835495416E+02 -0.14540424439E+02  0.32734808734E+02  0.47000000000E+01 0. -1.
<mgrwt>
<rscale>  0 0.16797496E+03</rscale>
<asrwt>0</asrwt>
<pdfrwt beam="1">  1        5 0.21277866E-01 0.16797511E+03</pdfrwt>
<pdfrwt beam="2">  1       -5 0.32744139E-01 0.16797511E+03</pdfrwt>
<totfact> 0.14350272E+02</totfact>
</mgrwt>
</event>
<event>
 8    1  0.3682083E-007  0.1289936E+03  0.7546771E-02  0.1228960E+00
         -5   -1    0    0    0  501 -0.00000000000E+00  0.00000000000E+00  0.45653172082E+03  0.45655591345E+03  0.47000000000E+01 0.  1.
          5   -1    0    0  501    0  0.00000000000E+00 -0.00000000000E+00 -0.40975037339E+02  0.41243710853E+02  0.47000000000E+01 0.  1.
         25    2    1    2    0    0 -0.41209997600E+01  0.31544756674E+02  0.29182922028E+03  0.31906681976E+03  0.12500914905E+03 0.  0.
         25    2    1    2    0    0  0.41209997600E+01 -0.31544756674E+02  0.12372746319E+03  0.17873280455E+03  0.12499950385E+03 0.  0.
          5    1    3    3  502    0  0.55408488181E+02 -0.87218836261E+01  0.14449037929E+03  0.15506686146E+03  0.47000000000E+01 0. -1.
         -5    1    3    3    0  502 -0.59529487941E+02  0.40266640300E+02  0.14733884099E+03  0.16399995829E+03  0.47000000000E+01 0. -1.
          5    1    4    4  503    0 -0.53032887380E+02 -0.45352517812E+02  0.69825636703E+02  0.98828374249E+02  0.47000000000E+01 0.  1.
         -5    1    4    4    0  503  0.57153887140E+02  0.13807761138E+02  0.53901826490E+02  0.79904430302E+02  0.47000000000E+01 0.  1.
<mgrwt>
<rscale>  0 0.12899124E+03</rscale>
<asrwt>0</asrwt>
<pdfrwt beam="2">  1        5 0.63263804E-02 0.12899357E+03</pdfrwt>
<pdfrwt beam="1">  1       -5 0.70258174E-01 0.12899357E+03</pdfrwt>
<totfact> 0.22579895E+02</totfact>
</mgrwt>
</event>
<event>
 8    1  0.3682083E-007  0.1515557E+03  0.7546771E-02  0.1198578E+00
          5   -1    0    0  501    0  0.00000000000E+00  0.00000000000E+00  0.13047214554E+04  0.13047299208E+04  0.47000000000E+01 0.  1.
         -5   -1    0    0    0  501 -0.00000000000E+00 -0.00000000000E+00 -0.19561238294E+02  0.20117953265E+02  0.47000000000E+01 0.  1.
         25    2    1    2    0    0 -0.37416105494E+02  0.77094566734E+02  0.41977698417E+03  0.44629379379E+03  0.12498758644E+03 0.  0.
         25    2    1    2    0    0  0.37416105494E+02 -0.77094566734E+02  0.86538323294E+03  0.87855408027E+03  0.12500237967E+03 0.  0.
          5    1    3    3  502    0 -0.80945589181E+01  0.98914122227E+02  0.19858451699E+03  0.22205275465E+03  0.47000000000E+01 0. -1.
         -5    1    3    3    0  502 -0.29321546576E+02 -0.21819555493E+02  0.22119246718E+03  0.22424103914E+03  0.47000000000E+01 0. -1.
          5    1    4    4  503    0 -0.36447086929E+02 -0.38786788938E+02  0.54116160238E+03  0.54379295236E+03  0.47000000000E+01 0. -1.
         -5    1    4    4    0  503  0.73863192423E+02 -0.38307777796E+02  0.32422163056E+03  0.33476112791E+03  0.47000000000E+01 0. -1.
<mgrwt>
<rscale>  0 0.15155266E+03</rscale>
<asrwt>0</asrwt>
<pdfrwt beam="1">  1        5 0.20076990E+00 0.15155571E+03</pdfrwt>
<pdfrwt beam="2">  1       -5 0.30528960E-02 0.15155571E+03</pdfrwt>
<totfact> 0.52333151E+01</totfact>
</mgrwt>
</event>
<event>
 8    1  0.3682083E-007  0.1275322E+03  0.7546771E-02  0.1231167E+00
         -5   -1    0    0    0  501 -0.00000000000E+00  0.00000000000E+00  0.40417475451E+02  0.40689830693E+02  0.47000000000E+01 0. -1.
          5   -1    0    0  501    0  0.00000000000E+00 -0.00000000000E+00 -0.49959110302E+03  0.49961321061E+03  0.47000000000E+01 0. -1.
         25    2    1    2    0    0 -0.25190610811E+02 -0.21200643210E+01 -0.10945364556E+03  0.16805510059E+03  0.12499341888E+03 0.  0.
         25    2    1    2    0    0  0.25190610811E+02  0.21200643210E+01 -0.34971998200E+03  0.37224794071E+03  0.12500160800E+03 0.  0.
          5    1    4    4  502    0  0.26901023076E+02  0.60854160185E+02 -0.15351232581E+03  0.16737687424E+03  0.47000000000E+01 0.  1.
         -5    1    4    4    0  502 -0.17104122651E+01 -0.58734095864E+02 -0.19620765619E+03  0.20487106647E+03  0.47000000000E+01 0.  1.
          5    1    3    3  503    0  0.77999576748E+01 -0.19113691299E+02 -0.12555698905E+03  0.12732957250E+03  0.47000000000E+01 0. -1.
         -5    1    3    3    0  503 -0.32990568485E+02  0.16993626978E+02  0.16103343486E+02  0.40725528091E+02  0.47000000000E+01 0. -1.
<mgrwt>
<rscale>  0 0.12753020E+03</rscale>
<asrwt>0</asrwt>
<pdfrwt beam="2">  1        5 0.76882816E-01 0.12753221E+03</pdfrwt>
<pdfrwt beam="1">  1       -5 0.62407245E-02 0.12753221E+03</pdfrwt>
<totfact> 0.18752692E+02</totfact>
</mgrwt>
</event>
<event>
 8    1  0.3682083E-007  0.2153887E+03  0.7546771E-02  0.1137368E+00
         -5   -1    0    0    0  501 -0.00000000000E+00  0.00000000000E+00  0.15669181436E+03  0.15676228719E+03  0.47000000000E+01 0. -1.
          5   -1    0    0  501    0  0.00000000000E+00 -0.00000000000E+00 -0.34654860126E+03  0.34658047123E+03  0.47000000000E+01 0. -1.
         25    2    1    2    0    0  0.30273048361E+02  0.17277515566E+03  0.12539253144E+01  0.21539239369E+03  0.12499839623E+03 0.  0.
         25    2    1    2    0    0 -0.30273048361E+02 -0.17277515566E+03 -0.19111071222E+03  0.28795036474E+03  0.12499758540E+03 0.  0.
          5    1    4    4  502    0 -0.68957708774E+02 -0.10374881583E+03 -0.69332433581E+02  0.14264662187E+03  0.47000000000E+01 0.  1.
         -5    1    4    4    0  502  0.38684660414E+02 -0.69026339831E+02 -0.12177827864E+03  0.14530374286E+03  0.47000000000E+01 0.  1.
          5    1    3    3  503    0  0.33986194927E+02  0.68796594990E+02  0.58446189219E+02  0.96571631249E+02  0.47000000000E+01 0. -1.
         -5    1    3    3    0  503 -0.37131465663E+01  0.10397856067E+03 -0.57192263904E+02  0.11882076244E+03  0.47000000000E+01 0. -1.
<mgrwt>
<rscale>  0 0.21538863E+03</rscale>
<asrwt>0</asrwt>
<pdfrwt beam="2">  1        5 0.53323042E-01 0.21538874E+03</pdfrwt>
<pdfrwt beam="1">  1       -5 0.24114306E-01 0.21538874E+03</pdfrwt>
<totfact> 0.44083866E+01</totfact>
</mgrwt>
</event>
<event>
 8    1  0.3682083E-007  0.1489344E+03  0.7546771E-02  0.1201791E+00
         -5   -1    0    0    0  501 -0.00000000000E+00  0.00000000000E+00  0.39967855057E+03  0.39970618432E+03  0.47000000000E+01 0. -1.
          5   -1    0    0  501    0  0.00000000000E+00 -0.00000000000E+00 -0.58471916373E+02  0.58660506342E+02  0.47000000000E+01 0. -1.
         25    2    1    2    0    0 -0.79501663284E+02  0.15287879371E+02  0.22331839933E+03  0.26842174392E+03  0.12499956563E+03 0.  0.
         25    2    1    2    0    0  0.79501663284E+02 -0.15287879371E+02  0.11788823486E+03  0.18994494674E+03  0.12500885230E+03 0.  0.
          5    1    4    4  502    0  0.52051630637E+02  0.53439042473E+02  0.57219019534E+02  0.94133998688E+02  0.47000000000E+01 0.  1.
         -5    1    4    4    0  502  0.27450032647E+02 -0.68726921844E+02  0.60669215330E+02  0.95810948055E+02  0.47000000000E+01 0.  1.
          5    1    3    3  503    0 -0.79123154549E+02  0.58771256497E+02  0.18753667146E+03  0.21191183855E+03  0.47000000000E+01 0.  1.
         -5    1    3    3    0  503 -0.37850873474E+00 -0.43483377126E+02  0.35781727867E+02  0.56509905364E+02  0.47000000000E+01 0.  1.
<mgrwt>
<rscale>  0 0.14893242E+03</rscale>
<asrwt>0</asrwt>
<pdfrwt beam="2">  1        5 0.90123118E-02 0.14893437E+03</pdfrwt>
<pdfrwt beam="1">  1       -5 0.61505642E-01 0.14893437E+03</pdfrwt>
<totfact> 0.17411764E+02</totfact>
</mgrwt>
</event>
<event>
 8    1  0.3682083E-007  0.1271770E+03  0.7546771E-02  0.1231708E+00
         -5   -1    0    0    0  501 -0.00000000000E+00  0.00000000000E+00  0.30170171969E+03  0.30173832647E+03  0.47000000000E+01 0.  1.
          5   -1    0    0  501    0  0.00000000000E+00 -0.00000000000E+00 -0.12781991648E+03  0.12790629792E+03  0.47000000000E+01 0.  1.
         25    2    1    2    0    0 -0.12042836944E+02  0.20098023716E+02  0.25067015768E+03  0.28108339272E+03  0.12499354076E+03 0.  0.
         25    2    1    2    0    0  0.12042836944E+02 -0.20098023716E+02 -0.76788354471E+02  0.14856123168E+03  0.12500011079E+03 0.  0.
          5    1    3    3  502    0  0.19414451567E+02 -0.13568919745E+02 -0.19744018412E+01  0.24228594167E+02  0.47000000000E+01 0.  1.
         -5    1    3    3    0  502 -0.31457288511E+02  0.33666943460E+02  0.25264455952E+03  0.25685479855E+03  0.47000000000E+01 0.  1.
          5    1    4    4  503    0 -0.43934551917E+02 -0.87412274869E+01 -0.79296156423E+02  0.91195528034E+02  0.47000000000E+01 0. -1.
         -5    1    4    4    0  503  0.55977388861E+02 -0.11356796229E+02  0.25078019511E+01  0.57365703647E+02  0.47000000000E+01 0. -1.
<mgrwt>
<rscale>  0 0.12717538E+03</rscale>
<asrwt>0</asrwt>
<pdfrwt beam="2">  1        5 0.19674063E-01 0.12717700E+03</pdfrwt>
<pdfrwt beam="1">  1       -5 0.46425110E-01 0.12717700E+03</pdfrwt>
<totfact> 0.74599158E+01</totfact>
</mgrwt>
</event>
<event>
 8    1  0.3682083E-007  0.2271428E+03  0.7546771E-02  0.1128668E+00
         -5   -1    0    0    0  501 -0.00000000000E+00  0.00000000000E+00  0.84581061781E+02  0.84711545919E+02  0.47000000000E+01 0. -1.
          5   -1    0    0  501    0  0.00000000000E+00 -0.00000000000E+00 -0.68211266968E+03  0.68212886183E+03  0.47000000000E+01 0. -1.
         25    2    1    2    0    0  0.39408171842E+02  0.18551082620E+03 -0.17357315080E+03  0.28586968580E+03  0.12500627158E+03 0.  0.
         25    2    1    2    0    0 -0.39408171842E+02 -0.18551082620E+03 -0.42395845710E+03  0.48097072195E+03  0.12499916553E+03 0.  0.
          5    1    4    4  502    0  0.33498704900E+02 -0.37060062471E+02 -0.44726930387E+02  0.67217555461E+02  0.47000000000E+01 0. -1.
         -5    1    4    4    0  502 -0.72906876742E+02 -0.14845076373E+03 -0.37923152671E+03  0.41375316649E+03  0.47000000000E+01 0. -1.
          5    1    3    3  503    0  0.31400123211E+02  0.51171205954E+02  0.69868335170E+01  0.60624796074E+02  0.47000000000E+01 0.  1.
         -5    1    3    3    0  503  0.80080486307E+01  0.13433962024E+03 -0.18055998432E+03  0.22524488972E+03  0.47000000000E+01 0.  1.
<mgrwt>
<rscale>  0 0.22714179E+03</rscale>
<asrwt>0</asrwt>
<pdfrwt beam="2">  1        5 0.10495169E+00 0.22714277E+03</pdfrwt>
<pdfrwt beam="1">  1       -5 0.13023754E-01 0.22714277E+03</pdfrwt>
<totfact> 0.29344747E+01</totfact>
</mgrwt>
</event>
<event>
 8    1  0.3682083E-007  0.1258912E+03  0.7546771E-02  0.1233686E+00
         -5   -1    0    0    0  501 -0.00000000000E+00  0.00000000000E+00  0.36477727504E+02  0.36779268670E+02  0.47000000000E+01 0. -1.
          5   -1    0    0  501    0  0.00000000000E+00 -0.00000000000E+00 -0.43601483915E+03  0.43604017012E+03  0.47000000000E+01 0. -1.
         25    2    1    2    0    0 -0.78910111519E+01  0.12697016715E+02 -0.17810293553E+03  0.21810373224E+03  0.12500040033E+03 0.  0.
         25    2    1    2    0    0  0.78910111519E+01 -0.12697016715E+02 -0.22143417612E+03  0.25471570656E+03  0.12499405794E+03 0.  0.
          5    1    3    3  502    0 -0.42498862294E+02  0.30767692999E+02 -0.21936236111E+02  0.57062182603E+02  0.47000000000E+01 0. -1.
         -5    1    3    3    0  502  0.34607851142E+02 -0.18070676284E+02 -0.15616669942E+03  0.16104154963E+03  0.47000000000E+01 0. -1.
          5    1    4    4  503    0  0.57468494207E+02  0.71585184925E+01 -0.17288734106E+03  0.18238967875E+03  0.47000000000E+01 0. -1.
         -5    1    4    4    0  503 -0.49577483055E+02 -0.19855535208E+02 -0.48546835059E+02  0.72326027810E+02  0.47000000000E+01 0. -1.
<mgrwt>
<rscale>  0 0.12588958E+03</rscale>
<asrwt>0</asrwt>
<pdfrwt beam="2">  1        5 0.67104346E-01 0.12589115E+03</pdfrwt>
<pdfrwt beam="1">  1       -5 0.56371024E-02 0.12589115E+03</pdfrwt>
<totfact> 0.30105653E+02</totfact>
</mgrwt>
</event>
<event>
 8    1  0.3682083E-007  0.1357554E+03  0.7546771E-02  0.1219158E+00
         -5   -1    0    0    0  501 -0.00000000000E+00  0.00000000000E+00  0.36397735427E+03  0.36400769830E+03  0.47000000000E+01 0.  1.
          5   -1    0    0  501    0  0.00000000000E+00 -0.00000000000E+00 -0.53255923338E+02  0.53462915844E+02  0.47000000000E+01 0.  1.
         25    2    1    2    0    0 -0.52682621991E+02 -0.54392751715E+01  0.20280724278E+03  0.24404915274E+03  0.12499666739E+03 0.  0.
         25    2    1    2    0    0  0.52682621991E+02  0.54392751715E+01  0.10791418816E+03  0.17342146140E+03  0.12499794756E+03 0.  0.
          5    1    4    4  502    0  0.12734611776E+02  0.26485917023E+02  0.12224530104E+03  0.12581604732E+03  0.47000000000E+01 0.  1.
         -5    1    4    4    0  502  0.39948010216E+02 -0.21046641851E+02 -0.14331112880E+02  0.47605414081E+02  0.47000000000E+01 0.  1.
          5    1    3    3  503    0 -0.81240818757E+02 -0.39057485709E+02  0.15018985499E+03  0.17522739616E+03  0.47000000000E+01 0.  1.
         -5    1    3    3    0  503  0.28558196765E+02  0.33618210538E+02  0.52617387788E+02  0.68821756588E+02  0.47000000000E+01 0.  1.
<mgrwt>
<rscale>  0 0.13575512E+03</rscale>
<asrwt>0</asrwt>
<pdfrwt beam="2">  1        5 0.82114755E-02 0.13575541E+03</pdfrwt>
<pdfrwt beam="1">  1       -5 0.56014774E-01 0.13575541E+03</pdfrwt>
<totfact> 0.24309836E+02</totfact>
</mgrwt>
</event>
<event>
 8    1  0.3682083E-007  0.1339089E+03  0.7546771E-02  0.1221770E+00
          5   -1    0    0  501    0  0.00000000000E+00  0.00000000000E+00  0.37277752199E+02  0.37572873313E+02  0.47000000000E+01 0. -1.
         -5   -1    0    0    0  501 -0.00000000000E+00 -0.00000000000E+00 -0.53436502532E+03  0.53438569431E+03  0.47000000000E+01 0. -1.
         25    2    1    2    0    0 -0.23866365840E+02 -0.41651159977E+02 -0.34072438237E+03  0.36609226673E+03  0.12500408182E+03 0.  0.
         25    2    1    2    0    0  0.23866365840E+02  0.41651159977E+02 -0.15636289075E+03  0.20586630089E+03  0.12500863048E+03 0.  0.
          5    1    4    4  502    0  0.68989350856E+01 -0.44645078662E+02 -0.45669411442E+02  0.64409343231E+02  0.47000000000E+01 0.  1.
         -5    1    4    4    0  502  0.16967430755E+02  0.86296238639E+02 -0.11069347931E+03  0.14145695766E+03  0.47000000000E+01 0.  1.
          5    1    3    3  503    0 -0.47651763988E+01  0.10315229283E+02 -0.29179766527E+03  0.29205663546E+03  0.47000000000E+01 0.  1.
         -5    1    3    3    0  503 -0.19101189441E+02 -0.51966389260E+02 -0.48926717099E+02  0.74035631266E+02  0.47000000000E+01 0.  1.
<mgrwt>
<rscale>  0 0.13390779E+03</rscale>
<asrwt>0</asrwt>
<pdfrwt beam="1">  1        5 0.57593307E-02 0.13390885E+03</pdfrwt>
<pdfrwt beam="2">  1       -5 0.82234290E-01 0.13390885E+03</pdfrwt>
<totfact> 0.18685686E+02</totfact>
</mgrwt>
</event>
<event>
 8    1  0.3682083E-007  0.1297139E+03  0.7546771E-02  0.1227881E+00
          5   -1    0    0  501    0  0.00000000000E+00  0.00000000000E+00  0.10684243626E+04  0.10684347002E+04  0.47000000000E+01 0. -1.
         -5   -1    0    0    0  501 -0.00000000000E+00 -0.00000000000E+00 -0.22707074399E+02  0.23188385622E+02  0.47000000000E+01 0. -1.
         25    2    1    2    0    0 -0.90012714279E+01  0.33463725943E+02  0.21698392367E+03  0.25279975541E+03  0.12499939746E+03 0.  0.
         25    2    1    2    0    0  0.90012714279E+01 -0.33463725943E+02  0.82873336457E+03  0.83882333045E+03  0.12499898524E+03 0.  0.
          5    1    4    4  502    0  0.14210592147E+02 -0.50999546684E+02  0.81155127425E+03  0.81328989630E+03  0.47000000000E+01 0.  1.
         -5    1    4    4    0  502 -0.52093207192E+01  0.17535820741E+02  0.17182090317E+02  0.25533434142E+02  0.47000000000E+01 0.  1.
          5    1    3    3  503    0  0.37574990534E+02 -0.69617517047E+00  0.18025191391E+03  0.18418796661E+03  0.47000000000E+01 0. -1.
         -5    1    3    3    0  503 -0.46576261962E+02  0.34159901113E+02  0.36732009754E+02  0.68611788805E+02  0.47000000000E+01 0. -1.
<mgrwt>
<rscale>  0 0.12971379E+03</rscale>
<asrwt>0</asrwt>
<pdfrwt beam="1">  1        5 0.16441075E+00 0.12971389E+03</pdfrwt>
<pdfrwt beam="2">  1       -5 0.35312162E-02 0.12971389E+03</pdfrwt>
<totfact> 0.71404331E+01</totfact>
</mgrwt>
</event>
<event>
 8    1  0.3682083E-007  0.1412497E+03  0.7546771E-02  0.1211663E+00
         -5   -1    0    0    0  501 -0.00000000000E+00  0.00000000000E+00  0.39584666060E+02  0.39862711737E+02  0.47000000000E+01 0.  1.
          5   -1    0    0  501    0  0.00000000000E+00 -0.00000000000E+00 -0.88828899792E+03  0.88830143185E+03  0.47000000000E+01 0.  1.
         25    2    1    2    0    0 -0.54339219806E+02 -0.37027914210E+02 -0.11831591819E+03  0.18424297600E+03  0.12499200162E+03 0.  0.
         25    2    1    2    0    0  0.54339219806E+02  0.37027914210E+02 -0.73038841367E+03  0.74392116759E+03  0.12501060563E+03 0.  0.
          5    1    4    4  502    0 -0.89269726172E+00  0.73683686694E+02 -0.34102053260E+03  0.34892288009E+03  0.47000000000E+01 0.  1.
         -5    1    4    4    0  502  0.55231917067E+02 -0.36655772484E+02 -0.38936788107E+03  0.39499828750E+03  0.47000000000E+01 0.  1.
          5    1    3    3  503    0 -0.66711734189E+02  0.29503232400E+02 -0.67380305477E+02  0.99413740332E+02  0.47000000000E+01 0.  1.
         -5    1    3    3    0  503  0.12372514383E+02 -0.66531146610E+02 -0.50935612713E+02  0.84829235668E+02  0.47000000000E+01 0.  1.
<mgrwt>
<rscale>  0 0.14124555E+03</rscale>
<asrwt>0</asrwt>
<pdfrwt beam="2">  1        5 0.13668218E+00 0.14124967E+03</pdfrwt>
<pdfrwt beam="1">  1       -5 0.61122939E-02 0.14124967E+03</pdfrwt>
<totfact> 0.48980193E+01</totfact>
</mgrwt>
</event>
<event>
 8    1  0.3682083E-007  0.1310262E+03  0.7546771E-02  0.1225951E+00
         -5   -1    0    0    0  501 -0.00000000000E+00  0.00000000000E+00  0.99847068550E+01  0.11035595633E+02  0.47000000000E+01 0. -1.
          5   -1    0    0  501    0  0.00000000000E+00 -0.00000000000E+00 -0.16545366217E+04  0.16545432972E+04  0.47000000000E+01 0. -1.
         25    2    1    2    0    0  0.38551138922E+02 -0.70317017813E+01 -0.72517095921E+03  0.73690821973E+03  0.12500067632E+03 0.  0.
         25    2    1    2    0    0 -0.38551138922E+02  0.70317017813E+01 -0.91938095560E+03  0.92867067314E+03  0.12502896661E+03 0.  0.
          5    1    4    4  502    0  0.29777015214E+02 -0.84093374934E+01 -0.63429988222E+03  0.63507150635E+03  0.47000000000E+01 0.  1.
         -5    1    4    4    0  502 -0.68328154136E+02  0.15441039275E+02 -0.28508107337E+03  0.29359916679E+03  0.47000000000E+01 0.  1.
          5    1    3    3  503    0  0.29481262678E+02 -0.44666077229E+02 -0.65007172129E+03  0.65228792425E+03  0.47000000000E+01 0.  1.
         -5    1    3    3    0  503  0.90698762437E+01  0.37634375448E+02 -0.75099237924E+02  0.84620295481E+02  0.47000000000E+01 0.  1.
<mgrwt>
<rscale>  0 0.13101950E+03</rscale>
<asrwt>0</asrwt>
<pdfrwt beam="2">  1        5 0.25462524E+00 0.13102625E+03</pdfrwt>
<pdfrwt beam="1">  1       -5 0.16174612E-02 0.13102625E+03</pdfrwt>
<totfact> 0.61921582E+01</totfact>
</mgrwt>
</event>
<event>
 8    1  0.3682083E-007  0.1293372E+03  0.7546771E-02  0.1228444E+00
         -5   -1    0    0    0  501 -0.00000000000E+00  0.00000000000E+00  0.68667967284E+02  0.68828625811E+02  0.47000000000E+01 0.  1.
          5   -1    0    0  501    0  0.00000000000E+00 -0.00000000000E+00 -0.24630430938E+03  0.24634914820E+03  0.47000000000E+01 0.  1.
         25    2    1    2    0    0  0.30019565142E+02 -0.14156753203E+02 -0.70946551153E+02  0.14751498398E+03  0.12500267767E+03 0.  0.
         25    2    1    2    0    0 -0.30019565142E+02  0.14156753203E+02 -0.10668979094E+03  0.16766279003E+03  0.12500604673E+03 0.  0.
          5    1    3    3  502    0 -0.38692503277E+02 -0.34137347530E+02 -0.51856453688E+02  0.73305184642E+02  0.47000000000E+01 0.  1.
         -5    1    3    3    0  502  0.68712068419E+02  0.19980594327E+02 -0.19090097465E+02  0.74209799335E+02  0.47000000000E+01 0.  1.
          5    1    4    4  503    0  0.35444378859E+02 -0.45924527855E+01 -0.90637044031E+02  0.97542597699E+02  0.47000000000E+01 0. -1.
         -5    1    4    4    0  503 -0.65463944002E+02  0.18749205988E+02 -0.16052746909E+02  0.70120192333E+02  0.47000000000E+01 0. -1.
<mgrwt>
<rscale>  0 0.12933634E+03</rscale>
<asrwt>0</asrwt>
<pdfrwt beam="2">  1        5 0.37908778E-01 0.12933716E+03</pdfrwt>
<pdfrwt beam="1">  1       -5 0.10580110E-01 0.12933716E+03</pdfrwt>
<totfact> 0.34835913E+02</totfact>
</mgrwt>
</event>
<event>
 8    1  0.3682083E-007  0.1513226E+03  0.7546771E-02  0.1198859E+00
         -5   -1    0    0    0  501 -0.00000000000E+00  0.00000000000E+00  0.45474093070E+02  0.45716333411E+02  0.47000000000E+01 0.  1.
          5   -1    0    0  501    0  0.00000000000E+00 -0.00000000000E+00 -0.51740356493E+03  0.51742491146E+03  0.47000000000E+01 0.  1.
         25    2    1    2    0    0 -0.71843555197E+02  0.45937434088E+02 -0.18729830284E+03  0.24078869083E+03  0.12500718023E+03 0.  0.
         25    2    1    2    0    0  0.71843555197E+02 -0.45937434088E+02 -0.28463116901E+03  0.32235255405E+03  0.12499808979E+03 0.  0.
          5    1    3    3  502    0 -0.57363874864E+02  0.21884170503E+01 -0.18571281980E+03  0.19443956580E+03  0.47000000000E+01 0. -1.
         -5    1    3    3    0  502 -0.14479680333E+02  0.43749017038E+02 -0.15854830392E+01  0.46349125027E+02  0.47000000000E+01 0. -1.
          5    1    4    4  503    0  0.35761067286E+02  0.37687771375E+02 -0.57721751298E+02  0.77801752021E+02  0.47000000000E+01 0.  1.
         -5    1    4    4    0  503  0.36082487911E+02 -0.83625205463E+02 -0.22690941772E+03  0.24455080202E+03  0.47000000000E+01 0.  1.
<mgrwt>
<rscale>  0 0.15132076E+03</rscale>
<asrwt>0</asrwt>
<pdfrwt beam="2">  1        5 0.79620820E-01 0.15132263E+03</pdfrwt>
<pdfrwt beam="1">  1       -5 0.70162906E-02 0.15132263E+03</pdfrwt>
<totfact> 0.15019541E+02</totfact>
</mgrwt>
</event>
<event>
 8    1  0.3682083E-007  0.1524749E+03  0.7546771E-02  0.1197466E+00
          5   -1    0    0  501    0  0.00000000000E+00  0.00000000000E+00  0.22456479599E+02  0.22943048532E+02  0.47000000000E+01 0. -1.
         -5   -1    0    0    0  501 -0.00000000000E+00 -0.00000000000E+00 -0.10665021245E+04  0.10665124808E+04  0.47000000000E+01 0. -1.
         25    2    1    2    0    0 -0.86994523125E+02  0.74166434520E+01 -0.63119752885E+03  0.64935268177E+03  0.12500212496E+03 0.  0.
         25    2    1    2    0    0  0.86994523125E+02 -0.74166434520E+01 -0.41284811609E+03  0.44010284754E+03  0.12499558310E+03 0.  0.
          5    1    3    3  502    0  0.17978274408E+02  0.26512033065E+02 -0.29074112132E+03  0.29253819559E+03  0.47000000000E+01 0.  1.
         -5    1    3    3    0  502 -0.10497279753E+03 -0.19095389613E+02 -0.34045640753E+03  0.35681448619E+03  0.47000000000E+01 0.  1.
          5    1    4    4  503    0  0.42261417868E+02 -0.65868476780E+02 -0.22679796658E+03  0.23996685463E+03  0.47000000000E+01 0.  1.
         -5    1    4    4    0  503  0.44733105257E+02  0.58451833328E+02 -0.18605014951E+03  0.20013599291E+03  0.47000000000E+01 0.  1.
<mgrwt>
<rscale>  0 0.15247353E+03</rscale>
<asrwt>0</asrwt>
<pdfrwt beam="1">  1        5 0.34930689E-02 0.15247487E+03</pdfrwt>
<pdfrwt beam="2">  1       -5 0.16411544E+00 0.15247487E+03</pdfrwt>
<totfact> 0.76674611E+01</totfact>
</mgrwt>
</event>
<event>
 8    1  0.3682083E-007  0.1255088E+03  0.7546771E-02  0.1234278E+00
         -5   -1    0    0    0  501 -0.00000000000E+00  0.00000000000E+00  0.71293082714E+02  0.71447838616E+02  0.47000000000E+01 0.  1.
          5   -1    0    0  501    0  0.00000000000E+00 -0.00000000000E+00 -0.22799683022E+03  0.22804526873E+03  0.47000000000E+01 0.  1.
         25    2    1    2    0    0 -0.11063438736E+02  0.21942075566E+01 -0.10544622291E+03  0.16392104233E+03  0.12499595181E+03 0.  0.
         25    2    1    2    0    0  0.11063438736E+02 -0.21942075566E+01 -0.51257524592E+02  0.13557206501E+03  0.12500094704E+03 0.  0.
          5    1    4    4  502    0  0.62686577615E+01  0.61051799856E+02 -0.30304866023E+02  0.68608259273E+02  0.47000000000E+01 0.  1.
         -5    1    4    4    0  502  0.47947809749E+01 -0.63246007412E+02 -0.20952658569E+02  0.66963805741E+02  0.47000000000E+01 0.  1.
          5    1    3    3  503    0  0.94884836525E+01  0.29483778040E+02 -0.12179343624E+03  0.12575792460E+03  0.47000000000E+01 0. -1.
         -5    1    3    3    0  503 -0.20551922389E+02 -0.27289570484E+02  0.16347213328E+02  0.38163117727E+02  0.47000000000E+01 0. -1.
<mgrwt>
<rscale>  0 0.12550752E+03</rscale>
<asrwt>0</asrwt>
<pdfrwt beam="2">  1        5 0.35092065E-01 0.12550877E+03</pdfrwt>
<pdfrwt beam="1">  1       -5 0.10983797E-01 0.12550877E+03</pdfrwt>
<totfact> 0.37689578E+02</totfact>
</mgrwt>
</event>
<event>
 8    1  0.3682083E-007  0.1278301E+03  0.7546771E-02  0.1230712E+00
         -5   -1    0    0    0  501 -0.00000000000E+00  0.00000000000E+00  0.14931140709E+02  0.15653401000E+02  0.47000000000E+01 0.  1.
          5   -1    0    0  501    0  0.00000000000E+00 -0.00000000000E+00 -0.11169156179E+04  0.11169255067E+04  0.47000000000E+01 0.  1.
         25    2    1    2    0    0 -0.10665977213E+02 -0.24513725468E+02 -0.43229522697E+03  0.45079895328E+03  0.12500338880E+03 0.  0.
         25    2    1    2    0    0  0.10665977213E+02  0.24513725468E+02 -0.66968925027E+03  0.68177995446E+03  0.12500211429E+03 0.  0.
          5    1    3    3  502    0  0.47640761409E+02  0.22383958084E+02 -0.17609909065E+03  0.18385772612E+03  0.47000000000E+01 0. -1.
         -5    1    3    3    0  502 -0.58306738622E+02 -0.46897683551E+02 -0.25619613632E+03  0.26694122716E+03  0.47000000000E+01 0. -1.
          5    1    4    4  503    0 -0.18567734059E+02  0.58867490888E+02 -0.55511393097E+03  0.55855501841E+03  0.47000000000E+01 0. -1.
         -5    1    4    4    0  503  0.29233711273E+02 -0.34353765421E+02 -0.11457531930E+03  0.12322493605E+03  0.47000000000E+01 0. -1.
<mgrwt>
<rscale>  0 0.12782978E+03</rscale>
<asrwt>0</asrwt>
<pdfrwt beam="2">  1        5 0.17188943E+00 0.12783009E+03</pdfrwt>
<pdfrwt beam="1">  1       -5 0.23534186E-02 0.12783009E+03</pdfrwt>
<totfact> 0.12034133E+02</totfact>
</mgrwt>
</event>
<event>
 8    1  0.3682083E-007  0.1376580E+03  0.7546771E-02  0.1216517E+00
          5   -1    0    0  501    0  0.00000000000E+00  0.00000000000E+00  0.31262686602E+02  0.31614009135E+02  0.47000000000E+01 0. -1.
         -5   -1    0    0    0  501 -0.00000000000E+00 -0.00000000000E+00 -0.60239421876E+03  0.60241255365E+03  0.47000000000E+01 0. -1.
         25    2    1    2    0    0  0.70299928446E+01  0.57219324255E+02 -0.28394054654E+03  0.31554834687E+03  0.12500021351E+03 0.  0.
         25    2    1    2    0    0 -0.70299928446E+01 -0.57219324255E+02 -0.28719098562E+03  0.31847821592E+03  0.12500495959E+03 0.  0.
          5    1    4    4  502    0 -0.34097010584E+01 -0.67922052893E+02 -0.59574719254E+02  0.90533245301E+02  0.47000000000E+01 0.  1.
         -5    1    4    4    0  502 -0.36202917862E+01  0.10702728638E+02 -0.22761626637E+03  0.22794497062E+03  0.47000000000E+01 0.  1.
          5    1    3    3  503    0 -0.47755963506E+02 -0.11677251712E+02 -0.10827016751E+03  0.11900214044E+03  0.47000000000E+01 0. -1.
         -5    1    3    3    0  503  0.54785956350E+02  0.68896575967E+02 -0.17567037903E+03  0.19654620643E+03  0.47000000000E+01 0. -1.
<mgrwt>
<rscale>  0 0.13765687E+03</rscale>
<asrwt>0</asrwt>
<pdfrwt beam="1">  1        5 0.48380797E-02 0.13765795E+03</pdfrwt>
<pdfrwt beam="2">  1       -5 0.92704461E-01 0.13765795E+03</pdfrwt>
<totfact> 0.19010762E+02</totfact>
</mgrwt>
</event>
<event>
 8    1  0.3682083E-007  0.1582809E+03  0.7546771E-02  0.1190653E+00
         -5   -1    0    0    0  501 -0.00000000000E+00  0.00000000000E+00  0.18217914622E+03  0.18223976327E+03  0.47000000000E+01 0.  1.
          5   -1    0    0  501    0  0.00000000000E+00 -0.00000000000E+00 -0.29384840559E+03  0.29388599060E+03  0.47000000000E+01 0.  1.
         25    2    1    2    0    0  0.51021594785E+02  0.82607801073E+02  0.11784328045E+03  0.19732683883E+03  0.12499436244E+03 0.  0.
         25    2    1    2    0    0 -0.51021594785E+02 -0.82607801073E+02 -0.22951253983E+03  0.27879891503E+03  0.12500230858E+03 0.  0.
          5    1    3    3  502    0  0.71251485799E+02  0.58805931804E+02  0.13322574933E+03  0.16219155998E+03  0.47000000000E+01 0.  1.
         -5    1    3    3    0  502 -0.20229891015E+02  0.23801869269E+02 -0.15382468877E+02  0.35135278851E+02  0.47000000000E+01 0.  1.
          5    1    4    4  503    0 -0.64016057259E+02 -0.10437192119E+03 -0.21902048856E+03  0.25096537197E+03  0.47000000000E+01 0. -1.
         -5    1    4    4    0  503  0.12994462474E+02  0.21764120117E+02 -0.10492051271E+02  0.27833543061E+02  0.47000000000E+01 0. -1.
<mgrwt>
<rscale>  0 0.15827929E+03</rscale>
<asrwt>0</asrwt>
<pdfrwt beam="2">  1        5 0.45215001E-01 0.15828086E+03</pdfrwt>
<pdfrwt beam="1">  1       -5 0.28035115E-01 0.15828086E+03</pdfrwt>
<totfact> 0.43025817E+01</totfact>
</mgrwt>
</event>
<event>
 8    1  0.3682083E-007  0.2690520E+03  0.7546771E-02  0.1101823E+00
          5   -1    0    0  501    0  0.00000000000E+00  0.00000000000E+00  0.14487529519E+03  0.14495151312E+03  0.47000000000E+01 0.  1.
         -5   -1    0    0    0  501 -0.00000000000E+00 -0.00000000000E+00 -0.50272512679E+03  0.50274709656E+03  0.47000000000E+01 0.  1.
         25    2    1    2    0    0 -0.19639737780E+03  0.13487752359E+03 -0.15276910201E+03  0.30939842822E+03  0.12500044991E+03 0.  0.
         25    2    1    2    0    0  0.19639737780E+03 -0.13487752359E+03 -0.20508072959E+03  0.33830018147E+03  0.12500012302E+03 0.  0.
          5    1    3    3  502    0 -0.20913986210E+03  0.11292240302E+03 -0.11611973294E+03  0.26456914673E+03  0.47000000000E+01 0.  1.
         -5    1    3    3    0  502  0.12742484298E+02  0.21955120570E+02 -0.36649369076E+02  0.44829281491E+02  0.47000000000E+01 0.  1.
          5    1    4    4  503    0  0.11619560035E+03 -0.33157319700E+02 -0.37837106278E+02  0.12670659810E+03  0.47000000000E+01 0.  1.
         -5    1    4    4    0  503  0.80201777457E+02 -0.10172020389E+03 -0.16724362331E+03  0.21159358337E+03  0.47000000000E+01 0.  1.
<mgrwt>
<rscale>  0 0.26905198E+03</rscale>
<asrwt>0</asrwt>
<pdfrwt beam="1">  1        5 0.22296060E-01 0.26905202E+03</pdfrwt>
<pdfrwt beam="2">  1       -5 0.77349879E-01 0.26905202E+03</pdfrwt>
<totfact> 0.23444507E+01</totfact>
</mgrwt>
</event>
<event>
 8    1  0.3682083E-007  0.1573945E+03  0.7546771E-02  0.1191675E+00
          5   -1    0    0  501    0  0.00000000000E+00  0.00000000000E+00  0.25312161799E+02  0.25744815691E+02  0.47000000000E+01 0. -1.
         -5   -1    0    0    0  501 -0.00000000000E+00 -0.00000000000E+00 -0.12741854942E+04  0.12741941624E+04  0.47000000000E+01 0. -1.
         25    2    1    2    0    0  0.91438114244E+02  0.27955496229E+02 -0.94200415947E+03  0.95505972016E+03  0.12499917640E+03 0.  0.
         25    2    1    2    0    0 -0.91438114244E+02 -0.27955496229E+02 -0.30686917289E+03  0.34487925794E+03  0.12502229715E+03 0.  0.
          5    1    3    3  502    0  0.10597612171E+03  0.49153394391E+02 -0.88059437606E+03  0.88832175461E+03  0.47000000000E+01 0. -1.
         -5    1    3    3    0  502 -0.14538007468E+02 -0.21197898162E+02 -0.61409783409E+02  0.66737965552E+02  0.47000000000E+01 0. -1.
          5    1    4    4  503    0 -0.94344386859E+02 -0.13817931252E+01 -0.30309408060E+03  0.31747580124E+03  0.47000000000E+01 0.  1.
         -5    1    4    4    0  503  0.29062726153E+01 -0.26573703104E+02 -0.37750922899E+01  0.27403456698E+02  0.47000000000E+01 0.  1.
<mgrwt>
<rscale>  0 0.15738986E+03</rscale>
<asrwt>0</asrwt>
<pdfrwt beam="1">  1        5 0.39281276E-02 0.15739445E+03</pdfrwt>
<pdfrwt beam="2">  1       -5 0.19606244E+00 0.15739445E+03</pdfrwt>
<totfact> 0.37745608E+01</totfact>
</mgrwt>
</event>
<event>
 8    1  0.3682083E-007  0.2979062E+03  0.7546771E-02  0.1086292E+00
          5   -1    0    0  501    0  0.00000000000E+00  0.00000000000E+00  0.20598332172E+03  0.20603693558E+03  0.47000000000E+01 0. -1.
         -5   -1    0    0    0  501 -0.00000000000E+00 -0.00000000000E+00 -0.43104585642E+03  0.43107147938E+03  0.47000000000E+01 0. -1.
         25    2    1    2    0    0  0.15892063255E+03  0.21878241794E+03 -0.12122340506E+03  0.32162357369E+03  0.12500038149E+03 0.  0.
         25    2    1    2    0    0 -0.15892063255E+03 -0.21878241794E+03 -0.10383912965E+03  0.31548484127E+03  0.12500642535E+03 0.  0.
          5    1    3    3  502    0 -0.89415120664E+01  0.16002449636E+02 -0.42973126486E+02  0.46955389812E+02  0.47000000000E+01 0. -1.
         -5    1    3    3    0  502  0.16786214462E+03  0.20277996830E+03 -0.78250278570E+02  0.27466818388E+03  0.47000000000E+01 0. -1.
          5    1    4    4  503    0 -0.15688412523E+03 -0.11857778408E+03 -0.79996109535E+02  0.21235533232E+03  0.47000000000E+01 0.  1.
         -5    1    4    4    0  503 -0.20365073271E+01 -0.10020463385E+03 -0.23843020113E+02  0.10312950895E+03  0.47000000000E+01 0.  1.
<mgrwt>
<rscale>  0 0.29790559E+03</rscale>
<asrwt>0</asrwt>
<pdfrwt beam="1">  1        5 0.31695837E-01 0.29790623E+03</pdfrwt>
<pdfrwt beam="2">  1       -5 0.66320842E-01 0.29790623E+03</pdfrwt>
<totfact> 0.17128783E+01</totfact>
</mgrwt>
</event>
<event>
 8    1  0.3682083E-007  0.1324428E+03  0.7546771E-02  0.1223894E+00
         -5   -1    0    0    0  501 -0.00000000000E+00  0.00000000000E+00  0.11741193630E+04  0.11741287701E+04  0.47000000000E+01 0. -1.
          5   -1    0    0  501    0  0.00000000000E+00 -0.00000000000E+00 -0.20023888386E+02  0.20568084648E+02  0.47000000000E+01 0. -1.
         25    2    1    2    0    0  0.15473108366E+02 -0.40948811436E+02  0.88436125932E+03  0.89422364934E+03  0.12499950325E+03 0.  0.
         25    2    1    2    0    0 -0.15473108366E+02  0.40948811436E+02  0.26973421534E+03  0.30047320537E+03  0.12494550003E+03 0.  0.
          5    1    4    4  502    0  0.47494067795E+01  0.84046811895E+02  0.18067992897E+03  0.19938342505E+03  0.47000000000E+01 0. -1.
         -5    1    4    4    0  502 -0.20222515146E+02 -0.43098000459E+02  0.89054286377E+02  0.10108978032E+03  0.47000000000E+01 0. -1.
          5    1    3    3  503    0  0.84594283867E+01  0.32636745748E+02  0.57929985555E+03  0.58029917434E+03  0.47000000000E+01 0. -1.
         -5    1    3    3    0  503  0.70136799794E+01 -0.73585557184E+02  0.30506140377E+03  0.31392447500E+03  0.47000000000E+01 0. -1.
<mgrwt>
<rscale>  0 0.13243007E+03</rscale>
<asrwt>0</asrwt>
<pdfrwt beam="2">  1        5 0.31231834E-02 0.13244281E+03</pdfrwt>
<pdfrwt beam="1">  1       -5 0.18067632E+00 0.13244281E+03</pdfrwt>
<totfact> 0.66829660E+01</totfact>
</mgrwt>
</event>
<event>
 8    1  0.3682083E-007  0.1430718E+03  0.7546771E-02  0.1209255E+00
          5   -1    0    0  501    0  0.00000000000E+00  0.00000000000E+00  0.51502453944E+02  0.51716465098E+02  0.47000000000E+01 0. -1.
         -5   -1    0    0    0  501 -0.00000000000E+00 -0.00000000000E+00 -0.10551749960E+04  0.10551854634E+04  0.47000000000E+01 0. -1.
         25    2    1    2    0    0  0.63909007716E+02  0.27562060624E+02 -0.93909580193E+03  0.94993160621E+03  0.12500041125E+03 0.  0.
         25    2    1    2    0    0 -0.63909007716E+02 -0.27562060624E+02 -0.64576740147E+02  0.15697032232E+03  0.12500199306E+03 0.  0.
          5    1    3    3  502    0  0.83966427351E+01 -0.46397059364E+02 -0.23120132683E+03  0.23600706399E+03  0.47000000000E+01 0. -1.
         -5    1    3    3    0  502  0.55512364981E+02  0.73959119988E+02 -0.70789447510E+03  0.71392454222E+03  0.47000000000E+01 0. -1.
          5    1    4    4  503    0 -0.45689423299E+02  0.46432990222E+02 -0.40780704519E+02  0.76998063894E+02  0.47000000000E+01 0. -1.
         -5    1    4    4    0  503 -0.18219584417E+02 -0.73995050847E+02 -0.23796035628E+02  0.79972258426E+02  0.47000000000E+01 0. -1.
<mgrwt>
<rscale>  0 0.14307141E+03</rscale>
<asrwt>0</asrwt>
<pdfrwt beam="1">  1        5 0.79407229E-02 0.14307175E+03</pdfrwt>
<pdfrwt beam="2">  1       -5 0.16235187E+00 0.14307175E+03</pdfrwt>
<totfact> 0.19702428E+01</totfact>
</mgrwt>
</event>
<event>
 8    1  0.3682083E-007  0.1576217E+03  0.7546771E-02  0.1191409E+00
         -5   -1    0    0    0  501 -0.00000000000E+00  0.00000000000E+00  0.36688694319E+03  0.36691704660E+03  0.47000000000E+01 0.  1.
          5   -1    0    0  501    0  0.00000000000E+00 -0.00000000000E+00 -0.77531231100E+02  0.77673559182E+02  0.47000000000E+01 0.  1.
         25    2    1    2    0    0 -0.75566795867E+02  0.59229550907E+02  0.22414116560E+03  0.27401437400E+03  0.12500453874E+03 0.  0.
         25    2    1    2    0    0  0.75566795867E+02 -0.59229550907E+02  0.65214546489E+02  0.17057623177E+03  0.12499933374E+03 0.  0.
          5    1    4    4  502    0  0.38343622289E+01 -0.21570834654E+02  0.84284928926E+02  0.87212628016E+02  0.47000000000E+01 0. -1.
         -5    1    4    4    0  502  0.71732433638E+02 -0.37658716252E+02 -0.19070382437E+02  0.83363603759E+02  0.47000000000E+01 0. -1.
          5    1    3    3  503    0 -0.40652155741E+02 -0.27492521575E+02  0.13898652459E+03  0.14747128713E+03  0.47000000000E+01 0.  1.
         -5    1    3    3    0  503 -0.34914640126E+02  0.86722072482E+02  0.85154641007E+02  0.12654308687E+03  0.47000000000E+01 0.  1.
<mgrwt>
<rscale>  0 0.15762071E+03</rscale>
<asrwt>0</asrwt>
<pdfrwt beam="2">  1        5 0.11941146E-01 0.15762175E+03</pdfrwt>
<pdfrwt beam="1">  1       -5 0.56457410E-01 0.15762175E+03</pdfrwt>
<totfact> 0.13053146E+02</totfact>
</mgrwt>
</event>
<event>
 8    1  0.3682083E-007  0.1485161E+03  0.7546771E-02  0.1202311E+00
          5   -1    0    0  501    0  0.00000000000E+00  0.00000000000E+00  0.36602664475E+03  0.36605681890E+03  0.47000000000E+01 0.  1.
         -5   -1    0    0    0  501 -0.00000000000E+00 -0.00000000000E+00 -0.66424682436E+02  0.66590753388E+02  0.47000000000E+01 0.  1.
         25    2    1    2    0    0  0.75052530328E+02 -0.28270219547E+02  0.21628244861E+03  0.26236449478E+03  0.12499977170E+03 0.  0.
         25    2    1    2    0    0 -0.75052530328E+02  0.28270219547E+02  0.83319513703E+02  0.17028307751E+03  0.12498838946E+03 0.  0.
          5    1    3    3  502    0  0.10930841506E+03 -0.12261784420E+02  0.16796397010E+03  0.20082994352E+03  0.47000000000E+01 0. -1.
         -5    1    3    3    0  502 -0.34255884736E+02 -0.16008435127E+02  0.48318478509E+02  0.61534551268E+02  0.47000000000E+01 0. -1.
          5    1    4    4  503    0 -0.10007722745E+03 -0.89804690979E+01  0.72180288900E+02  0.12380704498E+03  0.47000000000E+01 0.  1.
         -5    1    4    4    0  503  0.25024697124E+02  0.37250688645E+02  0.11139224803E+02  0.46476032532E+02  0.47000000000E+01 0.  1.
<mgrwt>
<rscale>  0 0.14851370E+03</rscale>
<asrwt>0</asrwt>
<pdfrwt beam="1">  1        5 0.56326888E-01 0.14851610E+03</pdfrwt>
<pdfrwt beam="2">  1       -5 0.10234278E-01 0.14851610E+03</pdfrwt>
<totfact> 0.16892305E+02</totfact>
</mgrwt>
</event>
<event>
 8    1  0.3682083E-007  0.1279285E+03  0.7546771E-02  0.1230565E+00
          5   -1    0    0  501    0  0.00000000000E+00  0.00000000000E+00  0.13837587087E+03  0.13845566669E+03  0.47000000000E+01 0.  1.
         -5   -1    0    0    0  501 -0.00000000000E+00 -0.00000000000E+00 -0.12556599458E+03  0.12565392550E+03  0.47000000000E+01 0.  1.
         25    2    1    2    0    0 -0.10776629038E+02  0.25002204794E+02 -0.25769833096E+02  0.13049041678E+03  0.12498967396E+03 0.  0.
         25    2    1    2    0    0  0.10776629038E+02 -0.25002204794E+02  0.38579709390E+02  0.13361917541E+03  0.12499777631E+03 0.  0.
          5    1    4    4  502    0  0.40840383949E+02 -0.57312851598E+02  0.51569388485E+02  0.87373861927E+02  0.47000000000E+01 0. -1.
         -5    1    4    4    0  502 -0.30063754911E+02  0.32310646804E+02 -0.12989679095E+02  0.46245313484E+02  0.47000000000E+01 0. -1.
          5    1    3    3  503    0 -0.20590457832E+02 -0.38576398899E+02 -0.45258798331E+02  0.63107482378E+02  0.47000000000E+01 0. -1.
         -5    1    3    3    0  503  0.98138287933E+01  0.63578603693E+02  0.19488965235E+02  0.67382934405E+02  0.47000000000E+01 0. -1.
<mgrwt>
<rscale>  0 0.12792648E+03</rscale>
<asrwt>0</asrwt>
<pdfrwt beam="1">  1        5 0.21301497E-01 0.12792846E+03</pdfrwt>
<pdfrwt beam="2">  1       -5 0.19330747E-01 0.12792846E+03</pdfrwt>
<totfact> 0.36006588E+02</totfact>
</mgrwt>
</event>
<event>
 8    1  0.3682083E-007  0.1356227E+03  0.7546771E-02  0.1219345E+00
         -5   -1    0    0    0  501 -0.00000000000E+00  0.00000000000E+00  0.14002536307E+02  0.14770274982E+02  0.47000000000E+01 0.  1.
          5   -1    0    0  501    0  0.00000000000E+00 -0.00000000000E+00 -0.17286677580E+04  0.17286741473E+04  0.47000000000E+01 0.  1.
         25    2    1    2    0    0  0.51172435527E+02  0.12195430580E+02 -0.41221283321E+03  0.43395038238E+03  0.12500467120E+03 0.  0.
         25    2    1    2    0    0 -0.51172435527E+02 -0.12195430580E+02 -0.13024523884E+04  0.13094940399E+04  0.12500027835E+03 0.  0.
          5    1    4    4  502    0 -0.30990258977E+02 -0.31582223775E+01 -0.69189841376E+02  0.76024303151E+02  0.47000000000E+01 0. -1.
         -5    1    4    4    0  502 -0.20182176551E+02 -0.90372082023E+01 -0.12332625471E+04  0.12334697367E+04  0.47000000000E+01 0. -1.
          5    1    3    3  503    0  0.19585039897E+02  0.48050701586E+02 -0.35699200346E+03  0.36077392401E+03  0.47000000000E+01 0.  1.
         -5    1    3    3    0  503  0.31587395630E+02 -0.35855271006E+02 -0.55220829748E+02  0.73176458371E+02  0.47000000000E+01 0.  1.
<mgrwt>
<rscale>  0 0.13562168E+03</rscale>
<asrwt>0</asrwt>
<pdfrwt beam="2">  1        5 0.26600827E+00 0.13562269E+03</pdfrwt>
<pdfrwt beam="1">  1       -5 0.22137860E-02 0.13562269E+03</pdfrwt>
<totfact> 0.32271876E+01</totfact>
</mgrwt>
</event>
