<event>
 8    1  0.3754098E-007  0.1574713E+03  0.7546771E-02  0.1191583E+00
         -5   -1    0    0    0  501 -0.00000000000E+00  0.00000000000E+00  0.69405540578E+02  0.69564495706E+02  0.47000000000E+01 0. -1.
          5   -1    0    0  501    0  0.00000000000E+00 -0.00000000000E+00 -0.35840167293E+03  0.35843248899E+03  0.47000000000E+01 0. -1.
         25    2    1    2    0    0  0.73257112761E+02 -0.61678269181E+02 -0.12967673544E+03  0.20398833315E+03  0.12499748353E+03 0.  0.
         25    2    1    2    0    0 -0.73257112761E+02  0.61678269181E+02 -0.15931939692E+03  0.22400865154E+03  0.12500556897E+03 0.  0.
          5    1    4    4  502    0 -0.71629189033E+02 -0.20438926612E+02 -0.66325874265E+02  0.99848395278E+02  0.47000000000E+01 0.  1.
         -5    1    4    4    0  502 -0.16279237287E+01  0.82117195793E+02 -0.92993522653E+02  0.12416025627E+03  0.47000000000E+01 0.  1.
          5    1    3    3  503    0 -0.16197022206E+02  0.23654771233E+02 -0.72634644067E+01  0.29945611459E+02  0.47000000000E+01 0. -1.
         -5    1    3    3    0  503  0.89454134968E+02 -0.85333040415E+02 -0.12241327103E+03  0.17404272169E+03  0.47000000000E+01 0. -1.
<mgrwt>
<rscale>  0 0.15746968E+03</rscale>
<asrwt>0</asrwt>
<pdfrwt beam="2">  1        5 0.55153316E-01 0.15747129E+03</pdfrwt>
<pdfrwt beam="1">  1       -5 0.10692373E-01 0.15747129E+03</pdfrwt>
<totfact> 0.16685658E+02</totfact>
</mgrwt>
</event>
<event>
 8    1  0.3754098E-007  0.1356727E+03  0.7546771E-02  0.1219279E+00
          5   -1    0    0  501    0  0.00000000000E+00  0.00000000000E+00  0.10876887534E+04  0.10876989079E+04  0.47000000000E+01 0. -1.
         -5   -1    0    0    0  501 -0.00000000000E+00 -0.00000000000E+00 -0.16612527675E+02  0.17264590228E+02  0.47000000000E+01 0. -1.
         25    2    1    2    0    0  0.48118728840E+02 -0.21497547390E+02  0.51319865116E+03  0.53082947754E+03  0.12501808694E+03 0.  0.
         25    2    1    2    0    0 -0.48118728840E+02  0.21497547390E+02  0.55787757455E+03  0.57413402059E+03  0.12499971520E+03 0.  0.
          5    1    3    3  502    0  0.20270762848E+02  0.47839806484E+02  0.30826317611E+03  0.31264648831E+03  0.47000000000E+01 0. -1.
         -5    1    3    3    0  502  0.27847965991E+02 -0.69337353874E+02  0.20493547505E+03  0.21818298922E+03  0.47000000000E+01 0. -1.
          5    1    4    4  503    0 -0.51954857579E+02 -0.37517145841E+02  0.40648537268E+03  0.41153285612E+03  0.47000000000E+01 0.  1.
         -5    1    4    4    0  503  0.38361287398E+01  0.59014693231E+02  0.15139220187E+03  0.16260116447E+03  0.47000000000E+01 0.  1.
<mgrwt>
<rscale>  0 0.13566846E+03</rscale>
<asrwt>0</asrwt>
<pdfrwt beam="1">  1        5 0.16738763E+00 0.13567269E+03</pdfrwt>
<pdfrwt beam="2">  1       -5 0.26067139E-02 0.13567269E+03</pdfrwt>
<totfact> 0.11236045E+02</totfact>
</mgrwt>
</event>
<event>
 8    1  0.3754098E-007  0.1675917E+03  0.7546771E-02  0.1180383E+00
         -5   -1    0    0    0  501 -0.00000000000E+00  0.00000000000E+00  0.13456966381E+03  0.13465171524E+03  0.47000000000E+01 0. -1.
          5   -1    0    0  501    0  0.00000000000E+00 -0.00000000000E+00 -0.23334449950E+03  0.23339182815E+03  0.47000000000E+01 0. -1.
         25    2    1    2    0    0 -0.70624003687E+02  0.86458176570E+02  0.10589442784E+02  0.16792475948E+03  0.12499528933E+03 0.  0.
         25    2    1    2    0    0  0.70624003687E+02 -0.86458176570E+02 -0.10936427848E+03  0.20011878392E+03  0.12499686428E+03 0.  0.
          5    1    4    4  502    0  0.91033176657E+02 -0.10539201503E+03 -0.91934786937E+02  0.16693894433E+03  0.47000000000E+01 0.  1.
         -5    1    4    4    0  502 -0.20409172970E+02  0.18933838459E+02 -0.17429491540E+02  0.33179839594E+02  0.47000000000E+01 0.  1.
          5    1    3    3  503    0 -0.52195317064E+02  0.67574628956E+02  0.64905177971E+02  0.10735666598E+03  0.47000000000E+01 0. -1.
         -5    1    3    3    0  503 -0.18428686623E+02  0.18883547614E+02 -0.54315735188E+02  0.60568093499E+02  0.47000000000E+01 0. -1.
<mgrwt>
<rscale>  0 0.16759142E+03</rscale>
<asrwt>0</asrwt>
<pdfrwt beam="2">  1        5 0.35909106E-01 0.16759171E+03</pdfrwt>
<pdfrwt beam="1">  1       -5 0.20712978E-01 0.16759171E+03</pdfrwt>
<totfact> 0.12536574E+02</totfact>
</mgrwt>
</event>
<event>
 8    1  0.3754098E-007  0.1287994E+03  0.7546771E-02  0.1229249E+00
         -5   -1    0    0    0  501 -0.00000000000E+00  0.00000000000E+00  0.18593298109E+03  0.18599237473E+03  0.47000000000E+01 0. -1.
          5   -1    0    0  501    0  0.00000000000E+00 -0.00000000000E+00 -0.93373705278E+02  0.93491918567E+02  0.47000000000E+01 0. -1.
         25    2    1    2    0    0  0.30746510707E+02  0.44495985178E+01  0.76203172336E+02  0.14965362786E+03  0.12499655199E+03 0.  0.
         25    2    1    2    0    0 -0.30746510707E+02 -0.44495985178E+01  0.16356103475E+02  0.12983066544E+03  0.12499333070E+03 0.  0.
          5    1    4    4  502    0 -0.72031098216E+02  0.25955568899E+02  0.15907751829E+02  0.78341031620E+02  0.47000000000E+01 0.  1.
         -5    1    4    4    0  502  0.41284587509E+02 -0.30405167416E+02  0.44835164519E+00  0.51489633817E+02  0.47000000000E+01 0.  1.
          5    1    3    3  503    0  0.38848348606E+02  0.54784611240E+02  0.71548055587E+02  0.98243381845E+02  0.47000000000E+01 0. -1.
         -5    1    3    3    0  503 -0.81018378987E+01 -0.50335012722E+02  0.46551167492E+01  0.51410246012E+02  0.47000000000E+01 0. -1.
<mgrwt>
<rscale>  0 0.12879862E+03</rscale>
<asrwt>0</asrwt>
<pdfrwt beam="2">  1        5 0.14378848E-01 0.12879940E+03</pdfrwt>
<pdfrwt beam="1">  1       -5 0.28618736E-01 0.12879940E+03</pdfrwt>
<totfact> 0.35259632E+02</totfact>
</mgrwt>
</event>
<event>
 8    1  0.3754098E-007  0.1356910E+03  0.7546771E-02  0.1219262E+00
          5   -1    0    0  501    0  0.00000000000E+00  0.00000000000E+00  0.97436945324E+02  0.97550234824E+02  0.47000000000E+01 0. -1.
         -5   -1    0    0    0  501 -0.00000000000E+00 -0.00000000000E+00 -0.21200755051E+03  0.21205964131E+03  0.47000000000E+01 0. -1.
         25    2    1    2    0    0 -0.52137218041E+02 -0.82836417384E+01 -0.10865421328E+03  0.17383264982E+03  0.12500057541E+03 0.  0.
         25    2    1    2    0    0  0.52137218041E+02  0.82836417384E+01 -0.59163919059E+01  0.13577722632E+03  0.12495416467E+03 0.  0.
          5    1    4    4  502    0  0.71099657103E+02  0.49184115151E+02  0.11249034345E+02  0.87309044189E+02  0.47000000000E+01 0. -1.
         -5    1    4    4    0  502 -0.18962439062E+02 -0.40900473413E+02 -0.17165426251E+02  0.48468182130E+02  0.47000000000E+01 0. -1.
          5    1    3    3  503    0  0.14760095134E+02 -0.18753294067E+02  0.17917439108E+02  0.30210446387E+02  0.47000000000E+01 0.  1.
         -5    1    3    3    0  503 -0.66897313175E+02  0.10469652329E+02 -0.12657165239E+03  0.14362220343E+03  0.47000000000E+01 0.  1.
<mgrwt>
<rscale>  0 0.13568033E+03</rscale>
<asrwt>0</asrwt>
<pdfrwt beam="1">  1        5 0.15003021E-01 0.13569102E+03</pdfrwt>
<pdfrwt beam="2">  1       -5 0.32629268E-01 0.13569102E+03</pdfrwt>
<totfact> 0.25705852E+02</totfact>
</mgrwt>
</event>
<event>
 8    1  0.3754098E-007  0.1291129E+03  0.7546771E-02  0.1228801E+00
          5   -1    0    0  501    0  0.00000000000E+00  0.00000000000E+00  0.16677156369E+03  0.16683777886E+03  0.47000000000E+01 0. -1.
         -5   -1    0    0    0  501 -0.00000000000E+00 -0.00000000000E+00 -0.11010428643E+03  0.11020455476E+03  0.47000000000E+01 0. -1.
         25    2    1    2    0    0 -0.27774120729E+02  0.16098096172E+02 -0.14069130001E+02  0.12987719775E+03  0.12505836875E+03 0.  0.
         25    2    1    2    0    0  0.27774120729E+02 -0.16098096172E+02  0.70736407260E+02  0.14716513587E+03  0.12499354952E+03 0.  0.
          5    1    3    3  502    0  0.46634611540E+02  0.25412814011E+02 -0.12312338410E+02  0.54720030944E+02  0.47000000000E+01 0.  1.
         -5    1    3    3    0  502 -0.74408732268E+02 -0.93147178392E+01 -0.17567915904E+01  0.75157166810E+02  0.47000000000E+01 0.  1.
          5    1    4    4  503    0 -0.28234552701E+02 -0.21451956238E+02 -0.19486031758E+02  0.40732932945E+02  0.47000000000E+01 0.  1.
         -5    1    4    4    0  503  0.56008673430E+02  0.53538600655E+01  0.90222439018E+02  0.10643220292E+03  0.47000000000E+01 0.  1.
<mgrwt>
<rscale>  0 0.12909722E+03</rscale>
<asrwt>0</asrwt>
<pdfrwt beam="1">  1        5 0.25669970E-01 0.12911292E+03</pdfrwt>
<pdfrwt beam="2">  1       -5 0.16951928E-01 0.12911292E+03</pdfrwt>
<totfact> 0.32299021E+02</totfact>
</mgrwt>
</event>
<event>
 8    1  0.3754098E-007  0.1417308E+03  0.7546771E-02  0.1211023E+00
         -5   -1    0    0    0  501 -0.00000000000E+00  0.00000000000E+00  0.57180671419E+02  0.57373505941E+02  0.47000000000E+01 0. -1.
          5   -1    0    0  501    0  0.00000000000E+00 -0.00000000000E+00 -0.35140334215E+03  0.35143477186E+03  0.47000000000E+01 0. -1.
         25    2    1    2    0    0 -0.29750211872E+01 -0.66719634049E+02 -0.13655263599E+03  0.19680013197E+03  0.12499323673E+03 0.  0.
         25    2    1    2    0    0  0.29750211872E+01  0.66719634049E+02 -0.15767003474E+03  0.21200814584E+03  0.12500901459E+03 0.  0.
          5    1    4    4  502    0 -0.17899916177E+02 -0.15472014842E+02 -0.11396782697E+03  0.11649268572E+03  0.47000000000E+01 0. -1.
         -5    1    4    4    0  502  0.20874937364E+02  0.82191648891E+02 -0.43702207773E+02  0.95515460118E+02  0.47000000000E+01 0. -1.
          5    1    3    3  503    0 -0.56005848591E+02 -0.58494510161E+02 -0.11017930213E+03  0.13682043493E+03  0.47000000000E+01 0.  1.
         -5    1    3    3    0  503  0.53030827404E+02 -0.82251238873E+01 -0.26373333858E+02  0.59979697038E+02  0.47000000000E+01 0.  1.
<mgrwt>
<rscale>  0 0.14172730E+03</rscale>
<asrwt>0</asrwt>
<pdfrwt beam="2">  1        5 0.54079303E-01 0.14173078E+03</pdfrwt>
<pdfrwt beam="1">  1       -5 0.88142776E-02 0.14173078E+03</pdfrwt>
<totfact> 0.23549702E+02</totfact>
</mgrwt>
</event>
<event>
 8    1  0.3754098E-007  0.1803377E+03  0.7546771E-02  0.1167478E+00
          5   -1    0    0  501    0  0.00000000000E+00  0.00000000000E+00  0.46027376745E+03  0.46029776341E+03  0.47000000000E+01 0.  1.
         -5   -1    0    0    0  501 -0.00000000000E+00 -0.00000000000E+00 -0.91703177508E+02  0.91823541453E+02  0.47000000000E+01 0.  1.
         25    2    1    2    0    0  0.95283289891E+02 -0.88416609307E+02  0.51821193691E+02  0.18763557314E+03  0.12500108023E+03 0.  0.
         25    2    1    2    0    0 -0.95283289891E+02  0.88416609307E+02  0.31674939625E+03  0.36448573172E+03  0.12499306568E+03 0.  0.
          5    1    4    4  502    0 -0.85244668853E+02  0.39061427238E+02  0.29471932242E+03  0.30931216864E+03  0.47000000000E+01 0. -1.
         -5    1    4    4    0  502 -0.10038621039E+02  0.49355182069E+02  0.22030073834E+02  0.55173563077E+02  0.47000000000E+01 0. -1.
          5    1    3    3  503    0 -0.14484852110E+02 -0.10047411388E+02 -0.26066758324E+02  0.31817091409E+02  0.47000000000E+01 0.  1.
         -5    1    3    3    0  503  0.10976814200E+03 -0.78369197919E+02  0.77887952015E+02  0.15581848173E+03  0.47000000000E+01 0.  1.
<mgrwt>
<rscale>  0 0.18033627E+03</rscale>
<asrwt>0</asrwt>
<pdfrwt beam="1">  1        5 0.70822455E-01 0.18033766E+03</pdfrwt>
<pdfrwt beam="2">  1       -5 0.14119285E-01 0.18033766E+03</pdfrwt>
<totfact> 0.60808544E+01</totfact>
</mgrwt>
</event>
<event>
 8    1  0.3754098E-007  0.1930906E+03  0.7546771E-02  0.1155703E+00
         -5   -1    0    0    0  501 -0.00000000000E+00  0.00000000000E+00  0.56335848700E+03  0.56337809229E+03  0.47000000000E+01 0.  1.
          5   -1    0    0  501    0  0.00000000000E+00 -0.00000000000E+00 -0.71078335989E+02  0.71233558433E+02  0.47000000000E+01 0.  1.
         25    2    1    2    0    0 -0.24666828268E+02  0.14509051960E+03  0.33019935865E+03  0.38251223965E+03  0.12499714291E+03 0.  0.
         25    2    1    2    0    0  0.24666828268E+02 -0.14509051960E+03  0.16208079236E+03  0.25209941107E+03  0.12499687404E+03 0.  0.
          5    1    4    4  502    0  0.56810789663E+02 -0.11967254193E+03  0.67148921647E+02  0.14859357588E+03  0.47000000000E+01 0.  1.
         -5    1    4    4    0  502 -0.32143961395E+02 -0.25417977668E+02  0.94931870712E+02  0.10350583520E+03  0.47000000000E+01 0.  1.
          5    1    3    3  503    0  0.64701546922E+01  0.35764954156E+02  0.37898693345E+01  0.36843560592E+02  0.47000000000E+01 0. -1.
         -5    1    3    3    0  503 -0.31136982960E+02  0.10932556544E+03  0.32640948932E+03  0.34566867906E+03  0.47000000000E+01 0. -1.
<mgrwt>
<rscale>  0 0.19309060E+03</rscale>
<asrwt>0</asrwt>
<pdfrwt beam="2">  1        5 0.10948577E-01 0.19309064E+03</pdfrwt>
<pdfrwt beam="1">  1       -5 0.86683987E-01 0.19309064E+03</pdfrwt>
<totfact> 0.61120704E+01</totfact>
</mgrwt>
</event>
<event>
 8    1  0.3754098E-007  0.1846686E+03  0.7546771E-02  0.1163361E+00
         -5   -1    0    0    0  501 -0.00000000000E+00  0.00000000000E+00  0.56467669574E+03  0.56469625527E+03  0.47000000000E+01 0. -1.
          5   -1    0    0  501    0  0.00000000000E+00 -0.00000000000E+00 -0.60628376164E+02  0.60810278706E+02  0.47000000000E+01 0. -1.
         25    2    1    2    0    0  0.13476711748E+03  0.17758478041E+02  0.27573252294E+03  0.33185609747E+03  0.12499002250E+03 0.  0.
         25    2    1    2    0    0 -0.13476711748E+03 -0.17758478041E+02  0.22831579664E+03  0.29365043650E+03  0.12499974547E+03 0.  0.
          5    1    3    3  502    0  0.53680880035E+01  0.50040331602E+02  0.88794444038E+02  0.10217335488E+03  0.47000000000E+01 0.  1.
         -5    1    3    3    0  502  0.12939902948E+03 -0.32281853561E+02  0.18693807891E+03  0.22968274259E+03  0.47000000000E+01 0.  1.
          5    1    4    4  503    0 -0.10155932744E+02  0.11135049366E+02  0.13331186931E+03  0.13424334916E+03  0.47000000000E+01 0. -1.
         -5    1    4    4    0  503 -0.12461118474E+03 -0.28893527407E+02  0.95003927329E+02  0.15940708735E+03  0.47000000000E+01 0. -1.
<mgrwt>
<rscale>  0 0.18466691E+03</rscale>
<asrwt>0</asrwt>
<pdfrwt beam="2">  1        5 0.93429401E-02 0.18466856E+03</pdfrwt>
<pdfrwt beam="1">  1       -5 0.86888830E-01 0.18466856E+03</pdfrwt>
<totfact> 0.79311485E+01</totfact>
</mgrwt>
</event>
<event>
 8    1  0.3754098E-007  0.1319445E+03  0.7546771E-02  0.1224607E+00
         -5   -1    0    0    0  501 -0.00000000000E+00  0.00000000000E+00  0.47115242204E+02  0.47349087087E+02  0.47000000000E+01 0.  1.
          5   -1    0    0  501    0  0.00000000000E+00 -0.00000000000E+00 -0.49807863288E+03  0.49810080760E+03  0.47000000000E+01 0.  1.
         25    2    1    2    0    0 -0.22546627974E+02  0.35651203033E+02 -0.86280785672E+02  0.15763193958E+03  0.12499638270E+03 0.  0.
         25    2    1    2    0    0  0.22546627974E+02 -0.35651203033E+02 -0.36468260500E+03  0.38781795510E+03  0.12502001919E+03 0.  0.
          5    1    3    3  502    0  0.13313673168E+02  0.75844255849E+02 -0.58659869452E+02  0.96915815648E+02  0.47000000000E+01 0.  1.
         -5    1    3    3    0  502 -0.35860301142E+02 -0.40193052816E+02 -0.27620916220E+02  0.60716123933E+02  0.47000000000E+01 0.  1.
          5    1    4    4  503    0  0.51092679365E+02 -0.67577976481E+02 -0.28331148578E+03  0.29574437064E+03  0.47000000000E+01 0.  1.
         -5    1    4    4    0  503 -0.28546051391E+02  0.31926773448E+02 -0.81371119223E+02  0.92073584466E+02  0.47000000000E+01 0.  1.
<mgrwt>
<rscale>  0 0.13193895E+03</rscale>
<asrwt>0</asrwt>
<pdfrwt beam="2">  1        5 0.76647172E-01 0.13194455E+03</pdfrwt>
<pdfrwt beam="1">  1       -5 0.72681930E-02 0.13194455E+03</pdfrwt>
<totfact> 0.14767185E+02</totfact>
</mgrwt>
</event>
<event>
 8    1  0.3754098E-007  0.1377220E+03  0.7546771E-02  0.1216427E+00
          5   -1    0    0  501    0  0.00000000000E+00  0.00000000000E+00  0.74055556144E+02  0.74204551045E+02  0.47000000000E+01 0. -1.
         -5   -1    0    0    0  501 -0.00000000000E+00 -0.00000000000E+00 -0.26363585957E+03  0.26367775115E+03  0.47000000000E+01 0. -1.
         25    2    1    2    0    0  0.54798760238E+01  0.57555549224E+02 -0.12409989280E+03  0.18538624964E+03  0.12499843149E+03 0.  0.
         25    2    1    2    0    0 -0.54798760238E+01 -0.57555549224E+02 -0.65480410631E+02  0.15249605256E+03  0.12499876632E+03 0.  0.
          5    1    3    3  502    0  0.41598231025E+02 -0.24088342933E+02 -0.41910107898E+02  0.63946917312E+02  0.47000000000E+01 0.  1.
         -5    1    3    3    0  502 -0.36118355001E+02  0.81643892157E+02 -0.82189784898E+02  0.12143933233E+03  0.47000000000E+01 0.  1.
          5    1    4    4  503    0 -0.61124779224E+01 -0.17672403872E+01 -0.90731605859E+02  0.91075791661E+02  0.47000000000E+01 0.  1.
         -5    1    4    4    0  503  0.63260189859E+00 -0.55788308837E+02  0.25251195228E+02  0.61420260896E+02  0.47000000000E+01 0.  1.
<mgrwt>
<rscale>  0 0.13772197E+03</rscale>
<asrwt>0</asrwt>
<pdfrwt beam="1">  1        5 0.11407846E-01 0.13772205E+03</pdfrwt>
<pdfrwt beam="2">  1       -5 0.40574046E-01 0.13772205E+03</pdfrwt>
<totfact> 0.27163407E+02</totfact>
</mgrwt>
</event>
<event>
 8    1  0.3754098E-007  0.1607736E+03  0.7546771E-02  0.1187827E+00
         -5   -1    0    0    0  501 -0.00000000000E+00  0.00000000000E+00  0.13454019583E+03  0.13462226523E+03  0.47000000000E+01 0.  1.
          5   -1    0    0  501    0  0.00000000000E+00 -0.00000000000E+00 -0.22859221512E+03  0.22864052750E+03  0.47000000000E+01 0.  1.
         25    2    1    2    0    0 -0.90752924293E+02  0.44548537623E+02  0.25673972583E+02  0.16281063109E+03  0.12500993263E+03 0.  0.
         25    2    1    2    0    0  0.90752924293E+02 -0.44548537623E+02 -0.11972599187E+03  0.20045216163E+03  0.12500436193E+03 0.  0.
          5    1    4    4  502    0  0.72081930877E+02 -0.12253152010E+01 -0.60957954456E+00  0.72247960134E+02  0.47000000000E+01 0. -1.
         -5    1    4    4    0  502  0.18670993416E+02 -0.43323222422E+02 -0.11911641233E+03  0.12820420150E+03  0.47000000000E+01 0. -1.
          5    1    3    3  503    0 -0.92868063371E+02  0.25971207904E+01 -0.25484079677E+02  0.96450767481E+02  0.47000000000E+01 0. -1.
         -5    1    3    3    0  503  0.21151390773E+01  0.41951416833E+02  0.51158052259E+02  0.66359863612E+02  0.47000000000E+01 0. -1.
<mgrwt>
<rscale>  0 0.16077251E+03</rscale>
<asrwt>0</asrwt>
<pdfrwt beam="2">  1        5 0.35178062E-01 0.16077359E+03</pdfrwt>
<pdfrwt beam="1">  1       -5 0.20708521E-01 0.16077359E+03</pdfrwt>
<totfact> 0.12910825E+02</totfact>
</mgrwt>
</event>
<event>
 8    1  0.3754098E-007  0.1414258E+03  0.7546771E-02  0.1211429E+00
          5   -1    0    0  501    0  0.00000000000E+00  0.00000000000E+00  0.13667414941E+03  0.13675493819E+03  0.47000000000E+01 0. -1.
         -5   -1    0    0    0  501 -0.00000000000E+00 -0.00000000000E+00 -0.15294123063E+03  0.15301343087E+03  0.47000000000E+01 0. -1.
         25    2    1    2    0    0  0.33627733408E+02 -0.56913098744E+02 -0.38623527222E+02  0.14660500545E+03  0.12502529946E+03 0.  0.
         25    2    1    2    0    0 -0.33627733408E+02  0.56913098744E+02  0.22356446008E+02  0.14316336360E+03  0.12500405088E+03 0.  0.
          5    1    4    4  502    0 -0.22400458836E+02 -0.68053667495E+01  0.62479674270E+02  0.66887168198E+02  0.47000000000E+01 0. -1.
         -5    1    4    4    0  502 -0.11227274572E+02  0.63718465494E+02 -0.40123228263E+02  0.76276195404E+02  0.47000000000E+01 0. -1.
          5    1    3    3  503    0 -0.30935227959E+02 -0.19444159645E+02 -0.58572636686E+02  0.69194706744E+02  0.47000000000E+01 0. -1.
         -5    1    3    3    0  503  0.64562961367E+02 -0.37468939099E+02  0.19949109464E+02  0.77410298708E+02  0.47000000000E+01 0. -1.
<mgrwt>
<rscale>  0 0.14142108E+03</rscale>
<asrwt>0</asrwt>
<pdfrwt beam="1">  1        5 0.21038561E-01 0.14142578E+03</pdfrwt>
<pdfrwt beam="2">  1       -5 0.23541188E-01 0.14142578E+03</pdfrwt>
<totfact> 0.26360388E+02</totfact>
</mgrwt>
</event>
<event>
 8    1  0.3754098E-007  0.1724593E+03  0.7546771E-02  0.1175308E+00
          5   -1    0    0  501    0  0.00000000000E+00  0.00000000000E+00  0.14285302681E+03  0.14293032313E+03  0.47000000000E+01 0. -1.
         -5   -1    0    0    0  501 -0.00000000000E+00 -0.00000000000E+00 -0.21016596824E+03  0.21021851537E+03  0.47000000000E+01 0. -1.
         25    2    1    2    0    0 -0.11728744515E+03  0.18965705627E+02 -0.51419087113E+02  0.17996146634E+03  0.12500465618E+03 0.  0.
         25    2    1    2    0    0  0.11728744515E+03 -0.18965705627E+02 -0.15893854313E+02  0.17318737217E+03  0.12500083397E+03 0.  0.
          5    1    3    3  502    0 -0.10367810430E+03  0.65166973241E+02 -0.47424227894E+02  0.13140407568E+03  0.47000000000E+01 0.  1.
         -5    1    3    3    0  502 -0.13609340851E+02 -0.46201267614E+02 -0.39948592196E+01  0.48557390660E+02  0.47000000000E+01 0.  1.
          5    1    4    4  503    0 -0.28164086245E+01 -0.41500390467E+02 -0.27904960259E+02  0.50308959177E+02  0.47000000000E+01 0.  1.
         -5    1    4    4    0  503  0.12010385378E+03  0.22534684840E+02  0.12011105946E+02  0.12287841299E+03  0.47000000000E+01 0.  1.
<mgrwt>
<rscale>  0 0.17245860E+03</rscale>
<asrwt>0</asrwt>
<pdfrwt beam="1">  1        5 0.21987377E-01 0.17245929E+03</pdfrwt>
<pdfrwt beam="2">  1       -5 0.32343214E-01 0.17245929E+03</pdfrwt>
<totfact> 0.13932207E+02</totfact>
</mgrwt>
</event>
<event>
 8    1  0.3754098E-007  0.2190405E+03  0.7546771E-02  0.1134601E+00
         -5   -1    0    0    0  501 -0.00000000000E+00  0.00000000000E+00  0.14697109104E+04  0.14697184254E+04  0.47000000000E+01 0. -1.
          5   -1    0    0  501    0  0.00000000000E+00 -0.00000000000E+00 -0.35045824900E+02  0.35359579224E+02  0.47000000000E+01 0. -1.
         25    2    1    2    0    0  0.69028928674E+02  0.16610051080E+03  0.92046732433E+03  0.94617062551E+03  0.12499753888E+03 0.  0.
         25    2    1    2    0    0 -0.69028928674E+02 -0.16610051080E+03  0.51419776114E+03  0.55890737916E+03  0.12499499283E+03 0.  0.
          5    1    4    4  502    0  0.20175303794E+02  0.38163441023E+01  0.10266176231E+03  0.10480045231E+03  0.47000000000E+01 0.  1.
         -5    1    4    4    0  502 -0.89204232468E+02 -0.16991685490E+03  0.41153599883E+03  0.45410692684E+03  0.47000000000E+01 0.  1.
          5    1    3    3  503    0 -0.29795084831E+02  0.51423368518E+02  0.15950517032E+03  0.17028241034E+03  0.47000000000E+01 0.  1.
         -5    1    3    3    0  503  0.98824013505E+02  0.11467714228E+03  0.76096215401E+03  0.77588821517E+03  0.47000000000E+01 0.  1.
<mgrwt>
<rscale>  0 0.21904018E+03</rscale>
<asrwt>0</asrwt>
<pdfrwt beam="2">  1        5 0.54163809E-02 0.21904054E+03</pdfrwt>
<pdfrwt beam="1">  1       -5 0.22613398E+00 0.21904054E+03</pdfrwt>
<totfact> 0.15027515E+01</totfact>
</mgrwt>
</event>
<event>
 8    1  0.3754098E-007  0.1295978E+03  0.7546771E-02  0.1228054E+00
         -5   -1    0    0    0  501 -0.00000000000E+00  0.00000000000E+00  0.54036708716E+03  0.54038752658E+03  0.47000000000E+01 0.  1.
          5   -1    0    0  501    0  0.00000000000E+00 -0.00000000000E+00 -0.32147209795E+02  0.32488968860E+02  0.47000000000E+01 0.  1.
         25    2    1    2    0    0  0.22046697586E+02 -0.26169469093E+02  0.31059976648E+03  0.33655284412E+03  0.12499881585E+03 0.  0.
         25    2    1    2    0    0 -0.22046697586E+02  0.26169469093E+02  0.19762011088E+03  0.23632365131E+03  0.12499704780E+03 0.  0.
          5    1    3    3  502    0 -0.81387301207E+01 -0.36801128785E+02  0.30017455543E+03  0.30256803488E+03  0.47000000000E+01 0.  1.
         -5    1    3    3    0  502  0.30185427707E+02  0.10631659692E+02  0.10425211052E+02  0.33984809241E+02  0.47000000000E+01 0.  1.
          5    1    4    4  503    0 -0.10840601169E+02  0.68486763802E+02  0.59942690937E+02  0.91777838537E+02  0.47000000000E+01 0.  1.
         -5    1    4    4    0  503 -0.11206096417E+02 -0.42317294709E+02  0.13767741995E+03  0.14454581278E+03  0.47000000000E+01 0.  1.
<mgrwt>
<rscale>  0 0.12959742E+03</rscale>
<asrwt>0</asrwt>
<pdfrwt beam="2">  1        5 0.49735860E-02 0.12959785E+03</pdfrwt>
<pdfrwt beam="1">  1       -5 0.83161260E-01 0.12959785E+03</pdfrwt>
<totfact> 0.22983971E+02</totfact>
</mgrwt>
</event>
<event>
 8    1  0.3754098E-007  0.1853395E+03  0.7546771E-02  0.1162735E+00
         -5   -1    0    0    0  501 -0.00000000000E+00  0.00000000000E+00  0.36825359954E+03  0.36828359123E+03  0.47000000000E+01 0.  1.
          5   -1    0    0  501    0  0.00000000000E+00 -0.00000000000E+00 -0.93958655938E+02  0.94076134199E+02  0.47000000000E+01 0.  1.
         25    2    1    2    0    0 -0.90913611829E+02 -0.10227844183E+03  0.15812177365E+03  0.24362034276E+03  0.12498884599E+03 0.  0.
         25    2    1    2    0    0  0.90913611829E+02  0.10227844183E+03  0.11617316995E+03  0.21873938268E+03  0.12499819054E+03 0.  0.
          5    1    4    4  502    0  0.27472250553E+02  0.35250327532E+02 -0.23924117827E+02  0.50909366087E+02  0.47000000000E+01 0.  1.
         -5    1    4    4    0  502  0.63441361275E+02  0.67028114299E+02  0.14009728777E+03  0.16783001659E+03  0.47000000000E+01 0.  1.
          5    1    3    3  503    0  0.23395042482E+02 -0.64160786619E-01  0.51598087804E+02  0.56848788856E+02  0.47000000000E+01 0.  1.
         -5    1    3    3    0  503 -0.11430865431E+03 -0.10221428104E+03  0.10652368585E+03  0.18677155390E+03  0.47000000000E+01 0.  1.
<mgrwt>
<rscale>  0 0.18533788E+03</rscale>
<asrwt>0</asrwt>
<pdfrwt beam="2">  1        5 0.14466522E-01 0.18533945E+03</pdfrwt>
<pdfrwt beam="1">  1       -5 0.56665742E-01 0.18533945E+03</pdfrwt>
<totfact> 0.96285497E+01</totfact>
</mgrwt>
</event>
<event>
 8    1  0.3754098E-007  0.1317745E+03  0.7546771E-02  0.1224849E+00
         -5   -1    0    0    0  501 -0.00000000000E+00  0.00000000000E+00  0.10771015230E+03  0.10781264726E+03  0.47000000000E+01 0. -1.
          5   -1    0    0  501    0  0.00000000000E+00 -0.00000000000E+00 -0.16377120107E+03  0.16383862884E+03  0.47000000000E+01 0. -1.
         25    2    1    2    0    0 -0.16615861981E+02 -0.38255523068E+02 -0.10349565313E+02  0.13217342624E+03  0.12499251653E+03 0.  0.
         25    2    1    2    0    0  0.16615861981E+02  0.38255523068E+02 -0.45711483457E+02  0.13947784985E+03  0.12499983586E+03 0.  0.
          5    1    4    4  502    0  0.23810305915E+02  0.33715239847E+02 -0.87347261401E+02  0.96722707468E+02  0.47000000000E+01 0.  1.
         -5    1    4    4    0  502 -0.71944439341E+01  0.45402832212E+01  0.41635777944E+02  0.42755142384E+02  0.47000000000E+01 0.  1.
          5    1    3    3  503    0 -0.40948390974E+02 -0.18635227113E+01  0.45260235039E+02  0.61243957384E+02  0.47000000000E+01 0. -1.
         -5    1    3    3    0  503  0.24332528993E+02 -0.36392000356E+02 -0.55609800352E+02  0.70929468857E+02  0.47000000000E+01 0. -1.
<mgrwt>
<rscale>  0 0.13177281E+03</rscale>
<asrwt>0</asrwt>
<pdfrwt beam="2">  1        5 0.25208640E-01 0.13177455E+03</pdfrwt>
<pdfrwt beam="1">  1       -5 0.16583864E-01 0.13177455E+03</pdfrwt>
<totfact> 0.35073296E+02</totfact>
</mgrwt>
</event>
<event>
 8    1  0.3754098E-007  0.1308131E+03  0.7546771E-02  0.1226257E+00
         -5   -1    0    0    0  501 -0.00000000000E+00  0.00000000000E+00  0.15540168106E+03  0.15547273869E+03  0.47000000000E+01 0. -1.
          5   -1    0    0  501    0  0.00000000000E+00 -0.00000000000E+00 -0.11706398689E+03  0.11715829901E+03  0.47000000000E+01 0. -1.
         25    2    1    2    0    0 -0.35043172562E+02  0.16050800335E+02  0.52718894251E+02  0.14102978276E+03  0.12499786270E+03 0.  0.
         25    2    1    2    0    0  0.35043172562E+02 -0.16050800335E+02 -0.14381200076E+02  0.13160125494E+03  0.12500567688E+03 0.  0.
          5    1    4    4  502    0 -0.32894501010E+02 -0.36550466952E+01  0.33585700268E+02  0.47386673502E+02  0.47000000000E+01 0. -1.
         -5    1    4    4    0  502  0.67937673573E+02 -0.12395753640E+02 -0.47966900344E+02  0.84214581442E+02  0.47000000000E+01 0. -1.
          5    1    3    3  503    0 -0.39367717808E+00  0.18018009034E+01 -0.40312702429E+02  0.40627643857E+02  0.47000000000E+01 0.  1.
         -5    1    3    3    0  503 -0.34649495384E+02  0.14248999432E+02  0.93031596680E+02  0.10040213890E+03  0.47000000000E+01 0.  1.
<mgrwt>
<rscale>  0 0.13081125E+03</rscale>
<asrwt>0</asrwt>
<pdfrwt beam="2">  1        5 0.18022565E-01 0.13081312E+03</pdfrwt>
<pdfrwt beam="1">  1       -5 0.23920672E-01 0.13081312E+03</pdfrwt>
<totfact> 0.33191085E+02</totfact>
</mgrwt>
</event>
<event>
 8    1  0.3754098E-007  0.2040911E+03  0.7546771E-02  0.1146333E+00
         -5   -1    0    0    0  501 -0.00000000000E+00  0.00000000000E+00  0.35837273086E+03  0.35840354941E+03  0.47000000000E+01 0. -1.
          5   -1    0    0  501    0  0.00000000000E+00 -0.00000000000E+00 -0.11923201519E+03  0.11932461375E+03  0.47000000000E+01 0. -1.
         25    2    1    2    0    0  0.84224564561E+01 -0.16111188136E+03  0.15798806550E+03  0.25809455287E+03  0.12499837317E+03 0.  0.
         25    2    1    2    0    0 -0.84224564561E+01  0.16111188136E+03  0.81152650171E+02  0.21963361028E+03  0.12500077619E+03 0.  0.
          5    1    4    4  502    0 -0.39403115770E+02  0.16715665695E+03  0.63486376096E+02  0.18315720964E+03  0.47000000000E+01 0.  1.
         -5    1    4    4    0  502  0.30980659314E+02 -0.60447755927E+01  0.17666274075E+02  0.36476400634E+02  0.47000000000E+01 0.  1.
          5    1    3    3  503    0  0.58424301029E+02 -0.88944553425E+02  0.12489419464E+03  0.16414987782E+03  0.47000000000E+01 0. -1.
         -5    1    3    3    0  503 -0.50001844573E+02 -0.72167327933E+02  0.33093870861E+02  0.93944675050E+02  0.47000000000E+01 0. -1.
<mgrwt>
<rscale>  0 0.20409071E+03</rscale>
<asrwt>0</asrwt>
<pdfrwt beam="2">  1        5 0.18352881E-01 0.20409108E+03</pdfrwt>
<pdfrwt beam="1">  1       -5 0.55143760E-01 0.20409108E+03</pdfrwt>
<totfact> 0.67754036E+01</totfact>
</mgrwt>
</event>
<event>
 8    1  0.3754098E-007  0.1409034E+03  0.7546771E-02  0.1212119E+00
          5   -1    0    0  501    0  0.00000000000E+00  0.00000000000E+00  0.41925417531E+03  0.41928051888E+03  0.47000000000E+01 0.  1.
         -5   -1    0    0    0  501 -0.00000000000E+00 -0.00000000000E+00 -0.75905932953E+02  0.76051302799E+02  0.47000000000E+01 0.  1.
         25    2    1    2    0    0 -0.25677497113E+02 -0.59745359012E+02  0.19612659199E+02  0.14226186559E+03  0.12499976087E+03 0.  0.
         25    2    1    2    0    0  0.25677497113E+02  0.59745359012E+02  0.32373558316E+03  0.35306995609E+03  0.12499929725E+03 0.  0.
          5    1    4    4  502    0 -0.24001711780E+02  0.18694501033E+02  0.94372198559E+01  0.32198100191E+02  0.47000000000E+01 0.  1.
         -5    1    4    4    0  502  0.49679208893E+02  0.41050857978E+02  0.31429836330E+03  0.32087185590E+03  0.47000000000E+01 0.  1.
          5    1    3    3  503    0 -0.47850406537E+02  0.62025318227E+01  0.46830597865E+02  0.67404211316E+02  0.47000000000E+01 0. -1.
         -5    1    3    3    0  503  0.22172909424E+02 -0.65947890834E+02 -0.27217938666E+02  0.74857654272E+02  0.47000000000E+01 0. -1.
<mgrwt>
<rscale>  0 0.14090335E+03</rscale>
<asrwt>0</asrwt>
<pdfrwt beam="1">  1        5 0.64513852E-01 0.14090345E+03</pdfrwt>
<pdfrwt beam="2">  1       -5 0.11691044E-01 0.14090345E+03</pdfrwt>
<totfact> 0.97585156E+01</totfact>
</mgrwt>
</event>
<event>
 8    1  0.3754098E-007  0.1420774E+03  0.7546771E-02  0.1210564E+00
         -5   -1    0    0    0  501 -0.00000000000E+00  0.00000000000E+00  0.11926837667E+04  0.11926930273E+04  0.47000000000E+01 0. -1.
          5   -1    0    0  501    0  0.00000000000E+00 -0.00000000000E+00 -0.22066175781E+02  0.22561163835E+02  0.47000000000E+01 0. -1.
         25    2    1    2    0    0 -0.24009624826E+00  0.67535468453E+02  0.88416230018E+03  0.89550486907E+03  0.12499960128E+03 0.  0.
         25    2    1    2    0    0  0.24009624826E+00 -0.67535468453E+02  0.28645529071E+03  0.31974932203E+03  0.12498759225E+03 0.  0.
          5    1    4    4  502    0  0.33666903397E+02 -0.62560332116E+02  0.27451832852E+03  0.28360123102E+03  0.47000000000E+01 0. -1.
         -5    1    4    4    0  502 -0.33426807149E+02 -0.49751363366E+01  0.11936962190E+02  0.36148091015E+02  0.47000000000E+01 0. -1.
          5    1    3    3  503    0 -0.17185162938E+02  0.67039429405E+02  0.87042550726E+03  0.87318512849E+03  0.47000000000E+01 0.  1.
         -5    1    3    3    0  503  0.16945066690E+02  0.49603904854E+00  0.13736792915E+02  0.22319740578E+02  0.47000000000E+01 0.  1.
<mgrwt>
<rscale>  0 0.14207479E+03</rscale>
<asrwt>0</asrwt>
<pdfrwt beam="2">  1        5 0.34335835E-02 0.14207743E+03</pdfrwt>
<pdfrwt beam="1">  1       -5 0.18352866E+00 0.14207743E+03</pdfrwt>
<totfact> 0.55840224E+01</totfact>
</mgrwt>
</event>
<event>
 8    1  0.3754098E-007  0.1346159E+03  0.7546771E-02  0.1220764E+00
          5   -1    0    0  501    0  0.00000000000E+00  0.00000000000E+00  0.13440375031E+03  0.13448590297E+03  0.47000000000E+01 0. -1.
         -5   -1    0    0    0  501 -0.00000000000E+00 -0.00000000000E+00 -0.13600201641E+03  0.13608320421E+03  0.47000000000E+01 0. -1.
         25    2    1    2    0    0  0.37834977604E+02  0.32626393202E+02 -0.14231414595E+02  0.13536606306E+03  0.12500188320E+03 0.  0.
         25    2    1    2    0    0 -0.37834977604E+02 -0.32626393202E+02  0.12633148492E+02  0.13520304412E+03  0.12499719851E+03 0.  0.
          5    1    3    3  502    0  0.83958688555E+02  0.24094174962E+02 -0.90139375393E+01  0.87937089563E+02  0.47000000000E+01 0.  1.
         -5    1    3    3    0  502 -0.46123710951E+02  0.85322182393E+01 -0.52174770557E+01  0.47428973495E+02  0.47000000000E+01 0.  1.
          5    1    4    4  503    0 -0.42764898192E+01 -0.24923199683E+02 -0.54134143142E+02  0.59933710893E+02  0.47000000000E+01 0. -1.
         -5    1    4    4    0  503 -0.33558487784E+02 -0.77031935184E+01  0.66767291634E+02  0.75269333230E+02  0.47000000000E+01 0. -1.
<mgrwt>
<rscale>  0 0.13461480E+03</rscale>
<asrwt>0</asrwt>
<pdfrwt beam="1">  1        5 0.20690065E-01 0.13461589E+03</pdfrwt>
<pdfrwt beam="2">  1       -5 0.20935952E-01 0.13461589E+03</pdfrwt>
<totfact> 0.33376422E+02</totfact>
</mgrwt>
</event>
<event>
 8    1  0.3754098E-007  0.1399188E+03  0.7546771E-02  0.1213439E+00
         -5   -1    0    0    0  501 -0.00000000000E+00  0.00000000000E+00  0.27496194205E+03  0.27500210831E+03  0.47000000000E+01 0. -1.
          5   -1    0    0  501    0  0.00000000000E+00 -0.00000000000E+00 -0.78063340400E+02  0.78204700079E+02  0.47000000000E+01 0. -1.
         25    2    1    2    0    0  0.41585660095E+02 -0.47144640111E+02  0.15122355183E+03  0.20602386862E+03  0.12500115038E+03 0.  0.
         25    2    1    2    0    0 -0.41585660095E+02  0.47144640111E+02  0.45675049816E+02  0.14718293977E+03  0.12499849345E+03 0.  0.
          5    1    4    4  502    0 -0.39929424886E+02  0.64085962082E+02  0.79053627042E+02  0.10942090959E+03  0.47000000000E+01 0.  1.
         -5    1    4    4    0  502 -0.16562352093E+01 -0.16941321972E+02 -0.33378577226E+02  0.37762030174E+02  0.47000000000E+01 0.  1.
          5    1    3    3  503    0 -0.17001081171E+01 -0.76076738426E+02  0.47378369818E+02  0.89762800891E+02  0.47000000000E+01 0.  1.
         -5    1    3    3    0  503  0.43285768212E+02  0.28932098315E+02  0.10384518201E+03  0.11626106773E+03  0.47000000000E+01 0.  1.
<mgrwt>
<rscale>  0 0.13991821E+03</rscale>
<asrwt>0</asrwt>
<pdfrwt beam="2">  1        5 0.12023708E-01 0.13991880E+03</pdfrwt>
<pdfrwt beam="1">  1       -5 0.42315801E-01 0.13991880E+03</pdfrwt>
<totfact> 0.22822928E+02</totfact>
</mgrwt>
</event>
<event>
 8    1  0.3754098E-007  0.1410842E+03  0.7546771E-02  0.1211881E+00
          5   -1    0    0  501    0  0.00000000000E+00  0.00000000000E+00  0.46071397838E+03  0.46073795141E+03  0.47000000000E+01 0.  1.
         -5   -1    0    0    0  501 -0.00000000000E+00 -0.00000000000E+00 -0.43888343136E+02  0.44139287072E+02  0.47000000000E+01 0.  1.
         25    2    1    2    0    0  0.39447922850E+02 -0.52160620308E+02  0.17357823692E+03  0.22367617924E+03  0.12499903959E+03 0.  0.
         25    2    1    2    0    0 -0.39447922850E+02  0.52160620308E+02  0.24324739832E+03  0.28120105925E+03  0.12501147948E+03 0.  0.
          5    1    4    4  502    0 -0.12452819123E+02  0.28680423142E+02  0.24306750220E+03  0.24511536060E+03  0.47000000000E+01 0. -1.
         -5    1    4    4    0  502 -0.26995103726E+02  0.23480197166E+02  0.17989612105E+00  0.36085698646E+02  0.47000000000E+01 0. -1.
          5    1    3    3  503    0  0.21719164227E+02 -0.79429296680E+02  0.17202570006E+03  0.19077648374E+03  0.47000000000E+01 0.  1.
         -5    1    3    3    0  503  0.17728758623E+02  0.27268676373E+02  0.15525368596E+01  0.32899695502E+02  0.47000000000E+01 0.  1.
<mgrwt>
<rscale>  0 0.14108140E+03</rscale>
<asrwt>0</asrwt>
<pdfrwt beam="1">  1        5 0.70900221E-01 0.14108416E+03</pdfrwt>
<pdfrwt beam="2">  1       -5 0.67732003E-02 0.14108416E+03</pdfrwt>
<totfact> 0.20322512E+02</totfact>
</mgrwt>
</event>
<event>
 8    1  0.3754098E-007  0.1302845E+03  0.7546771E-02  0.1227037E+00
          5   -1    0    0  501    0  0.00000000000E+00  0.00000000000E+00  0.11931745855E+03  0.11940999085E+03  0.47000000000E+01 0. -1.
         -5   -1    0    0    0  501 -0.00000000000E+00 -0.00000000000E+00 -0.14210837622E+03  0.14218607735E+03  0.47000000000E+01 0. -1.
         25    2    1    2    0    0 -0.16762065462E+02 -0.32665710031E+02 -0.13660743381E+02  0.13099205144E+03  0.12499714468E+03 0.  0.
         25    2    1    2    0    0  0.16762065462E+02  0.32665710031E+02 -0.91301742880E+01  0.13060401676E+03  0.12500413457E+03 0.  0.
          5    1    4    4  502    0  0.28787711809E+02  0.77500060599E+02 -0.12853917288E+02  0.83799194112E+02  0.47000000000E+01 0.  1.
         -5    1    4    4    0  502 -0.12025646348E+02 -0.44834350569E+02  0.37237429996E+01  0.46804822646E+02  0.47000000000E+01 0.  1.
          5    1    3    3  503    0 -0.40086541229E+02 -0.37915814604E+02  0.42478678501E+02  0.69793036271E+02  0.47000000000E+01 0.  1.
         -5    1    3    3    0  503  0.23324475767E+02  0.52501045736E+01 -0.56139421882E+02  0.61199015164E+02  0.47000000000E+01 0.  1.
<mgrwt>
<rscale>  0 0.13028282E+03</rscale>
<asrwt>0</asrwt>
<pdfrwt beam="1">  1        5 0.18369627E-01 0.13028449E+03</pdfrwt>
<pdfrwt beam="2">  1       -5 0.21875922E-01 0.13028449E+03</pdfrwt>
<totfact> 0.37895219E+02</totfact>
</mgrwt>
</event>
<event>
 8    1  0.3754098E-007  0.1484406E+03  0.7546771E-02  0.1202403E+00
          5   -1    0    0  501    0  0.00000000000E+00  0.00000000000E+00  0.33412867742E+03  0.33416173191E+03  0.47000000000E+01 0.  1.
         -5   -1    0    0    0  501 -0.00000000000E+00 -0.00000000000E+00 -0.79283044496E+02  0.79422233314E+02  0.47000000000E+01 0.  1.
         25    2    1    2    0    0  0.44780864448E+02  0.66363300207E+02  0.42324631881E+02  0.15435472602E+03  0.12499837418E+03 0.  0.
         25    2    1    2    0    0 -0.44780864448E+02 -0.66363300207E+02  0.21252100104E+03  0.25922923920E+03  0.12500083655E+03 0.  0.
          5    1    4    4  502    0  0.31345076167E+02 -0.15129805045E+02  0.13349683487E+03  0.13803955853E+03  0.47000000000E+01 0. -1.
         -5    1    4    4    0  502 -0.76125940615E+02 -0.51233495161E+02  0.79024166176E+02  0.12118968067E+03  0.47000000000E+01 0. -1.
          5    1    3    3  503    0  0.55690710464E+02  0.67007836024E+02 -0.21143636050E+02  0.89781115308E+02  0.47000000000E+01 0.  1.
         -5    1    3    3    0  503 -0.10909846016E+02 -0.64453581731E+00  0.63468267931E+02  0.64573610715E+02  0.47000000000E+01 0.  1.
<mgrwt>
<rscale>  0 0.14844012E+03</rscale>
<asrwt>0</asrwt>
<pdfrwt beam="1">  1        5 0.51417661E-01 0.14844064E+03</pdfrwt>
<pdfrwt beam="2">  1       -5 0.12210641E-01 0.14844064E+03</pdfrwt>
<totfact> 0.15047960E+02</totfact>
</mgrwt>
</event>
<event>
 8    1  0.3754098E-007  0.1293568E+03  0.7546771E-02  0.1228415E+00
          5   -1    0    0  501    0  0.00000000000E+00  0.00000000000E+00  0.18467933263E+04  0.18467993070E+04  0.47000000000E+01 0.  1.
         -5   -1    0    0    0  501 -0.00000000000E+00 -0.00000000000E+00 -0.93951890102E+01  0.10505216635E+02  0.47000000000E+01 0.  1.
         25    2    1    2    0    0  0.31400573740E+02  0.11024599399E+02  0.64011472376E+03  0.65305340493E+03  0.12499740913E+03 0.  0.
         25    2    1    2    0    0 -0.31400573740E+02 -0.11024599399E+02  0.11972834136E+04  0.12042511187E+04  0.12500258635E+03 0.  0.
          5    1    4    4  502    0 -0.65610512900E+02 -0.45187056567E+02  0.81379599668E+03  0.81769959257E+03  0.47000000000E+01 0.  1.
         -5    1    4    4    0  502  0.34209939160E+02  0.34162457168E+02  0.38348741688E+03  0.38655152609E+03  0.47000000000E+01 0.  1.
          5    1    3    3  503    0  0.33389536315E+02  0.12595861445E+02  0.64488759938E+03  0.64589133970E+03  0.47000000000E+01 0.  1.
         -5    1    3    3    0  503 -0.19889625751E+01 -0.15712620456E+01 -0.47728756261E+01  0.71620652248E+01  0.47000000000E+01 0.  1.
<mgrwt>
<rscale>  0 0.12935556E+03</rscale>
<asrwt>0</asrwt>
<pdfrwt beam="1">  1        5 0.28420795E+00 0.12935681E+03</pdfrwt>
<pdfrwt beam="2">  1       -5 0.15312602E-02 0.12935681E+03</pdfrwt>
<totfact> 0.43840210E+01</totfact>
</mgrwt>
</event>
<event>
 8    1  0.3754098E-007  0.1334921E+03  0.7546771E-02  0.1222364E+00
         -5   -1    0    0    0  501 -0.00000000000E+00  0.00000000000E+00  0.64485857270E+02  0.64656908276E+02  0.47000000000E+01 0.  1.
          5   -1    0    0  501    0  0.00000000000E+00 -0.00000000000E+00 -0.27639369877E+03  0.27643365700E+03  0.47000000000E+01 0.  1.
         25    2    1    2    0    0 -0.20187101910E+01  0.46833264204E+02 -0.97943723243E+02  0.16556856960E+03  0.12499019358E+03 0.  0.
         25    2    1    2    0    0  0.20187101910E+01 -0.46833264204E+02 -0.11396411826E+03  0.17552199567E+03  0.12499088322E+03 0.  0.
          5    1    3    3  502    0 -0.58645979475E+02  0.94825766900E+01 -0.70314871526E+02  0.92171260852E+02  0.47000000000E+01 0.  1.
         -5    1    3    3    0  502  0.56627269284E+02  0.37350687514E+02 -0.27628851717E+02  0.73397308749E+02  0.47000000000E+01 0.  1.
          5    1    4    4  503    0  0.37108617570E+02 -0.44188094632E+02 -0.18527414578E+01  0.57923741731E+02  0.47000000000E+01 0. -1.
         -5    1    4    4    0  503 -0.35089907379E+02 -0.26451695722E+01 -0.11211137680E+03  0.11759825394E+03  0.47000000000E+01 0. -1.
<mgrwt>
<rscale>  0 0.13349198E+03</rscale>
<asrwt>0</asrwt>
<pdfrwt beam="2">  1        5 0.42538338E-01 0.13349214E+03</pdfrwt>
<pdfrwt beam="1">  1       -5 0.99371328E-02 0.13349214E+03</pdfrwt>
<totfact> 0.31063117E+02</totfact>
</mgrwt>
</event>
<event>
 8    1  0.3754098E-007  0.1848045E+03  0.7546771E-02  0.1163242E+00
          5   -1    0    0  501    0  0.00000000000E+00  0.00000000000E+00  0.62303922724E+03  0.62305695460E+03  0.47000000000E+01 0. -1.
         -5   -1    0    0    0  501 -0.00000000000E+00 -0.00000000000E+00 -0.55214374068E+02  0.55414051500E+02  0.47000000000E+01 0. -1.
         25    2    1    2    0    0  0.13525144329E+03  0.14809684384E+02  0.25073294553E+03  0.31145605937E+03  0.12500234908E+03 0.  0.
         25    2    1    2    0    0 -0.13525144329E+03 -0.14809684384E+02  0.31709190764E+03  0.36701494674E+03  0.12506163910E+03 0.  0.
          5    1    4    4  502    0 -0.37176215999E+02 -0.57301312795E+02  0.18353669815E+03  0.19589109488E+03  0.47000000000E+01 0.  1.
         -5    1    4    4    0  502 -0.98075227295E+02  0.42491628411E+02  0.13355520948E+03  0.17112385186E+03  0.47000000000E+01 0.  1.
          5    1    3    3  503    0  0.62854293084E+02  0.48863558420E+02  0.20316658208E+03  0.21825915691E+03  0.47000000000E+01 0. -1.
         -5    1    3    3    0  503  0.72397150209E+02 -0.34053874035E+02  0.47566363450E+02  0.93196902454E+02  0.47000000000E+01 0. -1.
<mgrwt>
<rscale>  0 0.18479444E+03</rscale>
<asrwt>0</asrwt>
<pdfrwt beam="1">  1        5 0.95868915E-01 0.18480447E+03</pdfrwt>
<pdfrwt beam="2">  1       -5 0.85112423E-02 0.18480447E+03</pdfrwt>
<totfact> 0.73704435E+01</totfact>
</mgrwt>
</event>
<event>
 8    1  0.3754098E-007  0.1789412E+03  0.7546771E-02  0.1168832E+00
         -5   -1    0    0    0  501 -0.00000000000E+00  0.00000000000E+00  0.75003318045E+02  0.75150433916E+02  0.47000000000E+01 0. -1.
          5   -1    0    0  501    0  0.00000000000E+00 -0.00000000000E+00 -0.43015627525E+03  0.43018195120E+03  0.47000000000E+01 0. -1.
         25    2    1    2    0    0 -0.91278978592E+02 -0.89788405149E+02 -0.20139632766E+03  0.26940640501E+03  0.12500208251E+03 0.  0.
         25    2    1    2    0    0  0.91278978592E+02  0.89788405149E+02 -0.15375662954E+03  0.23592598010E+03  0.12500462922E+03 0.  0.
          5    1    3    3  502    0  0.73533067658E+01 -0.72277124305E+02 -0.11950136961E+03  0.13993113005E+03  0.47000000000E+01 0. -1.
         -5    1    3    3    0  502 -0.98632285358E+02 -0.17511280844E+02 -0.81894958047E+02  0.12947527496E+03  0.47000000000E+01 0. -1.
          5    1    4    4  503    0  0.49900995440E+02 -0.25545014976E+02 -0.51298394082E+02  0.76133254044E+02  0.47000000000E+01 0. -1.
         -5    1    4    4    0  503  0.41377983153E+02  0.11533342013E+03 -0.10245823546E+03  0.15979272606E+03  0.47000000000E+01 0. -1.
<mgrwt>
<rscale>  0 0.17894079E+03</rscale>
<asrwt>0</asrwt>
<pdfrwt beam="2">  1        5 0.66191179E-01 0.17894124E+03</pdfrwt>
<pdfrwt beam="1">  1       -5 0.11552264E-01 0.17894124E+03</pdfrwt>
<totfact> 0.10123418E+02</totfact>
</mgrwt>
</event>
<event>
 8    1  0.3754098E-007  0.1270019E+03  0.7546771E-02  0.1231977E+00
         -5   -1    0    0    0  501 -0.00000000000E+00  0.00000000000E+00  0.56405344059E+02  0.56600820122E+02  0.47000000000E+01 0.  1.
          5   -1    0    0  501    0  0.00000000000E+00 -0.00000000000E+00 -0.32033697107E+03  0.32037144853E+03  0.47000000000E+01 0.  1.
         25    2    1    2    0    0 -0.15603384338E+02  0.16144079143E+02 -0.69580579863E+02  0.14480464448E+03  0.12499132399E+03 0.  0.
         25    2    1    2    0    0  0.15603384338E+02 -0.16144079143E+02 -0.19435104715E+03  0.23216762418E+03  0.12500151717E+03 0.  0.
          5    1    4    4  502    0  0.46965377931E+02  0.32582610995E+02 -0.14491985970E+03  0.15585643715E+03  0.47000000000E+01 0.  1.
         -5    1    4    4    0  502 -0.31361993592E+02 -0.48726690138E+02 -0.49431187445E+02  0.76311187031E+02  0.47000000000E+01 0.  1.
          5    1    3    3  503    0  0.42165660762E+02  0.40945867917E+02 -0.13638584402E+02  0.60519484726E+02  0.47000000000E+01 0. -1.
         -5    1    3    3    0  503 -0.57769045100E+02 -0.24801788775E+02 -0.55941995460E+02  0.84285159751E+02  0.47000000000E+01 0. -1.
<mgrwt>
<rscale>  0 0.12699937E+03</rscale>
<asrwt>0</asrwt>
<pdfrwt beam="2">  1        5 0.49300298E-01 0.12700187E+03</pdfrwt>
<pdfrwt beam="1">  1       -5 0.86954342E-02 0.12700187E+03</pdfrwt>
<totfact> 0.28261400E+02</totfact>
</mgrwt>
</event>
<event>
 8    1  0.3754098E-007  0.1260801E+03  0.7546771E-02  0.1233395E+00
         -5   -1    0    0    0  501 -0.00000000000E+00  0.00000000000E+00  0.28368443015E+02  0.28755148393E+02  0.47000000000E+01 0.  1.
          5   -1    0    0  501    0  0.00000000000E+00 -0.00000000000E+00 -0.62219874287E+03  0.62221649418E+03  0.47000000000E+01 0.  1.
         25    2    1    2    0    0 -0.32756299000E+01  0.16049703342E+02 -0.19086114989E+03  0.22873909039E+03  0.12500108081E+03 0.  0.
         25    2    1    2    0    0  0.32756299000E+01 -0.16049703342E+02 -0.40296914996E+03  0.42223255219E+03  0.12501147778E+03 0.  0.
          5    1    4    4  502    0  0.38195086833E+02 -0.59053073945E+02 -0.22530228068E+03  0.23607062054E+03  0.47000000000E+01 0. -1.
         -5    1    4    4    0  502 -0.34919456933E+02  0.43003370603E+02 -0.17766686928E+03  0.18616193165E+03  0.47000000000E+01 0. -1.
          5    1    3    3  503    0 -0.46811851202E+02 -0.22851630756E+02 -0.14562085030E+03  0.15472901629E+03  0.47000000000E+01 0.  1.
         -5    1    3    3    0  503  0.43536221302E+02  0.38901334098E+02 -0.45240299595E+02  0.74010074093E+02  0.47000000000E+01 0.  1.
<mgrwt>
<rscale>  0 0.12607753E+03</rscale>
<asrwt>0</asrwt>
<pdfrwt beam="2">  1        5 0.95753985E-01 0.12608010E+03</pdfrwt>
<pdfrwt beam="1">  1       -5 0.43954884E-02 0.12608010E+03</pdfrwt>
<totfact> 0.20003907E+02</totfact>
</mgrwt>
</event>
<event>
 8    1  0.3754098E-007  0.1262609E+03  0.7546771E-02  0.1233113E+00
         -5   -1    0    0    0  501 -0.00000000000E+00  0.00000000000E+00  0.40434881952E+03  0.40437613412E+03  0.47000000000E+01 0. -1.
          5   -1    0    0  501    0  0.00000000000E+00 -0.00000000000E+00 -0.49324970152E+02  0.49548387264E+02  0.47000000000E+01 0. -1.
         25    2    1    2    0    0 -0.17048457661E+01 -0.17718881607E+02  0.27976530363E+03  0.30693584757E+03  0.12499649653E+03 0.  0.
         25    2    1    2    0    0  0.17048457661E+01  0.17718881607E+02  0.75258545735E+02  0.14698867381E+03  0.12499982503E+03 0.  0.
          5    1    4    4  502    0 -0.37413291180E+02  0.55086102689E+02  0.61968578686E+02  0.91084728746E+02  0.47000000000E+01 0.  1.
         -5    1    4    4    0  502  0.39118136947E+02 -0.37367221082E+02  0.13289967049E+02  0.55903945064E+02  0.47000000000E+01 0.  1.
          5    1    3    3  503    0  0.26528390553E+02 -0.38575305252E+02  0.26401805116E+03  0.26817798385E+03  0.47000000000E+01 0.  1.
         -5    1    3    3    0  503 -0.28233236319E+02  0.20856423646E+02  0.15747252468E+02  0.38757863726E+02  0.47000000000E+01 0.  1.
<mgrwt>
<rscale>  0 0.12626010E+03</rscale>
<asrwt>0</asrwt>
<pdfrwt beam="2">  1        5 0.76077442E-02 0.12626093E+03</pdfrwt>
<pdfrwt beam="1">  1       -5 0.62226796E-01 0.12626093E+03</pdfrwt>
<totfact> 0.21474396E+02</totfact>
</mgrwt>
</event>
<event>
 8    1  0.3754098E-007  0.1402888E+03  0.7546771E-02  0.1212943E+00
         -5   -1    0    0    0  501 -0.00000000000E+00  0.00000000000E+00  0.38374790865E+02  0.38661538691E+02  0.47000000000E+01 0.  1.
          5   -1    0    0  501    0  0.00000000000E+00 -0.00000000000E+00 -0.56213500128E+03  0.56215464924E+03  0.47000000000E+01 0.  1.
         25    2    1    2    0    0 -0.56696727992E+02  0.29018146776E+02 -0.17096967748E+03  0.22115568040E+03  0.12499052983E+03 0.  0.
         25    2    1    2    0    0  0.56696727992E+02 -0.29018146776E+02 -0.35279053293E+03  0.37966050753E+03  0.12499747616E+03 0.  0.
          5    1    3    3  502    0 -0.36582468672E+02  0.11175471626E+02 -0.18603079171E+03  0.18998082441E+03  0.47000000000E+01 0. -1.
         -5    1    3    3    0  502 -0.20114259320E+02  0.17842675150E+02  0.15061114222E+02  0.31174855992E+02  0.47000000000E+01 0. -1.
          5    1    4    4  503    0  0.27859208631E+02 -0.74790041996E+02 -0.15309140846E+03  0.17271003222E+03  0.47000000000E+01 0. -1.
         -5    1    4    4    0  503  0.28837519361E+02  0.45771895221E+02 -0.19969912447E+03  0.20695047530E+03  0.47000000000E+01 0. -1.
<mgrwt>
<rscale>  0 0.14028723E+03</rscale>
<asrwt>0</asrwt>
<pdfrwt beam="2">  1        5 0.86505871E-01 0.14028878E+03</pdfrwt>
<pdfrwt beam="1">  1       -5 0.59273833E-02 0.14028878E+03</pdfrwt>
<totfact> 0.16061101E+02</totfact>
</mgrwt>
</event>
<event>
 8    1  0.3754098E-007  0.1320349E+03  0.7546771E-02  0.1224467E+00
          5   -1    0    0  501    0  0.00000000000E+00  0.00000000000E+00  0.33942173701E+03  0.33945427609E+03  0.47000000000E+01 0.  1.
         -5   -1    0    0    0  501 -0.00000000000E+00 -0.00000000000E+00 -0.54297225097E+02  0.54500262873E+02  0.47000000000E+01 0.  1.
         25    2    1    2    0    0  0.41941930150E+02  0.70665547587E+01  0.95764751135E+02  0.16310753344E+03  0.12499647277E+03 0.  0.
         25    2    1    2    0    0 -0.41941930150E+02 -0.70665547587E+01  0.18935976078E+03  0.23084700552E+03  0.12499663697E+03 0.  0.
          5    1    4    4  502    0 -0.75176593180E+02  0.30721658875E+02  0.11149633891E+03  0.13801762234E+03  0.47000000000E+01 0.  1.
         -5    1    4    4    0  502  0.33234663030E+02 -0.37788213634E+02  0.77863421868E+02  0.92829383179E+02  0.47000000000E+01 0.  1.
          5    1    3    3  503    0  0.58286184555E+02  0.54628394970E+02  0.70415691268E+02  0.10659268466E+03  0.47000000000E+01 0. -1.
         -5    1    3    3    0  503 -0.16344254404E+02 -0.47561840211E+02  0.25349059867E+02  0.56514848779E+02  0.47000000000E+01 0. -1.
<mgrwt>
<rscale>  0 0.13203488E+03</rscale>
<asrwt>0</asrwt>
<pdfrwt beam="1">  1        5 0.52236851E-01 0.13203492E+03</pdfrwt>
<pdfrwt beam="2">  1       -5 0.83715403E-02 0.13203492E+03</pdfrwt>
<totfact> 0.27061105E+02</totfact>
</mgrwt>
</event>
<event>
 8    1  0.3754098E-007  0.1293292E+03  0.7546771E-02  0.1228459E+00
          5   -1    0    0  501    0  0.00000000000E+00  0.00000000000E+00  0.33442981004E+03  0.33446283477E+03  0.47000000000E+01 0.  1.
         -5   -1    0    0    0  501 -0.00000000000E+00 -0.00000000000E+00 -0.55662341607E+02  0.55860417767E+02  0.47000000000E+01 0.  1.
         25    2    1    2    0    0  0.33026216600E+02 -0.28739082653E+01  0.76522296417E+02  0.15026253300E+03  0.12499670653E+03 0.  0.
         25    2    1    2    0    0 -0.33026216600E+02  0.28739082653E+01  0.20224517201E+03  0.24006071953E+03  0.12500819625E+03 0.  0.
          5    1    3    3  502    0  0.40413595861E+02 -0.34687348876E+02  0.97475375008E+02  0.11117558021E+03  0.47000000000E+01 0. -1.
         -5    1    3    3    0  502 -0.73873792609E+01  0.31813440611E+02 -0.20953078592E+02  0.39086952789E+02  0.47000000000E+01 0. -1.
          5    1    4    4  503    0 -0.26024046062E+02 -0.22804407248E+02 -0.10904582295E+01  0.34936672173E+02  0.47000000000E+01 0. -1.
         -5    1    4    4    0  503 -0.70021705380E+01  0.25678315513E+02  0.20333563024E+03  0.20512404736E+03  0.47000000000E+01 0. -1.
<mgrwt>
<rscale>  0 0.12932641E+03</rscale>
<asrwt>0</asrwt>
<pdfrwt beam="1">  1        5 0.51468516E-01 0.12932919E+03</pdfrwt>
<pdfrwt beam="2">  1       -5 0.85812143E-02 0.12932919E+03</pdfrwt>
<totfact> 0.26566253E+02</totfact>
</mgrwt>
</event>
<event>
 8    1  0.3754098E-007  0.1486464E+03  0.7546771E-02  0.1202147E+00
         -5   -1    0    0    0  501 -0.00000000000E+00  0.00000000000E+00  0.23603740558E+03  0.23608419437E+03  0.47000000000E+01 0. -1.
          5   -1    0    0  501    0  0.00000000000E+00 -0.00000000000E+00 -0.23228650016E+03  0.23233404433E+03  0.47000000000E+01 0. -1.
         25    2    1    2    0    0 -0.61876667156E+02  0.51386685159E+02  0.18286509654E+03  0.23565728719E+03  0.12500160049E+03 0.  0.
         25    2    1    2    0    0  0.61876667156E+02 -0.51386685159E+02 -0.17911419112E+03  0.23276095152E+03  0.12500581483E+03 0.  0.
          5    1    3    3  502    0 -0.10041066246E+03  0.34099177816E+02  0.13015858006E+03  0.16795356807E+03  0.47000000000E+01 0. -1.
         -5    1    3    3    0  502  0.38533995303E+02  0.17287507344E+02  0.52706516479E+02  0.67703719126E+02  0.47000000000E+01 0. -1.
          5    1    4    4  503    0  0.13534637841E+02  0.33297875596E+02 -0.10187286902E+02  0.37653761500E+02  0.47000000000E+01 0. -1.
         -5    1    4    4    0  503  0.48342029315E+02 -0.84684560755E+02 -0.16892690421E+03  0.19510719002E+03  0.47000000000E+01 0. -1.
<mgrwt>
<rscale>  0 0.14864556E+03</rscale>
<asrwt>0</asrwt>
<pdfrwt beam="2">  1        5 0.35743641E-01 0.14864645E+03</pdfrwt>
<pdfrwt beam="1">  1       -5 0.36320703E-01 0.14864645E+03</pdfrwt>
<totfact> 0.40918332E+01</totfact>
</mgrwt>
</event>
<event>
 8    1  0.3754098E-007  0.1435005E+03  0.7546771E-02  0.1208697E+00
          5   -1    0    0  501    0  0.00000000000E+00  0.00000000000E+00  0.62020793923E+02  0.62198624412E+02  0.47000000000E+01 0.  1.
         -5   -1    0    0    0  501 -0.00000000000E+00 -0.00000000000E+00 -0.36481550353E+03  0.36484577785E+03  0.47000000000E+01 0.  1.
         25    2    1    2    0    0  0.70355678403E+02 -0.41142975816E+01 -0.21606098564E+03  0.25937373823E+03  0.12500215053E+03 0.  0.
         25    2    1    2    0    0 -0.70355678403E+02  0.41142975816E+01 -0.86733723970E+02  0.16767066404E+03  0.12499545503E+03 0.  0.
          5    1    4    4  502    0 -0.30931143408E+02 -0.25830644453E+02 -0.10664563382E+03  0.11410231828E+03  0.47000000000E+01 0.  1.
         -5    1    4    4    0  502 -0.39424534995E+02  0.29944942035E+02  0.19911909848E+02  0.53568345754E+02  0.47000000000E+01 0.  1.
          5    1    3    3  503    0 -0.10238091520E+02 -0.35274400741E+02 -0.14044964439E+02  0.39603697955E+02  0.47000000000E+01 0.  1.
         -5    1    3    3    0  503  0.80593769923E+02  0.31160103160E+02 -0.20201602120E+03  0.21977004027E+03  0.47000000000E+01 0.  1.
<mgrwt>
<rscale>  0 0.14349902E+03</rscale>
<asrwt>0</asrwt>
<pdfrwt beam="1">  1        5 0.95576689E-02 0.14350048E+03</pdfrwt>
<pdfrwt beam="2">  1       -5 0.56141469E-01 0.14350048E+03</pdfrwt>
<totfact> 0.18955865E+02</totfact>
</mgrwt>
</event>
<event>
 8    1  0.3754098E-007  0.1258754E+03  0.7546771E-02  0.1233710E+00
          5   -1    0    0  501    0  0.00000000000E+00  0.00000000000E+00  0.17058720769E+03  0.17065194235E+03  0.47000000000E+01 0. -1.
         -5   -1    0    0    0  501 -0.00000000000E+00 -0.00000000000E+00 -0.11231836370E+03  0.11241665724E+03  0.47000000000E+01 0. -1.
         25    2    1    2    0    0 -0.13072450669E+02 -0.69507070014E+01 -0.29916031868E+02  0.12938151017E+03  0.12500161966E+03 0.  0.
         25    2    1    2    0    0  0.13072450669E+02  0.69507070014E+01  0.88184875853E+02  0.15368708942E+03  0.12499579125E+03 0.  0.
          5    1    4    4  502    0 -0.50247392547E+01  0.27429038257E+01 -0.31560359677E+02  0.32417862806E+02  0.47000000000E+01 0. -1.
         -5    1    4    4    0  502  0.18097189923E+02  0.42078031757E+01  0.11974523553E+03  0.12126922661E+03  0.47000000000E+01 0. -1.
          5    1    3    3  503    0  0.55981365906E+02 -0.30889887141E+01 -0.17782083637E+02  0.59006335918E+02  0.47000000000E+01 0. -1.
         -5    1    3    3    0  503 -0.69053816575E+02 -0.38617182873E+01 -0.12133948231E+02  0.70375174255E+02  0.47000000000E+01 0. -1.
<mgrwt>
<rscale>  0 0.12587391E+03</rscale>
<asrwt>0</asrwt>
<pdfrwt beam="1">  1        5 0.26256726E-01 0.12587536E+03</pdfrwt>
<pdfrwt beam="2">  1       -5 0.17292289E-01 0.12587536E+03</pdfrwt>
<totfact> 0.29543760E+02</totfact>
</mgrwt>
</event>
<event>
 8    1  0.3754098E-007  0.1336233E+03  0.7546771E-02  0.1222189E+00
          5   -1    0    0  501    0  0.00000000000E+00  0.00000000000E+00  0.47041576624E+02  0.47275785887E+02  0.47000000000E+01 0.  1.
         -5   -1    0    0    0  501 -0.00000000000E+00 -0.00000000000E+00 -0.48608648884E+03  0.48610921060E+03  0.47000000000E+01 0.  1.
         25    2    1    2    0    0  0.20044194315E+02  0.42653419352E+02 -0.34506885973E+03  0.37002438163E+03  0.12499776453E+03 0.  0.
         25    2    1    2    0    0 -0.20044194315E+02 -0.42653419352E+02 -0.93976052484E+02  0.16336061486E+03  0.12503642724E+03 0.  0.
          5    1    3    3  502    0  0.14210170747E+02 -0.85070834009E+01  0.35615531637E+01  0.17580502882E+02  0.47000000000E+01 0. -1.
         -5    1    3    3    0  502  0.58340235681E+01  0.51160502753E+02 -0.34863041290E+03  0.35244387875E+03  0.47000000000E+01 0. -1.
          5    1    4    4  503    0 -0.48628613436E+02  0.77783121809E+01  0.37769897766E+01  0.49614512361E+02  0.47000000000E+01 0. -1.
         -5    1    4    4    0  503  0.28584419120E+02 -0.50431731533E+02 -0.97753042261E+02  0.11374610250E+03  0.47000000000E+01 0. -1.
<mgrwt>
<rscale>  0 0.13361428E+03</rscale>
<asrwt>0</asrwt>
<pdfrwt beam="1">  1        5 0.72569299E-02 0.13362332E+03</pdfrwt>
<pdfrwt beam="2">  1       -5 0.74802297E-01 0.13362332E+03</pdfrwt>
<totfact> 0.15720950E+02</totfact>
</mgrwt>
</event>
<event>
 8    1  0.3754098E-007  0.1933217E+03  0.7546771E-02  0.1155502E+00
         -5   -1    0    0    0  501 -0.00000000000E+00  0.00000000000E+00  0.17667492868E+04  0.17667555384E+04  0.47000000000E+01 0.  1.
          5   -1    0    0  501    0  0.00000000000E+00 -0.00000000000E+00 -0.21537116538E+02  0.22043987588E+02  0.47000000000E+01 0.  1.
         25    2    1    2    0    0  0.13735397535E+03  0.53679846997E+02  0.71875826666E+03  0.74429921989E+03  0.12498096779E+03 0.  0.
         25    2    1    2    0    0 -0.13735397535E+03 -0.53679846997E+02  0.10264539036E+04  0.10445003061E+04  0.12500253070E+03 0.  0.
          5    1    4    4  502    0  0.17711209307E+02  0.14904698580E+02  0.13567559480E+03  0.13771635342E+03  0.47000000000E+01 0. -1.
         -5    1    4    4    0  502 -0.15506518466E+03 -0.68584545577E+02  0.89077830883E+03  0.90678395270E+03  0.47000000000E+01 0. -1.
          5    1    3    3  503    0  0.14688795409E+03  0.50206424398E+02  0.71617747404E+03  0.73282263913E+03  0.47000000000E+01 0. -1.
         -5    1    3    3    0  503 -0.95339787433E+01  0.34734225992E+01  0.25807926274E+01  0.11476580755E+02  0.47000000000E+01 0. -1.
<mgrwt>
<rscale>  0 0.19331820E+03</rscale>
<asrwt>0</asrwt>
<pdfrwt beam="2">  1        5 0.33528727E-02 0.19332168E+03</pdfrwt>
<pdfrwt beam="1">  1       -5 0.27184712E+00 0.19332168E+03</pdfrwt>
<totfact> 0.16471170E+01</totfact>
</mgrwt>
</event>
<event>
 8    1  0.3754098E-007  0.1262134E+03  0.7546771E-02  0.1233188E+00
          5   -1    0    0  501    0  0.00000000000E+00  0.00000000000E+00  0.41518401998E+03  0.41521062179E+03  0.47000000000E+01 0.  1.
         -5   -1    0    0    0  501 -0.00000000000E+00 -0.00000000000E+00 -0.38299939684E+02  0.38587243744E+02  0.47000000000E+01 0.  1.
         25    2    1    2    0    0 -0.17209345301E+02 -0.29210788000E+01  0.20034287469E+03  0.23678029779E+03  0.12499179059E+03 0.  0.
         25    2    1    2    0    0  0.17209345301E+02  0.29210788000E+01  0.17654120561E+03  0.21701756774E+03  0.12500053266E+03 0.  0.
          5    1    3    3  502    0 -0.42288184270E+02 -0.34193965027E+01  0.88489421401E+01  0.43593308870E+02  0.47000000000E+01 0. -1.
         -5    1    3    3    0  502  0.25078838969E+02  0.49831770275E+00  0.19149393255E+03  0.19318698892E+03  0.47000000000E+01 0. -1.
          5    1    4    4  503    0  0.25709642296E+01  0.59823839806E+02  0.52868391220E+02  0.80016613627E+02  0.47000000000E+01 0.  1.
         -5    1    4    4    0  503  0.14638381071E+02 -0.56902761006E+02  0.12367281439E+03  0.13700095412E+03  0.47000000000E+01 0.  1.
<mgrwt>
<rscale>  0 0.12621126E+03</rscale>
<asrwt>0</asrwt>
<pdfrwt beam="1">  1        5 0.63898608E-01 0.12621342E+03</pdfrwt>
<pdfrwt beam="2">  1       -5 0.59164453E-02 0.12621342E+03</pdfrwt>
<totfact> 0.30981358E+02</totfact>
</mgrwt>
</event>
<event>
 8    1  0.3754098E-007  0.1313569E+03  0.7546771E-02  0.1225459E+00
          5   -1    0    0  501    0  0.00000000000E+00  0.00000000000E+00  0.38272119375E+02  0.38559630722E+02  0.47000000000E+01 0. -1.
         -5   -1    0    0    0  501 -0.00000000000E+00 -0.00000000000E+00 -0.44911751935E+03  0.44914211135E+03  0.47000000000E+01 0. -1.
         25    2    1    2    0    0  0.34604962340E+02 -0.20746398385E+02 -0.21165541173E+03  0.24910371066E+03  0.12500691535E+03 0.  0.
         25    2    1    2    0    0 -0.34604962340E+02  0.20746398385E+02 -0.19918998824E+03  0.23859803141E+03  0.12499781083E+03 0.  0.
          5    1    3    3  502    0  0.25630903259E+01 -0.53479461375E+02 -0.29688422073E+02  0.61401259158E+02  0.47000000000E+01 0. -1.
         -5    1    3    3    0  502  0.32041872014E+02  0.32733062990E+02 -0.18196698966E+03  0.18770245150E+03  0.47000000000E+01 0. -1.
          5    1    4    4  503    0  0.38939734041E+01  0.69094928731E+02 -0.10458140060E+03  0.12549355185E+03  0.47000000000E+01 0. -1.
         -5    1    4    4    0  503 -0.38498935745E+02 -0.48348530346E+02 -0.94608587646E+02  0.11310447956E+03  0.47000000000E+01 0. -1.
<mgrwt>
<rscale>  0 0.13135477E+03</rscale>
<asrwt>0</asrwt>
<pdfrwt beam="1">  1        5 0.59120266E-02 0.13135694E+03</pdfrwt>
<pdfrwt beam="2">  1       -5 0.69119007E-01 0.13135694E+03</pdfrwt>
<totfact> 0.26421049E+02</totfact>
</mgrwt>
</event>
<event>
 8    1  0.3754098E-007  0.1722156E+03  0.7546771E-02  0.1175557E+00
         -5   -1    0    0    0  501 -0.00000000000E+00  0.00000000000E+00  0.14314441488E+03  0.14322155394E+03  0.47000000000E+01 0.  1.
          5   -1    0    0  501    0  0.00000000000E+00 -0.00000000000E+00 -0.20713950051E+03  0.20719281520E+03  0.47000000000E+01 0.  1.
         25    2    1    2    0    0 -0.96464513614E+02  0.68760855432E+02 -0.27954400583E+02  0.17446970288E+03  0.12499908434E+03 0.  0.
         25    2    1    2    0    0  0.96464513614E+02 -0.68760855432E+02 -0.36040685039E+02  0.17594466625E+03  0.12499654786E+03 0.  0.
          5    1    4    4  502    0  0.24420875042E+02 -0.21453667668E+02 -0.74522901343E+02  0.81439497904E+02  0.47000000000E+01 0. -1.
         -5    1    4    4    0  502  0.72043638572E+02 -0.47307187765E+02  0.38482216304E+02  0.94505168348E+02  0.47000000000E+01 0. -1.
          5    1    3    3  503    0 -0.60185645626E+02 -0.77081310909E+01 -0.58450912685E+02  0.84382026630E+02  0.47000000000E+01 0. -1.
         -5    1    3    3    0  503 -0.36278867988E+02  0.76468986523E+02  0.30496512102E+02  0.90087676254E+02  0.47000000000E+01 0. -1.
<mgrwt>
<rscale>  0 0.17221519E+03</rscale>
<asrwt>0</asrwt>
<pdfrwt beam="2">  1        5 0.31877650E-01 0.17221565E+03</pdfrwt>
<pdfrwt beam="1">  1       -5 0.22032253E-01 0.17221565E+03</pdfrwt>
<totfact> 0.14278469E+02</totfact>
</mgrwt>
</event>
<event>
 8    1  0.3754098E-007  0.1268648E+03  0.7546771E-02  0.1232184E+00
         -5   -1    0    0    0  501 -0.00000000000E+00  0.00000000000E+00  0.34094874433E+03  0.34098113769E+03  0.47000000000E+01 0. -1.
          5   -1    0    0  501    0  0.00000000000E+00 -0.00000000000E+00 -0.54057013667E+02  0.54260950292E+02  0.47000000000E+01 0. -1.
         25    2    1    2    0    0 -0.18333277850E+02  0.11577595216E+02  0.21441267892E+03  0.24913346231E+03  0.12499814147E+03 0.  0.
         25    2    1    2    0    0  0.18333277850E+02 -0.11577595216E+02  0.72479051746E+02  0.14610862568E+03  0.12499747104E+03 0.  0.
          5    1    3    3  502    0 -0.27381402888E+01  0.60293746871E+02  0.55514249405E+02  0.82138634095E+02  0.47000000000E+01 0.  1.
         -5    1    3    3    0  502 -0.15595137562E+02 -0.48716151655E+02  0.15889842951E+03  0.16699482821E+03  0.47000000000E+01 0.  1.
          5    1    4    4  503    0 -0.32354568051E+02 -0.39338989242E+01  0.86667829132E+02  0.92712977738E+02  0.47000000000E+01 0.  1.
         -5    1    4    4    0  503  0.50687845901E+02 -0.76436962918E+01 -0.14188777387E+02  0.53395647939E+02  0.47000000000E+01 0.  1.
<mgrwt>
<rscale>  0 0.12686467E+03</rscale>
<asrwt>0</asrwt>
<pdfrwt beam="2">  1        5 0.83346426E-02 0.12686483E+03</pdfrwt>
<pdfrwt beam="1">  1       -5 0.52471834E-01 0.12686483E+03</pdfrwt>
<totfact> 0.26620526E+02</totfact>
</mgrwt>
</event>
<event>
 8    1  0.3754098E-007  0.1254559E+03  0.7546771E-02  0.1234360E+00
         -5   -1    0    0    0  501 -0.00000000000E+00  0.00000000000E+00  0.31696280973E+03  0.31699765417E+03  0.47000000000E+01 0. -1.
          5   -1    0    0  501    0  0.00000000000E+00 -0.00000000000E+00 -0.53792629207E+02  0.53997564362E+02  0.47000000000E+01 0. -1.
         25    2    1    2    0    0  0.88533841537E+01 -0.58876453851E+01  0.18383377550E+03  0.22256246438E+03  0.12500458695E+03 0.  0.
         25    2    1    2    0    0 -0.88533841537E+01  0.58876453851E+01  0.79336405024E+02  0.14843275416E+03  0.12499988226E+03 0.  0.
          5    1    3    3  502    0 -0.56081217273E+02 -0.90214463256E+01  0.60852894977E+02  0.83376580955E+02  0.47000000000E+01 0.  1.
         -5    1    3    3    0  502  0.64934601427E+02  0.31338009404E+01  0.12298088052E+03  0.13918588342E+03  0.47000000000E+01 0.  1.
          5    1    4    4  503    0  0.34439744809E+02  0.75064973083E+01  0.95537593467E+02  0.10194098925E+03  0.47000000000E+01 0.  1.
         -5    1    4    4    0  503 -0.43293128963E+02 -0.16188519232E+01 -0.16201188443E+02  0.46491764904E+02  0.47000000000E+01 0.  1.
<mgrwt>
<rscale>  0 0.12545477E+03</rscale>
<asrwt>0</asrwt>
<pdfrwt beam="2">  1        5 0.82942338E-02 0.12545594E+03</pdfrwt>
<pdfrwt beam="1">  1       -5 0.48781953E-01 0.12545594E+03</pdfrwt>
<totfact> 0.31204004E+02</totfact>
</mgrwt>
</event>
<event>
 8    1  0.3754098E-007  0.1320541E+03  0.7546771E-02  0.1224464E+00
          5   -1    0    0  501    0  0.00000000000E+00  0.00000000000E+00  0.79241688762E+02  0.79380950094E+02  0.47000000000E+01 0.  1.
         -5   -1    0    0    0  501 -0.00000000000E+00 -0.00000000000E+00 -0.22522121760E+03  0.22527025293E+03  0.47000000000E+01 0.  1.
         25    2    1    2    0    0 -0.16776260643E+02  0.38915472717E+02 -0.48942138299E+02  0.14083192241E+03  0.12506974267E+03 0.  0.
         25    2    1    2    0    0  0.16776260643E+02 -0.38915472717E+02 -0.97037390538E+02  0.16381928062E+03  0.12499857840E+03 0.  0.
          5    1    3    3  502    0 -0.35080870163E+02 -0.37386578625E+02 -0.31358933679E+02  0.60281808484E+02  0.47000000000E+01 0.  1.
         -5    1    3    3    0  502  0.18304609520E+02  0.76302051342E+02 -0.17583204620E+02  0.80550113925E+02  0.47000000000E+01 0.  1.
          5    1    4    4  503    0 -0.53024125562E+02 -0.25932116125E+02 -0.31436995465E+02  0.67040340260E+02  0.47000000000E+01 0.  1.
         -5    1    4    4    0  503  0.69800386206E+02 -0.12983356592E+02 -0.65600395073E+02  0.96778940357E+02  0.47000000000E+01 0.  1.
<mgrwt>
<rscale>  0 0.13203729E+03</rscale>
<asrwt>0</asrwt>
<pdfrwt beam="1">  1        5 0.12205513E-01 0.13205415E+03</pdfrwt>
<pdfrwt beam="2">  1       -5 0.34663902E-01 0.13205415E+03</pdfrwt>
<totfact> 0.32671964E+02</totfact>
</mgrwt>
</event>
<event>
 8    1  0.3754098E-007  0.1306631E+03  0.7546771E-02  0.1226477E+00
          5   -1    0    0  501    0  0.00000000000E+00  0.00000000000E+00  0.27185070352E+03  0.27189132940E+03  0.47000000000E+01 0.  1.
         -5   -1    0    0    0  501 -0.00000000000E+00 -0.00000000000E+00 -0.64888071546E+02  0.65058065057E+02  0.47000000000E+01 0.  1.
         25    2    1    2    0    0  0.13364463149E+02 -0.35619982595E+02  0.72362819409E+02  0.14936276563E+03  0.12500186434E+03 0.  0.
         25    2    1    2    0    0 -0.13364463149E+02  0.35619982595E+02  0.13459981256E+03  0.18758662883E+03  0.12499696691E+03 0.  0.
          5    1    4    4  502    0  0.48234750620E+02 -0.90871564236E+01  0.79332691169E+02  0.93407352320E+02  0.47000000000E+01 0.  1.
         -5    1    4    4    0  502 -0.61599213769E+02  0.44707139018E+02  0.55267121396E+02  0.94179276508E+02  0.47000000000E+01 0.  1.
          5    1    3    3  503    0  0.56213837274E+02  0.97734335528E+01  0.64545215708E+02  0.86276824091E+02  0.47000000000E+01 0. -1.
         -5    1    3    3    0  503 -0.42849374125E+02 -0.45393416148E+02  0.78176037009E+01  0.63085941541E+02  0.47000000000E+01 0. -1.
<mgrwt>
<rscale>  0 0.13066198E+03</rscale>
<asrwt>0</asrwt>
<pdfrwt beam="1">  1        5 0.41839386E-01 0.13066315E+03</pdfrwt>
<pdfrwt beam="2">  1       -5 0.99989818E-02 0.13066315E+03</pdfrwt>
<totfact> 0.31553506E+02</totfact>
</mgrwt>
</event>
<event>
 8    1  0.3754098E-007  0.1973519E+03  0.7546771E-02  0.1151993E+00
         -5   -1    0    0    0  501 -0.00000000000E+00  0.00000000000E+00  0.21665861901E+03  0.21670959183E+03  0.47000000000E+01 0.  1.
          5   -1    0    0  501    0  0.00000000000E+00 -0.00000000000E+00 -0.17970694060E+03  0.17976839127E+03  0.47000000000E+01 0.  1.
         25    2    1    2    0    0 -0.15270231083E+03  0.18294902702E+01  0.15249117975E+02  0.19793641601E+03  0.12499978566E+03 0.  0.
         25    2    1    2    0    0  0.15270231083E+03 -0.18294902702E+01  0.21702560434E+02  0.19854156709E+03  0.12500563974E+03 0.  0.
          5    1    3    3  502    0 -0.84149702148E+02  0.60283952170E+02 -0.10414586966E+02  0.10414355901E+03  0.47000000000E+01 0. -1.
         -5    1    3    3    0  502 -0.68552608680E+02 -0.58454461900E+02  0.25663704941E+02  0.93792857000E+02  0.47000000000E+01 0. -1.
          5    1    4    4  503    0  0.13853445318E+03  0.46871158936E+02  0.18727437934E+02  0.14751781990E+03  0.47000000000E+01 0.  1.
         -5    1    4    4    0  503  0.14167857653E+02 -0.48700649207E+02  0.29751225004E+01  0.51023747192E+02  0.47000000000E+01 0.  1.
<mgrwt>
<rscale>  0 0.19735092E+03</rscale>
<asrwt>0</asrwt>
<pdfrwt beam="2">  1        5 0.27655870E-01 0.19735185E+03</pdfrwt>
<pdfrwt beam="1">  1       -5 0.33340743E-01 0.19735185E+03</pdfrwt>
<totfact> 0.87703795E+01</totfact>
</mgrwt>
</event>
<event>
 8    1  0.3754098E-007  0.1257258E+03  0.7546771E-02  0.1233948E+00
         -5   -1    0    0    0  501 -0.00000000000E+00  0.00000000000E+00  0.15666802666E+04  0.15666873165E+04  0.47000000000E+01 0. -1.
          5   -1    0    0  501    0  0.00000000000E+00 -0.00000000000E+00 -0.12080639452E+02  0.12962709962E+02  0.47000000000E+01 0. -1.
         25    2    1    2    0    0 -0.10827508289E+02  0.77703911607E+01  0.11259881309E+04  0.11329855453E+04  0.12501744321E+03 0.  0.
         25    2    1    2    0    0  0.10827508289E+02 -0.77703911607E+01  0.42861149630E+03  0.44666448119E+03  0.12499492025E+03 0.  0.
          5    1    3    3  502    0  0.27977543168E+02 -0.24505588185E+02  0.92308860622E+03  0.92384951789E+03  0.47000000000E+01 0. -1.
         -5    1    3    3    0  502 -0.38805051457E+02  0.32275979346E+02  0.20289952463E+03  0.20913602740E+03  0.47000000000E+01 0. -1.
          5    1    4    4  503    0 -0.33872796695E+02 -0.21309451103E+02  0.36701416324E+03  0.36921937257E+03  0.47000000000E+01 0. -1.
         -5    1    4    4    0  503  0.44700304984E+02  0.13539059943E+02  0.61597333051E+02  0.77445108618E+02  0.47000000000E+01 0. -1.
<mgrwt>
<rscale>  0 0.12572019E+03</rscale>
<asrwt>0</asrwt>
<pdfrwt beam="2">  1        5 0.19269557E-02 0.12572579E+03</pdfrwt>
<pdfrwt beam="1">  1       -5 0.24109588E+00 0.12572579E+03</pdfrwt>
<totfact> 0.56544174E+01</totfact>
</mgrwt>
</event>
<event>
 8    1  0.3754098E-007  0.1270431E+03  0.7546771E-02  0.1231918E+00
         -5   -1    0    0    0  501 -0.00000000000E+00  0.00000000000E+00  0.56585518417E+02  0.56780374202E+02  0.47000000000E+01 0. -1.
          5   -1    0    0  501    0  0.00000000000E+00 -0.00000000000E+00 -0.34403727573E+03  0.34406937831E+03  0.47000000000E+01 0. -1.
         25    2    1    2    0    0 -0.18520101860E+02 -0.13113455247E+02 -0.60372754732E+02  0.14065852126E+03  0.12499997283E+03 0.  0.
         25    2    1    2    0    0  0.18520101860E+02  0.13113455247E+02 -0.22707900258E+03  0.26019123126E+03  0.12497858428E+03 0.  0.
          5    1    3    3  502    0  0.13970842457E+02  0.36063448612E+02  0.17642705064E+02  0.42768116708E+02  0.47000000000E+01 0.  1.
         -5    1    3    3    0  502 -0.32490944317E+02 -0.49176903859E+02 -0.78015459796E+02  0.97890404550E+02  0.47000000000E+01 0.  1.
          5    1    4    4  503    0 -0.16114183550E+02  0.23913385902E+02 -0.22122212565E+03  0.22314308373E+03  0.47000000000E+01 0.  1.
         -5    1    4    4    0  503  0.34634285409E+02 -0.10799930656E+02 -0.58568769286E+01  0.37048147529E+02  0.47000000000E+01 0.  1.
<mgrwt>
<rscale>  0 0.12703784E+03</rscale>
<asrwt>0</asrwt>
<pdfrwt beam="2">  1        5 0.52946269E-01 0.12704310E+03</pdfrwt>
<pdfrwt beam="1">  1       -5 0.87229229E-02 0.12704310E+03</pdfrwt>
<totfact> 0.24158622E+02</totfact>
</mgrwt>
</event>
<event>
 8    1  0.3754098E-007  0.1263043E+03  0.7546771E-02  0.1233046E+00
          5   -1    0    0  501    0  0.00000000000E+00  0.00000000000E+00  0.80262925864E+02  0.80400418334E+02  0.47000000000E+01 0. -1.
         -5   -1    0    0    0  501 -0.00000000000E+00 -0.00000000000E+00 -0.22274148461E+03  0.22279106572E+03  0.47000000000E+01 0. -1.
         25    2    1    2    0    0 -0.17316861491E+02 -0.52657176832E+01 -0.12131635704E+03  0.17512977814E+03  0.12500071693E+03 0.  0.
         25    2    1    2    0    0  0.17316861491E+02  0.52657176832E+01 -0.21162201708E+02  0.12806170592E+03  0.12499744104E+03 0.  0.
          5    1    3    3  502    0  0.16215404072E+02  0.14306565868E+02  0.19184350310E+02  0.29287308735E+02  0.47000000000E+01 0. -1.
         -5    1    3    3    0  502 -0.33532265563E+02 -0.19572283552E+02 -0.14050070735E+03  0.14584246941E+03  0.47000000000E+01 0. -1.
          5    1    4    4  503    0  0.49613848741E+01  0.78797812840E+01 -0.73387978552E+02  0.74125513077E+02  0.47000000000E+01 0.  1.
         -5    1    4    4    0  503  0.12355476617E+02 -0.26140636008E+01  0.52225776844E+02  0.53936192839E+02  0.47000000000E+01 0.  1.
<mgrwt>
<rscale>  0 0.12630351E+03</rscale>
<asrwt>0</asrwt>
<pdfrwt beam="1">  1        5 0.12362533E-01 0.12630432E+03</pdfrwt>
<pdfrwt beam="2">  1       -5 0.34282311E-01 0.12630432E+03</pdfrwt>
<totfact> 0.32126128E+02</totfact>
</mgrwt>
</event>
<event>
 8    1  0.3754098E-007  0.1267014E+03  0.7546771E-02  0.1232438E+00
          5   -1    0    0  501    0  0.00000000000E+00  0.00000000000E+00  0.26053873135E+03  0.26058112083E+03  0.47000000000E+01 0. -1.
         -5   -1    0    0    0  501 -0.00000000000E+00 -0.00000000000E+00 -0.86900211040E+02  0.87027218034E+02  0.47000000000E+01 0. -1.
         25    2    1    2    0    0 -0.17118196579E+01 -0.20643424722E+02 -0.70867528937E+01  0.12689943865E+03  0.12499665656E+03 0.  0.
         25    2    1    2    0    0  0.17118196579E+01  0.20643424722E+02  0.18072527320E+03  0.22070890022E+03  0.12498685111E+03 0.  0.
          5    1    4    4  502    0 -0.25265487464E+02  0.39204208239E+02  0.18166381847E+03  0.18761435910E+03  0.47000000000E+01 0.  1.
         -5    1    4    4    0  502  0.26977307122E+02 -0.18560783517E+02 -0.93854526633E+00  0.33094541114E+02  0.47000000000E+01 0.  1.
          5    1    3    3  503    0 -0.58396979985E+02  0.81495842740E+01 -0.18829904579E+02  0.62074779916E+02  0.47000000000E+01 0. -1.
         -5    1    3    3    0  503  0.56685160327E+02 -0.28793008996E+02  0.11743151685E+02  0.64824658733E+02  0.47000000000E+01 0. -1.
<mgrwt>
<rscale>  0 0.12669898E+03</rscale>
<asrwt>0</asrwt>
<pdfrwt beam="1">  1        5 0.40095911E-01 0.12670140E+03</pdfrwt>
<pdfrwt beam="2">  1       -5 0.13382294E-01 0.12670140E+03</pdfrwt>
<totfact> 0.20357401E+02</totfact>
</mgrwt>
</event>
<event>
 8    1  0.3754098E-007  0.1889002E+03  0.7546771E-02  0.1159457E+00
          5   -1    0    0  501    0  0.00000000000E+00  0.00000000000E+00  0.37072460968E+03  0.37075440149E+03  0.47000000000E+01 0. -1.
         -5   -1    0    0    0  501 -0.00000000000E+00 -0.00000000000E+00 -0.10898084959E+03  0.10908215059E+03  0.47000000000E+01 0. -1.
         25    2    1    2    0    0  0.96542600279E+02 -0.10362097543E+03  0.48638259820E+02  0.19506139460E+03  0.12500194849E+03 0.  0.
         25    2    1    2    0    0 -0.96542600279E+02  0.10362097543E+03  0.21310550027E+03  0.28477515748E+03  0.12500062341E+03 0.  0.
          5    1    3    3  502    0  0.74869009290E+02  0.65224689300E+01  0.30549936439E+02  0.81260690186E+02  0.47000000000E+01 0.  1.
         -5    1    3    3    0  502  0.21673590989E+02 -0.11014344436E+03  0.18088323381E+02  0.11380070442E+03  0.47000000000E+01 0.  1.
          5    1    4    4  503    0 -0.46631414287E+02  0.79924639265E+02  0.36353573214E+02  0.99529438085E+02  0.47000000000E+01 0. -1.
         -5    1    4    4    0  503 -0.49911185992E+02  0.23696336168E+02  0.17675192706E+03  0.18524571939E+03  0.47000000000E+01 0. -1.
<mgrwt>
<rscale>  0 0.18889993E+03</rscale>
<asrwt>0</asrwt>
<pdfrwt beam="1">  1        5 0.57044639E-01 0.18890015E+03</pdfrwt>
<pdfrwt beam="2">  1       -5 0.16776369E-01 0.18890015E+03</pdfrwt>
<totfact> 0.72789297E+01</totfact>
</mgrwt>
</event>
<event>
 8    1  0.3754098E-007  0.1283396E+03  0.7546771E-02  0.1229941E+00
         -5   -1    0    0    0  501 -0.00000000000E+00  0.00000000000E+00  0.18617507064E+03  0.18623438707E+03  0.47000000000E+01 0.  1.
          5   -1    0    0  501    0  0.00000000000E+00 -0.00000000000E+00 -0.91846657777E+02  0.91966833939E+02  0.47000000000E+01 0.  1.
         25    2    1    2    0    0  0.15039028257E+02  0.24888632019E+02  0.74338564953E+02  0.14831481745E+03  0.12500178583E+03 0.  0.
         25    2    1    2    0    0 -0.15039028257E+02 -0.24888632019E+02  0.19989847910E+02  0.12988640356E+03  0.12500106974E+03 0.  0.
          5    1    4    4  502    0 -0.75607170901E+01  0.30858013302E+02  0.54839860484E+02  0.63552196860E+02  0.47000000000E+01 0. -1.
         -5    1    4    4    0  502 -0.74783111666E+01 -0.55746645321E+02 -0.34850012574E+02  0.66334206703E+02  0.47000000000E+01 0. -1.
          5    1    3    3  503    0 -0.35398804161E+02 -0.34921996458E+02  0.29959337636E+02  0.58243223505E+02  0.47000000000E+01 0. -1.
         -5    1    3    3    0  503  0.50437832418E+02  0.59810628478E+02  0.44379227317E+02  0.90071593942E+02  0.47000000000E+01 0. -1.
<mgrwt>
<rscale>  0 0.12833946E+03</rscale>
<asrwt>0</asrwt>
<pdfrwt beam="2">  1        5 0.14144062E-01 0.12833964E+03</pdfrwt>
<pdfrwt beam="1">  1       -5 0.28656125E-01 0.12833964E+03</pdfrwt>
<totfact> 0.36179768E+02</totfact>
</mgrwt>
</event>
<event>
 8    1  0.3754098E-007  0.1384929E+03  0.7546771E-02  0.1215373E+00
          5   -1    0    0  501    0  0.00000000000E+00  0.00000000000E+00  0.39327895789E+02  0.39607744031E+02  0.47000000000E+01 0.  1.
         -5   -1    0    0    0  501 -0.00000000000E+00 -0.00000000000E+00 -0.49416156570E+03  0.49418391618E+03  0.47000000000E+01 0.  1.
         25    2    1    2    0    0  0.59481857527E+02  0.39584522878E+01 -0.26239529472E+03  0.29669923346E+03  0.12500153489E+03 0.  0.
         25    2    1    2    0    0 -0.59481857527E+02 -0.39584522878E+01 -0.19243837518E+03  0.23709242675E+03  0.12500611928E+03 0.  0.
          5    1    4    4  502    0 -0.35382007848E+02  0.54724252543E+02 -0.54089542790E+02  0.84819802729E+02  0.47000000000E+01 0.  1.
         -5    1    4    4    0  502 -0.24099849679E+02 -0.58682704831E+02 -0.13834883239E+03  0.15227262402E+03  0.47000000000E+01 0.  1.
          5    1    3    3  503    0 -0.19650325700E+02 -0.20771686185E+02 -0.94613518464E+01  0.30482871024E+02  0.47000000000E+01 0.  1.
         -5    1    3    3    0  503  0.79132183227E+02  0.24730138472E+02 -0.25293394288E+03  0.26621636244E+03  0.47000000000E+01 0.  1.
<mgrwt>
<rscale>  0 0.13849189E+03</rscale>
<asrwt>0</asrwt>
<pdfrwt beam="1">  1        5 0.60736919E-02 0.13849293E+03</pdfrwt>
<pdfrwt beam="2">  1       -5 0.76048098E-01 0.13849293E+03</pdfrwt>
<totfact> 0.20701620E+02</totfact>
</mgrwt>
</event>
<event>
 8    1  0.3754098E-007  0.1344173E+03  0.7546771E-02  0.1221047E+00
         -5   -1    0    0    0  501 -0.00000000000E+00  0.00000000000E+00  0.87348167916E+02  0.87474524510E+02  0.47000000000E+01 0.  1.
          5   -1    0    0  501    0  0.00000000000E+00 -0.00000000000E+00 -0.24044258645E+03  0.24048851819E+03  0.47000000000E+01 0.  1.
         25    2    1    2    0    0 -0.46959222166E+02  0.15422173982E+02 -0.14994312669E+02  0.13525105997E+03  0.12500003125E+03 0.  0.
         25    2    1    2    0    0  0.46959222166E+02 -0.15422173982E+02 -0.13810010587E+03  0.19271198273E+03  0.12499302801E+03 0.  0.
          5    1    3    3  502    0 -0.26972132058E+02 -0.33604155921E+02  0.39847625383E+02  0.58878336013E+02  0.47000000000E+01 0.  1.
         -5    1    3    3    0  502 -0.19987090107E+02  0.49026329903E+02 -0.54841938052E+02  0.76372723954E+02  0.47000000000E+01 0.  1.
          5    1    4    4  503    0  0.85176488896E+02  0.82627755989E+01 -0.11014125423E+03  0.13955820866E+03  0.47000000000E+01 0. -1.
         -5    1    4    4    0  503 -0.38217266730E+02 -0.23684949581E+02 -0.27958851633E+02  0.53153774068E+02  0.47000000000E+01 0. -1.
<mgrwt>
<rscale>  0 0.13441571E+03</rscale>
<asrwt>0</asrwt>
<pdfrwt beam="2">  1        5 0.37004420E-01 0.13441733E+03</pdfrwt>
<pdfrwt beam="1">  1       -5 0.13451433E-01 0.13441733E+03</pdfrwt>
<totfact> 0.24242816E+02</totfact>
</mgrwt>
</event>
<event>
 8    1  0.3754098E-007  0.1410452E+03  0.7546771E-02  0.1211931E+00
         -5   -1    0    0    0  501 -0.00000000000E+00  0.00000000000E+00  0.27884523497E+03  0.27888484194E+03  0.47000000000E+01 0.  1.
          5   -1    0    0  501    0  0.00000000000E+00 -0.00000000000E+00 -0.71668165844E+02  0.71822113555E+02  0.47000000000E+01 0.  1.
         25    2    1    2    0    0  0.27630454255E+02 -0.59189988638E+02  0.11745753892E+03  0.18354840859E+03  0.12500739214E+03 0.  0.
         25    2    1    2    0    0 -0.27630454255E+02  0.59189988638E+02  0.89719530196E+02  0.16715854690E+03  0.12500195577E+03 0.  0.
          5    1    3    3  502    0  0.68357816947E+02 -0.59895784811E+01  0.34923090202E+02  0.77138695979E+02  0.47000000000E+01 0.  1.
         -5    1    3    3    0  502 -0.40727362692E+02 -0.53200410157E+02  0.82534448722E+02  0.10640971261E+03  0.47000000000E+01 0.  1.
          5    1    4    4  503    0  0.44859816591E+02  0.34545125855E+01  0.49784971070E+02  0.67267898334E+02  0.47000000000E+01 0.  1.
         -5    1    4    4    0  503 -0.72490270847E+02  0.55735476052E+02  0.39934559126E+02  0.99890648565E+02  0.47000000000E+01 0.  1.
<mgrwt>
<rscale>  0 0.14104398E+03</rscale>
<asrwt>0</asrwt>
<pdfrwt beam="2">  1        5 0.11040760E-01 0.14104519E+03</pdfrwt>
<pdfrwt beam="1">  1       -5 0.42914156E-01 0.14104519E+03</pdfrwt>
<totfact> 0.25845387E+02</totfact>
</mgrwt>
</event>
<event>
 8    1  0.3754098E-007  0.1561589E+03  0.7546771E-02  0.1193108E+00
         -5   -1    0    0    0  501 -0.00000000000E+00  0.00000000000E+00  0.43706510085E+02  0.43958492055E+02  0.47000000000E+01 0. -1.
          5   -1    0    0  501    0  0.00000000000E+00 -0.00000000000E+00 -0.58665509843E+03  0.58667392521E+03  0.47000000000E+01 0. -1.
         25    2    1    2    0    0 -0.88461827159E+02  0.30581626244E+02 -0.19941741497E+03  0.25327412023E+03  0.12497897366E+03 0.  0.
         25    2    1    2    0    0  0.88461827159E+02 -0.30581626244E+02 -0.34353117337E+03  0.37735829703E+03  0.12499954611E+03 0.  0.
          5    1    3    3  502    0  0.13376282554E+02  0.11354067209E+02  0.91434148683E+01  0.20335481617E+02  0.47000000000E+01 0.  1.
         -5    1    3    3    0  502 -0.10183810971E+03  0.19227559035E+02 -0.20856082984E+03  0.23293863862E+03  0.47000000000E+01 0.  1.
          5    1    4    4  503    0  0.52485165303E+02  0.39433481844E+02 -0.22924865852E+03  0.23850939080E+03  0.47000000000E+01 0. -1.
         -5    1    4    4    0  503  0.35976661856E+02 -0.70015108088E+02 -0.11428251486E+03  0.13884890623E+03  0.47000000000E+01 0. -1.
<mgrwt>
<rscale>  0 0.15615483E+03</rscale>
<asrwt>0</asrwt>
<pdfrwt beam="2">  1        5 0.90275456E-01 0.15615895E+03</pdfrwt>
<pdfrwt beam="1">  1       -5 0.67449104E-02 0.15615895E+03</pdfrwt>
<totfact> 0.12080161E+02</totfact>
</mgrwt>
</event>
<event>
 8    1  0.3754098E-007  0.1616277E+03  0.7546771E-02  0.1186872E+00
          5   -1    0    0  501    0  0.00000000000E+00  0.00000000000E+00  0.54149897335E+02  0.54353485457E+02  0.47000000000E+01 0. -1.
         -5   -1    0    0    0  501 -0.00000000000E+00 -0.00000000000E+00 -0.59568727400E+03  0.59570581532E+03  0.47000000000E+01 0. -1.
         25    2    1    2    0    0 -0.82316317029E+02 -0.60996392263E+02 -0.41317098280E+03  0.44365814664E+03  0.12500301651E+03 0.  0.
         25    2    1    2    0    0  0.82316317029E+02  0.60996392263E+02 -0.12836639386E+03  0.20640115413E+03  0.12500787749E+03 0.  0.
          5    1    3    3  502    0  0.46117466024E+01 -0.27163665424E+02 -0.27774885038E+03  0.27915165559E+03  0.47000000000E+01 0.  1.
         -5    1    3    3    0  502 -0.86928063631E+02 -0.33832726838E+02 -0.13542213242E+03  0.16450649106E+03  0.47000000000E+01 0.  1.
          5    1    4    4  503    0  0.28423965745E+02 -0.36739132159E+02 -0.20081108565E+02  0.50823484549E+02  0.47000000000E+01 0.  1.
         -5    1    4    4    0  503  0.53892351284E+02  0.97735524421E+02 -0.10828528530E+03  0.15557766958E+03  0.47000000000E+01 0.  1.
<mgrwt>
<rscale>  0 0.16162674E+03</rscale>
<asrwt>0</asrwt>
<pdfrwt beam="1">  1        5 0.83478407E-02 0.16162768E+03</pdfrwt>
<pdfrwt beam="2">  1       -5 0.91661278E-01 0.16162768E+03</pdfrwt>
<totfact> 0.81734714E+01</totfact>
</mgrwt>
</event>
<event>
 8    1  0.3754098E-007  0.1254550E+03  0.7546771E-02  0.1234363E+00
          5   -1    0    0  501    0  0.00000000000E+00  0.00000000000E+00  0.11905662648E+03  0.11914936135E+03  0.47000000000E+01 0. -1.
         -5   -1    0    0    0  501 -0.00000000000E+00 -0.00000000000E+00 -0.13575277181E+03  0.13583410858E+03  0.47000000000E+01 0. -1.
         25    2    1    2    0    0 -0.10641909977E+02  0.12690191744E+01 -0.29523092820E+02  0.12887442026E+03  0.12498856960E+03 0.  0.
         25    2    1    2    0    0  0.10641909977E+02 -0.12690191744E+01  0.12826947494E+02  0.12610904967E+03  0.12499640462E+03 0.  0.
          5    1    3    3  502    0 -0.14997452685E+02  0.82416619425E+01  0.47792522072E+02  0.50981013570E+02  0.47000000000E+01 0.  1.
         -5    1    3    3    0  502  0.43555427082E+01 -0.69726427681E+01 -0.77315614892E+02  0.77893406688E+02  0.47000000000E+01 0.  1.
          5    1    4    4  503    0 -0.52814943314E+02 -0.57669146541E+01  0.28428230991E+02  0.60439472691E+02  0.47000000000E+01 0.  1.
         -5    1    4    4    0  503  0.63456853291E+02  0.44978954797E+01 -0.15601283497E+02  0.65669576975E+02  0.47000000000E+01 0.  1.
<mgrwt>
<rscale>  0 0.12545307E+03</rscale>
<asrwt>0</asrwt>
<pdfrwt beam="1">  1        5 0.18329794E-01 0.12545502E+03</pdfrwt>
<pdfrwt beam="2">  1       -5 0.20898432E-01 0.12545502E+03</pdfrwt>
<totfact> 0.40881757E+02</totfact>
</mgrwt>
</event>
<event>
 8    1  0.3754098E-007  0.1462776E+03  0.7546771E-02  0.1205125E+00
          5   -1    0    0  501    0  0.00000000000E+00  0.00000000000E+00  0.68483875710E+03  0.68485488480E+03  0.47000000000E+01 0.  1.
         -5   -1    0    0    0  501 -0.00000000000E+00 -0.00000000000E+00 -0.33957731822E+02  0.34281446156E+02  0.47000000000E+01 0.  1.
         25    2    1    2    0    0  0.19387573869E+02 -0.73442815401E+02  0.22076453934E+03  0.26482845963E+03  0.12500962380E+03 0.  0.
         25    2    1    2    0    0 -0.19387573869E+02  0.73442815401E+02  0.43011648594E+03  0.45430787133E+03  0.12500290124E+03 0.  0.
          5    1    3    3  502    0  0.72136006653E+00  0.20887328014E+02 -0.26196126580E+01  0.21581316048E+02  0.47000000000E+01 0.  1.
         -5    1    3    3    0  502  0.18666213803E+02 -0.94330143415E+02  0.22338415200E+03  0.24324714358E+03  0.47000000000E+01 0.  1.
          5    1    4    4  503    0  0.20947081692E+02  0.78185378592E+02  0.38490815154E+03  0.39335493995E+03  0.47000000000E+01 0. -1.
         -5    1    4    4    0  503 -0.40334655561E+02 -0.47425631907E+01  0.45208334398E+02  0.60952931381E+02  0.47000000000E+01 0. -1.
<mgrwt>
<rscale>  0 0.14627615E+03</rscale>
<asrwt>0</asrwt>
<pdfrwt beam="1">  1        5 0.10538596E+00 0.14627758E+03</pdfrwt>
<pdfrwt beam="2">  1       -5 0.52504079E-02 0.14627758E+03</pdfrwt>
<totfact> 0.12392965E+02</totfact>
</mgrwt>
</event>
<event>
 8    1  0.3754098E-007  0.1284731E+03  0.7546771E-02  0.1229749E+00
          5   -1    0    0  501    0  0.00000000000E+00  0.00000000000E+00  0.11749438062E+03  0.11758834754E+03  0.47000000000E+01 0.  1.
         -5   -1    0    0    0  501 -0.00000000000E+00 -0.00000000000E+00 -0.16490637558E+03  0.16497333938E+03  0.47000000000E+01 0.  1.
         25    2    1    2    0    0  0.18302989126E+02  0.23326982534E+02 -0.78300757338E+02  0.15045381201E+03  0.12500477361E+03 0.  0.
         25    2    1    2    0    0 -0.18302989126E+02 -0.23326982534E+02  0.30888762383E+02  0.13210787491E+03  0.12497690765E+03 0.  0.
          5    1    4    4  502    0  0.20193789310E+02 -0.66084086048E+02  0.69247422639E+01  0.69605586061E+02  0.47000000000E+01 0.  1.
         -5    1    4    4    0  502 -0.38496778435E+02  0.42757103514E+02  0.23964020119E+02  0.62502288846E+02  0.47000000000E+01 0.  1.
          5    1    3    3  503    0 -0.51686629919E+02  0.22722476243E+02 -0.23078627644E+02  0.61176234707E+02  0.47000000000E+01 0. -1.
         -5    1    3    3    0  503  0.69989619045E+02  0.60450629098E+00 -0.55222129694E+02  0.89277577307E+02  0.47000000000E+01 0. -1.
<mgrwt>
<rscale>  0 0.12846633E+03</rscale>
<asrwt>0</asrwt>
<pdfrwt beam="1">  1        5 0.18088438E-01 0.12847311E+03</pdfrwt>
<pdfrwt beam="2">  1       -5 0.25382591E-01 0.12847311E+03</pdfrwt>
<totfact> 0.29242875E+02</totfact>
</mgrwt>
</event>
<event>
 8    1  0.3754098E-007  0.1335846E+03  0.7546771E-02  0.1222234E+00
          5   -1    0    0  501    0  0.00000000000E+00  0.00000000000E+00  0.20656570040E+02  0.21184519957E+02  0.47000000000E+01 0. -1.
         -5   -1    0    0    0  501 -0.00000000000E+00 -0.00000000000E+00 -0.86686335917E+03  0.86687610041E+03  0.47000000000E+01 0. -1.
         25    2    1    2    0    0 -0.36392386137E+02  0.29901611449E+02 -0.48042098944E+03  0.49864733672E+03  0.12500530862E+03 0.  0.
         25    2    1    2    0    0  0.36392386137E+02 -0.29901611449E+02 -0.36578579969E+03  0.38941328365E+03  0.12499976838E+03 0.  0.
          5    1    4    4  502    0 -0.34042167061E+02  0.22039841489E+02 -0.71279422187E+02  0.82142983744E+02  0.47000000000E+01 0.  1.
         -5    1    4    4    0  502  0.70434553198E+02 -0.51941452938E+02 -0.29450637750E+03  0.30727029991E+03  0.47000000000E+01 0.  1.
          5    1    3    3  503    0  0.28388718299E+02  0.41298177718E+02 -0.33767125971E+03  0.34140215061E+03  0.47000000000E+01 0.  1.
         -5    1    3    3    0  503 -0.64781104436E+02 -0.11396566268E+02 -0.14274972973E+03  0.15724518611E+03  0.47000000000E+01 0.  1.
<mgrwt>
<rscale>  0 0.13358328E+03</rscale>
<asrwt>0</asrwt>
<pdfrwt beam="1">  1        5 0.32195262E-02 0.13358458E+03</pdfrwt>
<pdfrwt beam="2">  1       -5 0.13340516E+00 0.13358458E+03</pdfrwt>
<totfact> 0.14777379E+02</totfact>
</mgrwt>
</event>
<event>
 8    1  0.3754098E-007  0.1344171E+03  0.7546771E-02  0.1221050E+00
          5   -1    0    0  501    0  0.00000000000E+00  0.00000000000E+00  0.27193196850E+02  0.27596375757E+02  0.47000000000E+01 0.  1.
         -5   -1    0    0    0  501 -0.00000000000E+00 -0.00000000000E+00 -0.67324076453E+03  0.67325717005E+03  0.47000000000E+01 0.  1.
         25    2    1    2    0    0 -0.46910404648E+02 -0.15517612310E+02 -0.27219055901E+03  0.30357149539E+03  0.12500628002E+03 0.  0.
         25    2    1    2    0    0  0.46910404648E+02  0.15517612310E+02 -0.37385700867E+03  0.39728205041E+03  0.12499032881E+03 0.  0.
          5    1    4    4  502    0 -0.24132491802E+02  0.21571248420E+02 -0.26536481555E+03  0.26737290673E+03  0.47000000000E+01 0. -1.
         -5    1    4    4    0  502  0.71042896450E+02 -0.60536361103E+01 -0.10849219311E+03  0.12990914368E+03  0.47000000000E+01 0. -1.
          5    1    3    3  503    0  0.42347390642E+02 -0.11914456573E+02 -0.75777513545E+02  0.87747235447E+02  0.47000000000E+01 0.  1.
         -5    1    3    3    0  503 -0.89257795290E+02 -0.36031557371E+01 -0.19641304547E+03  0.21582425994E+03  0.47000000000E+01 0.  1.
<mgrwt>
<rscale>  0 0.13441338E+03</rscale>
<asrwt>0</asrwt>
<pdfrwt beam="1">  1        5 0.42158450E-02 0.13441708E+03</pdfrwt>
<pdfrwt beam="2">  1       -5 0.10360777E+00 0.13441708E+03</pdfrwt>
<totfact> 0.18087157E+02</totfact>
</mgrwt>
</event>
<event>
 8    1  0.3754098E-007  0.1477992E+03  0.7546771E-02  0.1203204E+00
          5   -1    0    0  501    0  0.00000000000E+00  0.00000000000E+00  0.51517213776E+02  0.51731163869E+02  0.47000000000E+01 0.  1.
         -5   -1    0    0    0  501 -0.00000000000E+00 -0.00000000000E+00 -0.47399512788E+03  0.47401842923E+03  0.47000000000E+01 0.  1.
         25    2    1    2    0    0  0.58279787340E+02  0.53129996175E+02 -0.29751028890E+03  0.33220019554E+03  0.12500107126E+03 0.  0.
         25    2    1    2    0    0 -0.58279787340E+02 -0.53129996175E+02 -0.12496762520E+03  0.19354939755E+03  0.12500052735E+03 0.  0.
          5    1    4    4  502    0 -0.63935791912E+02 -0.66720446546E+02 -0.29907800277E+02  0.97241811954E+02  0.47000000000E+01 0.  1.
         -5    1    4    4    0  502  0.56560045723E+01  0.13590450370E+02 -0.95059824927E+02  0.96307585600E+02  0.47000000000E+01 0.  1.
          5    1    3    3  503    0  0.57613710907E+02  0.50181851391E+02 -0.30957799265E+03  0.31890152308E+03  0.47000000000E+01 0. -1.
         -5    1    3    3    0  503  0.66607643239E+00  0.29481447842E+01  0.12067703750E+02  0.13298672463E+02  0.47000000000E+01 0. -1.
<mgrwt>
<rscale>  0 0.14779907E+03</rscale>
<asrwt>0</asrwt>
<pdfrwt beam="1">  1        5 0.79439756E-02 0.14779918E+03</pdfrwt>
<pdfrwt beam="2">  1       -5 0.72940575E-01 0.14779918E+03</pdfrwt>
<totfact> 0.14742115E+02</totfact>
</mgrwt>
</event>
<event>
 8    1  0.3754098E-007  0.1528361E+03  0.7546771E-02  0.1197033E+00
         -5   -1    0    0    0  501 -0.00000000000E+00  0.00000000000E+00  0.13014939179E+03  0.13023422816E+03  0.47000000000E+01 0. -1.
          5   -1    0    0  501    0  0.00000000000E+00 -0.00000000000E+00 -0.18265059473E+03  0.18271105537E+03  0.47000000000E+01 0. -1.
         25    2    1    2    0    0  0.86259144507E+02  0.17081365450E+02 -0.50537718968E+01  0.15291362446E+03  0.12499849150E+03 0.  0.
         25    2    1    2    0    0 -0.86259144507E+02 -0.17081365450E+02 -0.47447431037E+02  0.16003165907E+03  0.12500584041E+03 0.  0.
          5    1    3    3  502    0  0.77730179367E+02 -0.36941520781E+02 -0.31776295769E+02  0.91861198092E+02  0.47000000000E+01 0.  1.
         -5    1    3    3    0  502  0.85289651405E+01  0.54022886231E+02  0.26722523872E+02  0.61052426366E+02  0.47000000000E+01 0.  1.
          5    1    4    4  503    0 -0.15941184116E+02  0.85976974753E+01  0.40397338146E+02  0.44520519787E+02  0.47000000000E+01 0. -1.
         -5    1    4    4    0  503 -0.70317960392E+02 -0.25679062925E+02 -0.87844769182E+02  0.11551113929E+03  0.47000000000E+01 0. -1.
<mgrwt>
<rscale>  0 0.15283460E+03</rscale>
<asrwt>0</asrwt>
<pdfrwt beam="2">  1        5 0.28111268E-01 0.15283610E+03</pdfrwt>
<pdfrwt beam="1">  1       -5 0.20034160E-01 0.15283610E+03</pdfrwt>
<totfact> 0.21069812E+02</totfact>
</mgrwt>
</event>
<event>
 8    1  0.3754098E-007  0.1272136E+03  0.7546771E-02  0.1231662E+00
         -5   -1    0    0    0  501 -0.00000000000E+00  0.00000000000E+00  0.50552742077E+02  0.50770756656E+02  0.47000000000E+01 0.  1.
          5   -1    0    0  501    0  0.00000000000E+00 -0.00000000000E+00 -0.35124044286E+03  0.35127188715E+03  0.47000000000E+01 0.  1.
         25    2    1    2    0    0  0.15395436042E+02 -0.17707078974E+02 -0.89595501201E+02  0.15559774167E+03  0.12503096929E+03 0.  0.
         25    2    1    2    0    0 -0.15395436042E+02  0.17707078974E+02 -0.21109219958E+03  0.24644490213E+03  0.12499845185E+03 0.  0.
          5    1    3    3  502    0 -0.33670775131E+02  0.70879798096E+01 -0.94035668083E+02  0.10024349070E+03  0.47000000000E+01 0. -1.
         -5    1    3    3    0  502  0.49066211173E+02 -0.24795058784E+02  0.44401668815E+01  0.55354250974E+02  0.47000000000E+01 0. -1.
          5    1    4    4  503    0 -0.25843013393E+02  0.12114418429E+02 -0.22541903917E+03  0.22726736170E+03  0.47000000000E+01 0.  1.
         -5    1    4    4    0  503  0.10447577351E+02  0.55926605455E+01  0.14326839585E+02  0.19177540431E+02  0.47000000000E+01 0.  1.
<mgrwt>
<rscale>  0 0.12720562E+03</rscale>
<asrwt>0</asrwt>
<pdfrwt beam="2">  1        5 0.54056179E-01 0.12721361E+03</pdfrwt>
<pdfrwt beam="1">  1       -5 0.77965343E-02 0.12721361E+03</pdfrwt>
<totfact> 0.28033083E+02</totfact>
</mgrwt>
</event>
<event>
 8    1  0.3754098E-007  0.1543650E+03  0.7546771E-02  0.1195210E+00
          5   -1    0    0  501    0  0.00000000000E+00  0.00000000000E+00  0.23785929490E+02  0.24245833492E+02  0.47000000000E+01 0. -1.
         -5   -1    0    0    0  501 -0.00000000000E+00 -0.00000000000E+00 -0.14531660027E+04  0.14531736033E+04  0.47000000000E+01 0. -1.
         25    2    1    2    0    0  0.85175883981E+02 -0.30795872192E+02 -0.11308942681E+04  0.11413809197E+04  0.12500096491E+03 0.  0.
         25    2    1    2    0    0 -0.85175883981E+02  0.30795872192E+02 -0.29848580511E+03  0.33603851714E+03  0.12499916877E+03 0.  0.
          5    1    4    4  502    0 -0.61394038682E+02 -0.30218972565E+02 -0.23463910761E+03  0.24445861635E+03  0.47000000000E+01 0. -1.
         -5    1    4    4    0  502 -0.23781845298E+02  0.61014844756E+02 -0.63846697499E+02  0.91579900786E+02  0.47000000000E+01 0. -1.
          5    1    3    3  503    0  0.49870411557E+02  0.38832632468E+02 -0.28935249130E+03  0.29621273692E+03  0.47000000000E+01 0. -1.
         -5    1    3    3    0  503  0.35305472423E+02 -0.69628504660E+02 -0.84154177678E+03  0.84516818274E+03  0.47000000000E+01 0. -1.
<mgrwt>
<rscale>  0 0.15436465E+03</rscale>
<asrwt>0</asrwt>
<pdfrwt beam="1">  1        5 0.36953368E-02 0.15436502E+03</pdfrwt>
<pdfrwt beam="2">  1       -5 0.22359989E+00 0.15436502E+03</pdfrwt>
<totfact> 0.27202561E+01</totfact>
</mgrwt>
</event>
<event>
 8    1  0.3754098E-007  0.1420568E+03  0.7546771E-02  0.1210588E+00
         -5   -1    0    0    0  501 -0.00000000000E+00  0.00000000000E+00  0.24268346530E+02  0.24719276755E+02  0.47000000000E+01 0.  1.
          5   -1    0    0  501    0  0.00000000000E+00 -0.00000000000E+00 -0.85025848283E+03  0.85027147290E+03  0.47000000000E+01 0.  1.
         25    2    1    2    0    0 -0.49352055139E+02 -0.46041020545E+02 -0.33529563375E+03  0.36414711840E+03  0.12499824363E+03 0.  0.
         25    2    1    2    0    0  0.49352055139E+02  0.46041020545E+02 -0.49069450256E+03  0.51084363126E+03  0.12499887934E+03 0.  0.
          5    1    4    4  502    0 -0.21128600230E+02 -0.25144536189E+02 -0.59341524751E+02  0.67986557551E+02  0.47000000000E+01 0.  1.
         -5    1    4    4    0  502  0.70480655369E+02  0.71185556734E+02 -0.43135297781E+03  0.44285707371E+03  0.47000000000E+01 0.  1.
          5    1    3    3  503    0  0.22517163042E+02 -0.16728394764E+02 -0.10733360860E+02  0.30399948325E+02  0.47000000000E+01 0. -1.
         -5    1    3    3    0  503 -0.71869218181E+02 -0.29312625781E+02 -0.32456227289E+03  0.33374717007E+03  0.47000000000E+01 0. -1.
<mgrwt>
<rscale>  0 0.14205661E+03</rscale>
<asrwt>0</asrwt>
<pdfrwt beam="2">  1        5 0.13084466E+00 0.14205675E+03</pdfrwt>
<pdfrwt beam="1">  1       -5 0.37692786E-02 0.14205675E+03</pdfrwt>
<totfact> 0.12263272E+02</totfact>
</mgrwt>
</event>
<event>
 8    1  0.3754098E-007  0.1640302E+03  0.7546771E-02  0.1184221E+00
         -5   -1    0    0    0  501 -0.00000000000E+00  0.00000000000E+00  0.16709925601E+03  0.16716534138E+03  0.47000000000E+01 0.  1.
          5   -1    0    0  501    0  0.00000000000E+00 -0.00000000000E+00 -0.23353979985E+03  0.23358708893E+03  0.47000000000E+01 0.  1.
         25    2    1    2    0    0  0.67656072322E+02  0.81871348279E+02  0.78513149578E+02  0.18185184820E+03  0.12500207296E+03 0.  0.
         25    2    1    2    0    0 -0.67656072322E+02 -0.81871348279E+02 -0.14495369342E+03  0.21890058212E+03  0.12500251927E+03 0.  0.
          5    1    4    4  502    0 -0.93468935839E+02 -0.23857965626E+02 -0.10956740368E+03  0.14605735325E+03  0.47000000000E+01 0. -1.
         -5    1    4    4    0  502  0.25812863517E+02 -0.58013382652E+02 -0.35386289746E+02  0.72843228866E+02  0.47000000000E+01 0. -1.
          5    1    3    3  503    0  0.52109323603E+02  0.10987587001E+03  0.33167565304E+02  0.12613590213E+03  0.47000000000E+01 0. -1.
         -5    1    3    3    0  503  0.15546748719E+02 -0.28004521732E+02  0.45345584274E+02  0.55715946069E+02  0.47000000000E+01 0. -1.
<mgrwt>
<rscale>  0 0.16403007E+03</rscale>
<asrwt>0</asrwt>
<pdfrwt beam="2">  1        5 0.35937921E-01 0.16403015E+03</pdfrwt>
<pdfrwt beam="1">  1       -5 0.25716299E-01 0.16403015E+03</pdfrwt>
<totfact> 0.82374801E+01</totfact>
</mgrwt>
</event>
<event>
 8    1  0.3754098E-007  0.1373862E+03  0.7546771E-02  0.1216893E+00
         -5   -1    0    0    0  501 -0.00000000000E+00  0.00000000000E+00  0.14230353699E+04  0.14230431315E+04  0.47000000000E+01 0.  1.
          5   -1    0    0  501    0  0.00000000000E+00 -0.00000000000E+00 -0.28549578738E+02  0.28933863311E+02  0.47000000000E+01 0.  1.
         25    2    1    2    0    0  0.86423215963E+01 -0.56329485787E+02  0.12300654474E+04  0.12377130982E+04  0.12500003191E+03 0.  0.
         25    2    1    2    0    0 -0.86423215963E+01  0.56329485787E+02  0.16442034383E+03  0.21426389659E+03  0.12500906858E+03 0.  0.
          5    1    3    3  502    0 -0.54062316725E+02 -0.37413425444E+01  0.56587746149E+03  0.56848581614E+03  0.47000000000E+01 0.  1.
         -5    1    3    3    0  502  0.62704638322E+02 -0.52588143243E+02  0.66418798587E+03  0.66922728205E+03  0.47000000000E+01 0.  1.
          5    1    4    4  503    0  0.40836538567E+02  0.72977700326E+02  0.11462484599E+03  0.14196588656E+03  0.47000000000E+01 0. -1.
         -5    1    4    4    0  503 -0.49478860163E+02 -0.16648214539E+02  0.49795497833E+02  0.72298010034E+02  0.47000000000E+01 0. -1.
<mgrwt>
<rscale>  0 0.13738414E+03</rscale>
<asrwt>0</asrwt>
<pdfrwt beam="2">  1        5 0.44223995E-02 0.13738620E+03</pdfrwt>
<pdfrwt beam="1">  1       -5 0.21895872E+00 0.13738620E+03</pdfrwt>
<totfact> 0.21068817E+01</totfact>
</mgrwt>
</event>
<event>
 8    1  0.3754098E-007  0.1251443E+03  0.7546771E-02  0.1234845E+00
          5   -1    0    0  501    0  0.00000000000E+00  0.00000000000E+00  0.34399982544E+02  0.34719573716E+02  0.47000000000E+01 0. -1.
         -5   -1    0    0    0  501 -0.00000000000E+00 -0.00000000000E+00 -0.52625117573E+03  0.52627216339E+03  0.47000000000E+01 0. -1.
         25    2    1    2    0    0 -0.31589384312E+01 -0.50629376194E+01 -0.35067049025E+03  0.37233041543E+03  0.12499813315E+03 0.  0.
         25    2    1    2    0    0  0.31589384312E+01  0.50629376194E+01 -0.14118070294E+03  0.18866132168E+03  0.12500196473E+03 0.  0.
          5    1    4    4  502    0  0.47550162090E+02 -0.11744747752E+02 -0.13093443215E+03  0.13987448851E+03  0.47000000000E+01 0. -1.
         -5    1    4    4    0  502 -0.44391223658E+02  0.16807685371E+02 -0.10246270788E+02  0.48786833167E+02  0.47000000000E+01 0. -1.
          5    1    3    3  503    0  0.32051294507E+02 -0.24575832253E+02 -0.33790583665E+02  0.52869183415E+02  0.47000000000E+01 0.  1.
         -5    1    3    3    0  503 -0.35210232938E+02  0.19512894634E+02 -0.31687990659E+03  0.31946123201E+03  0.47000000000E+01 0.  1.
<mgrwt>
<rscale>  0 0.12514337E+03</rscale>
<asrwt>0</asrwt>
<pdfrwt beam="1">  1        5 0.53185038E-02 0.12514433E+03</pdfrwt>
<pdfrwt beam="2">  1       -5 0.80987912E-01 0.12514433E+03</pdfrwt>
<totfact> 0.21593865E+02</totfact>
</mgrwt>
</event>
<event>
 8    1  0.3754098E-007  0.1488931E+03  0.7546771E-02  0.1201841E+00
         -5   -1    0    0    0  501 -0.00000000000E+00  0.00000000000E+00  0.43418470037E+02  0.43672113990E+02  0.47000000000E+01 0. -1.
          5   -1    0    0  501    0  0.00000000000E+00 -0.00000000000E+00 -0.52883409999E+03  0.52885498514E+03  0.47000000000E+01 0. -1.
         25    2    1    2    0    0 -0.54622728820E+02 -0.59668453698E+02 -0.18705251087E+03  0.23907698184E+03  0.12500077820E+03 0.  0.
         25    2    1    2    0    0  0.54622728820E+02  0.59668453698E+02 -0.29836311908E+03  0.33345011729E+03  0.12499785208E+03 0.  0.
          5    1    4    4  502    0  0.84460351246E+02  0.60345816618E+02 -0.27860085628E+03  0.29734776885E+03  0.47000000000E+01 0. -1.
         -5    1    4    4    0  502 -0.29837622426E+02 -0.67736292007E+00 -0.19762262796E+02  0.36102348447E+02  0.47000000000E+01 0. -1.
          5    1    3    3  503    0 -0.30606318274E+02  0.24571461983E+02 -0.89310721809E+01  0.40526010321E+02  0.47000000000E+01 0. -1.
         -5    1    3    3    0  503 -0.24016410546E+02 -0.84239915681E+02 -0.17812143869E+03  0.19855097152E+03  0.47000000000E+01 0. -1.
<mgrwt>
<rscale>  0 0.14889251E+03</rscale>
<asrwt>0</asrwt>
<pdfrwt beam="2">  1        5 0.81380206E-01 0.14889312E+03</pdfrwt>
<pdfrwt beam="1">  1       -5 0.67008826E-02 0.14889312E+03</pdfrwt>
<totfact> 0.15356651E+02</totfact>
</mgrwt>
</event>
<event>
 8    1  0.3754098E-007  0.1371685E+03  0.7546771E-02  0.1217208E+00
          5   -1    0    0  501    0  0.00000000000E+00  0.00000000000E+00  0.34316641040E+03  0.34319859444E+03  0.47000000000E+01 0. -1.
         -5   -1    0    0    0  501 -0.00000000000E+00 -0.00000000000E+00 -0.54799831989E+02  0.55001014409E+02  0.47000000000E+01 0. -1.
         25    2    1    2    0    0  0.20958003692E+02  0.52463845185E+02  0.15378053164E+03  0.20606712972E+03  0.12499406813E+03 0.  0.
         25    2    1    2    0    0 -0.20958003692E+02 -0.52463845185E+02  0.13458604677E+03  0.19213247913E+03  0.12493915553E+03 0.  0.
          5    1    3    3  502    0 -0.45695182913E+02 -0.85012356376E+01  0.52695650057E+02  0.70421887817E+02  0.47000000000E+01 0.  1.
         -5    1    3    3    0  502  0.66653186606E+02  0.60965080823E+02  0.10108488159E+03  0.13564524190E+03  0.47000000000E+01 0.  1.
          5    1    4    4  503    0  0.26254754038E+02 -0.44747384791E+02  0.13431375557E+03  0.14406219314E+03  0.47000000000E+01 0.  1.
         -5    1    4    4    0  503 -0.47212757730E+02 -0.77164603947E+01  0.27229119527E+00  0.48070285999E+02  0.47000000000E+01 0.  1.
<mgrwt>
<rscale>  0 0.13715604E+03</rscale>
<asrwt>0</asrwt>
<pdfrwt beam="1">  1        5 0.52812784E-01 0.13716855E+03</pdfrwt>
<pdfrwt beam="2">  1       -5 0.84486946E-02 0.13716855E+03</pdfrwt>
<totfact> 0.26362931E+02</totfact>
</mgrwt>
</event>
<event>
 8    1  0.3754098E-007  0.1623880E+03  0.7546771E-02  0.1186032E+00
          5   -1    0    0  501    0  0.00000000000E+00  0.00000000000E+00  0.30284193532E+02  0.30646735191E+02  0.47000000000E+01 0.  1.
         -5   -1    0    0    0  501 -0.00000000000E+00 -0.00000000000E+00 -0.10705615283E+04  0.10705718452E+04  0.47000000000E+01 0.  1.
         25    2    1    2    0    0 -0.54993160296E+02  0.87834718575E+02 -0.76128982792E+03  0.77841232364E+03  0.12499743209E+03 0.  0.
         25    2    1    2    0    0  0.54993160296E+02 -0.87834718575E+02 -0.27898750681E+03  0.32280625678E+03  0.12502265792E+03 0.  0.
          5    1    4    4  502    0 -0.30884493152E+02 -0.25318118199E+02 -0.24718350420E+02  0.47201121532E+02  0.47000000000E+01 0.  1.
         -5    1    4    4    0  502  0.85877653448E+02 -0.62516600376E+02 -0.25426915639E+03  0.27560513525E+03  0.47000000000E+01 0.  1.
          5    1    3    3  503    0  0.53536062483E+01 -0.24050541944E+02 -0.51155494869E+02  0.56974242627E+02  0.47000000000E+01 0.  1.
         -5    1    3    3    0  503 -0.60346766544E+02  0.11188526052E+03 -0.71013433305E+03  0.72143808101E+03  0.47000000000E+01 0.  1.
<mgrwt>
<rscale>  0 0.16238311E+03</rscale>
<asrwt>0</asrwt>
<pdfrwt beam="1">  1        5 0.46877890E-02 0.16238796E+03</pdfrwt>
<pdfrwt beam="2">  1       -5 0.16473043E+00 0.16238796E+03</pdfrwt>
<totfact> 0.47607934E+01</totfact>
</mgrwt>
</event>
<event>
 8    1  0.3754098E-007  0.1450953E+03  0.7546771E-02  0.1206634E+00
          5   -1    0    0  501    0  0.00000000000E+00  0.00000000000E+00  0.47811649907E+02  0.48042105146E+02  0.47000000000E+01 0.  1.
         -5   -1    0    0    0  501 -0.00000000000E+00 -0.00000000000E+00 -0.44369865307E+03  0.44372354539E+03  0.47000000000E+01 0.  1.
         25    2    1    2    0    0  0.60929727952E+02  0.41404366489E+02 -0.22321747713E+03  0.26623049077E+03  0.12500351517E+03 0.  0.
         25    2    1    2    0    0 -0.60929727952E+02 -0.41404366489E+02 -0.17266952603E+03  0.22553515977E+03  0.12499835903E+03 0.  0.
          5    1    3    3  502    0 -0.31478898690E+02 -0.16328347663E+02 -0.48441361375E+02  0.60217866884E+02  0.47000000000E+01 0. -1.
         -5    1    3    3    0  502  0.92408626642E+02  0.57732714152E+02 -0.17477611576E+03  0.20601262388E+03  0.47000000000E+01 0. -1.
          5    1    4    4  503    0  0.31138314669E+02 -0.11177652443E+02 -0.79188735409E+01  0.34341419783E+02  0.47000000000E+01 0.  1.
         -5    1    4    4    0  503 -0.92068042621E+02 -0.30226714046E+02 -0.16475065249E+03  0.19119373999E+03  0.47000000000E+01 0.  1.
<mgrwt>
<rscale>  0 0.14509414E+03</rscale>
<asrwt>0</asrwt>
<pdfrwt beam="1">  1        5 0.73752808E-02 0.14509525E+03</pdfrwt>
<pdfrwt beam="2">  1       -5 0.68280971E-01 0.14509525E+03</pdfrwt>
<totfact> 0.19315744E+02</totfact>
</mgrwt>
</event>
<event>
 8    1  0.3754098E-007  0.1282920E+03  0.7546771E-02  0.1230013E+00
         -5   -1    0    0    0  501 -0.00000000000E+00  0.00000000000E+00  0.43767220321E+02  0.44018854763E+02  0.47000000000E+01 0. -1.
          5   -1    0    0  501    0  0.00000000000E+00 -0.00000000000E+00 -0.37595759696E+03  0.37598697412E+03  0.47000000000E+01 0. -1.
         25    2    1    2    0    0 -0.44944249341E+01  0.28519589174E+02 -0.15397609482E+03  0.20041823672E+03  0.12500106004E+03 0.  0.
         25    2    1    2    0    0  0.44944249341E+01 -0.28519589174E+02 -0.17821428182E+03  0.21958759217E+03  0.12499925428E+03 0.  0.
          5    1    3    3  502    0  0.14169700384E+02 -0.45981035104E+02 -0.81232238490E+02  0.94529374103E+02  0.47000000000E+01 0.  1.
         -5    1    3    3    0  502 -0.18664125318E+02  0.74500624278E+02 -0.72743856331E+02  0.10588886261E+03  0.47000000000E+01 0.  1.
          5    1    4    4  503    0  0.24652285347E+02  0.39145972549E+02 -0.29969758195E+02  0.55321051561E+02  0.47000000000E+01 0. -1.
         -5    1    4    4    0  503 -0.20157860412E+02 -0.67665561723E+02 -0.14824452362E+03  0.16426654061E+03  0.47000000000E+01 0. -1.
<mgrwt>
<rscale>  0 0.12829154E+03</rscale>
<asrwt>0</asrwt>
<pdfrwt beam="2">  1        5 0.57861244E-01 0.12829198E+03</pdfrwt>
<pdfrwt beam="1">  1       -5 0.67550350E-02 0.12829198E+03</pdfrwt>
<totfact> 0.30985128E+02</totfact>
</mgrwt>
</event>
<event>
 8    1  0.3754098E-007  0.1288578E+03  0.7546771E-02  0.1229162E+00
         -5   -1    0    0    0  501 -0.00000000000E+00  0.00000000000E+00  0.68139851002E+02  0.68301751768E+02  0.47000000000E+01 0. -1.
          5   -1    0    0  501    0  0.00000000000E+00 -0.00000000000E+00 -0.24410599816E+03  0.24415124070E+03  0.47000000000E+01 0. -1.
         25    2    1    2    0    0  0.30797948786E+02  0.53892622256E+01 -0.78458390448E+02  0.15086064264E+03  0.12500262665E+03 0.  0.
         25    2    1    2    0    0 -0.30797948786E+02 -0.53892622256E+01 -0.97507756707E+02  0.16159234983E+03  0.12500706824E+03 0.  0.
          5    1    4    4  502    0 -0.73037897287E+02 -0.20740213757E+02 -0.33210724798E+02  0.83004416440E+02  0.47000000000E+01 0. -1.
         -5    1    4    4    0  502  0.42239948501E+02  0.15350951531E+02 -0.64297031909E+02  0.78587933391E+02  0.47000000000E+01 0. -1.
          5    1    3    3  503    0  0.44778637095E+02  0.58435526293E+02 -0.46405870640E+02  0.87151775101E+02  0.47000000000E+01 0. -1.
         -5    1    3    3    0  503 -0.13980688309E+02 -0.53046264068E+02 -0.32052519808E+02  0.63708867540E+02  0.47000000000E+01 0. -1.
<mgrwt>
<rscale>  0 0.12885669E+03</rscale>
<asrwt>0</asrwt>
<pdfrwt beam="2">  1        5 0.37570703E-01 0.12885777E+03</pdfrwt>
<pdfrwt beam="1">  1       -5 0.10498988E-01 0.12885777E+03</pdfrwt>
<totfact> 0.35905646E+02</totfact>
</mgrwt>
</event>
<event>
 8    1  0.3754098E-007  0.1272325E+03  0.7546771E-02  0.1231621E+00
          5   -1    0    0  501    0  0.00000000000E+00  0.00000000000E+00  0.10622135846E+03  0.10632528858E+03  0.47000000000E+01 0. -1.
         -5   -1    0    0    0  501 -0.00000000000E+00 -0.00000000000E+00 -0.16957530911E+03  0.16964042991E+03  0.47000000000E+01 0. -1.
         25    2    1    2    0    0 -0.22584099992E+02  0.72318682198E+01 -0.75841720202E+02  0.14812186195E+03  0.12500311186E+03 0.  0.
         25    2    1    2    0    0  0.22584099992E+02 -0.72318682198E+01  0.12487769547E+02  0.12784385654E+03  0.12500306307E+03 0.  0.
          5    1    4    4  502    0 -0.24397492728E+00  0.50301796424E+02 -0.23900251335E+02  0.55889554132E+02  0.47000000000E+01 0.  1.
         -5    1    4    4    0  502  0.22828074920E+02 -0.57533664643E+02  0.36388020882E+02  0.71954302412E+02  0.47000000000E+01 0.  1.
          5    1    3    3  503    0 -0.10444447399E+02  0.15316845967E+02  0.33035066811E+02  0.38171951628E+02  0.47000000000E+01 0. -1.
         -5    1    3    3    0  503 -0.12139652593E+02 -0.80849777472E+01 -0.10887678701E+03  0.10994991033E+03  0.47000000000E+01 0. -1.
<mgrwt>
<rscale>  0 0.12723253E+03</rscale>
<asrwt>0</asrwt>
<pdfrwt beam="1">  1        5 0.16354751E-01 0.12723254E+03</pdfrwt>
<pdfrwt beam="2">  1       -5 0.26101513E-01 0.12723254E+03</pdfrwt>
<totfact> 0.33219429E+02</totfact>
</mgrwt>
</event>
<event>
 8    1  0.3754098E-007  0.1808139E+03  0.7546771E-02  0.1167022E+00
         -5   -1    0    0    0  501 -0.00000000000E+00  0.00000000000E+00  0.24379020321E+03  0.24383550435E+03  0.47000000000E+01 0.  1.
          5   -1    0    0  501    0  0.00000000000E+00 -0.00000000000E+00 -0.15857655055E+03  0.15864618616E+03  0.47000000000E+01 0.  1.
         25    2    1    2    0    0  0.67682398708E+02 -0.11174440143E+03  0.12180822126E+03  0.21800184376E+03  0.12497936939E+03 0.  0.
         25    2    1    2    0    0 -0.67682398708E+02  0.11174440143E+03 -0.36594568593E+02  0.18447984675E+03  0.12500373219E+03 0.  0.
          5    1    3    3  502    0  0.86248761999E+02 -0.10918941641E+03  0.57113233351E+02  0.15048318520E+03  0.47000000000E+01 0.  1.
         -5    1    3    3    0  502 -0.18566363291E+02 -0.25549850123E+01  0.64694987905E+02  0.67518658564E+02  0.47000000000E+01 0.  1.
          5    1    4    4  503    0 -0.67810229687E+02  0.48901717299E+02 -0.73527785829E+02  0.11143621716E+03  0.47000000000E+01 0. -1.
         -5    1    4    4    0  503  0.12783097920E+00  0.62842684127E+02  0.36933217236E+02  0.73043629595E+02  0.47000000000E+01 0. -1.
<mgrwt>
<rscale>  0 0.18080965E+03</rscale>
<asrwt>0</asrwt>
<pdfrwt beam="2">  1        5 0.24405234E-01 0.18081386E+03</pdfrwt>
<pdfrwt beam="1">  1       -5 0.37515026E-01 0.18081386E+03</pdfrwt>
<totfact> 0.85897977E+01</totfact>
</mgrwt>
</event>
<event>
 8    1  0.3754098E-007  0.1307023E+03  0.7546771E-02  0.1226418E+00
          5   -1    0    0  501    0  0.00000000000E+00  0.00000000000E+00  0.73940059867E+02  0.74089287034E+02  0.47000000000E+01 0. -1.
         -5   -1    0    0    0  501 -0.00000000000E+00 -0.00000000000E+00 -0.27811905534E+03  0.27815876571E+03  0.47000000000E+01 0. -1.
         25    2    1    2    0    0  0.28893446831E+02 -0.24959037559E+02 -0.17484011594E+03  0.21829336755E+03  0.12500057339E+03 0.  0.
         25    2    1    2    0    0 -0.28893446831E+02  0.24959037559E+02 -0.29338879525E+02  0.13395468519E+03  0.12500121202E+03 0.  0.
          5    1    4    4  502    0  0.35845129424E+02  0.48745560491E+02 -0.59693642263E+01  0.60981360105E+02  0.47000000000E+01 0.  1.
         -5    1    4    4    0  502 -0.64738576256E+02 -0.23786522932E+02 -0.23369515299E+02  0.72973325086E+02  0.47000000000E+01 0.  1.
          5    1    3    3  503    0 -0.46602130015E+02 -0.32617010366E+01 -0.96180735482E+02  0.10702906658E+03  0.47000000000E+01 0. -1.
         -5    1    3    3    0  503  0.75495576846E+02 -0.21697336522E+02 -0.78659380461E+02  0.11126430097E+03  0.47000000000E+01 0. -1.
<mgrwt>
<rscale>  0 0.13070213E+03</rscale>
<asrwt>0</asrwt>
<pdfrwt beam="1">  1        5 0.11389928E-01 0.13070229E+03</pdfrwt>
<pdfrwt beam="2">  1       -5 0.42802080E-01 0.13070229E+03</pdfrwt>
<totfact> 0.23964886E+02</totfact>
</mgrwt>
</event>
<event>
 8    1  0.3754098E-007  0.1296587E+03  0.7546771E-02  0.1227968E+00
          5   -1    0    0  501    0  0.00000000000E+00  0.00000000000E+00  0.21037432590E+03  0.21042682100E+03  0.47000000000E+01 0.  1.
         -5   -1    0    0    0  501 -0.00000000000E+00 -0.00000000000E+00 -0.11710860274E+03  0.11720287895E+03  0.47000000000E+01 0.  1.
         25    2    1    2    0    0  0.34197332581E+02 -0.37079765987E+01 -0.45798446051E+02  0.13749759923E+03  0.12499954195E+03 0.  0.
         25    2    1    2    0    0 -0.34197332581E+02  0.37079765987E+01  0.13906416921E+03  0.19013210072E+03  0.12501266304E+03 0.  0.
          5    1    3    3  502    0 -0.93417061903E+01 -0.40355648763E+01 -0.80714365647E+02  0.81488969071E+02  0.47000000000E+01 0. -1.
         -5    1    3    3    0  502  0.43539038772E+02  0.32758827763E+00  0.34915919596E+02  0.56008630161E+02  0.47000000000E+01 0. -1.
          5    1    4    4  503    0 -0.12325358385E+02  0.63089873947E+02  0.85618861718E+02  0.10716774765E+03  0.47000000000E+01 0.  1.
         -5    1    4    4    0  503 -0.21871974196E+02 -0.59381897348E+02  0.53445307494E+02  0.82964353075E+02  0.47000000000E+01 0.  1.
<mgrwt>
<rscale>  0 0.12965551E+03</rscale>
<asrwt>0</asrwt>
<pdfrwt beam="1">  1        5 0.32376571E-01 0.12965868E+03</pdfrwt>
<pdfrwt beam="2">  1       -5 0.18027998E-01 0.12965868E+03</pdfrwt>
<totfact> 0.18374218E+02</totfact>
</mgrwt>
</event>
<event>
 8    1  0.3754098E-007  0.1351383E+03  0.7546771E-02  0.1220026E+00
          5   -1    0    0  501    0  0.00000000000E+00  0.00000000000E+00  0.45059280553E+02  0.45303738962E+02  0.47000000000E+01 0.  1.
         -5   -1    0    0    0  501 -0.00000000000E+00 -0.00000000000E+00 -0.40482410570E+03  0.40485138824E+03  0.47000000000E+01 0.  1.
         25    2    1    2    0    0  0.50818060877E+02 -0.72787859396E+01 -0.19047270743E+03  0.23353983818E+03  0.12500219080E+03 0.  0.
         25    2    1    2    0    0 -0.50818060877E+02  0.72787859396E+01 -0.16929211772E+03  0.21661528902E+03  0.12500762489E+03 0.  0.
          5    1    4    4  502    0  0.11852004615E+02 -0.49011068375E+02 -0.58999754833E+02  0.77753558806E+02  0.47000000000E+01 0.  1.
         -5    1    4    4    0  502 -0.62670065492E+02  0.56289854315E+02 -0.11029236289E+03  0.13886173022E+03  0.47000000000E+01 0.  1.
          5    1    3    3  503    0  0.12868288167E+02  0.74250657849E+00 -0.19383827833E+03  0.19432321606E+03  0.47000000000E+01 0.  1.
         -5    1    3    3    0  503  0.37949772710E+02 -0.80212925181E+01  0.33655708987E+01  0.39216622112E+02  0.47000000000E+01 0.  1.
<mgrwt>
<rscale>  0 0.13513705E+03</rscale>
<asrwt>0</asrwt>
<pdfrwt beam="1">  1        5 0.69531004E-02 0.13513831E+03</pdfrwt>
<pdfrwt beam="2">  1       -5 0.62301533E-01 0.13513831E+03</pdfrwt>
<totfact> 0.25565421E+02</totfact>
</mgrwt>
</event>
<event>
 8    1  0.3754098E-007  0.1657759E+03  0.7546771E-02  0.1182328E+00
         -5   -1    0    0    0  501 -0.00000000000E+00  0.00000000000E+00  0.46500647457E+02  0.46737567480E+02  0.47000000000E+01 0.  1.
          5   -1    0    0  501    0  0.00000000000E+00 -0.00000000000E+00 -0.73950481122E+03  0.73951974674E+03  0.47000000000E+01 0.  1.
         25    2    1    2    0    0 -0.44342825417E+02 -0.99437264175E+02 -0.16931385729E+03  0.23695742669E+03  0.12501033604E+03 0.  0.
         25    2    1    2    0    0  0.44342825417E+02  0.99437264175E+02 -0.52369030647E+03  0.54929988754E+03  0.12499909472E+03 0.  0.
          5    1    3    3  502    0  0.39110883968E+02 -0.59014331832E+02 -0.91682805155E+02  0.11593178756E+03  0.47000000000E+01 0. -1.
         -5    1    3    3    0  502 -0.83453709385E+02 -0.40422932343E+02 -0.77631052140E+02  0.12102563913E+03  0.47000000000E+01 0. -1.
          5    1    4    4  503    0 -0.39254029120E+02  0.56444842705E+02 -0.27177057140E+03  0.28037159726E+03  0.47000000000E+01 0. -1.
         -5    1    4    4    0  503  0.83596854537E+02  0.42992421469E+02 -0.25191973507E+03  0.26892829027E+03  0.47000000000E+01 0. -1.
<mgrwt>
<rscale>  0 0.16577375E+03</rscale>
<asrwt>0</asrwt>
<pdfrwt beam="2">  1        5 0.11378934E+00 0.16577587E+03</pdfrwt>
<pdfrwt beam="1">  1       -5 0.71733198E-02 0.16577587E+03</pdfrwt>
<totfact> 0.62788256E+01</totfact>
</mgrwt>
</event>
<event>
 8    1  0.3754098E-007  0.1557472E+03  0.7546771E-02  0.1193603E+00
         -5   -1    0    0    0  501 -0.00000000000E+00  0.00000000000E+00  0.22408473173E+03  0.22413401570E+03  0.47000000000E+01 0. -1.
          5   -1    0    0  501    0  0.00000000000E+00 -0.00000000000E+00 -0.10816145975E+03  0.10826352744E+03  0.47000000000E+01 0. -1.
         25    2    1    2    0    0 -0.86763877363E+02 -0.32934228324E+02  0.62139771092E+02  0.16762545900E+03  0.12499723815E+03 0.  0.
         25    2    1    2    0    0  0.86763877363E+02  0.32934228324E+02  0.53783500894E+02  0.16477208414E+03  0.12507813931E+03 0.  0.
          5    1    3    3  502    0 -0.11836557251E+03 -0.24078159740E+02  0.58437479821E+02  0.13426539234E+03  0.47000000000E+01 0.  1.
         -5    1    3    3    0  502  0.31601695149E+02 -0.88560685849E+01  0.37022912708E+01  0.33360066662E+02  0.47000000000E+01 0.  1.
          5    1    4    4  503    0  0.31712089181E+02 -0.47999283054E+02  0.18340038696E+02  0.60564302962E+02  0.47000000000E+01 0.  1.
         -5    1    4    4    0  503  0.55051788183E+02  0.80933511378E+02  0.35443462197E+02  0.10420778118E+03  0.47000000000E+01 0.  1.
<mgrwt>
<rscale>  0 0.15573091E+03</rscale>
<asrwt>0</asrwt>
<pdfrwt beam="2">  1        5 0.16651867E-01 0.15574715E+03</pdfrwt>
<pdfrwt beam="1">  1       -5 0.34486216E-01 0.15574715E+03</pdfrwt>
<totfact> 0.19933168E+02</totfact>
</mgrwt>
</event>
<event>
 8    1  0.3754098E-007  0.1435139E+03  0.7546771E-02  0.1208684E+00
          5   -1    0    0  501    0  0.00000000000E+00  0.00000000000E+00  0.27460944223E+03  0.27464966004E+03  0.47000000000E+01 0. -1.
         -5   -1    0    0    0  501 -0.00000000000E+00 -0.00000000000E+00 -0.11781133452E+03  0.11790504884E+03  0.47000000000E+01 0. -1.
         25    2    1    2    0    0  0.61372134933E+02 -0.34557927494E+02 -0.40020538837E+02  0.14896934490E+03  0.12501773032E+03 0.  0.
         25    2    1    2    0    0 -0.61372134933E+02  0.34557927494E+02  0.19681864654E+03  0.24358536398E+03  0.12504183548E+03 0.  0.
          5    1    4    4  502    0 -0.15353008585E+02  0.37047743977E+02  0.19291551801E+03  0.19709575666E+03  0.47000000000E+01 0. -1.
         -5    1    4    4    0  502 -0.46019126349E+02 -0.24898164833E+01  0.39031285316E+01  0.46489607315E+02  0.47000000000E+01 0. -1.
          5    1    3    3  503    0 -0.29405029611E+02  0.20877855878E+02 -0.16484987629E+02  0.39929756444E+02  0.47000000000E+01 0. -1.
         -5    1    3    3    0  503  0.90777164544E+02 -0.55435783372E+02 -0.23535551208E+02  0.10903958846E+03  0.47000000000E+01 0. -1.
<mgrwt>
<rscale>  0 0.14350869E+03</rscale>
<asrwt>0</asrwt>
<pdfrwt beam="1">  1        5 0.42257908E-01 0.14351394E+03</pdfrwt>
<pdfrwt beam="2">  1       -5 0.18135123E-01 0.14351394E+03</pdfrwt>
<totfact> 0.10973315E+02</totfact>
</mgrwt>
</event>
<event>
 8    1  0.3754098E-007  0.1562430E+03  0.7546771E-02  0.1193005E+00
          5   -1    0    0  501    0  0.00000000000E+00  0.00000000000E+00  0.34590369679E+03  0.34593562617E+03  0.47000000000E+01 0. -1.
         -5   -1    0    0    0  501 -0.00000000000E+00 -0.00000000000E+00 -0.71023494134E+02  0.71178836173E+02  0.47000000000E+01 0. -1.
         25    2    1    2    0    0  0.46573687784E+02  0.81347140671E+02  0.11889527303E+03  0.19633587351E+03  0.12500089434E+03 0.  0.
         25    2    1    2    0    0 -0.46573687784E+02 -0.81347140671E+02  0.15598492963E+03  0.22077858884E+03  0.12500168531E+03 0.  0.
          5    1    4    4  502    0  0.22304623095E+02 -0.71692694995E+02  0.39349830620E+02  0.84898986430E+02  0.47000000000E+01 0. -1.
         -5    1    4    4    0  502 -0.68878310879E+02 -0.96544456766E+01  0.11663509901E+03  0.13587960241E+03  0.47000000000E+01 0. -1.
          5    1    3    3  503    0  0.59913522956E+01  0.31397646297E+01 -0.25676477192E+02  0.26965272208E+02  0.47000000000E+01 0. -1.
         -5    1    3    3    0  503  0.40582335488E+02  0.78207376042E+02  0.14457175023E+03  0.16937060130E+03  0.47000000000E+01 0. -1.
<mgrwt>
<rscale>  0 0.15624288E+03</rscale>
<asrwt>0</asrwt>
<pdfrwt beam="1">  1        5 0.53230359E-01 0.15624304E+03</pdfrwt>
<pdfrwt beam="2">  1       -5 0.10941097E-01 0.15624304E+03</pdfrwt>
<totfact> 0.17252908E+02</totfact>
</mgrwt>
</event>
<event>
 8    1  0.3754098E-007  0.1581697E+03  0.7546771E-02  0.1190779E+00
          5   -1    0    0  501    0  0.00000000000E+00  0.00000000000E+00  0.38789751375E+02  0.39073454055E+02  0.47000000000E+01 0.  1.
         -5   -1    0    0    0  501 -0.00000000000E+00 -0.00000000000E+00 -0.65094922002E+03  0.65096618732E+03  0.47000000000E+01 0.  1.
         25    2    1    2    0    0 -0.85721339275E+02  0.45214676270E+02 -0.34581428080E+03  0.38026973002E+03  0.12500014323E+03 0.  0.
         25    2    1    2    0    0  0.85721339275E+02 -0.45214676270E+02 -0.26634518785E+03  0.30976991136E+03  0.12500049576E+03 0.  0.
          5    1    4    4  502    0  0.73475690273E+02 -0.66440459689E+01 -0.25773871763E+03  0.26813085793E+03  0.47000000000E+01 0. -1.
         -5    1    4    4    0  502  0.12245649002E+02 -0.38570630301E+02 -0.86064702152E+01  0.41639053434E+02  0.47000000000E+01 0. -1.
          5    1    3    3  503    0 -0.25525246333E+02 -0.23883087198E+02 -0.22911886645E+03  0.23181778408E+03  0.47000000000E+01 0.  1.
         -5    1    3    3    0  503 -0.60196092942E+02  0.69097763468E+02 -0.11669541435E+03  0.14845194593E+03  0.47000000000E+01 0.  1.
<mgrwt>
<rscale>  0 0.15816958E+03</rscale>
<asrwt>0</asrwt>
<pdfrwt beam="1">  1        5 0.59907830E-02 0.15816965E+03</pdfrwt>
<pdfrwt beam="2">  1       -5 0.10016915E+00 0.15816965E+03</pdfrwt>
<totfact> 0.11536397E+02</totfact>
</mgrwt>
</event>
<event>
 8    1  0.3754098E-007  0.1311333E+03  0.7546771E-02  0.1225788E+00
          5   -1    0    0  501    0  0.00000000000E+00  0.00000000000E+00  0.50351041371E+03  0.50353234923E+03  0.47000000000E+01 0.  1.
         -5   -1    0    0    0  501 -0.00000000000E+00 -0.00000000000E+00 -0.35060827626E+02  0.35374448883E+02  0.47000000000E+01 0.  1.
         25    2    1    2    0    0  0.36693248020E+02 -0.14856960631E+02  0.18681427229E+03  0.22824444099E+03  0.12501531421E+03 0.  0.
         25    2    1    2    0    0 -0.36693248020E+02  0.14856960631E+02  0.28163531380E+03  0.31066235712E+03  0.12500210566E+03 0.  0.
          5    1    4    4  502    0 -0.67735492785E+02  0.79718629122E+01  0.26651098087E+03  0.27513967454E+03  0.47000000000E+01 0. -1.
         -5    1    4    4    0  502  0.31042244766E+02  0.68850977183E+01  0.15124332931E+02  0.35522682574E+02  0.47000000000E+01 0. -1.
          5    1    3    3  503    0  0.29348718697E+01  0.42850946217E+01  0.18896419922E+03  0.18909398218E+03  0.47000000000E+01 0.  1.
         -5    1    3    3    0  503  0.33758376150E+02 -0.19142055252E+02 -0.21499269379E+01  0.39150458815E+02  0.47000000000E+01 0.  1.
<mgrwt>
<rscale>  0 0.13113019E+03</rscale>
<asrwt>0</asrwt>
<pdfrwt beam="1">  1        5 0.77488954E-01 0.13113334E+03</pdfrwt>
<pdfrwt beam="2">  1       -5 0.54197855E-02 0.13113334E+03</pdfrwt>
<totfact> 0.23557600E+02</totfact>
</mgrwt>
</event>
<event>
 8    1  0.3754098E-007  0.1505015E+03  0.7546771E-02  0.1199859E+00
         -5   -1    0    0    0  501 -0.00000000000E+00  0.00000000000E+00  0.26702576221E+03  0.26706712205E+03  0.47000000000E+01 0.  1.
          5   -1    0    0  501    0  0.00000000000E+00 -0.00000000000E+00 -0.86566555916E+02  0.86694051717E+02  0.47000000000E+01 0.  1.
         25    2    1    2    0    0  0.74007903017E+01  0.83492853546E+02  0.11610311179E+03  0.19008056999E+03  0.12499944892E+03 0.  0.
         25    2    1    2    0    0 -0.74007903017E+01 -0.83492853546E+02  0.64356094499E+02  0.16368060378E+03  0.12499521936E+03 0.  0.
          5    1    3    3  502    0  0.63752206997E+02  0.25462141807E+02  0.62264740107E+02  0.92798989343E+02  0.47000000000E+01 0.  1.
         -5    1    3    3    0  502 -0.56351416695E+02  0.58030711739E+02  0.53838371683E+02  0.97281580651E+02  0.47000000000E+01 0.  1.
          5    1    4    4  503    0  0.58264286887E+00 -0.81115272355E+01 -0.36351270377E+02  0.37545188837E+02  0.47000000000E+01 0.  1.
         -5    1    4    4    0  503 -0.79834331706E+01 -0.75381326310E+02  0.10070736488E+03  0.12613541494E+03  0.47000000000E+01 0.  1.
<mgrwt>
<rscale>  0 0.15050059E+03</rscale>
<asrwt>0</asrwt>
<pdfrwt beam="2">  1        5 0.13330921E-01 0.15050146E+03</pdfrwt>
<pdfrwt beam="1">  1       -5 0.41093875E-01 0.15050146E+03</pdfrwt>
<totfact> 0.20664286E+02</totfact>
</mgrwt>
</event>
<event>
 8    1  0.3754098E-007  0.1290030E+03  0.7546771E-02  0.1228951E+00
          5   -1    0    0  501    0  0.00000000000E+00  0.00000000000E+00  0.51398790538E+02  0.51613231528E+02  0.47000000000E+01 0.  1.
         -5   -1    0    0    0  501 -0.00000000000E+00 -0.00000000000E+00 -0.48261312487E+03  0.48263601016E+03  0.47000000000E+01 0.  1.
         25    2    1    2    0    0  0.46339405499E+01 -0.31564282085E+02 -0.36926402999E+03  0.39114220558E+03  0.12497409265E+03 0.  0.
         25    2    1    2    0    0 -0.46339405499E+01  0.31564282085E+02 -0.61950304346E+02  0.14310703611E+03  0.12499602500E+03 0.  0.
          5    1    3    3  502    0 -0.48140031539E+02  0.12658007092E+02 -0.84941667898E+02  0.98564013338E+02  0.47000000000E+01 0. -1.
         -5    1    3    3    0  502  0.52773972089E+02 -0.44222289177E+02 -0.28432236209E+03  0.29257819224E+03  0.47000000000E+01 0. -1.
          5    1    4    4  503    0 -0.48207308220E+02 -0.40556905956E+01 -0.70864883757E+02  0.85932036761E+02  0.47000000000E+01 0. -1.
         -5    1    4    4    0  503  0.43573367671E+02  0.35619972681E+02  0.89145794107E+01  0.57174999344E+02  0.47000000000E+01 0. -1.
<mgrwt>
<rscale>  0 0.12899772E+03</rscale>
<asrwt>0</asrwt>
<pdfrwt beam="1">  1        5 0.79257624E-02 0.12900304E+03</pdfrwt>
<pdfrwt beam="2">  1       -5 0.74266426E-01 0.12900304E+03</pdfrwt>
<totfact> 0.13583296E+02</totfact>
</mgrwt>
</event>
<event>
 8    1  0.3754098E-007  0.1337259E+03  0.7546771E-02  0.1222031E+00
          5   -1    0    0  501    0  0.00000000000E+00  0.00000000000E+00  0.10938022611E+03  0.10948115758E+03  0.47000000000E+01 0. -1.
         -5   -1    0    0    0  501 -0.00000000000E+00 -0.00000000000E+00 -0.22031165297E+03  0.22036178079E+03  0.47000000000E+01 0. -1.
         25    2    1    2    0    0  0.39540155745E+02 -0.26352951957E+02 -0.13934930516E+03  0.19313085744E+03  0.12499358885E+03 0.  0.
         25    2    1    2    0    0 -0.39540155745E+02  0.26352951957E+02  0.28417878300E+02  0.13671208093E+03  0.12499886108E+03 0.  0.
          5    1    4    4  502    0 -0.51421400670E+02  0.63232499013E+02  0.46220726884E+02  0.93813405076E+02  0.47000000000E+01 0.  1.
         -5    1    4    4    0  502  0.11881244924E+02 -0.36879547056E+02 -0.17802848584E+02  0.42898675850E+02  0.47000000000E+01 0.  1.
          5    1    3    3  503    0 -0.21433959194E+01 -0.68947815119E+02 -0.99947146180E+02  0.12153154893E+03  0.47000000000E+01 0. -1.
         -5    1    3    3    0  503  0.41683551665E+02  0.42594863162E+02 -0.39402158978E+02  0.71599308511E+02  0.47000000000E+01 0. -1.
<mgrwt>
<rscale>  0 0.13372467E+03</rscale>
<asrwt>0</asrwt>
<pdfrwt beam="1">  1        5 0.16839347E-01 0.13372590E+03</pdfrwt>
<pdfrwt beam="2">  1       -5 0.33905720E-01 0.13372590E+03</pdfrwt>
<totfact> 0.19207174E+02</totfact>
</mgrwt>
</event>
<event>
 8    1  0.3754098E-007  0.1265901E+03  0.7546771E-02  0.1232608E+00
          5   -1    0    0  501    0  0.00000000000E+00  0.00000000000E+00  0.74780193395E+02  0.74927747358E+02  0.47000000000E+01 0. -1.
         -5   -1    0    0    0  501 -0.00000000000E+00 -0.00000000000E+00 -0.25861919314E+03  0.25866189719E+03  0.47000000000E+01 0. -1.
         25    2    1    2    0    0 -0.82042812243E+01  0.18217863199E+02 -0.16125425374E+03  0.20500728706E+03  0.12500341048E+03 0.  0.
         25    2    1    2    0    0  0.82042812243E+01 -0.18217863199E+02 -0.22584746002E+02  0.12858235748E+03  0.12499660449E+03 0.  0.
          5    1    4    4  502    0  0.61162941604E+02 -0.35189438581E+02 -0.14480902637E+02  0.72187177217E+02  0.47000000000E+01 0. -1.
         -5    1    4    4    0  502 -0.52958660380E+02  0.16971575382E+02 -0.81038433645E+01  0.56395180268E+02  0.47000000000E+01 0. -1.
          5    1    3    3  503    0  0.25416768483E+02  0.23972296521E+02  0.46583615562E+01  0.35559435498E+02  0.47000000000E+01 0.  1.
         -5    1    3    3    0  503 -0.33621049707E+02 -0.57544333214E+01 -0.16591261530E+03  0.16944785157E+03  0.47000000000E+01 0.  1.
<mgrwt>
<rscale>  0 0.12658842E+03</rscale>
<asrwt>0</asrwt>
<pdfrwt beam="1">  1        5 0.11519281E-01 0.12659010E+03</pdfrwt>
<pdfrwt beam="2">  1       -5 0.39802203E-01 0.12659010E+03</pdfrwt>
<totfact> 0.26957799E+02</totfact>
</mgrwt>
</event>
<event>
 8    1  0.3754098E-007  0.1790444E+03  0.7546771E-02  0.1168732E+00
          5   -1    0    0  501    0  0.00000000000E+00  0.00000000000E+00  0.34851881636E+03  0.34855050618E+03  0.47000000000E+01 0. -1.
         -5   -1    0    0    0  501 -0.00000000000E+00 -0.00000000000E+00 -0.95399576146E+02  0.95515282174E+02  0.47000000000E+01 0. -1.
         25    2    1    2    0    0  0.11588565163E+03 -0.54796201947E+02  0.83958216807E+02  0.19774819497E+03  0.12499303358E+03 0.  0.
         25    2    1    2    0    0 -0.11588565163E+03  0.54796201947E+02  0.16916102341E+03  0.24631759338E+03  0.12499918787E+03 0.  0.
          5    1    3    3  502    0  0.30609611305E+02 -0.50421498871E+02 -0.20614610905E+02  0.62660418411E+02  0.47000000000E+01 0. -1.
         -5    1    3    3    0  502  0.85276040325E+02 -0.43747030762E+01  0.10457282771E+03  0.13508777656E+03  0.47000000000E+01 0. -1.
          5    1    4    4  503    0 -0.39192545364E+02 -0.10245022114E+02 -0.89260346503E+01  0.41746618843E+02  0.47000000000E+01 0. -1.
         -5    1    4    4    0  503 -0.76693106266E+02  0.65041224061E+02  0.17808705806E+03  0.20457097454E+03  0.47000000000E+01 0. -1.
<mgrwt>
<rscale>  0 0.17904335E+03</rscale>
<asrwt>0</asrwt>
<pdfrwt beam="1">  1        5 0.53629617E-01 0.17904442E+03</pdfrwt>
<pdfrwt beam="2">  1       -5 0.14688196E-01 0.17904442E+03</pdfrwt>
<totfact> 0.10448498E+02</totfact>
</mgrwt>
</event>
<event>
 8    1  0.3754098E-007  0.1261410E+03  0.7546771E-02  0.1233298E+00
          5   -1    0    0  501    0  0.00000000000E+00  0.00000000000E+00  0.79334505776E+03  0.79335897970E+03  0.47000000000E+01 0. -1.
         -5   -1    0    0    0  501 -0.00000000000E+00 -0.00000000000E+00 -0.22078835087E+02  0.22573545552E+02  0.47000000000E+01 0. -1.
         25    2    1    2    0    0  0.26850233748E+01 -0.16692706043E+02  0.25517777653E+03  0.28465287144E+03  0.12500281517E+03 0.  0.
         25    2    1    2    0    0 -0.26850233748E+01  0.16692706043E+02  0.51608844614E+03  0.53127965381E+03  0.12499972210E+03 0.  0.
          5    1    4    4  502    0  0.33028960801E+02 -0.86124872065E+01  0.45323719714E+03  0.45454497474E+03  0.47000000000E+01 0.  1.
         -5    1    4    4    0  502 -0.35713984176E+02  0.25305193249E+02  0.62851249002E+02  0.76734679072E+02  0.47000000000E+01 0.  1.
          5    1    3    3  503    0  0.30529401262E+02  0.43510439770E+02  0.70841525431E+02  0.88689426855E+02  0.47000000000E+01 0.  1.
         -5    1    3    3    0  503 -0.27844377887E+02 -0.60203145813E+02  0.18433625110E+03  0.19596344459E+03  0.47000000000E+01 0.  1.
<mgrwt>
<rscale>  0 0.12614026E+03</rscale>
<asrwt>0</asrwt>
<pdfrwt beam="1">  1        5 0.12209221E+00 0.12614103E+03</pdfrwt>
<pdfrwt beam="2">  1       -5 0.34358694E-02 0.12614103E+03</pdfrwt>
<totfact> 0.16402239E+02</totfact>
</mgrwt>
</event>
<event>
 8    1  0.3754098E-007  0.1681951E+03  0.7546771E-02  0.1179744E+00
          5   -1    0    0  501    0  0.00000000000E+00  0.00000000000E+00  0.14144154450E+04  0.14144232538E+04  0.47000000000E+01 0.  1.
         -5   -1    0    0    0  501 -0.00000000000E+00 -0.00000000000E+00 -0.20535993446E+02  0.21066965297E+02  0.47000000000E+01 0.  1.
         25    2    1    2    0    0 -0.74940451593E+02  0.83957119883E+02  0.55544669969E+03  0.58035388318E+03  0.12499889703E+03 0.  0.
         25    2    1    2    0    0  0.74940451593E+02 -0.83957119883E+02  0.83843275181E+03  0.85513633593E+03  0.12499521769E+03 0.  0.
          5    1    4    4  502    0 -0.13237879805E+02 -0.71827078866E+02  0.49234683093E+03  0.49775683084E+03  0.47000000000E+01 0. -1.
         -5    1    4    4    0  502  0.88178331397E+02 -0.12130041016E+02  0.34608592088E+03  0.35737950509E+03  0.47000000000E+01 0. -1.
          5    1    3    3  503    0 -0.34403200220E+02 -0.14987469010E+02  0.31372871858E+03  0.31600000518E+03  0.47000000000E+01 0.  1.
         -5    1    3    3    0  503 -0.40537251372E+02  0.98944588892E+02  0.24171798111E+03  0.26435387800E+03  0.47000000000E+01 0.  1.
<mgrwt>
<rscale>  0 0.16819442E+03</rscale>
<asrwt>0</asrwt>
<pdfrwt beam="1">  1        5 0.21764383E+00 0.16819511E+03</pdfrwt>
<pdfrwt beam="2">  1       -5 0.32008282E-02 0.16819511E+03</pdfrwt>
<totfact> 0.38431658E+01</totfact>
</mgrwt>
</event>
<event>
 8    1  0.3754098E-007  0.1381330E+03  0.7546771E-02  0.1215864E+00
         -5   -1    0    0    0  501 -0.00000000000E+00  0.00000000000E+00  0.48571011151E+02  0.48797880326E+02  0.47000000000E+01 0. -1.
          5   -1    0    0  501    0  0.00000000000E+00 -0.00000000000E+00 -0.40006261917E+03  0.40009022640E+03  0.47000000000E+01 0. -1.
         25    2    1    2    0    0 -0.52638238527E+02  0.26146199656E+02 -0.14326997374E+03  0.19901421146E+03  0.12500385224E+03 0.  0.
         25    2    1    2    0    0  0.52638238527E+02 -0.26146199656E+02 -0.20822163428E+03  0.24987389526E+03  0.12500522645E+03 0.  0.
          5    1    4    4  502    0  0.91006473650E+02 -0.21585441097E+02 -0.11147790821E+03  0.14559369331E+03  0.47000000000E+01 0. -1.
         -5    1    4    4    0  502 -0.38368235123E+02 -0.45607585591E+01 -0.96743726066E+02  0.10428020195E+03  0.47000000000E+01 0. -1.
          5    1    3    3  503    0 -0.64275899376E+02  0.38127603951E+02 -0.24211710530E+02  0.78698172472E+02  0.47000000000E+01 0.  1.
         -5    1    3    3    0  503  0.11637660849E+02 -0.11981404294E+02 -0.11905826321E+03  0.12031603899E+03  0.47000000000E+01 0.  1.
<mgrwt>
<rscale>  0 0.13813265E+03</rscale>
<asrwt>0</asrwt>
<pdfrwt beam="2">  1        5 0.61567668E-01 0.13813296E+03</pdfrwt>
<pdfrwt beam="1">  1       -5 0.74920386E-02 0.13813296E+03</pdfrwt>
<totfact> 0.23281891E+02</totfact>
</mgrwt>
</event>
<event>
 8    1  0.3754098E-007  0.1576971E+03  0.7546771E-02  0.1191329E+00
          5   -1    0    0  501    0  0.00000000000E+00  0.00000000000E+00  0.51096250460E+03  0.51098412021E+03  0.47000000000E+01 0. -1.
         -5   -1    0    0    0  501 -0.00000000000E+00 -0.00000000000E+00 -0.11327267397E+03  0.11337014010E+03  0.47000000000E+01 0. -1.
         25    2    1    2    0    0  0.63135846995E+02  0.72447948216E+02 -0.36977157008E+02  0.16197433205E+03  0.12503413024E+03 0.  0.
         25    2    1    2    0    0 -0.63135846995E+02 -0.72447948216E+02  0.43466698765E+03  0.46237992827E+03  0.12499987017E+03 0.  0.
          5    1    4    4  502    0 -0.45504312006E+02 -0.36479160391E+02  0.41196072008E+03  0.41609505698E+03  0.47000000000E+01 0. -1.
         -5    1    4    4    0  502 -0.17631534989E+02 -0.35968787825E+02  0.22706267564E+02  0.46284871290E+02  0.47000000000E+01 0. -1.
          5    1    3    3  503    0 -0.23656590988E+02  0.28544925956E+02  0.26430024896E+02  0.45772080038E+02  0.47000000000E+01 0.  1.
         -5    1    3    3    0  503  0.86792437983E+02  0.43903022260E+02 -0.63407181904E+02  0.11620225201E+03  0.47000000000E+01 0.  1.
<mgrwt>
<rscale>  0 0.15769030E+03</rscale>
<asrwt>0</asrwt>
<pdfrwt beam="1">  1        5 0.78618777E-01 0.15769710E+03</pdfrwt>
<pdfrwt beam="2">  1       -5 0.17435725E-01 0.15769710E+03</pdfrwt>
<totfact> 0.31374019E+01</totfact>
</mgrwt>
</event>
<event>
 8    1  0.3754098E-007  0.1458233E+03  0.7546771E-02  0.1205704E+00
         -5   -1    0    0    0  501 -0.00000000000E+00  0.00000000000E+00  0.20669141736E+03  0.20674484760E+03  0.47000000000E+01 0.  1.
          5   -1    0    0  501    0  0.00000000000E+00 -0.00000000000E+00 -0.10634793041E+03  0.10645173696E+03  0.47000000000E+01 0.  1.
         25    2    1    2    0    0 -0.70159946909E+02  0.26785876278E+02  0.78938027757E+02  0.16581808857E+03  0.12499809980E+03 0.  0.
         25    2    1    2    0    0  0.70159946909E+02 -0.26785876278E+02  0.21405459193E+02  0.14737849599E+03  0.12498930386E+03 0.  0.
          5    1    4    4  502    0  0.69708234717E+02 -0.67031752398E+02 -0.82366237227E+01  0.97172145120E+02  0.47000000000E+01 0. -1.
         -5    1    4    4    0  502  0.45171219286E+00  0.40245876120E+02  0.29642082916E+02  0.50206350874E+02  0.47000000000E+01 0. -1.
          5    1    3    3  503    0 -0.48323565839E+02  0.31323396432E+02 -0.22384535310E+02  0.61963534442E+02  0.47000000000E+01 0. -1.
         -5    1    3    3    0  503 -0.21836381070E+02 -0.45375201533E+01  0.10132256307E+03  0.10385455413E+03  0.47000000000E+01 0. -1.
<mgrwt>
<rscale>  0 0.14582139E+03</rscale>
<asrwt>0</asrwt>
<pdfrwt beam="2">  1        5 0.16373315E-01 0.14582327E+03</pdfrwt>
<pdfrwt beam="1">  1       -5 0.31810774E-01 0.14582327E+03</pdfrwt>
<totfact> 0.23627200E+02</totfact>
</mgrwt>
</event>
<event>
 8    1  0.3754098E-007  0.1361354E+03  0.7546771E-02  0.1218635E+00
         -5   -1    0    0    0  501 -0.00000000000E+00  0.00000000000E+00  0.50761361108E+02  0.50978483516E+02  0.47000000000E+01 0. -1.
          5   -1    0    0  501    0  0.00000000000E+00 -0.00000000000E+00 -0.36758357626E+03  0.36761362262E+03  0.47000000000E+01 0. -1.
         25    2    1    2    0    0 -0.19508105465E+02 -0.50254113950E+02 -0.13779238136E+03  0.19368205989E+03  0.12497982962E+03 0.  0.
         25    2    1    2    0    0  0.19508105465E+02  0.50254113950E+02 -0.17902983379E+03  0.22491004625E+03  0.12500722127E+03 0.  0.
          5    1    3    3  502    0 -0.21969154657E+02 -0.38885351427E+02  0.94615001297E+01  0.45894708808E+02  0.47000000000E+01 0.  1.
         -5    1    3    3    0  502  0.24610491914E+01 -0.11368762524E+02 -0.14725388149E+03  0.14778735108E+03  0.47000000000E+01 0.  1.
          5    1    4    4  503    0  0.54136159986E+02  0.35531083284E+02 -0.30714417726E+02  0.71823722777E+02  0.47000000000E+01 0. -1.
         -5    1    4    4    0  503 -0.34628054520E+02  0.14723030667E+02 -0.14831541606E+03  0.15308632347E+03  0.47000000000E+01 0. -1.
<mgrwt>
<rscale>  0 0.13612911E+03</rscale>
<asrwt>0</asrwt>
<pdfrwt beam="2">  1        5 0.56570331E-01 0.13613540E+03</pdfrwt>
<pdfrwt beam="1">  1       -5 0.78284534E-02 0.13613540E+03</pdfrwt>
<totfact> 0.25851846E+02</totfact>
</mgrwt>
</event>
<event>
 8    1  0.3754098E-007  0.1293550E+03  0.7546771E-02  0.1228419E+00
          5   -1    0    0  501    0  0.00000000000E+00  0.00000000000E+00  0.15602106404E+03  0.15609183971E+03  0.47000000000E+01 0.  1.
         -5   -1    0    0    0  501 -0.00000000000E+00 -0.00000000000E+00 -0.16950776983E+03  0.16957291657E+03  0.47000000000E+01 0.  1.
         25    2    1    2    0    0 -0.25322905487E+02  0.21558381833E+02 -0.10550631651E+03  0.16691864483E+03  0.12499695117E+03 0.  0.
         25    2    1    2    0    0  0.25322905487E+02 -0.21558381833E+02  0.92019610719E+02  0.15874611144E+03  0.12500682290E+03 0.  0.
          5    1    4    4  502    0  0.66847153530E+02 -0.12376234081E+01  0.90025445230E+02  0.11223521923E+03  0.47000000000E+01 0.  1.
         -5    1    4    4    0  502 -0.41524248043E+02 -0.20320758425E+02  0.19941654888E+01  0.46510892214E+02  0.47000000000E+01 0.  1.
          5    1    3    3  503    0  0.38754618378E+02 -0.26712546541E+02 -0.52408245815E+02  0.70598830144E+02  0.47000000000E+01 0.  1.
         -5    1    3    3    0  503 -0.64077523866E+02  0.48270928374E+02 -0.53098070691E+02  0.96319814690E+02  0.47000000000E+01 0.  1.
<mgrwt>
<rscale>  0 0.12935263E+03</rscale>
<asrwt>0</asrwt>
<pdfrwt beam="1">  1        5 0.24013696E-01 0.12935501E+03</pdfrwt>
<pdfrwt beam="2">  1       -5 0.26088574E-01 0.12935501E+03</pdfrwt>
<totfact> 0.16356897E+02</totfact>
</mgrwt>
</event>
<event>
 8    1  0.3754098E-007  0.1325791E+03  0.7546771E-02  0.1223679E+00
          5   -1    0    0  501    0  0.00000000000E+00  0.00000000000E+00  0.54640798860E+03  0.54642820206E+03  0.47000000000E+01 0.  1.
         -5   -1    0    0    0  501 -0.00000000000E+00 -0.00000000000E+00 -0.33946798586E+02  0.34270616193E+02  0.47000000000E+01 0.  1.
         25    2    1    2    0    0 -0.44120487500E+02  0.20964538981E+01  0.18662339817E+03  0.22892251251E+03  0.12500484572E+03 0.  0.
         25    2    1    2    0    0  0.44120487500E+02 -0.20964538981E+01  0.32583779185E+03  0.35177630574E+03  0.12500116060E+03 0.  0.
          5    1    4    4  502    0  0.52701934120E+02  0.38272310560E+02  0.28890715484E+03  0.29619537089E+03  0.47000000000E+01 0. -1.
         -5    1    4    4    0  502 -0.85814466199E+01 -0.40368764458E+02  0.36930637005E+02  0.55580934857E+02  0.47000000000E+01 0. -1.
          5    1    3    3  503    0  0.16968174155E+02 -0.34187348536E+02  0.13657735210E+03  0.14188783190E+03  0.47000000000E+01 0.  1.
         -5    1    3    3    0  503 -0.61088661655E+02  0.36283802434E+02  0.50046046063E+02  0.87034680607E+02  0.47000000000E+01 0.  1.
<mgrwt>
<rscale>  0 0.13257825E+03</rscale>
<asrwt>0</asrwt>
<pdfrwt beam="1">  1        5 0.84089233E-01 0.13257912E+03</pdfrwt>
<pdfrwt beam="2">  1       -5 0.52490482E-02 0.13257912E+03</pdfrwt>
<totfact> 0.20642994E+02</totfact>
</mgrwt>
</event>
<event>
 8    1  0.3754098E-007  0.1283653E+03  0.7546771E-02  0.1229906E+00
         -5   -1    0    0    0  501 -0.00000000000E+00  0.00000000000E+00  0.44852903003E+02  0.45098480105E+02  0.47000000000E+01 0. -1.
          5   -1    0    0  501    0  0.00000000000E+00 -0.00000000000E+00 -0.42434786192E+03  0.42437388929E+03  0.47000000000E+01 0. -1.
         25    2    1    2    0    0  0.97419025175E+01 -0.27527459176E+02 -0.10279771604E+03  0.16445370084E+03  0.12499993450E+03 0.  0.
         25    2    1    2    0    0 -0.97419025175E+01  0.27527459176E+02 -0.27669724287E+03  0.30501866855E+03  0.12498943268E+03 0.  0.
          5    1    4    4  502    0  0.54741209788E+02 -0.54891111376E+01 -0.10581720634E+03  0.11935703393E+03  0.47000000000E+01 0. -1.
         -5    1    4    4    0  502 -0.64483112306E+02  0.33016570313E+02 -0.17088003653E+03  0.18566163463E+03  0.47000000000E+01 0. -1.
          5    1    3    3  503    0  0.62753602188E+02 -0.68299124576E+01 -0.25247754907E+02  0.68148377967E+02  0.47000000000E+01 0. -1.
         -5    1    3    3    0  503 -0.53011699670E+02 -0.20697546718E+02 -0.77549961138E+02  0.96305322878E+02  0.47000000000E+01 0. -1.
<mgrwt>
<rscale>  0 0.12836274E+03</rscale>
<asrwt>0</asrwt>
<pdfrwt beam="2">  1        5 0.65305177E-01 0.12836530E+03</pdfrwt>
<pdfrwt beam="1">  1       -5 0.69213395E-02 0.12836530E+03</pdfrwt>
<totfact> 0.22802317E+02</totfact>
</mgrwt>
</event>
<event>
 8    1  0.3754098E-007  0.1272439E+03  0.7546771E-02  0.1231604E+00
         -5   -1    0    0    0  501 -0.00000000000E+00  0.00000000000E+00  0.26264560944E+03  0.26268765893E+03  0.47000000000E+01 0.  1.
          5   -1    0    0  501    0  0.00000000000E+00 -0.00000000000E+00 -0.78745653366E+02  0.78885790381E+02  0.47000000000E+01 0.  1.
         25    2    1    2    0    0  0.13313346820E+02 -0.19705347748E+02  0.17175374996E+03  0.21375303684E+03  0.12500185678E+03 0.  0.
         25    2    1    2    0    0 -0.13313346820E+02  0.19705347748E+02  0.12146206105E+02  0.12782041248E+03  0.12499992636E+03 0.  0.
          5    1    4    4  502    0  0.23563652717E+02 -0.28991049322E+02  0.44698545493E+02  0.58444645943E+02  0.47000000000E+01 0. -1.
         -5    1    4    4    0  502 -0.36876999536E+02  0.48696397071E+02 -0.32552339388E+02  0.69375766533E+02  0.47000000000E+01 0. -1.
          5    1    3    3  503    0  0.54794919856E+02 -0.29722402859E+02  0.37721936404E+02  0.73013279339E+02  0.47000000000E+01 0. -1.
         -5    1    3    3    0  503 -0.41481573036E+02  0.10017055111E+02  0.13403181356E+03  0.14073975750E+03  0.47000000000E+01 0. -1.
<mgrwt>
<rscale>  0 0.12724343E+03</rscale>
<asrwt>0</asrwt>
<pdfrwt beam="2">  1        5 0.12128730E-01 0.12724390E+03</pdfrwt>
<pdfrwt beam="1">  1       -5 0.40421031E-01 0.12724390E+03</pdfrwt>
<totfact> 0.23891021E+02</totfact>
</mgrwt>
</event>
<event>
 8    1  0.3754098E-007  0.1263107E+03  0.7546771E-02  0.1233035E+00
         -5   -1    0    0    0  501 -0.00000000000E+00  0.00000000000E+00  0.19905927154E+04  0.19905982640E+04  0.47000000000E+01 0.  1.
          5   -1    0    0  501    0  0.00000000000E+00 -0.00000000000E+00 -0.74633423913E+01  0.88199478258E+01  0.47000000000E+01 0.  1.
         25    2    1    2    0    0 -0.18124881899E+02 -0.51720170800E+00  0.11189934026E+04  0.11260996132E+04  0.12500130016E+03 0.  0.
         25    2    1    2    0    0  0.18124881899E+02  0.51720170800E+00  0.86413597045E+03  0.87331859861E+03  0.12500248165E+03 0.  0.
          5    1    3    3  502    0  0.42806219785E+02  0.32277661074E+02  0.61613019398E+03  0.61847613195E+03  0.47000000000E+01 0. -1.
         -5    1    3    3    0  502 -0.60931101684E+02 -0.32794862782E+02  0.50286320858E+03  0.50762348126E+03  0.47000000000E+01 0. -1.
          5    1    4    4  503    0  0.11491504031E+02 -0.47998116470E+02  0.16091835726E+03  0.16838254528E+03  0.47000000000E+01 0.  1.
         -5    1    4    4    0  503  0.66333778682E+01  0.48515318178E+02  0.70321761319E+03  0.70493605334E+03  0.47000000000E+01 0.  1.
<mgrwt>
<rscale>  0 0.12631043E+03</rscale>
<asrwt>0</asrwt>
<pdfrwt beam="2">  1        5 0.12529869E-02 0.12631073E+03</pdfrwt>
<pdfrwt beam="1">  1       -5 0.30634998E+00 0.12631073E+03</pdfrwt>
<totfact> 0.43209664E+01</totfact>
</mgrwt>
</event>
<event>
 8    1  0.3754098E-007  0.1451565E+03  0.7546771E-02  0.1206555E+00
         -5   -1    0    0    0  501 -0.00000000000E+00  0.00000000000E+00  0.26562173618E+03  0.26566331461E+03  0.47000000000E+01 0. -1.
          5   -1    0    0  501    0  0.00000000000E+00 -0.00000000000E+00 -0.88666747440E+02  0.88791227616E+02  0.47000000000E+01 0. -1.
         25    2    1    2    0    0 -0.58799617596E+02  0.44597641654E+02  0.14631273137E+03  0.20610147053E+03  0.12499622442E+03 0.  0.
         25    2    1    2    0    0  0.58799617596E+02 -0.44597641654E+02  0.30642257362E+02  0.14835307170E+03  0.12499336493E+03 0.  0.
          5    1    4    4  502    0 -0.28811516045E+02 -0.30673445539E+02 -0.19196366777E+02  0.46492517845E+02  0.47000000000E+01 0.  1.
         -5    1    4    4    0  502  0.87611133641E+02 -0.13924196115E+02  0.49838624139E+02  0.10186055385E+03  0.47000000000E+01 0.  1.
          5    1    3    3  503    0  0.28646036851E+01  0.60351925689E+02  0.18701875504E+02  0.63422480526E+02  0.47000000000E+01 0.  1.
         -5    1    3    3    0  503 -0.61664221281E+02 -0.15754284035E+02  0.12761085587E+03  0.14267899000E+03  0.47000000000E+01 0.  1.
<mgrwt>
<rscale>  0 0.14515585E+03</rscale>
<asrwt>0</asrwt>
<pdfrwt beam="2">  1        5 0.13653812E-01 0.14515647E+03</pdfrwt>
<pdfrwt beam="1">  1       -5 0.40877656E-01 0.14515647E+03</pdfrwt>
<totfact> 0.19773891E+02</totfact>
</mgrwt>
</event>
<event>
 8    1  0.3754098E-007  0.1314891E+03  0.7546771E-02  0.1225266E+00
         -5   -1    0    0    0  501 -0.00000000000E+00  0.00000000000E+00  0.65327579650E+03  0.65329270339E+03  0.47000000000E+01 0. -1.
          5   -1    0    0  501    0  0.00000000000E+00 -0.00000000000E+00 -0.26614156242E+02  0.27025974774E+02  0.47000000000E+01 0. -1.
         25    2    1    2    0    0  0.39139474774E+02 -0.11352957985E+02  0.35347210100E+03  0.37713647376E+03  0.12501442123E+03 0.  0.
         25    2    1    2    0    0 -0.39139474774E+02  0.11352957985E+02  0.27318953926E+03  0.30318220440E+03  0.12500454616E+03 0.  0.
          5    1    4    4  502    0 -0.71599062440E+02 -0.20284004573E+02  0.10403541998E+03  0.12799736402E+03  0.47000000000E+01 0.  1.
         -5    1    4    4    0  502  0.32459587667E+02  0.31636962558E+02  0.16915411928E+03  0.17518484038E+03  0.47000000000E+01 0.  1.
          5    1    3    3  503    0 -0.43161874971E+02  0.71203235896E+01  0.85387604977E+02  0.96056127044E+02  0.47000000000E+01 0.  1.
         -5    1    3    3    0  503  0.82301349745E+02 -0.18473281574E+02  0.26808449602E+03  0.28108034672E+03  0.47000000000E+01 0.  1.
<mgrwt>
<rscale>  0 0.13148679E+03</rscale>
<asrwt>0</asrwt>
<pdfrwt beam="2">  1        5 0.41274641E-02 0.13148914E+03</pdfrwt>
<pdfrwt beam="1">  1       -5 0.10053696E+00 0.13148914E+03</pdfrwt>
<totfact> 0.20011323E+02</totfact>
</mgrwt>
</event>
<event>
 8    1  0.3754098E-007  0.1291126E+03  0.7546771E-02  0.1228781E+00
         -5   -1    0    0    0  501 -0.00000000000E+00  0.00000000000E+00  0.44174717476E+03  0.44177217704E+03  0.47000000000E+01 0. -1.
          5   -1    0    0  501    0  0.00000000000E+00 -0.00000000000E+00 -0.53552486345E+02  0.53758336970E+02  0.47000000000E+01 0. -1.
         25    2    1    2    0    0 -0.28589686613E+02  0.15090756779E+02  0.32914189287E+03  0.35355967385E+03  0.12499982484E+03 0.  0.
         25    2    1    2    0    0  0.28589686613E+02 -0.15090756779E+02  0.59052795548E+02  0.14197084016E+03  0.12499354253E+03 0.  0.
          5    1    3    3  502    0 -0.73095928805E+02  0.52904930406E+01  0.26328100032E+03  0.27333126286E+03  0.47000000000E+01 0. -1.
         -5    1    3    3    0  502  0.44506242193E+02  0.98002637389E+01  0.65860892549E+02  0.80228410995E+02  0.47000000000E+01 0. -1.
          5    1    4    4  503    0  0.77605188279E+02 -0.17780147941E+02  0.38164689430E+02  0.88415679762E+02  0.47000000000E+01 0.  1.
         -5    1    4    4    0  503 -0.49015501666E+02  0.26893911616E+01  0.20888106118E+02  0.53555160401E+02  0.47000000000E+01 0.  1.
<mgrwt>
<rscale>  0 0.12911106E+03</rscale>
<asrwt>0</asrwt>
<pdfrwt beam="2">  1        5 0.82566023E-02 0.12911258E+03</pdfrwt>
<pdfrwt beam="1">  1       -5 0.67978859E-01 0.12911258E+03</pdfrwt>
<totfact> 0.15465859E+02</totfact>
</mgrwt>
</event>
<event>
 8    1  0.3754098E-007  0.1801563E+03  0.7546771E-02  0.1167652E+00
         -5   -1    0    0    0  501 -0.00000000000E+00  0.00000000000E+00  0.59554718203E+03  0.59556572771E+03  0.47000000000E+01 0. -1.
          5   -1    0    0  501    0  0.00000000000E+00 -0.00000000000E+00 -0.56830538869E+02  0.57024557413E+02  0.47000000000E+01 0. -1.
         25    2    1    2    0    0 -0.11653293478E+03  0.57018674479E+02  0.33702042442E+03  0.38215058926E+03  0.12500100907E+03 0.  0.
         25    2    1    2    0    0  0.11653293478E+03 -0.57018674479E+02  0.20169621874E+03  0.27043969586E+03  0.12500084126E+03 0.  0.
          5    1    3    3  502    0 -0.11835803704E+03  0.74725783267E+02  0.20153564106E+03  0.24542060272E+03  0.47000000000E+01 0. -1.
         -5    1    3    3    0  502  0.18251022655E+01 -0.17707108788E+02  0.13548478336E+03  0.13672998655E+03  0.47000000000E+01 0. -1.
          5    1    4    4  503    0  0.10747847845E+03  0.93062752075E+01  0.15410476931E+03  0.18817173011E+03  0.47000000000E+01 0.  1.
         -5    1    4    4    0  503  0.90544563271E+01 -0.66324949686E+02  0.47591449434E+02  0.82267965755E+02  0.47000000000E+01 0.  1.
<mgrwt>
<rscale>  0 0.18015631E+03</rscale>
<asrwt>0</asrwt>
<pdfrwt beam="2">  1        5 0.87595106E-02 0.18015634E+03</pdfrwt>
<pdfrwt beam="1">  1       -5 0.91638998E-01 0.18015634E+03</pdfrwt>
<totfact> 0.77616340E+01</totfact>
</mgrwt>
</event>
<event>
 8    1  0.3754098E-007  0.1275828E+03  0.7546771E-02  0.1231087E+00
         -5   -1    0    0    0  501 -0.00000000000E+00  0.00000000000E+00  0.22131516894E+03  0.22136506952E+03  0.47000000000E+01 0.  1.
          5   -1    0    0  501    0  0.00000000000E+00 -0.00000000000E+00 -0.74394961224E+02  0.74543277735E+02  0.47000000000E+01 0.  1.
         25    2    1    2    0    0  0.33129349052E+01 -0.25321180198E+02  0.90421863917E+02  0.15637611707E+03  0.12500095524E+03 0.  0.
         25    2    1    2    0    0 -0.33129349052E+01  0.25321180198E+02  0.56498343799E+02  0.13953223018E+03  0.12500017081E+03 0.  0.
          5    1    3    3  502    0  0.40169674389E+02 -0.62497160461E+02  0.60272013727E+02  0.95782584246E+02  0.47000000000E+01 0. -1.
         -5    1    3    3    0  502 -0.36856739484E+02  0.37175980263E+02  0.30149850190E+02  0.60593532826E+02  0.47000000000E+01 0. -1.
          5    1    4    4  503    0 -0.39097091066E+02 -0.31384271051E+01  0.79023316302E+02  0.88347081298E+02  0.47000000000E+01 0.  1.
         -5    1    4    4    0  503  0.35784156160E+02  0.28459607303E+02 -0.22524972503E+02  0.51185148884E+02  0.47000000000E+01 0.  1.
<mgrwt>
<rscale>  0 0.12758263E+03</rscale>
<asrwt>0</asrwt>
<pdfrwt beam="2">  1        5 0.11460626E-01 0.12758282E+03</pdfrwt>
<pdfrwt beam="1">  1       -5 0.34063734E-01 0.12758282E+03</pdfrwt>
<totfact> 0.37341636E+02</totfact>
</mgrwt>
</event>
<event>
 8    1  0.3754098E-007  0.1264050E+03  0.7546771E-02  0.1232892E+00
         -5   -1    0    0    0  501 -0.00000000000E+00  0.00000000000E+00  0.19570214504E+03  0.19575857471E+03  0.47000000000E+01 0.  1.
          5   -1    0    0  501    0  0.00000000000E+00 -0.00000000000E+00 -0.85090089147E+02  0.85219793892E+02  0.47000000000E+01 0.  1.
         25    2    1    2    0    0 -0.88614574041E+01  0.16572545766E+02  0.84107754748E+02  0.15182994396E+03  0.12500017109E+03 0.  0.
         25    2    1    2    0    0  0.88614574041E+01 -0.16572545766E+02  0.26504301142E+02  0.12914842464E+03  0.12499465152E+03 0.  0.
          5    1    3    3  502    0 -0.31297703992E+02 -0.28177609173E+02 -0.11412598283E+02  0.43884636645E+02  0.47000000000E+01 0. -1.
         -5    1    3    3    0  502  0.22436246588E+02  0.44750154939E+02  0.95520353031E+02  0.10794530731E+03  0.47000000000E+01 0. -1.
          5    1    4    4  503    0 -0.10365117542E+01 -0.29876980046E+02  0.73288347039E+02  0.79290479283E+02  0.47000000000E+01 0. -1.
         -5    1    4    4    0  503  0.98979691583E+01  0.13304434279E+02 -0.46784045897E+02  0.49857945359E+02  0.47000000000E+01 0. -1.
<mgrwt>
<rscale>  0 0.12640361E+03</rscale>
<asrwt>0</asrwt>
<pdfrwt beam="2">  1        5 0.13105101E-01 0.12640497E+03</pdfrwt>
<pdfrwt beam="1">  1       -5 0.30122340E-01 0.12640497E+03</pdfrwt>
<totfact> 0.37413272E+02</totfact>
</mgrwt>
</event>
<event>
 8    1  0.3754098E-007  0.1296064E+03  0.7546771E-02  0.1228045E+00
         -5   -1    0    0    0  501 -0.00000000000E+00  0.00000000000E+00  0.85783028587E+02  0.85911687177E+02  0.47000000000E+01 0.  1.
          5   -1    0    0  501    0  0.00000000000E+00 -0.00000000000E+00 -0.21028456569E+03  0.21033708320E+03  0.47000000000E+01 0.  1.
         25    2    1    2    0    0 -0.59524909079E+01  0.33719666145E+02 -0.22985128263E+02  0.13161765295E+03  0.12498976924E+03 0.  0.
         25    2    1    2    0    0  0.59524909079E+01 -0.33719666145E+02 -0.10151640884E+03  0.16463111742E+03  0.12500150210E+03 0.  0.
          5    1    4    4  502    0 -0.11331189627E+02 -0.70610153932E+01 -0.12439553615E+03  0.12519821569E+03  0.47000000000E+01 0. -1.
         -5    1    4    4    0  502  0.17283680535E+02 -0.26658650752E+02  0.22879127311E+02  0.39432901736E+02  0.47000000000E+01 0. -1.
          5    1    3    3  503    0 -0.41868784840E+02 -0.26432763504E+02  0.14783660907E+02  0.51887693727E+02  0.47000000000E+01 0. -1.
         -5    1    3    3    0  503  0.35916293932E+02  0.60152429650E+02 -0.37768789170E+02  0.79729959224E+02  0.47000000000E+01 0. -1.
<mgrwt>
<rscale>  0 0.12960359E+03</rscale>
<asrwt>0</asrwt>
<pdfrwt beam="2">  1        5 0.32365408E-01 0.12960642E+03</pdfrwt>
<pdfrwt beam="1">  1       -5 0.13211326E-01 0.12960642E+03</pdfrwt>
<totfact> 0.32307509E+02</totfact>
</mgrwt>
</event>
<event>
 8    1  0.3754098E-007  0.1277996E+03  0.7546771E-02  0.1230761E+00
          5   -1    0    0  501    0  0.00000000000E+00  0.00000000000E+00  0.45252293401E+03  0.45254734096E+03  0.47000000000E+01 0.  1.
         -5   -1    0    0    0  501 -0.00000000000E+00 -0.00000000000E+00 -0.37424308403E+02  0.37718282828E+02  0.47000000000E+01 0.  1.
         25    2    1    2    0    0  0.26533734857E+02  0.16137766207E+01  0.15848131852E+03  0.20359044152E+03  0.12500438472E+03 0.  0.
         25    2    1    2    0    0 -0.26533734857E+02 -0.16137766207E+01  0.25661730709E+03  0.28667518226E+03  0.12499429774E+03 0.  0.
          5    1    3    3  502    0 -0.10450092024E+02  0.21236284406E+02  0.15963124952E+03  0.16144475843E+03  0.47000000000E+01 0. -1.
         -5    1    3    3    0  502  0.36983826881E+02 -0.19622507785E+02 -0.11499310013E+01  0.42145683098E+02  0.47000000000E+01 0. -1.
          5    1    4    4  503    0 -0.56214090890E+02 -0.41589368066E+02  0.98869946022E+02  0.12119016370E+03  0.47000000000E+01 0. -1.
         -5    1    4    4    0  503  0.29680356033E+02  0.39975591446E+02  0.15774736107E+03  0.16548501856E+03  0.47000000000E+01 0. -1.
<mgrwt>
<rscale>  0 0.12779714E+03</rscale>
<asrwt>0</asrwt>
<pdfrwt beam="1">  1        5 0.69643402E-01 0.12779961E+03</pdfrwt>
<pdfrwt beam="2">  1       -5 0.57820769E-02 0.12779961E+03</pdfrwt>
<totfact> 0.26697177E+02</totfact>
</mgrwt>
</event>
<event>
 8    1  0.3754098E-007  0.1300334E+03  0.7546771E-02  0.1227408E+00
          5   -1    0    0  501    0  0.00000000000E+00  0.00000000000E+00  0.42121557681E+03  0.42124179772E+03  0.47000000000E+01 0. -1.
         -5   -1    0    0    0  501 -0.00000000000E+00 -0.00000000000E+00 -0.47401053441E+02  0.47633495224E+02  0.47000000000E+01 0. -1.
         25    2    1    2    0    0  0.27983290490E+02 -0.22343974323E+02  0.94397482275E+02  0.16068465138E+03  0.12500541906E+03 0.  0.
         25    2    1    2    0    0 -0.27983290490E+02  0.22343974323E+02  0.27941704109E+03  0.30819064156E+03  0.12500108383E+03 0.  0.
          5    1    4    4  502    0 -0.25410655587E+01 -0.23864471253E+02  0.67733327933E+00  0.24464643524E+02  0.47000000000E+01 0.  1.
         -5    1    4    4    0  502 -0.25442224931E+02  0.46208445577E+02  0.27873970781E+03  0.28372599804E+03  0.47000000000E+01 0.  1.
          5    1    3    3  503    0 -0.16768181610E+02 -0.60141404060E+02  0.19692077102E+02  0.65635571891E+02  0.47000000000E+01 0. -1.
         -5    1    3    3    0  503  0.44751472099E+02  0.37797429737E+02  0.74705405173E+02  0.95049079489E+02  0.47000000000E+01 0. -1.
<mgrwt>
<rscale>  0 0.13003231E+03</rscale>
<asrwt>0</asrwt>
<pdfrwt beam="1">  1        5 0.64822295E-01 0.13003335E+03</pdfrwt>
<pdfrwt beam="2">  1       -5 0.73123668E-02 0.13003335E+03</pdfrwt>
<totfact> 0.21212709E+02</totfact>
</mgrwt>
</event>
<event>
 8    1  0.3754098E-007  0.1498846E+03  0.7546771E-02  0.1200615E+00
         -5   -1    0    0    0  501 -0.00000000000E+00  0.00000000000E+00  0.50082544583E+02  0.50302597069E+02  0.47000000000E+01 0.  1.
          5   -1    0    0  501    0  0.00000000000E+00 -0.00000000000E+00 -0.45673724767E+03  0.45676142942E+03  0.47000000000E+01 0.  1.
         25    2    1    2    0    0  0.79766515011E+02  0.21823875845E+02 -0.16699006439E+03  0.22439010911E+03  0.12500504385E+03 0.  0.
         25    2    1    2    0    0 -0.79766515011E+02 -0.21823875845E+02 -0.23966463870E+03  0.28267391738E+03  0.12500570408E+03 0.  0.
          5    1    3    3  502    0  0.48917693557E+02 -0.49316272664E+02 -0.58385212229E+02  0.90862305162E+02  0.47000000000E+01 0.  1.
         -5    1    3    3    0  502  0.30848821454E+02  0.71140148509E+02 -0.10860485216E+03  0.13352780395E+03  0.47000000000E+01 0.  1.
          5    1    4    4  503    0  0.18804189998E+02  0.18242003162E+02 -0.11805596139E+03  0.12101928879E+03  0.47000000000E+01 0. -1.
         -5    1    4    4    0  503 -0.98570705009E+02 -0.40065879007E+02 -0.12160867731E+03  0.16165462859E+03  0.47000000000E+01 0. -1.
<mgrwt>
<rscale>  0 0.14988450E+03</rscale>
<asrwt>0</asrwt>
<pdfrwt beam="2">  1        5 0.70286053E-01 0.14988464E+03</pdfrwt>
<pdfrwt beam="1">  1       -5 0.77237944E-02 0.14988464E+03</pdfrwt>
<totfact> 0.16902122E+02</totfact>
</mgrwt>
</event>
<event>
 8    1  0.3754098E-007  0.1610867E+03  0.7546771E-02  0.1187478E+00
         -5   -1    0    0    0  501 -0.00000000000E+00  0.00000000000E+00  0.29136722519E+02  0.29513363060E+02  0.47000000000E+01 0.  1.
          5   -1    0    0  501    0  0.00000000000E+00 -0.00000000000E+00 -0.91023550633E+03  0.91024764047E+03  0.47000000000E+01 0.  1.
         25    2    1    2    0    0 -0.98619481246E+02  0.24427016370E+02 -0.36147949886E+03  0.39574782954E+03  0.12500574097E+03 0.  0.
         25    2    1    2    0    0  0.98619481246E+02 -0.24427016370E+02 -0.51961928494E+03  0.54401317399E+03  0.12499460380E+03 0.  0.
          5    1    3    3  502    0  0.12216266068E+02  0.27607716578E+02 -0.19584622417E+02  0.36291467407E+02  0.47000000000E+01 0. -1.
         -5    1    3    3    0  502 -0.11083574731E+03 -0.31807002088E+01 -0.34189487645E+03  0.35945636213E+03  0.47000000000E+01 0. -1.
          5    1    4    4  503    0  0.56612605454E+02  0.19076526147E+01 -0.63660443619E+02  0.85342652388E+02  0.47000000000E+01 0.  1.
         -5    1    4    4    0  503  0.42006875792E+02 -0.26334668984E+02 -0.45595884132E+03  0.45867052160E+03  0.47000000000E+01 0.  1.
<mgrwt>
<rscale>  0 0.16108451E+03</rscale>
<asrwt>0</asrwt>
<pdfrwt beam="2">  1        5 0.14006612E+00 0.16108667E+03</pdfrwt>
<pdfrwt beam="1">  1       -5 0.45124791E-02 0.16108667E+03</pdfrwt>
<totfact> 0.79154797E+01</totfact>
</mgrwt>
</event>
<event>
 8    1  0.3754098E-007  0.1379819E+03  0.7546771E-02  0.1216083E+00
          5   -1    0    0  501    0  0.00000000000E+00  0.00000000000E+00  0.52500814244E+02  0.52710772109E+02  0.47000000000E+01 0. -1.
         -5   -1    0    0    0  501 -0.00000000000E+00 -0.00000000000E+00 -0.36817034083E+03  0.36820033931E+03  0.47000000000E+01 0. -1.
         25    2    1    2    0    0  0.14850745600E+02  0.56435640193E+02 -0.12970726987E+03  0.18934908264E+03  0.12499429232E+03 0.  0.
         25    2    1    2    0    0 -0.14850745600E+02 -0.56435640193E+02 -0.18596225671E+03  0.23156202877E+03  0.12503393987E+03 0.  0.
          5    1    3    3  502    0 -0.16727854856E+02  0.74215156775E+02 -0.13232956361E+03  0.15271186603E+03  0.47000000000E+01 0. -1.
         -5    1    3    3    0  502  0.31578600455E+02 -0.17779516582E+02  0.26222937338E+01  0.36637216611E+02  0.47000000000E+01 0. -1.
          5    1    4    4  503    0 -0.24603940849E+01 -0.95820218614E+02 -0.12083806693E+03  0.15430974128E+03  0.47000000000E+01 0.  1.
         -5    1    4    4    0  503 -0.12390351515E+02  0.39384578421E+02 -0.65124189786E+02  0.77252287496E+02  0.47000000000E+01 0.  1.
<mgrwt>
<rscale>  0 0.13797294E+03</rscale>
<asrwt>0</asrwt>
<pdfrwt beam="1">  1        5 0.80955067E-02 0.13798193E+03</pdfrwt>
<pdfrwt beam="2">  1       -5 0.56660048E-01 0.13798193E+03</pdfrwt>
<totfact> 0.24435022E+02</totfact>
</mgrwt>
</event>
<event>
 8    1  0.3754098E-007  0.1268416E+03  0.7546771E-02  0.1232223E+00
         -5   -1    0    0    0  501 -0.00000000000E+00  0.00000000000E+00  0.48746703026E+03  0.48748968768E+03  0.47000000000E+01 0.  1.
          5   -1    0    0  501    0  0.00000000000E+00 -0.00000000000E+00 -0.40363701427E+02  0.40636417078E+02  0.47000000000E+01 0.  1.
         25    2    1    2    0    0  0.42578279765E+01 -0.21115894761E+02  0.33730905256E+03  0.36036563094E+03  0.12498792308E+03 0.  0.
         25    2    1    2    0    0 -0.42578279765E+01  0.21115894761E+02  0.10979427628E+03  0.16776047382E+03  0.12499913344E+03 0.  0.
          5    1    3    3  502    0  0.26696478050E+02 -0.68416362230E+02  0.21479348814E+03  0.22705028762E+03  0.47000000000E+01 0. -1.
         -5    1    3    3    0  502 -0.22438650073E+02  0.47300467469E+02  0.12251556442E+03  0.13331534332E+03  0.47000000000E+01 0. -1.
          5    1    4    4  503    0  0.44164863051E+02  0.23765179716E+02  0.31000482176E+01  0.50468001686E+02  0.47000000000E+01 0.  1.
         -5    1    4    4    0  503 -0.48422691027E+02 -0.26492849551E+01  0.10669422806E+03  0.11729247213E+03  0.47000000000E+01 0.  1.
<mgrwt>
<rscale>  0 0.12683885E+03</rscale>
<asrwt>0</asrwt>
<pdfrwt beam="2">  1        5 0.62325213E-02 0.12684161E+03</pdfrwt>
<pdfrwt beam="1">  1       -5 0.75017648E-01 0.12684161E+03</pdfrwt>
<totfact> 0.19841012E+02</totfact>
</mgrwt>
</event>
<event>
 8    1  0.3754098E-007  0.1639116E+03  0.7546771E-02  0.1184356E+00
          5   -1    0    0  501    0  0.00000000000E+00  0.00000000000E+00  0.56713867833E+02  0.56908284148E+02  0.47000000000E+01 0.  1.
         -5   -1    0    0    0  501 -0.00000000000E+00 -0.00000000000E+00 -0.48680090989E+03  0.48682359831E+03  0.47000000000E+01 0.  1.
         25    2    1    2    0    0  0.37796841699E+02 -0.99011007784E+02 -0.26137015053E+03  0.30850349683E+03  0.12501308358E+03 0.  0.
         25    2    1    2    0    0 -0.37796841699E+02  0.99011007784E+02 -0.16871689153E+03  0.23522838563E+03  0.12504088536E+03 0.  0.
          5    1    4    4  502    0 -0.10294814527E+02  0.11676478830E+03 -0.83997718360E+02  0.14428342137E+03  0.47000000000E+01 0. -1.
         -5    1    4    4    0  502 -0.27502027172E+02 -0.17753780513E+02 -0.84719173171E+02  0.90944964258E+02  0.47000000000E+01 0. -1.
          5    1    3    3  503    0  0.62319442882E+02 -0.11656979226E+03 -0.19728409499E+03  0.23751912253E+03  0.47000000000E+01 0. -1.
         -5    1    3    3    0  503 -0.24522601183E+02  0.17558784480E+02 -0.64086055533E+02  0.70984374302E+02  0.47000000000E+01 0. -1.
<mgrwt>
<rscale>  0 0.16390627E+03</rscale>
<asrwt>0</asrwt>
<pdfrwt beam="1">  1        5 0.87419111E-02 0.16391157E+03</pdfrwt>
<pdfrwt beam="2">  1       -5 0.74909146E-01 0.16391157E+03</pdfrwt>
<totfact> 0.12151135E+02</totfact>
</mgrwt>
</event>
<event>
 8    1  0.3754098E-007  0.1277070E+03  0.7546771E-02  0.1230905E+00
          5   -1    0    0  501    0  0.00000000000E+00  0.00000000000E+00  0.18446631408E+03  0.18452617979E+03  0.47000000000E+01 0.  1.
         -5   -1    0    0    0  501 -0.00000000000E+00 -0.00000000000E+00 -0.12472125272E+03  0.12480977879E+03  0.47000000000E+01 0.  1.
         25    2    1    2    0    0  0.13619153423E+02  0.22320887690E+02 -0.53695926436E+02  0.13852042581E+03  0.12498380888E+03 0.  0.
         25    2    1    2    0    0 -0.13619153423E+02 -0.22320887690E+02  0.11344098779E+03  0.17081553277E+03  0.12500154063E+03 0.  0.
          5    1    4    4  502    0  0.26284115058E+02  0.18588330610E+02  0.10848835161E+03  0.11326161386E+03  0.47000000000E+01 0.  1.
         -5    1    4    4    0  502 -0.39903268480E+02 -0.40909218299E+02  0.49526361816E+01  0.57553918915E+02  0.47000000000E+01 0.  1.
          5    1    3    3  503    0 -0.21984918818E+01 -0.35747403983E+02 -0.67533880530E+02  0.76587370222E+02  0.47000000000E+01 0.  1.
         -5    1    3    3    0  503  0.15817645305E+02  0.58068291673E+02  0.13837954094E+02  0.61933055587E+02  0.47000000000E+01 0.  1.
<mgrwt>
<rscale>  0 0.12770270E+03</rscale>
<asrwt>0</asrwt>
<pdfrwt beam="1">  1        5 0.28390848E-01 0.12770704E+03</pdfrwt>
<pdfrwt beam="2">  1       -5 0.19199300E-01 0.12770704E+03</pdfrwt>
<totfact> 0.21051961E+02</totfact>
</mgrwt>
</event>
<event>
 8    1  0.3754098E-007  0.1254491E+03  0.7546771E-02  0.1234387E+00
         -5   -1    0    0    0  501 -0.00000000000E+00  0.00000000000E+00  0.13243802213E+03  0.13252139338E+03  0.47000000000E+01 0. -1.
          5   -1    0    0  501    0  0.00000000000E+00 -0.00000000000E+00 -0.13535520968E+03  0.13543678520E+03  0.47000000000E+01 0. -1.
         25    2    1    2    0    0 -0.94893079542E+01  0.36913162146E+01  0.45623794199E+02  0.13348781527E+03  0.12503516884E+03 0.  0.
         25    2    1    2    0    0  0.94893079542E+01 -0.36913162146E+01 -0.48540981749E+02  0.13447036332E+03  0.12498951525E+03 0.  0.
          5    1    3    3  502    0  0.39560114304E+01  0.60191356912E+02  0.44678605756E+02  0.75212480917E+02  0.47000000000E+01 0. -1.
         -5    1    3    3    0  502 -0.13445319385E+02 -0.56500040698E+02  0.94518844304E+00  0.58275334348E+02  0.47000000000E+01 0. -1.
          5    1    4    4  503    0 -0.30270598032E+02  0.36633364975E+02 -0.59814164650E+02  0.76538466325E+02  0.47000000000E+01 0.  1.
         -5    1    4    4    0  503  0.39759905986E+02 -0.40324681190E+02  0.11273182902E+02  0.57931896998E+02  0.47000000000E+01 0.  1.
<mgrwt>
<rscale>  0 0.12543768E+03</rscale>
<asrwt>0</asrwt>
<pdfrwt beam="2">  1        5 0.20836567E-01 0.12544906E+03</pdfrwt>
<pdfrwt beam="1">  1       -5 0.20387768E-01 0.12544906E+03</pdfrwt>
<totfact> 0.33741103E+02</totfact>
</mgrwt>
</event>
<event>
 8    1  0.3754098E-007  0.1401512E+03  0.7546771E-02  0.1213128E+00
         -5   -1    0    0    0  501 -0.00000000000E+00  0.00000000000E+00  0.12198909130E+03  0.12207959861E+03  0.47000000000E+01 0.  1.
          5   -1    0    0  501    0  0.00000000000E+00 -0.00000000000E+00 -0.18221079171E+03  0.18227139824E+03  0.47000000000E+01 0.  1.
         25    2    1    2    0    0 -0.53710168177E+01 -0.63143330791E+02  0.22000595424E+02  0.14186144497E+03  0.12499886130E+03 0.  0.
         25    2    1    2    0    0  0.53710168177E+01  0.63143330791E+02 -0.82222295835E+02  0.16248955187E+03  0.12500568183E+03 0.  0.
          5    1    3    3  502    0 -0.61498531807E+02 -0.10692224241E+02  0.34484059551E+01  0.62692699554E+02  0.47000000000E+01 0.  1.
         -5    1    3    3    0  502  0.56127514990E+02 -0.52451106550E+02  0.18552189469E+02  0.79168745420E+02  0.47000000000E+01 0.  1.
          5    1    4    4  503    0  0.50168048697E+02  0.70338492041E+02 -0.78323897831E+02  0.11670929502E+03  0.47000000000E+01 0. -1.
         -5    1    4    4    0  503 -0.44797031879E+02 -0.71951612498E+01 -0.38983980032E+01  0.45780256854E+02  0.47000000000E+01 0. -1.
<mgrwt>
<rscale>  0 0.14014964E+03</rscale>
<asrwt>0</asrwt>
<pdfrwt beam="2">  1        5 0.28044054E-01 0.14015116E+03</pdfrwt>
<pdfrwt beam="1">  1       -5 0.18779177E-01 0.14015116E+03</pdfrwt>
<totfact> 0.23199011E+02</totfact>
</mgrwt>
</event>
<event>
 8    1  0.3754098E-007  0.1803541E+03  0.7546771E-02  0.1167463E+00
          5   -1    0    0  501    0  0.00000000000E+00  0.00000000000E+00  0.76013806166E+02  0.76158970107E+02  0.47000000000E+01 0. -1.
         -5   -1    0    0    0  501 -0.00000000000E+00 -0.00000000000E+00 -0.45147588212E+03  0.45150034566E+03  0.47000000000E+01 0. -1.
         25    2    1    2    0    0  0.11286484090E+03  0.64509385049E+02 -0.24872770758E+03  0.30722973548E+03  0.12499881910E+03 0.  0.
         25    2    1    2    0    0 -0.11286484090E+03 -0.64509385049E+02 -0.12673436838E+03  0.22042958029E+03  0.12501066622E+03 0.  0.
          5    1    3    3  502    0  0.24089271748E+02 -0.34875417130E+02 -0.92337494279E+02  0.10170983523E+03  0.47000000000E+01 0.  1.
         -5    1    3    3    0  502  0.88775569153E+02  0.99384802179E+02 -0.15639021330E+03  0.20551990025E+03  0.47000000000E+01 0.  1.
          5    1    4    4  503    0 -0.11434177351E+02 -0.17691609436E+02  0.24306184435E+02  0.32505600408E+02  0.47000000000E+01 0. -1.
         -5    1    4    4    0  503 -0.10143066355E+03 -0.46817775613E+02 -0.15104055281E+03  0.18792397988E+03  0.47000000000E+01 0. -1.
<mgrwt>
<rscale>  0 0.18035204E+03</rscale>
<asrwt>0</asrwt>
<pdfrwt beam="1">  1        5 0.11707480E-01 0.18035410E+03</pdfrwt>
<pdfrwt beam="2">  1       -5 0.69470875E-01 0.18035410E+03</pdfrwt>
<totfact> 0.88867676E+01</totfact>
</mgrwt>
</event>
<event>
 8    1  0.3754098E-007  0.1835011E+03  0.7546771E-02  0.1164459E+00
          5   -1    0    0  501    0  0.00000000000E+00  0.00000000000E+00  0.45642167430E+03  0.45644587277E+03  0.47000000000E+01 0.  1.
         -5   -1    0    0    0  501 -0.00000000000E+00 -0.00000000000E+00 -0.74697377306E+02  0.74845094538E+02  0.47000000000E+01 0.  1.
         25    2    1    2    0    0  0.13433806409E+03 -0.10035980925E+00  0.15974786497E+03  0.24328716669E+03  0.12499015793E+03 0.  0.
         25    2    1    2    0    0 -0.13433806409E+03  0.10035980925E+00  0.22197643202E+03  0.28800380062E+03  0.12500370899E+03 0.  0.
          5    1    4    4  502    0 -0.70044865007E+02 -0.61927253975E+02  0.10366615901E+03  0.13967831050E+03  0.47000000000E+01 0.  1.
         -5    1    4    4    0  502 -0.64293199081E+02  0.62027613784E+02  0.11831027301E+03  0.14832549012E+03  0.47000000000E+01 0.  1.
          5    1    3    3  503    0  0.14246351433E+02 -0.12480510420E+02  0.11149243433E+03  0.11318734285E+03  0.47000000000E+01 0.  1.
         -5    1    3    3    0  503  0.12009171265E+03  0.12380150611E+02  0.48255430646E+02  0.13009982384E+03  0.47000000000E+01 0.  1.
<mgrwt>
<rscale>  0 0.18349879E+03</rscale>
<asrwt>0</asrwt>
<pdfrwt beam="1">  1        5 0.70231943E-01 0.18350110E+03</pdfrwt>
<pdfrwt beam="2">  1       -5 0.11505129E-01 0.18350110E+03</pdfrwt>
<totfact> 0.89872795E+01</totfact>
</mgrwt>
</event>
<event>
 8    1  0.3754098E-007  0.1383579E+03  0.7546771E-02  0.1215560E+00
          5   -1    0    0  501    0  0.00000000000E+00  0.00000000000E+00  0.27973712361E+02  0.28365799535E+02  0.47000000000E+01 0.  1.
         -5   -1    0    0    0  501 -0.00000000000E+00 -0.00000000000E+00 -0.68575321202E+03  0.68576931821E+03  0.47000000000E+01 0.  1.
         25    2    1    2    0    0 -0.17414660983E+02  0.56689260296E+02 -0.36408020807E+03  0.38948338460E+03  0.12500386523E+03 0.  0.
         25    2    1    2    0    0  0.17414660983E+02 -0.56689260296E+02 -0.29369929159E+03  0.32465173314E+03  0.12499012482E+03 0.  0.
          5    1    3    3  502    0 -0.55187679244E+02  0.45637268075E+02 -0.10374989622E+03  0.12615296724E+03  0.47000000000E+01 0.  1.
         -5    1    3    3    0  502  0.37773018261E+02  0.11051992221E+02 -0.26033031185E+03  0.26333041736E+03  0.47000000000E+01 0.  1.
          5    1    4    4  503    0 -0.61586358318E+01  0.26361634295E+02 -0.11999441652E+02  0.29982347439E+02  0.47000000000E+01 0.  1.
         -5    1    4    4    0  503  0.23573296815E+02 -0.83050894592E+02 -0.28169984993E+03  0.29466938570E+03  0.47000000000E+01 0.  1.
<mgrwt>
<rscale>  0 0.13835480E+03</rscale>
<asrwt>0</asrwt>
<pdfrwt beam="1">  1        5 0.43350481E-02 0.13835790E+03</pdfrwt>
<pdfrwt beam="2">  1       -5 0.10553188E+00 0.13835790E+03</pdfrwt>
<totfact> 0.16666765E+02</totfact>
</mgrwt>
</event>
<event>
 8    1  0.3754098E-007  0.1518348E+03  0.7546771E-02  0.1198241E+00
         -5   -1    0    0    0  501 -0.00000000000E+00  0.00000000000E+00  0.36573012262E+02  0.36873774230E+02  0.47000000000E+01 0. -1.
          5   -1    0    0  501    0  0.00000000000E+00 -0.00000000000E+00 -0.64663539462E+03  0.64665247512E+03  0.47000000000E+01 0. -1.
         25    2    1    2    0    0 -0.54552643460E+01  0.85990960768E+02 -0.24607305090E+03  0.28913807712E+03  0.12499870405E+03 0.  0.
         25    2    1    2    0    0  0.54552643460E+01 -0.85990960768E+02 -0.36398933146E+03  0.39438817223E+03  0.12501836561E+03 0.  0.
          5    1    4    4  502    0  0.35819935458E+02  0.10777256352E+02 -0.18321682695E+03  0.18705537337E+03  0.47000000000E+01 0. -1.
         -5    1    4    4    0  502 -0.30364671112E+02 -0.96768217120E+02 -0.18077250451E+03  0.20733279886E+03  0.47000000000E+01 0. -1.
          5    1    3    3  503    0 -0.11775333837E+02  0.91305812710E+02 -0.25795096590E+03  0.27392736397E+03  0.47000000000E+01 0. -1.
         -5    1    3    3    0  503  0.63200694908E+01 -0.53148519425E+01  0.11877915002E+02  0.15210713144E+02  0.47000000000E+01 0. -1.
<mgrwt>
<rscale>  0 0.15183072E+03</rscale>
<asrwt>0</asrwt>
<pdfrwt beam="2">  1        5 0.99506809E-01 0.15183477E+03</pdfrwt>
<pdfrwt beam="1">  1       -5 0.56510672E-02 0.15183477E+03</pdfrwt>
<totfact> 0.12768572E+02</totfact>
</mgrwt>
</event>
<event>
 8    1  0.3754098E-007  0.1457360E+03  0.7546771E-02  0.1205813E+00
         -5   -1    0    0    0  501 -0.00000000000E+00  0.00000000000E+00  0.92695135384E+03  0.92696326917E+03  0.47000000000E+01 0. -1.
          5   -1    0    0  501    0  0.00000000000E+00 -0.00000000000E+00 -0.29774216978E+02  0.30142892971E+02  0.47000000000E+01 0. -1.
         25    2    1    2    0    0  0.44715741905E+02  0.60116629502E+02  0.68082238341E+03  0.69624571570E+03  0.12500188864E+03 0.  0.
         25    2    1    2    0    0 -0.44715741905E+02 -0.60116629502E+02  0.21635475345E+03  0.26086044643E+03  0.12500114582E+03 0.  0.
          5    1    4    4  502    0  0.32871440727E+02 -0.58972606426E+02  0.92122956206E+02  0.11431110613E+03  0.47000000000E+01 0.  1.
         -5    1    4    4    0  502 -0.77587182632E+02 -0.11440230757E+01  0.12423179724E+03  0.14654934031E+03  0.47000000000E+01 0.  1.
          5    1    3    3  503    0  0.77246783608E+02  0.49203042811E+01  0.29049651112E+03  0.30066856826E+03  0.47000000000E+01 0. -1.
         -5    1    3    3    0  503 -0.32531041703E+02  0.55196325221E+02  0.39032587229E+03  0.39557714744E+03  0.47000000000E+01 0. -1.
<mgrwt>
<rscale>  0 0.14573583E+03</rscale>
<asrwt>0</asrwt>
<pdfrwt beam="2">  1        5 0.46099248E-02 0.14573599E+03</pdfrwt>
<pdfrwt beam="1">  1       -5 0.14263718E+00 0.14573599E+03</pdfrwt>
<totfact> 0.70630070E+01</totfact>
</mgrwt>
</event>
<event>
 8    1  0.3754098E-007  0.1480499E+03  0.7546771E-02  0.1202890E+00
          5   -1    0    0  501    0  0.00000000000E+00  0.00000000000E+00  0.75271407319E+02  0.75418000238E+02  0.47000000000E+01 0. -1.
         -5   -1    0    0    0  501 -0.00000000000E+00 -0.00000000000E+00 -0.29076976567E+03  0.29080774857E+03  0.47000000000E+01 0. -1.
         25    2    1    2    0    0 -0.72609202770E+02  0.31955191683E+02 -0.10608601658E+03  0.18213380222E+03  0.12500099358E+03 0.  0.
         25    2    1    2    0    0  0.72609202770E+02 -0.31955191683E+02 -0.10941234178E+03  0.18409194659E+03  0.12500221463E+03 0.  0.
          5    1    3    3  502    0  0.96815838831E+01 -0.23905941130E+01  0.22806961417E+02  0.25331709294E+02  0.47000000000E+01 0.  1.
         -5    1    3    3    0  502 -0.82290786653E+02  0.34345785796E+02 -0.12889297799E+03  0.15680209293E+03  0.47000000000E+01 0.  1.
          5    1    4    4  503    0  0.87759675080E+02  0.15259909694E+02 -0.37841748726E+02  0.96895373268E+02  0.47000000000E+01 0. -1.
         -5    1    4    4    0  503 -0.15150472310E+02 -0.47215101378E+02 -0.71570593050E+02  0.87196573321E+02  0.47000000000E+01 0. -1.
<mgrwt>
<rscale>  0 0.14804968E+03</rscale>
<asrwt>0</asrwt>
<pdfrwt beam="1">  1        5 0.11594415E-01 0.14804994E+03</pdfrwt>
<pdfrwt beam="2">  1       -5 0.44748008E-01 0.14804994E+03</pdfrwt>
<totfact> 0.22089614E+02</totfact>
</mgrwt>
</event>
<event>
 8    1  0.3754098E-007  0.1735488E+03  0.7546771E-02  0.1174198E+00
          5   -1    0    0  501    0  0.00000000000E+00  0.00000000000E+00  0.26733133196E+03  0.26737264454E+03  0.47000000000E+01 0. -1.
         -5   -1    0    0    0  501 -0.00000000000E+00 -0.00000000000E+00 -0.11440719362E+03  0.11450369406E+03  0.47000000000E+01 0. -1.
         25    2    1    2    0    0 -0.47194369716E+02  0.11075423276E+03  0.10068660337E+03  0.20064142020E+03  0.12500151517E+03 0.  0.
         25    2    1    2    0    0  0.47194369716E+02 -0.11075423276E+03  0.52237534966E+02  0.18123491840E+03  0.12499410778E+03 0.  0.
          5    1    3    3  502    0 -0.37413296023E+02  0.90459164473E+02  0.66455123374E+00  0.98005850768E+02  0.47000000000E+01 0. -1.
         -5    1    3    3    0  502 -0.97810736925E+01  0.20295068283E+02  0.10002205214E+03  0.10263556943E+03  0.47000000000E+01 0. -1.
          5    1    4    4  503    0  0.63775774846E+02 -0.24703845716E+02  0.62638057397E+02  0.92861432709E+02  0.47000000000E+01 0.  1.
         -5    1    4    4    0  503 -0.16581405130E+02 -0.86050387040E+02 -0.10400522430E+02  0.88373485688E+02  0.47000000000E+01 0.  1.
<mgrwt>
<rscale>  0 0.17354747E+03</rscale>
<asrwt>0</asrwt>
<pdfrwt beam="1">  1        5 0.41138498E-01 0.17354880E+03</pdfrwt>
<pdfrwt beam="2">  1       -5 0.17611708E-01 0.17354880E+03</pdfrwt>
<totfact> 0.12986515E+02</totfact>
</mgrwt>
</event>
<event>
 8    1  0.3754098E-007  0.1282480E+03  0.7546771E-02  0.1230080E+00
         -5   -1    0    0    0  501 -0.00000000000E+00  0.00000000000E+00  0.51185718744E+03  0.51187876527E+03  0.47000000000E+01 0. -1.
          5   -1    0    0  501    0  0.00000000000E+00 -0.00000000000E+00 -0.32050187456E+02  0.32392970162E+02  0.47000000000E+01 0. -1.
         25    2    1    2    0    0  0.11152377628E+02  0.26417961106E+02  0.22390567432E+03  0.25803226111E+03  0.12499845033E+03 0.  0.
         25    2    1    2    0    0 -0.11152377628E+02 -0.26417961106E+02  0.25590132567E+03  0.28623947433E+03  0.12500105595E+03 0.  0.
          5    1    4    4  502    0 -0.29812083812E+02 -0.65320217524E+02  0.92607147515E+02  0.11727602027E+03  0.47000000000E+01 0. -1.
         -5    1    4    4    0  502  0.18659706184E+02  0.38902256419E+02  0.16329417815E+03  0.16896345406E+03  0.47000000000E+01 0. -1.
          5    1    3    3  503    0 -0.21604681883E+02  0.46757495876E+02  0.29006486473E+02  0.59300016504E+02  0.47000000000E+01 0. -1.
         -5    1    3    3    0  503  0.32757059511E+02 -0.20339534770E+02  0.19489918785E+03  0.19873224461E+03  0.47000000000E+01 0. -1.
<mgrwt>
<rscale>  0 0.12824736E+03</rscale>
<asrwt>0</asrwt>
<pdfrwt beam="2">  1        5 0.49588262E-02 0.12824799E+03</pdfrwt>
<pdfrwt beam="1">  1       -5 0.78775281E-01 0.12824799E+03</pdfrwt>
<totfact> 0.26087719E+02</totfact>
</mgrwt>
</event>
<event>
 8    1  0.3754098E-007  0.1348833E+03  0.7546771E-02  0.1220385E+00
          5   -1    0    0  501    0  0.00000000000E+00  0.00000000000E+00  0.16120887012E+04  0.16120955526E+04  0.47000000000E+01 0. -1.
         -5   -1    0    0    0  501 -0.00000000000E+00 -0.00000000000E+00 -0.16271855760E+02  0.16937038994E+02  0.47000000000E+01 0. -1.
         25    2    1    2    0    0  0.48055270922E+02 -0.16087417129E+02  0.33671356729E+03  0.36272513227E+03  0.12500152450E+03 0.  0.
         25    2    1    2    0    0 -0.48055270922E+02  0.16087417129E+02  0.12591032782E+04  0.12663074593E+04  0.12500160921E+03 0.  0.
          5    1    4    4  502    0  0.33222785659E+02  0.18185310843E+02  0.72766456895E+03  0.72866471983E+03  0.47000000000E+01 0.  1.
         -5    1    4    4    0  502 -0.81278056581E+02 -0.20978937142E+01  0.53143870922E+03  0.53764273946E+03  0.47000000000E+01 0.  1.
          5    1    3    3  503    0 -0.24732723386E+02  0.29296390828E+02  0.17912385891E+03  0.18324146079E+03  0.47000000000E+01 0.  1.
         -5    1    3    3    0  503  0.72787994308E+02 -0.45383807957E+02  0.15758970839E+03  0.17948367149E+03  0.47000000000E+01 0.  1.
<mgrwt>
<rscale>  0 0.13488332E+03</rscale>
<asrwt>0</asrwt>
<pdfrwt beam="1">  1        5 0.24806549E+00 0.13488334E+03</pdfrwt>
<pdfrwt beam="2">  1       -5 0.25550559E-02 0.13488334E+03</pdfrwt>
<totfact> 0.33259323E+01</totfact>
</mgrwt>
</event>
<event>
 8    1  0.3754098E-007  0.1673818E+03  0.7546771E-02  0.1180606E+00
         -5   -1    0    0    0  501 -0.00000000000E+00  0.00000000000E+00  0.36444478112E+03  0.36447508624E+03  0.47000000000E+01 0.  1.
          5   -1    0    0  501    0  0.00000000000E+00 -0.00000000000E+00 -0.80779389599E+02  0.80916004499E+02  0.47000000000E+01 0.  1.
         25    2    1    2    0    0  0.10151042965E+03 -0.45689202447E+02  0.19139937962E+03  0.25426439475E+03  0.12499915747E+03 0.  0.
         25    2    1    2    0    0 -0.10151042965E+03  0.45689202447E+02  0.92266011900E+02  0.19112669599E+03  0.12499810566E+03 0.  0.
          5    1    4    4  502    0 -0.39466710885E+02 -0.42377942672E+02  0.20556752280E+02  0.61629387126E+02  0.47000000000E+01 0.  1.
         -5    1    4    4    0  502 -0.62043718762E+02  0.88067145119E+02  0.71709259620E+02  0.12949730886E+03  0.47000000000E+01 0.  1.
          5    1    3    3  503    0  0.10617741843E+03  0.13376902025E+02  0.11073955822E+03  0.15407117007E+03  0.47000000000E+01 0. -1.
         -5    1    3    3    0  503 -0.46669887860E+01 -0.59066104472E+02  0.80659821402E+02  0.10019322467E+03  0.47000000000E+01 0. -1.
<mgrwt>
<rscale>  0 0.16738158E+03</rscale>
<asrwt>0</asrwt>
<pdfrwt beam="2">  1        5 0.12440439E-01 0.16738178E+03</pdfrwt>
<pdfrwt beam="1">  1       -5 0.56081267E-01 0.16738178E+03</pdfrwt>
<totfact> 0.12539168E+02</totfact>
</mgrwt>
</event>
<event>
 8    1  0.3754098E-007  0.1380298E+03  0.7546771E-02  0.1216006E+00
          5   -1    0    0  501    0  0.00000000000E+00  0.00000000000E+00  0.28110328285E+03  0.28114257171E+03  0.47000000000E+01 0.  1.
         -5   -1    0    0    0  501 -0.00000000000E+00 -0.00000000000E+00 -0.87843914600E+02  0.87969559123E+02  0.47000000000E+01 0.  1.
         25    2    1    2    0    0  0.58371858796E+02 -0.44272240303E+01  0.82312260565E+01  0.13827100417E+03  0.12499697316E+03 0.  0.
         25    2    1    2    0    0 -0.58371858796E+02  0.44272240303E+01  0.18502814220E+03  0.23084112667E+03  0.12500135257E+03 0.  0.
          5    1    4    4  502    0 -0.11858661350E+02  0.21480034995E+02 -0.11936530946E+02  0.27687371190E+02  0.47000000000E+01 0. -1.
         -5    1    4    4    0  502 -0.46513197446E+02 -0.17052810965E+02  0.19696467314E+03  0.20315375548E+03  0.47000000000E+01 0. -1.
          5    1    3    3  503    0  0.88771737178E+02  0.23445000275E+02  0.22009877368E+02  0.94533666285E+02  0.47000000000E+01 0.  1.
         -5    1    3    3    0  503 -0.30399878382E+02 -0.27872224305E+02 -0.13778651312E+02  0.43737337886E+02  0.47000000000E+01 0.  1.
<mgrwt>
<rscale>  0 0.13802876E+03</rscale>
<asrwt>0</asrwt>
<pdfrwt beam="1">  1        5 0.43259346E-01 0.13802975E+03</pdfrwt>
<pdfrwt beam="2">  1       -5 0.13527136E-01 0.13802975E+03</pdfrwt>
<totfact> 0.17594914E+02</totfact>
</mgrwt>
</event>
<event>
 8    1  0.3754098E-007  0.1358821E+03  0.7546771E-02  0.1218982E+00
         -5   -1    0    0    0  501 -0.00000000000E+00  0.00000000000E+00  0.24417060851E+03  0.24421583908E+03  0.47000000000E+01 0. -1.
          5   -1    0    0  501    0  0.00000000000E+00 -0.00000000000E+00 -0.81180117177E+02  0.81316058838E+02  0.47000000000E+01 0. -1.
         25    2    1    2    0    0  0.22907792123E+02 -0.48084865716E+02  0.12453934002E+03  0.18432031700E+03  0.12500804293E+03 0.  0.
         25    2    1    2    0    0 -0.22907792123E+02  0.48084865716E+02  0.38451151310E+02  0.14121158092E+03  0.12500119318E+03 0.  0.
          5    1    3    3  502    0  0.22291718447E+02 -0.57156188422E+02  0.22155379073E+01  0.61569060368E+02  0.47000000000E+01 0. -1.
         -5    1    3    3    0  502  0.61607367526E+00  0.90713227068E+01  0.12232380211E+03  0.12275125664E+03  0.47000000000E+01 0. -1.
          5    1    4    4  503    0 -0.14743763448E+02  0.20990417760E+01  0.78174247651E+02  0.79718802881E+02  0.47000000000E+01 0. -1.
         -5    1    4    4    0  503 -0.81640286747E+01  0.45985823940E+02 -0.39723096341E+02  0.61492778036E+02  0.47000000000E+01 0. -1.
<mgrwt>
<rscale>  0 0.13588048E+03</rscale>
<asrwt>0</asrwt>
<pdfrwt beam="2">  1        5 0.12503185E-01 0.13588205E+03</pdfrwt>
<pdfrwt beam="1">  1       -5 0.37578645E-01 0.13588205E+03</pdfrwt>
<totfact> 0.26872990E+02</totfact>
</mgrwt>
</event>
<event>
 8    1  0.3754098E-007  0.1458183E+03  0.7546771E-02  0.1205721E+00
         -5   -1    0    0    0  501 -0.00000000000E+00  0.00000000000E+00  0.48707991446E+03  0.48710258988E+03  0.47000000000E+01 0.  1.
          5   -1    0    0  501    0  0.00000000000E+00 -0.00000000000E+00 -0.45329523601E+02  0.45572532406E+02  0.47000000000E+01 0.  1.
         25    2    1    2    0    0 -0.70783717529E+02  0.25050532808E+02  0.27431993638E+03  0.31064825256E+03  0.12495217268E+03 0.  0.
         25    2    1    2    0    0  0.70783717529E+02 -0.25050532808E+02  0.16743045448E+03  0.22202686973E+03  0.12500043975E+03 0.  0.
          5    1    4    4  502    0  0.65904571938E+01  0.46364167360E+02  0.75746152350E+02  0.89177574181E+02  0.47000000000E+01 0.  1.
         -5    1    4    4    0  502  0.64193260335E+02 -0.71414700168E+02  0.91684302127E+02  0.13284929555E+03  0.47000000000E+01 0.  1.
          5    1    3    3  503    0  0.28307744119E+02  0.91216911881E+01  0.17389053935E+02  0.34770717910E+02  0.47000000000E+01 0.  1.
         -5    1    3    3    0  503 -0.99091461647E+02  0.15928841620E+02  0.25693088245E+03  0.27587753465E+03  0.47000000000E+01 0.  1.
<mgrwt>
<rscale>  0 0.14580795E+03</rscale>
<asrwt>0</asrwt>
<pdfrwt beam="2">  1        5 0.69942100E-02 0.14581829E+03</pdfrwt>
<pdfrwt beam="1">  1       -5 0.74955810E-01 0.14581829E+03</pdfrwt>
<totfact> 0.17144076E+02</totfact>
</mgrwt>
</event>
<event>
 8    1  0.3754098E-007  0.1951077E+03  0.7546771E-02  0.1153934E+00
          5   -1    0    0  501    0  0.00000000000E+00  0.00000000000E+00  0.20313237733E+03  0.20318674347E+03  0.47000000000E+01 0.  1.
         -5   -1    0    0    0  501 -0.00000000000E+00 -0.00000000000E+00 -0.21007250995E+03  0.21012508046E+03  0.47000000000E+01 0.  1.
         25    2    1    2    0    0  0.41456030547E+02 -0.14395564409E+03 -0.71509689117E+02  0.20779957997E+03  0.12500079946E+03 0.  0.
         25    2    1    2    0    0 -0.41456030547E+02  0.14395564409E+03  0.64569556497E+02  0.20551224395E+03  0.12499689938E+03 0.  0.
          5    1    3    3  502    0 -0.61952006366E+01 -0.11357329369E+03  0.33468078178E+01  0.11388838691E+03  0.47000000000E+01 0. -1.
         -5    1    3    3    0  502  0.47651231183E+02 -0.30382350399E+02 -0.74856496934E+02  0.93911193062E+02  0.47000000000E+01 0. -1.
          5    1    4    4  503    0 -0.74797344308E+02  0.86356017582E+02  0.76720262718E+02  0.13769565425E+03  0.47000000000E+01 0.  1.
         -5    1    4    4    0  503  0.33341313762E+02  0.57599626509E+02 -0.12150706221E+02  0.67816589703E+02  0.47000000000E+01 0.  1.
<mgrwt>
<rscale>  0 0.19510711E+03</rscale>
<asrwt>0</asrwt>
<pdfrwt beam="1">  1        5 0.31259361E-01 0.19510774E+03</pdfrwt>
<pdfrwt beam="2">  1       -5 0.32327074E-01 0.19510774E+03</pdfrwt>
<totfact> 0.73067668E+01</totfact>
</mgrwt>
</event>
<event>
 8    1  0.3754098E-007  0.1497394E+03  0.7546771E-02  0.1200794E+00
         -5   -1    0    0    0  501 -0.00000000000E+00  0.00000000000E+00  0.19006429772E+03  0.19012240075E+03  0.47000000000E+01 0. -1.
          5   -1    0    0  501    0  0.00000000000E+00 -0.00000000000E+00 -0.11785617843E+03  0.11794985712E+03  0.47000000000E+01 0. -1.
         25    2    1    2    0    0 -0.38845181843E+02  0.72709196705E+02  0.34748424173E+02  0.15371840393E+03  0.12500527704E+03 0.  0.
         25    2    1    2    0    0  0.38845181843E+02 -0.72709196705E+02  0.37459695118E+02  0.15435385394E+03  0.12500523201E+03 0.  0.
          5    1    3    3  502    0 -0.76701091939E+02  0.73460995737E+02  0.43010226003E+02  0.11468018547E+03  0.47000000000E+01 0.  1.
         -5    1    3    3    0  502  0.37855910096E+02 -0.75179903143E+00 -0.82618018303E+01  0.39038218459E+02  0.47000000000E+01 0.  1.
          5    1    4    4  503    0  0.23556374609E+02 -0.10237823115E+03  0.16429654194E+01  0.10517126192E+03  0.47000000000E+01 0.  1.
         -5    1    4    4    0  503  0.15288807234E+02  0.29669034445E+02  0.35816729698E+02  0.49182592020E+02  0.47000000000E+01 0.  1.
<mgrwt>
<rscale>  0 0.14973941E+03</rscale>
<asrwt>0</asrwt>
<pdfrwt beam="2">  1        5 0.18143395E-01 0.14973942E+03</pdfrwt>
<pdfrwt beam="1">  1       -5 0.29252336E-01 0.14973942E+03</pdfrwt>
<totfact> 0.23281405E+02</totfact>
</mgrwt>
</event>
<event>
 8    1  0.3754098E-007  0.1305776E+03  0.7546771E-02  0.1226604E+00
          5   -1    0    0  501    0  0.00000000000E+00  0.00000000000E+00  0.58799174232E+02  0.58986717915E+02  0.47000000000E+01 0.  1.
         -5   -1    0    0    0  501 -0.00000000000E+00 -0.00000000000E+00 -0.29924993277E+03  0.29928683944E+03  0.47000000000E+01 0.  1.
         25    2    1    2    0    0  0.36933976770E+02  0.77549570295E+01 -0.15288995443E+03  0.20106179894E+03  0.12500500322E+03 0.  0.
         25    2    1    2    0    0 -0.36933976770E+02 -0.77549570295E+01 -0.87560804111E+02  0.15721175842E+03  0.12499753825E+03 0.  0.
          5    1    4    4  502    0 -0.76694938956E+02  0.22573707501E+02 -0.58565406364E+02  0.99215335279E+02  0.47000000000E+01 0.  1.
         -5    1    4    4    0  502  0.39760962186E+02 -0.30328664531E+02 -0.28995397746E+02  0.57996423137E+02  0.47000000000E+01 0.  1.
          5    1    3    3  503    0  0.70654086398E+02 -0.20783498451E+02 -0.13360535204E+03  0.15263169339E+03  0.47000000000E+01 0.  1.
         -5    1    3    3    0  503 -0.33720109628E+02  0.28538455481E+02 -0.19284602385E+02  0.48430105551E+02  0.47000000000E+01 0.  1.
<mgrwt>
<rscale>  0 0.13057581E+03</rscale>
<asrwt>0</asrwt>
<pdfrwt beam="1">  1        5 0.90632925E-02 0.13057760E+03</pdfrwt>
<pdfrwt beam="2">  1       -5 0.46055715E-01 0.13057760E+03</pdfrwt>
<totfact> 0.30662137E+02</totfact>
</mgrwt>
</event>
<event>
 8    1  0.3754098E-007  0.1378088E+03  0.7546771E-02  0.1216308E+00
          5   -1    0    0  501    0  0.00000000000E+00  0.00000000000E+00  0.72770365396E+02  0.72921986259E+02  0.47000000000E+01 0.  1.
         -5   -1    0    0    0  501 -0.00000000000E+00 -0.00000000000E+00 -0.26517771655E+03  0.26521936459E+03  0.47000000000E+01 0.  1.
         25    2    1    2    0    0  0.55398742951E+02 -0.17278461681E+02 -0.73829223677E+02  0.15633917205E+03  0.12499446584E+03 0.  0.
         25    2    1    2    0    0 -0.55398742951E+02  0.17278461681E+02 -0.11857812747E+03  0.18180217880E+03  0.12499477566E+03 0.  0.
          5    1    3    3  502    0  0.69013505330E+02  0.36344450014E+02 -0.24021317997E+02  0.81748985823E+02  0.47000000000E+01 0. -1.
         -5    1    3    3    0  502 -0.13614762379E+02 -0.53622911695E+02 -0.49807905680E+02  0.74590186228E+02  0.47000000000E+01 0. -1.
          5    1    4    4  503    0 -0.49996006591E+02  0.66714504334E+02 -0.95256767501E+02  0.12667425752E+03  0.47000000000E+01 0. -1.
         -5    1    4    4    0  503 -0.54027363598E+01 -0.49436042653E+02 -0.23321359974E+02  0.55127921278E+02  0.47000000000E+01 0. -1.
<mgrwt>
<rscale>  0 0.13780871E+03</rscale>
<asrwt>0</asrwt>
<pdfrwt beam="1">  1        5 0.11210308E-01 0.13780878E+03</pdfrwt>
<pdfrwt beam="2">  1       -5 0.40811438E-01 0.13780878E+03</pdfrwt>
<totfact> 0.27685845E+02</totfact>
</mgrwt>
</event>
<event>
 8    1  0.3754098E-007  0.1265048E+03  0.7546771E-02  0.1232750E+00
          5   -1    0    0  501    0  0.00000000000E+00  0.00000000000E+00  0.28295015188E+02  0.28682710550E+02  0.47000000000E+01 0.  1.
         -5   -1    0    0    0  501 -0.00000000000E+00 -0.00000000000E+00 -0.65528696138E+03  0.65530381638E+03  0.47000000000E+01 0.  1.
         25    2    1    2    0    0  0.18406739455E+02  0.61089215059E+01 -0.44309514941E+03  0.46080014727E+03  0.12500934893E+03 0.  0.
         25    2    1    2    0    0 -0.18406739455E+02 -0.61089215059E+01 -0.18389679679E+03  0.22318637965E+03  0.12497200172E+03 0.  0.
          5    1    4    4  502    0 -0.68391281314E+01 -0.30152328528E+02  0.55930243070E+01  0.31769616148E+02  0.47000000000E+01 0. -1.
         -5    1    4    4    0  502 -0.11567611323E+02  0.24043407022E+02 -0.18948982109E+03  0.19141676351E+03  0.47000000000E+01 0. -1.
          5    1    3    3  503    0  0.61536033908E+02 -0.25982852646E+02 -0.17599703851E+03  0.18830517695E+03  0.47000000000E+01 0.  1.
         -5    1    3    3    0  503 -0.43129294454E+02  0.32091774152E+02 -0.26709811089E+03  0.27249497032E+03  0.47000000000E+01 0.  1.
<mgrwt>
<rscale>  0 0.12649557E+03</rscale>
<asrwt>0</asrwt>
<pdfrwt beam="1">  1        5 0.43841990E-02 0.12650480E+03</pdfrwt>
<pdfrwt beam="2">  1       -5 0.10084449E+00 0.12650480E+03</pdfrwt>
<totfact> 0.17745958E+02</totfact>
</mgrwt>
</event>
<event>
 8    1  0.3754098E-007  0.1416670E+03  0.7546771E-02  0.1211109E+00
          5   -1    0    0  501    0  0.00000000000E+00  0.00000000000E+00  0.56924922587E+02  0.57118620533E+02  0.47000000000E+01 0.  1.
         -5   -1    0    0    0  501 -0.00000000000E+00 -0.00000000000E+00 -0.36008229422E+03  0.36011296645E+03  0.47000000000E+01 0.  1.
         25    2    1    2    0    0  0.60741532413E+02  0.27471147795E+02 -0.18338039090E+03  0.23172806756E+03  0.12500132722E+03 0.  0.
         25    2    1    2    0    0 -0.60741532413E+02 -0.27471147795E+02 -0.11977698073E+03  0.18550351942E+03  0.12498333043E+03 0.  0.
          5    1    4    4  502    0 -0.50043949320E+02  0.14199803786E+02 -0.13080052551E+03  0.14084352581E+03  0.47000000000E+01 0. -1.
         -5    1    4    4    0  502 -0.10697583093E+02 -0.41670951581E+02  0.11023544779E+02  0.44659993610E+02  0.47000000000E+01 0. -1.
          5    1    3    3  503    0  0.23930235160E+02 -0.50066944773E+02 -0.70442018901E+02  0.89797122118E+02  0.47000000000E+01 0. -1.
         -5    1    3    3    0  503  0.36811297253E+02  0.77538092568E+02 -0.11293837200E+03  0.14193094544E+03  0.47000000000E+01 0. -1.
<mgrwt>
<rscale>  0 0.14166300E+03</rscale>
<asrwt>0</asrwt>
<pdfrwt beam="1">  1        5 0.87749399E-02 0.14166697E+03</pdfrwt>
<pdfrwt beam="2">  1       -5 0.55414534E-01 0.14166697E+03</pdfrwt>
<totfact> 0.22514511E+02</totfact>
</mgrwt>
</event>
<event>
 8    1  0.3754098E-007  0.1550608E+03  0.7546771E-02  0.1194389E+00
         -5   -1    0    0    0  501 -0.00000000000E+00  0.00000000000E+00  0.55580100265E+03  0.55582087451E+03  0.47000000000E+01 0.  1.
          5   -1    0    0  501    0  0.00000000000E+00 -0.00000000000E+00 -0.43430004201E+02  0.43683581182E+02  0.47000000000E+01 0.  1.
         25    2    1    2    0    0  0.78931730522E+02  0.46769242997E+02  0.28180999430E+03  0.32165311512E+03  0.12500509351E+03 0.  0.
         25    2    1    2    0    0 -0.78931730522E+02 -0.46769242997E+02  0.23056100415E+03  0.27785134058E+03  0.12500164261E+03 0.  0.
          5    1    3    3  502    0  0.10985003119E+03  0.23510997069E+02  0.17553712151E+03  0.20845903042E+03  0.47000000000E+01 0. -1.
         -5    1    3    3    0  502 -0.30918300665E+02  0.23258245928E+02  0.10627287279E+03  0.11319408470E+03  0.47000000000E+01 0. -1.
          5    1    4    4  503    0  0.30876385325E+02 -0.16870122613E+02  0.91197592689E+02  0.97862368252E+02  0.47000000000E+01 0. -1.
         -5    1    4    4    0  503 -0.10980811585E+03 -0.29899120383E+02  0.13936341146E+03  0.17998897233E+03  0.47000000000E+01 0. -1.
<mgrwt>
<rscale>  0 0.15506011E+03</rscale>
<asrwt>0</asrwt>
<pdfrwt beam="2">  1        5 0.67025741E-02 0.15506081E+03</pdfrwt>
<pdfrwt beam="1">  1       -5 0.85528875E-01 0.15506081E+03</pdfrwt>
<totfact> 0.13843414E+02</totfact>
</mgrwt>
</event>
<event>
 8    1  0.3754098E-007  0.2150774E+03  0.7546771E-02  0.1137612E+00
         -5   -1    0    0    0  501 -0.00000000000E+00  0.00000000000E+00  0.43883206022E+02  0.44134179168E+02  0.47000000000E+01 0.  1.
          5   -1    0    0  501    0  0.00000000000E+00 -0.00000000000E+00 -0.10540647993E+04  0.10540752778E+04  0.47000000000E+01 0.  1.
         25    2    1    2    0    0 -0.83785827386E+02 -0.15362801597E+03 -0.47425238525E+03  0.52074331512E+03  0.12504656399E+03 0.  0.
         25    2    1    2    0    0  0.83785827386E+02  0.15362801597E+03 -0.53592920805E+03  0.57746614181E+03  0.12500158690E+03 0.  0.
          5    1    4    4  502    0 -0.29220576017E+02  0.57351444261E+02 -0.12826797994E+03  0.14358897904E+03  0.47000000000E+01 0.  1.
         -5    1    4    4    0  502  0.11300640340E+03  0.96276571705E+02 -0.40766122811E+03  0.43387716277E+03  0.47000000000E+01 0.  1.
          5    1    3    3  503    0 -0.69750277126E+02 -0.62910669154E+02 -0.10835506484E+03  0.14347739728E+03  0.47000000000E+01 0. -1.
         -5    1    3    3    0  503 -0.14035550260E+02 -0.90717346812E+02 -0.36589732041E+03  0.37726591784E+03  0.47000000000E+01 0. -1.
<mgrwt>
<rscale>  0 0.21507083E+03</rscale>
<asrwt>0</asrwt>
<pdfrwt beam="2">  1        5 0.16218391E+00 0.21507737E+03</pdfrwt>
<pdfrwt beam="1">  1       -5 0.67713749E-02 0.21507737E+03</pdfrwt>
<totfact> 0.28751596E+01</totfact>
</mgrwt>
</event>
<event>
 8    1  0.3754098E-007  0.1460128E+03  0.7546771E-02  0.1205461E+00
          5   -1    0    0  501    0  0.00000000000E+00  0.00000000000E+00  0.10965547314E+03  0.10975615148E+03  0.47000000000E+01 0.  1.
         -5   -1    0    0    0  501 -0.00000000000E+00 -0.00000000000E+00 -0.19765249511E+03  0.19770836812E+03  0.47000000000E+01 0.  1.
         25    2    1    2    0    0 -0.53016466749E+02  0.53699553075E+02 -0.64307317219E+02  0.15954671888E+03  0.12500134683E+03 0.  0.
         25    2    1    2    0    0  0.53016466749E+02 -0.53699553075E+02 -0.23689704759E+02  0.14791780073E+03  0.12499634360E+03 0.  0.
          5    1    3    3  502    0 -0.31203426127E+02  0.70723812471E+02 -0.91905763890E+02  0.12018432048E+03  0.47000000000E+01 0. -1.
         -5    1    3    3    0  502 -0.21813040623E+02 -0.17024259397E+02  0.27598446671E+02  0.39362398401E+02  0.47000000000E+01 0. -1.
          5    1    4    4  503    0  0.76249480223E+02 -0.63621236551E+02  0.15939547479E+02  0.10068666321E+03  0.47000000000E+01 0. -1.
         -5    1    4    4    0  503 -0.23233013474E+02  0.99216834769E+01 -0.39629252239E+02  0.47231137516E+02  0.47000000000E+01 0. -1.
<mgrwt>
<rscale>  0 0.14601168E+03</rscale>
<asrwt>0</asrwt>
<pdfrwt beam="1">  1        5 0.16882115E-01 0.14601275E+03</pdfrwt>
<pdfrwt beam="2">  1       -5 0.30420118E-01 0.14601275E+03</pdfrwt>
<totfact> 0.24411344E+02</totfact>
</mgrwt>
</event>
<event>
 8    1  0.3754098E-007  0.2278427E+03  0.7546771E-02  0.1128168E+00
         -5   -1    0    0    0  501 -0.00000000000E+00  0.00000000000E+00  0.18432860251E+03  0.18438851294E+03  0.47000000000E+01 0. -1.
          5   -1    0    0  501    0  0.00000000000E+00 -0.00000000000E+00 -0.28716468539E+03  0.28720314506E+03  0.47000000000E+01 0. -1.
         25    2    1    2    0    0  0.17953986413E+03 -0.63658647591E+02 -0.18306954718E+02  0.22857421851E+03  0.12499617015E+03 0.  0.
         25    2    1    2    0    0 -0.17953986413E+03  0.63658647591E+02 -0.84529128158E+02  0.24301743949E+03  0.12500126465E+03 0.  0.
          5    1    3    3  502    0  0.17273412947E+02 -0.53028584191E+02 -0.33426987364E+02  0.65190912099E+02  0.47000000000E+01 0.  1.
         -5    1    3    3    0  502  0.16226645118E+03 -0.10630063400E+02  0.15120032647E+02  0.16338330641E+03  0.47000000000E+01 0.  1.
          5    1    4    4  503    0 -0.13534196089E+03  0.10021751125E+03 -0.76061386538E+02  0.18484701908E+03  0.47000000000E+01 0.  1.
         -5    1    4    4    0  503 -0.44197903240E+02 -0.36558863663E+02 -0.84677416194E+01  0.58170420415E+02  0.47000000000E+01 0.  1.
<mgrwt>
<rscale>  0 0.22784202E+03</rscale>
<asrwt>0</asrwt>
<pdfrwt beam="2">  1        5 0.44186749E-01 0.22784271E+03</pdfrwt>
<pdfrwt beam="1">  1       -5 0.28365814E-01 0.22784271E+03</pdfrwt>
<totfact> 0.48652609E+01</totfact>
</mgrwt>
</event>
<event>
 8    1  0.3754098E-007  0.1265732E+03  0.7546771E-02  0.1232646E+00
          5   -1    0    0  501    0  0.00000000000E+00  0.00000000000E+00  0.27327489787E+02  0.27728716127E+02  0.47000000000E+01 0. -1.
         -5   -1    0    0    0  501 -0.00000000000E+00 -0.00000000000E+00 -0.79847691930E+03  0.79849075177E+03  0.47000000000E+01 0. -1.
         25    2    1    2    0    0 -0.12765348322E+02 -0.14922604046E+02 -0.60087959986E+03  0.61405775149E+03  0.12499996162E+03 0.  0.
         25    2    1    2    0    0  0.12765348322E+02  0.14922604046E+02 -0.17026982965E+03  0.21216171640E+03  0.12504055657E+03 0.  0.
          5    1    3    3  502    0 -0.66817646954E+02 -0.24246362161E+02 -0.35775366991E+03  0.36477700360E+03  0.47000000000E+01 0. -1.
         -5    1    3    3    0  502  0.54052298633E+02  0.93237581153E+01 -0.24312592995E+03  0.24928074789E+03  0.47000000000E+01 0. -1.
          5    1    4    4  503    0  0.62255136148E+02 -0.14953806032E+02 -0.11677829013E+03  0.13326131223E+03  0.47000000000E+01 0. -1.
         -5    1    4    4    0  503 -0.49489787826E+02  0.29876410078E+02 -0.53491539524E+02  0.78900404174E+02  0.47000000000E+01 0. -1.
<mgrwt>
<rscale>  0 0.12656319E+03</rscale>
<asrwt>0</asrwt>
<pdfrwt beam="1">  1        5 0.42361574E-02 0.12657322E+03</pdfrwt>
<pdfrwt beam="2">  1       -5 0.12287451E+00 0.12657322E+03</pdfrwt>
<totfact> 0.11476977E+02</totfact>
</mgrwt>
</event>
<event>
 8    1  0.3754098E-007  0.1320978E+03  0.7546771E-02  0.1224376E+00
         -5   -1    0    0    0  501 -0.00000000000E+00  0.00000000000E+00  0.22549136941E+04  0.22549185923E+04  0.47000000000E+01 0.  1.
          5   -1    0    0  501    0  0.00000000000E+00 -0.00000000000E+00 -0.76301593542E+01  0.89615473982E+01  0.47000000000E+01 0.  1.
         25    2    1    2    0    0 -0.31104644009E+02  0.29269527071E+02  0.14182206650E+04  0.14243593968E+04  0.12500252995E+03 0.  0.
         25    2    1    2    0    0  0.31104644009E+02 -0.29269527071E+02  0.82906286970E+03  0.83952074285E+03  0.12500252664E+03 0.  0.
          5    1    4    4  502    0 -0.81801505880E+01  0.40372286301E+02  0.46009751786E+03  0.46196174333E+03  0.47000000000E+01 0.  1.
         -5    1    4    4    0  502  0.39284794597E+02 -0.69641813372E+02  0.36896535184E+03  0.37755899952E+03  0.47000000000E+01 0.  1.
          5    1    3    3  503    0 -0.27199394169E+02 -0.40988405057E+02  0.90084770165E+03  0.90220204387E+03  0.47000000000E+01 0.  1.
         -5    1    3    3    0  503 -0.39052498402E+01  0.70257932128E+02  0.51737296337E+03  0.52215735294E+03  0.47000000000E+01 0.  1.
<mgrwt>
<rscale>  0 0.13209783E+03</rscale>
<asrwt>0</asrwt>
<pdfrwt beam="2">  1        5 0.12766591E-02 0.13209783E+03</pdfrwt>
<pdfrwt beam="1">  1       -5 0.34701335E+00 0.13209783E+03</pdfrwt>
<totfact> 0.23255445E+01</totfact>
</mgrwt>
</event>
<event>
 8    1  0.3754098E-007  0.1869455E+03  0.7546771E-02  0.1161246E+00
          5   -1    0    0  501    0  0.00000000000E+00  0.00000000000E+00  0.15896733712E+03  0.15903680163E+03  0.47000000000E+01 0.  1.
         -5   -1    0    0    0  501 -0.00000000000E+00 -0.00000000000E+00 -0.30098630184E+03  0.30102299563E+03  0.47000000000E+01 0.  1.
         25    2    1    2    0    0  0.26615156228E+02  0.13643591883E+03 -0.19052685177E+03  0.26692527796E+03  0.12500198511E+03 0.  0.
         25    2    1    2    0    0 -0.26615156228E+02 -0.13643591883E+03  0.48507887048E+02  0.19313451930E+03  0.12499920380E+03 0.  0.
          5    1    4    4  502    0 -0.28510299318E+02 -0.15984336620E+03  0.47183466221E+02  0.16914818465E+03  0.47000000000E+01 0.  1.
         -5    1    4    4    0  502  0.18951430899E+01  0.23407447366E+02  0.13244208271E+01  0.23986334652E+02  0.47000000000E+01 0.  1.
          5    1    3    3  503    0 -0.16188236298E+02  0.99051959490E+02 -0.18384603738E+03  0.20951087116E+03  0.47000000000E+01 0. -1.
         -5    1    3    3    0  503  0.42803392526E+02  0.37383959340E+02 -0.66808143888E+01  0.57414406803E+02  0.47000000000E+01 0. -1.
<mgrwt>
<rscale>  0 0.18694504E+03</rscale>
<asrwt>0</asrwt>
<pdfrwt beam="1">  1        5 0.24464680E-01 0.18694551E+03</pdfrwt>
<pdfrwt beam="2">  1       -5 0.46313751E-01 0.18694551E+03</pdfrwt>
<totfact> 0.55805645E+01</totfact>
</mgrwt>
</event>
<event>
 8    1  0.3754098E-007  0.1283312E+03  0.7546771E-02  0.1229956E+00
          5   -1    0    0  501    0  0.00000000000E+00  0.00000000000E+00  0.80323209076E+02  0.80460598533E+02  0.47000000000E+01 0. -1.
         -5   -1    0    0    0  501 -0.00000000000E+00 -0.00000000000E+00 -0.27583093647E+03  0.27587097621E+03  0.47000000000E+01 0. -1.
         25    2    1    2    0    0 -0.27897133402E+02 -0.80162883878E+01 -0.18821227872E+03  0.22779982322E+03  0.12500554654E+03 0.  0.
         25    2    1    2    0    0  0.27897133402E+02  0.80162883878E+01 -0.72954486673E+01  0.12853175151E+03  0.12499870657E+03 0.  0.
          5    1    3    3  502    0  0.23272047029E+02 -0.41657386966E+02 -0.26425898244E+02  0.54748005989E+02  0.47000000000E+01 0. -1.
         -5    1    3    3    0  502 -0.51169180432E+02  0.33641098578E+02 -0.16178638048E+03  0.17305181724E+03  0.47000000000E+01 0. -1.
          5    1    4    4  503    0 -0.11232272868E+02 -0.45783179116E+02  0.25947943505E+02  0.54015268359E+02  0.47000000000E+01 0. -1.
         -5    1    4    4    0  503  0.39129406270E+02  0.53799467504E+02 -0.33243392172E+02  0.74516483155E+02  0.47000000000E+01 0. -1.
<mgrwt>
<rscale>  0 0.12832954E+03</rscale>
<asrwt>0</asrwt>
<pdfrwt beam="1">  1        5 0.12371065E-01 0.12833120E+03</pdfrwt>
<pdfrwt beam="2">  1       -5 0.42449177E-01 0.12833120E+03</pdfrwt>
<totfact> 0.20925198E+02</totfact>
</mgrwt>
</event>
<event>
 8    1  0.3754098E-007  0.1257605E+03  0.7546771E-02  0.1233886E+00
          5   -1    0    0  501    0  0.00000000000E+00  0.00000000000E+00  0.56709879238E+02  0.56904309180E+02  0.47000000000E+01 0.  1.
         -5   -1    0    0    0  501 -0.00000000000E+00 -0.00000000000E+00 -0.28905130554E+03  0.28908951422E+03  0.47000000000E+01 0.  1.
         25    2    1    2    0    0  0.12843206768E+02  0.51102348512E+01 -0.14968735631E+03  0.19550448002E+03  0.12499853843E+03 0.  0.
         25    2    1    2    0    0 -0.12843206768E+02 -0.51102348512E+01 -0.82654069985E+02  0.15048934338E+03  0.12499713887E+03 0.  0.
          5    1    4    4  502    0 -0.64779624883E+02  0.10598498323E+02 -0.22999067451E+02  0.69712086974E+02  0.47000000000E+01 0.  1.
         -5    1    4    4    0  502  0.51936418115E+02 -0.15708733174E+02 -0.59655002534E+02  0.80777256402E+02  0.47000000000E+01 0.  1.
          5    1    3    3  503    0 -0.38692499040E+02 -0.34843088196E+02 -0.10188225880E+03  0.11451303391E+03  0.47000000000E+01 0.  1.
         -5    1    3    3    0  503  0.51535705808E+02  0.39953323048E+02 -0.47805097517E+02  0.80991446118E+02  0.47000000000E+01 0.  1.
<mgrwt>
<rscale>  0 0.12576013E+03</rscale>
<asrwt>0</asrwt>
<pdfrwt beam="1">  1        5 0.87424922E-02 0.12576047E+03</pdfrwt>
<pdfrwt beam="2">  1       -5 0.44487326E-01 0.12576047E+03</pdfrwt>
<totfact> 0.34592689E+02</totfact>
</mgrwt>
</event>
<event>
 8    1  0.3754098E-007  0.1286822E+03  0.7546771E-02  0.1229424E+00
          5   -1    0    0  501    0  0.00000000000E+00  0.00000000000E+00  0.13224822352E+04  0.13224905869E+04  0.47000000000E+01 0. -1.
         -5   -1    0    0    0  501 -0.00000000000E+00 -0.00000000000E+00 -0.12234178197E+02  0.13105919127E+02  0.47000000000E+01 0. -1.
         25    2    1    2    0    0 -0.10830503439E+02  0.28574331936E+02  0.58076031484E+03  0.59484589650E+03  0.12500122018E+03 0.  0.
         25    2    1    2    0    0  0.10830503439E+02 -0.28574331936E+02  0.72948774212E+03  0.74075060947E+03  0.12500122910E+03 0.  0.
          5    1    4    4  502    0  0.16601553887E+02 -0.57138258361E+02  0.16452047817E+03  0.17501277067E+03  0.47000000000E+01 0. -1.
         -5    1    4    4    0  502 -0.57710504479E+01  0.28563926425E+02  0.56496726396E+03  0.56573783881E+03  0.47000000000E+01 0. -1.
          5    1    3    3  503    0  0.14191068641E+02  0.64171538853E+02  0.48625597355E+03  0.49069984170E+03  0.47000000000E+01 0. -1.
         -5    1    3    3    0  503 -0.25021572080E+02 -0.35597206917E+02  0.94504341289E+02  0.10414605481E+03  0.47000000000E+01 0. -1.
<mgrwt>
<rscale>  0 0.12868216E+03</rscale>
<asrwt>0</asrwt>
<pdfrwt beam="1">  1        5 0.20352639E+00 0.12868216E+03</pdfrwt>
<pdfrwt beam="2">  1       -5 0.19498818E-02 0.12868216E+03</pdfrwt>
<totfact> 0.97974867E+01</totfact>
</mgrwt>
</event>
<event>
 8    1  0.3754098E-007  0.1462083E+03  0.7546771E-02  0.1205213E+00
          5   -1    0    0  501    0  0.00000000000E+00  0.00000000000E+00  0.42748416182E+02  0.43006012208E+02  0.47000000000E+01 0. -1.
         -5   -1    0    0    0  501 -0.00000000000E+00 -0.00000000000E+00 -0.57863979476E+03  0.57865888232E+03  0.47000000000E+01 0. -1.
         25    2    1    2    0    0 -0.63723882367E+02  0.41114613915E+02 -0.38376310009E+03  0.41067139286E+03  0.12500292499E+03 0.  0.
         25    2    1    2    0    0  0.63723882367E+02 -0.41114613915E+02 -0.15212827849E+03  0.21099350167E+03  0.12499639983E+03 0.  0.
          5    1    4    4  502    0  0.10188903293E+02  0.40895422818E+02 -0.75335052553E+02  0.86450618858E+02  0.47000000000E+01 0. -1.
         -5    1    4    4    0  502  0.53534979074E+02 -0.82010036733E+02 -0.76793225934E+02  0.12454288281E+03  0.47000000000E+01 0. -1.
          5    1    3    3  503    0  0.17311942564E+02  0.29877530699E+02 -0.25568686982E+02  0.43222886877E+02  0.47000000000E+01 0.  1.
         -5    1    3    3    0  503 -0.81035824931E+02  0.11237083216E+02 -0.35819441311E+03  0.36744850598E+03  0.47000000000E+01 0.  1.
<mgrwt>
<rscale>  0 0.14620694E+03</rscale>
<asrwt>0</asrwt>
<pdfrwt beam="1">  1        5 0.65979632E-02 0.14620833E+03</pdfrwt>
<pdfrwt beam="2">  1       -5 0.89042785E-01 0.14620833E+03</pdfrwt>
<totfact> 0.12689049E+02</totfact>
</mgrwt>
</event>
<event>
 8    1  0.3754098E-007  0.1369528E+03  0.7546771E-02  0.1217491E+00
          5   -1    0    0  501    0  0.00000000000E+00  0.00000000000E+00  0.24093643474E+02  0.24547783115E+02  0.47000000000E+01 0.  1.
         -5   -1    0    0    0  501 -0.00000000000E+00 -0.00000000000E+00 -0.77171305569E+03  0.77172736787E+03  0.47000000000E+01 0.  1.
         25    2    1    2    0    0 -0.55639783702E+02  0.58133009932E+01 -0.38822480318E+03  0.41167074930E+03  0.12499891209E+03 0.  0.
         25    2    1    2    0    0  0.55639783702E+02 -0.58133009932E+01 -0.35939460904E+03  0.38460440169E+03  0.12500592304E+03 0.  0.
          5    1    4    4  502    0 -0.71491154363E+01 -0.39244473295E+02 -0.25528780702E+03  0.25842831298E+03  0.47000000000E+01 0.  1.
         -5    1    4    4    0  502  0.62788899138E+02  0.33431172301E+02 -0.10410680202E+03  0.12617608871E+03  0.47000000000E+01 0.  1.
          5    1    3    3  503    0 -0.11568861470E+02 -0.33356111870E+02 -0.24647371908E+02  0.43313412435E+02  0.47000000000E+01 0. -1.
         -5    1    3    3    0  503 -0.44070922232E+02  0.39169412863E+02 -0.36357743127E+03  0.36835733686E+03  0.47000000000E+01 0. -1.
<mgrwt>
<rscale>  0 0.13695117E+03</rscale>
<asrwt>0</asrwt>
<pdfrwt beam="1">  1        5 0.37427497E-02 0.13695277E+03</pdfrwt>
<pdfrwt beam="2">  1       -5 0.11876110E+00 0.13695277E+03</pdfrwt>
<totfact> 0.15741420E+02</totfact>
</mgrwt>
</event>
<event>
 8    1  0.3754098E-007  0.1299276E+03  0.7546771E-02  0.1227572E+00
          5   -1    0    0  501    0  0.00000000000E+00  0.00000000000E+00  0.17606440183E+03  0.17612712338E+03  0.47000000000E+01 0. -1.
         -5   -1    0    0    0  501 -0.00000000000E+00 -0.00000000000E+00 -0.10546388694E+03  0.10556856278E+03  0.47000000000E+01 0. -1.
         25    2    1    2    0    0  0.21043114491E+02 -0.28429039609E+02 -0.74683626749E+01  0.13011758071E+03  0.12499514153E+03 0.  0.
         25    2    1    2    0    0 -0.21043114491E+02  0.28429039609E+02  0.78068877564E+02  0.15157810546E+03  0.12502059611E+03 0.  0.
          5    1    3    3  502    0 -0.53773445462E+01 -0.67350106307E+02 -0.34130919661E+02  0.75841692563E+02  0.47000000000E+01 0. -1.
         -5    1    3    3    0  502  0.26420459037E+02  0.38921066698E+02  0.26662556986E+02  0.54275888143E+02  0.47000000000E+01 0. -1.
          5    1    4    4  503    0 -0.32138759314E+01 -0.45615408644E+02  0.55394478118E+01  0.46301943655E+02  0.47000000000E+01 0. -1.
         -5    1    4    4    0  503 -0.17829238559E+02  0.74044448252E+02  0.72529429752E+02  0.10527616181E+03  0.47000000000E+01 0. -1.
<mgrwt>
<rscale>  0 0.12992144E+03</rscale>
<asrwt>0</asrwt>
<pdfrwt beam="1">  1        5 0.27099708E-01 0.12992757E+03</pdfrwt>
<pdfrwt beam="2">  1       -5 0.16238090E-01 0.12992757E+03</pdfrwt>
<totfact> 0.31547480E+02</totfact>
</mgrwt>
</event>
<event>
 8    1  0.3754098E-007  0.1301374E+03  0.7546771E-02  0.1227262E+00
         -5   -1    0    0    0  501 -0.00000000000E+00  0.00000000000E+00  0.26810416038E+03  0.26814535389E+03  0.47000000000E+01 0.  1.
          5   -1    0    0  501    0  0.00000000000E+00 -0.00000000000E+00 -0.83037364706E+02  0.83170270754E+02  0.47000000000E+01 0.  1.
         25    2    1    2    0    0  0.20399379350E+02  0.29810836885E+02  0.17866554766E+03  0.22102084223E+03  0.12499605635E+03 0.  0.
         25    2    1    2    0    0 -0.20399379350E+02 -0.29810836885E+02  0.64012480102E+01  0.13029478242E+03  0.12502373245E+03 0.  0.
          5    1    3    3  502    0 -0.83833860729E+01 -0.23364890856E+02  0.15315669381E+03  0.15522648661E+03  0.47000000000E+01 0. -1.
         -5    1    3    3    0  502  0.28782765423E+02  0.53175727741E+02  0.25508853859E+02  0.65794355619E+02  0.47000000000E+01 0. -1.
          5    1    4    4  503    0 -0.66104051939E+02 -0.31843097119E+02  0.29018568578E+02  0.79043632503E+02  0.47000000000E+01 0.  1.
         -5    1    4    4    0  503  0.45704672589E+02  0.20322602341E+01 -0.22617320567E+02  0.51251149917E+02  0.47000000000E+01 0.  1.
<mgrwt>
<rscale>  0 0.13013080E+03</rscale>
<asrwt>0</asrwt>
<pdfrwt beam="2">  1        5 0.12788372E-01 0.13013744E+03</pdfrwt>
<pdfrwt beam="1">  1       -5 0.41260186E-01 0.13013744E+03</pdfrwt>
<totfact> 0.21018726E+02</totfact>
</mgrwt>
</event>
<event>
 8    1  0.3754098E-007  0.1564118E+03  0.7546771E-02  0.1192811E+00
          5   -1    0    0  501    0  0.00000000000E+00  0.00000000000E+00  0.16865852225E+03  0.16872399689E+03  0.47000000000E+01 0. -1.
         -5   -1    0    0    0  501 -0.00000000000E+00 -0.00000000000E+00 -0.16678934754E+03  0.16685555566E+03  0.47000000000E+01 0. -1.
         25    2    1    2    0    0  0.92448768640E+02  0.17105958360E+02 -0.59805290040E+02  0.16744744714E+03  0.12499034444E+03 0.  0.
         25    2    1    2    0    0 -0.92448768640E+02 -0.17105958360E+02  0.61674464745E+02  0.16813210541E+03  0.12500110653E+03 0.  0.
          5    1    3    3  502    0 -0.15748335231E+02 -0.31711927413E+02 -0.32107453956E+01  0.35861613025E+02  0.47000000000E+01 0.  1.
         -5    1    3    3    0  502  0.10819710387E+03  0.48817885773E+02 -0.56594544644E+02  0.13158583412E+03  0.47000000000E+01 0.  1.
          5    1    4    4  503    0 -0.10870121841E+03  0.61828710678E+01  0.78940485715E+02  0.13456549730E+03  0.47000000000E+01 0.  1.
         -5    1    4    4    0  503  0.16252449771E+02 -0.23288829428E+02 -0.17266020970E+02  0.33566608107E+02  0.47000000000E+01 0.  1.
<mgrwt>
<rscale>  0 0.15640969E+03</rscale>
<asrwt>0</asrwt>
<pdfrwt beam="1">  1        5 0.25957595E-01 0.15641185E+03</pdfrwt>
<pdfrwt beam="2">  1       -5 0.25670029E-01 0.15641185E+03</pdfrwt>
<totfact> 0.15479043E+02</totfact>
</mgrwt>
</event>
<event>
 8    1  0.3754098E-007  0.1337446E+03  0.7546771E-02  0.1222054E+00
         -5   -1    0    0    0  501 -0.00000000000E+00  0.00000000000E+00  0.10628833284E+03  0.10639219754E+03  0.47000000000E+01 0.  1.
          5   -1    0    0  501    0  0.00000000000E+00 -0.00000000000E+00 -0.17495723542E+03  0.17502035374E+03  0.47000000000E+01 0.  1.
         25    2    1    2    0    0 -0.32091087337E+02 -0.34843724201E+02 -0.60939493352E+01  0.13388334542E+03  0.12507474150E+03 0.  0.
         25    2    1    2    0    0  0.32091087337E+02  0.34843724201E+02 -0.62574953242E+02  0.14752920587E+03  0.12492125042E+03 0.  0.
          5    1    3    3  502    0 -0.68218877832E+02 -0.47134862590E+02  0.22408053207E+02  0.86021633398E+02  0.47000000000E+01 0. -1.
         -5    1    3    3    0  502  0.36127790495E+02  0.12291138389E+02 -0.28502002542E+02  0.47861712024E+02  0.47000000000E+01 0. -1.
          5    1    4    4  503    0 -0.40613050502E+02  0.21811288510E+01 -0.53211331168E+02  0.67139503713E+02  0.47000000000E+01 0.  1.
         -5    1    4    4    0  503  0.72704137839E+02  0.32662595350E+02 -0.93636220736E+01  0.80389702153E+02  0.47000000000E+01 0.  1.
<mgrwt>
<rscale>  0 0.13370869E+03</rscale>
<asrwt>0</asrwt>
<pdfrwt beam="2">  1        5 0.26929343E-01 0.13374458E+03</pdfrwt>
<pdfrwt beam="1">  1       -5 0.16364896E-01 0.13374458E+03</pdfrwt>
<totfact> 0.31813384E+02</totfact>
</mgrwt>
</event>
<event>
 8    1  0.3754098E-007  0.1305163E+03  0.7546771E-02  0.1226694E+00
          5   -1    0    0  501    0  0.00000000000E+00  0.00000000000E+00  0.12986401750E+04  0.12986486800E+04  0.47000000000E+01 0.  1.
         -5   -1    0    0    0  501 -0.00000000000E+00 -0.00000000000E+00 -0.13253719321E+02  0.14062399363E+02  0.47000000000E+01 0.  1.
         25    2    1    2    0    0  0.90044359027E+01  0.36440063893E+02  0.51104102098E+03  0.52744423720E+03  0.12500216043E+03 0.  0.
         25    2    1    2    0    0 -0.90044359027E+01 -0.36440063893E+02  0.77434543467E+03  0.78526684215E+03  0.12499681223E+03 0.  0.
          5    1    3    3  502    0 -0.38733492821E+02  0.15192524842E+02  0.42218180868E+03  0.42425306817E+03  0.47000000000E+01 0.  1.
         -5    1    3    3    0  502  0.47737928723E+02  0.21247539051E+02  0.88859212300E+02  0.10319116903E+03  0.47000000000E+01 0.  1.
          5    1    4    4  503    0  0.66660173448E+01 -0.44887484391E+02  0.92172050673E+02  0.10284502403E+03  0.47000000000E+01 0.  1.
         -5    1    4    4    0  503 -0.15670453248E+02  0.84474204972E+01  0.68217338400E+03  0.68242181813E+03  0.47000000000E+01 0.  1.
<mgrwt>
<rscale>  0 0.13051500E+03</rscale>
<asrwt>0</asrwt>
<pdfrwt beam="1">  1        5 0.19985360E+00 0.13051628E+03</pdfrwt>
<pdfrwt beam="2">  1       -5 0.21018948E-02 0.13051628E+03</pdfrwt>
<totfact> 0.92480929E+01</totfact>
</mgrwt>
</event>
<event>
 8    1  0.3754098E-007  0.1336747E+03  0.7546771E-02  0.1222105E+00
         -5   -1    0    0    0  501 -0.00000000000E+00  0.00000000000E+00  0.11312635574E+04  0.11312733208E+04  0.47000000000E+01 0.  1.
          5   -1    0    0  501    0  0.00000000000E+00 -0.00000000000E+00 -0.16866800201E+02  0.17509396021E+02  0.47000000000E+01 0.  1.
         25    2    1    2    0    0 -0.34417623523E+02  0.32528483647E+02  0.72125814842E+03  0.73353954262E+03  0.12499707544E+03 0.  0.
         25    2    1    2    0    0  0.34417623523E+02 -0.32528483647E+02  0.39313860880E+03  0.41524317420E+03  0.12500501162E+03 0.  0.
          5    1    3    3  502    0 -0.20680464779E+02  0.80403333516E+02  0.41940147139E+03  0.42756527205E+03  0.47000000000E+01 0.  1.
         -5    1    3    3    0  502 -0.13737158743E+02 -0.47874849869E+02  0.30185667703E+03  0.30597427057E+03  0.47000000000E+01 0.  1.
          5    1    4    4  503    0  0.80422528907E+02 -0.21333675948E+02  0.20763650388E+03  0.22373626579E+03  0.47000000000E+01 0. -1.
         -5    1    4    4    0  503 -0.46004905384E+02 -0.11194807699E+02  0.18550210491E+03  0.19150690840E+03  0.47000000000E+01 0. -1.
<mgrwt>
<rscale>  0 0.13367285E+03</rscale>
<asrwt>0</asrwt>
<pdfrwt beam="2">  1        5 0.26450742E-02 0.13367471E+03</pdfrwt>
<pdfrwt beam="1">  1       -5 0.17409071E+00 0.13367471E+03</pdfrwt>
<totfact> 0.97622726E+01</totfact>
</mgrwt>
</event>
<event>
 8    1  0.3754098E-007  0.1267538E+03  0.7546771E-02  0.1232359E+00
         -5   -1    0    0    0  501 -0.00000000000E+00  0.00000000000E+00  0.56259028560E+02  0.56455011243E+02  0.47000000000E+01 0.  1.
          5   -1    0    0  501    0  0.00000000000E+00 -0.00000000000E+00 -0.29163550338E+03  0.29167337354E+03  0.47000000000E+01 0.  1.
         25    2    1    2    0    0  0.20849964131E+02 -0.15614436011E+01 -0.91124900509E+02  0.15610982319E+03  0.12501747995E+03 0.  0.
         25    2    1    2    0    0 -0.20849964131E+02  0.15614436011E+01 -0.14425157431E+03  0.19201856159E+03  0.12500180876E+03 0.  0.
          5    1    4    4  502    0  0.21316835319E+02  0.54172494192E+02 -0.77304556901E+02  0.96887311412E+02  0.47000000000E+01 0. -1.
         -5    1    4    4    0  502 -0.42166799451E+02 -0.52611050591E+02 -0.66947017412E+02  0.95131250179E+02  0.47000000000E+01 0. -1.
          5    1    3    3  503    0  0.53777876096E+02  0.44470651328E+02 -0.48880571060E+02  0.85329356110E+02  0.47000000000E+01 0. -1.
         -5    1    3    3    0  503 -0.32927911965E+02 -0.46032094929E+02 -0.42244329450E+02  0.70780467084E+02  0.47000000000E+01 0. -1.
<mgrwt>
<rscale>  0 0.12674995E+03</rscale>
<asrwt>0</asrwt>
<pdfrwt beam="2">  1        5 0.44884988E-01 0.12675381E+03</pdfrwt>
<pdfrwt beam="1">  1       -5 0.86732240E-02 0.12675381E+03</pdfrwt>
<totfact> 0.34527500E+02</totfact>
</mgrwt>
</event>
<event>
 8    1  0.3754098E-007  0.1943832E+03  0.7546771E-02  0.1154567E+00
         -5   -1    0    0    0  501 -0.00000000000E+00  0.00000000000E+00  0.20327051176E+03  0.20332484095E+03  0.47000000000E+01 0. -1.
          5   -1    0    0  501    0  0.00000000000E+00 -0.00000000000E+00 -0.18993795196E+03  0.18999609363E+03  0.47000000000E+01 0. -1.
         25    2    1    2    0    0 -0.97080557222E+02  0.11285078040E+03 -0.22443025846E+02  0.19567450222E+03  0.12499955273E+03 0.  0.
         25    2    1    2    0    0  0.97080557222E+02 -0.11285078040E+03  0.35775585639E+02  0.19764643237E+03  0.12499714586E+03 0.  0.
          5    1    4    4  502    0  0.43348089412E+01 -0.99772112542E+02  0.10550263623E+02  0.10053190077E+03  0.47000000000E+01 0. -1.
         -5    1    4    4    0  502  0.92745748281E+02 -0.13078667856E+02  0.25225322016E+02  0.97114531600E+02  0.47000000000E+01 0. -1.
          5    1    3    3  503    0 -0.89146871020E+02  0.30300690526E+02  0.28187238994E+02  0.98396681352E+02  0.47000000000E+01 0. -1.
         -5    1    3    3    0  503 -0.79336862025E+01  0.82550089872E+02 -0.50630264840E+02  0.97277820866E+02  0.47000000000E+01 0. -1.
<mgrwt>
<rscale>  0 0.19438279E+03</rscale>
<asrwt>0</asrwt>
<pdfrwt beam="2">  1        5 0.29229875E-01 0.19438318E+03</pdfrwt>
<pdfrwt beam="1">  1       -5 0.31281038E-01 0.19438318E+03</pdfrwt>
<totfact> 0.88992665E+01</totfact>
</mgrwt>
</event>
<event>
 8    1  0.3754098E-007  0.1488438E+03  0.7546771E-02  0.1201902E+00
         -5   -1    0    0    0  501 -0.00000000000E+00  0.00000000000E+00  0.44726286064E+03  0.44728755461E+03  0.47000000000E+01 0.  1.
          5   -1    0    0  501    0  0.00000000000E+00 -0.00000000000E+00 -0.49425409960E+02  0.49648375096E+02  0.47000000000E+01 0.  1.
         25    2    1    2    0    0  0.54952922466E+02 -0.59244316816E+02  0.20513738951E+03  0.25344788503E+03  0.12499907634E+03 0.  0.
         25    2    1    2    0    0 -0.54952922466E+02  0.59244316816E+02  0.19270006117E+03  0.24348804468E+03  0.12499360609E+03 0.  0.
          5    1    4    4  502    0  0.30175998949E+02 -0.16569419593E+02  0.45652197074E+02  0.57370285653E+02  0.47000000000E+01 0. -1.
         -5    1    4    4    0  502 -0.85128921415E+02  0.75813736410E+02  0.14704786410E+03  0.18611775903E+03  0.47000000000E+01 0. -1.
          5    1    3    3  503    0  0.12065873669E+00 -0.37533100456E+02 -0.21458654373E+01  0.37887239631E+02  0.47000000000E+01 0.  1.
         -5    1    3    3    0  503  0.54832263729E+02 -0.21711216360E+02  0.20728325495E+03  0.21556064539E+03  0.47000000000E+01 0.  1.
<mgrwt>
<rscale>  0 0.14884267E+03</rscale>
<asrwt>0</asrwt>
<pdfrwt beam="2">  1        5 0.76229600E-02 0.14884382E+03</pdfrwt>
<pdfrwt beam="1">  1       -5 0.68828721E-01 0.14884382E+03</pdfrwt>
<totfact> 0.18081467E+02</totfact>
</mgrwt>
</event>
<event>
 8    1  0.3754098E-007  0.1720992E+03  0.7546771E-02  0.1175678E+00
         -5   -1    0    0    0  501 -0.00000000000E+00  0.00000000000E+00  0.92281753679E+03  0.92282950549E+03  0.47000000000E+01 0. -1.
          5   -1    0    0  501    0  0.00000000000E+00 -0.00000000000E+00 -0.52568920691E+02  0.52778607623E+02  0.47000000000E+01 0. -1.
         25    2    1    2    0    0  0.10885233355E+03 -0.46300961170E+02  0.74008102131E+03  0.75982641298E+03  0.12499460079E+03 0.  0.
         25    2    1    2    0    0 -0.10885233355E+03  0.46300961170E+02  0.13016759478E+03  0.21578170014E+03  0.12500211941E+03 0.  0.
          5    1    3    3  502    0  0.11178713764E+02 -0.68317827639E+02  0.36780281497E+03  0.37429038181E+03  0.47000000000E+01 0.  1.
         -5    1    3    3    0  502  0.97673619788E+02  0.22016866469E+02  0.37227820634E+03  0.38553603117E+03  0.47000000000E+01 0.  1.
          5    1    4    4  503    0  0.41108319286E+00  0.33270609958E+02 -0.12231041249E+02  0.35760185212E+02  0.47000000000E+01 0. -1.
         -5    1    4    4    0  503 -0.10926341674E+03  0.13030351212E+02  0.14239863603E+03  0.18002151492E+03  0.47000000000E+01 0. -1.
<mgrwt>
<rscale>  0 0.17209785E+03</rscale>
<asrwt>0</asrwt>
<pdfrwt beam="2">  1        5 0.81045770E-02 0.17209921E+03</pdfrwt>
<pdfrwt beam="1">  1       -5 0.14198897E+00 0.17209921E+03</pdfrwt>
<totfact> 0.28912749E+01</totfact>
</mgrwt>
</event>
<event>
 8    1  0.3754098E-007  0.1289208E+03  0.7546771E-02  0.1229067E+00
          5   -1    0    0  501    0  0.00000000000E+00  0.00000000000E+00  0.24618714447E+03  0.24623200463E+03  0.47000000000E+01 0. -1.
         -5   -1    0    0    0  501 -0.00000000000E+00 -0.00000000000E+00 -0.69651404547E+02  0.69809799852E+02  0.47000000000E+01 0. -1.
         25    2    1    2    0    0  0.28083256577E+02 -0.14424573023E+02  0.59755868337E+02  0.14209621225E+03  0.12499532843E+03 0.  0.
         25    2    1    2    0    0 -0.28083256577E+02  0.14424573023E+02  0.11677987159E+03  0.17394559222E+03  0.12499117185E+03 0.  0.
          5    1    4    4  502    0 -0.68028050151E+02 -0.11101210795E+02  0.30781245097E+02  0.75634830192E+02  0.47000000000E+01 0.  1.
         -5    1    4    4    0  502  0.39944793574E+02  0.25525783817E+02  0.85998626491E+02  0.98310762033E+02  0.47000000000E+01 0.  1.
          5    1    3    3  503    0  0.44649323490E+02 -0.32618420041E+02  0.88192335367E+02  0.10419933508E+03  0.47000000000E+01 0. -1.
         -5    1    3    3    0  503 -0.16566066914E+02  0.18193847018E+02 -0.28436467030E+02  0.37896877173E+02  0.47000000000E+01 0. -1.
<mgrwt>
<rscale>  0 0.12891978E+03</rscale>
<asrwt>0</asrwt>
<pdfrwt beam="1">  1        5 0.37890580E-01 0.12892079E+03</pdfrwt>
<pdfrwt beam="2">  1       -5 0.10731236E-01 0.12892079E+03</pdfrwt>
<totfact> 0.33973678E+02</totfact>
</mgrwt>
</event>
<event>
 8    1  0.3754098E-007  0.1552056E+03  0.7546771E-02  0.1194223E+00
          5   -1    0    0  501    0  0.00000000000E+00  0.00000000000E+00  0.35433461252E+03  0.35436578225E+03  0.47000000000E+01 0.  1.
         -5   -1    0    0    0  501 -0.00000000000E+00 -0.00000000000E+00 -0.72761046181E+02  0.72912686423E+02  0.47000000000E+01 0.  1.
         25    2    1    2    0    0  0.12496483152E+02 -0.91117185887E+02  0.85421335119E+02  0.17715972543E+03  0.12502103889E+03 0.  0.
         25    2    1    2    0    0 -0.12496483152E+02  0.91117185887E+02  0.19615223122E+03  0.25011874325E+03  0.12500073702E+03 0.  0.
          5    1    4    4  502    0 -0.67015206498E+02  0.65885259973E+02  0.13199323319E+03  0.16209937999E+03  0.47000000000E+01 0.  1.
         -5    1    4    4    0  502  0.54518723346E+02  0.25231925914E+02  0.64158998032E+02  0.88019363262E+02  0.47000000000E+01 0.  1.
          5    1    3    3  503    0 -0.16936786891E+02 -0.11385218370E+03  0.49995687932E+02  0.12558197839E+03  0.47000000000E+01 0. -1.
         -5    1    3    3    0  503  0.29433270043E+02  0.22734997816E+02  0.35425647188E+02  0.51577747040E+02  0.47000000000E+01 0. -1.
<mgrwt>
<rscale>  0 0.15520147E+03</rscale>
<asrwt>0</asrwt>
<pdfrwt beam="1">  1        5 0.54527079E-01 0.15520555E+03</pdfrwt>
<pdfrwt beam="2">  1       -5 0.11208069E-01 0.15520555E+03</pdfrwt>
<totfact> 0.15666383E+02</totfact>
</mgrwt>
</event>
<event>
 8    1  0.3754098E-007  0.1354938E+03  0.7546771E-02  0.1219527E+00
         -5   -1    0    0    0  501 -0.00000000000E+00  0.00000000000E+00  0.11996213807E+03  0.12005417349E+03  0.47000000000E+01 0. -1.
          5   -1    0    0  501    0  0.00000000000E+00 -0.00000000000E+00 -0.15423585465E+03  0.15430744913E+03  0.47000000000E+01 0. -1.
         25    2    1    2    0    0  0.52282224686E+02  0.46264619875E+00 -0.40985509875E+01  0.13554837476E+03  0.12499167461E+03 0.  0.
         25    2    1    2    0    0 -0.52282224686E+02 -0.46264619875E+00 -0.30175165584E+02  0.13881324786E+03  0.12499972841E+03 0.  0.
          5    1    3    3  502    0  0.14976756773E+02  0.10526615723E+01 -0.63403298348E+02  0.65325948759E+02  0.47000000000E+01 0.  1.
         -5    1    3    3    0  502  0.37305467913E+02 -0.59001537354E+00  0.59304747361E+02  0.70222426004E+02  0.47000000000E+01 0.  1.
          5    1    4    4  503    0  0.41589347302E+01  0.53736402474E+02  0.18479552797E+01  0.54133193399E+02  0.47000000000E+01 0. -1.
         -5    1    4    4    0  503 -0.56441159416E+02 -0.54199048672E+02 -0.32023120864E+02  0.84680054459E+02  0.47000000000E+01 0. -1.
<mgrwt>
<rscale>  0 0.13549197E+03</rscale>
<asrwt>0</asrwt>
<pdfrwt beam="2">  1        5 0.23741180E-01 0.13549383E+03</pdfrwt>
<pdfrwt beam="1">  1       -5 0.18468300E-01 0.13549383E+03</pdfrwt>
<totfact> 0.32587982E+02</totfact>
</mgrwt>
</event>
<event>
 8    1  0.3754098E-007  0.1539312E+03  0.7546771E-02  0.1195725E+00
         -5   -1    0    0    0  501 -0.00000000000E+00  0.00000000000E+00  0.55201048636E+03  0.55203049467E+03  0.47000000000E+01 0.  1.
          5   -1    0    0  501    0  0.00000000000E+00 -0.00000000000E+00 -0.49758603954E+02  0.49980082707E+02  0.47000000000E+01 0.  1.
         25    2    1    2    0    0 -0.83868596114E+02  0.32165291712E+02  0.36360541531E+03  0.39484481669E+03  0.12499993525E+03 0.  0.
         25    2    1    2    0    0  0.83868596114E+02 -0.32165291712E+02  0.13864646709E+03  0.20716576070E+03  0.12500504855E+03 0.  0.
          5    1    3    3  502    0 -0.91987290001E+02  0.27647089358E+02  0.37022195092E+03  0.38250804699E+03  0.47000000000E+01 0.  1.
         -5    1    3    3    0  502  0.81186938872E+01  0.45182023538E+01 -0.66165356085E+01  0.12336769691E+02  0.47000000000E+01 0.  1.
          5    1    4    4  503    0  0.53975360205E+02 -0.19123760667E+01 -0.76405814989E+01  0.54749111199E+02  0.47000000000E+01 0.  1.
         -5    1    4    4    0  503  0.29893235909E+02 -0.30252915645E+02  0.14628704859E+03  0.15241664950E+03  0.47000000000E+01 0.  1.
<mgrwt>
<rscale>  0 0.15393015E+03</rscale>
<asrwt>0</asrwt>
<pdfrwt beam="2">  1        5 0.76737456E-02 0.15393118E+03</pdfrwt>
<pdfrwt beam="1">  1       -5 0.84943268E-01 0.15393118E+03</pdfrwt>
<totfact> 0.11144935E+02</totfact>
</mgrwt>
</event>
<event>
 8    1  0.3754098E-007  0.1526261E+03  0.7546771E-02  0.1197283E+00
         -5   -1    0    0    0  501 -0.00000000000E+00  0.00000000000E+00  0.57803875150E+02  0.57994637531E+02  0.47000000000E+01 0.  1.
          5   -1    0    0  501    0  0.00000000000E+00 -0.00000000000E+00 -0.60231093581E+03  0.60232927324E+03  0.47000000000E+01 0.  1.
         25    2    1    2    0    0  0.69507796066E+02  0.53281144729E+02 -0.81945340931E+02  0.17323248483E+03  0.12499696317E+03 0.  0.
         25    2    1    2    0    0 -0.69507796066E+02 -0.53281144729E+02 -0.46256171973E+03  0.48709142594E+03  0.12499799424E+03 0.  0.
          5    1    3    3  502    0  0.76494042002E+02  0.60837521486E+02 -0.77246587319E+01  0.98154484538E+02  0.47000000000E+01 0.  1.
         -5    1    3    3    0  502 -0.69862459359E+01 -0.75563767568E+01 -0.74220682199E+02  0.75078000293E+02  0.47000000000E+01 0.  1.
          5    1    4    4  503    0 -0.31986435567E+02 -0.88655836160E+02 -0.22566051402E+03  0.24459711146E+03  0.47000000000E+01 0. -1.
         -5    1    4    4    0  503 -0.37521360499E+02  0.35374691431E+02 -0.23690120571E+03  0.24249431448E+03  0.47000000000E+01 0. -1.
<mgrwt>
<rscale>  0 0.15262584E+03</rscale>
<asrwt>0</asrwt>
<pdfrwt beam="2">  1        5 0.92679301E-01 0.15262605E+03</pdfrwt>
<pdfrwt beam="1">  1       -5 0.89089889E-02 0.15262605E+03</pdfrwt>
<totfact> 0.69916724E+01</totfact>
</mgrwt>
</event>
<event>
 8    1  0.3754098E-007  0.1271300E+03  0.7546771E-02  0.1231782E+00
         -5   -1    0    0    0  501 -0.00000000000E+00  0.00000000000E+00  0.37556731551E+03  0.37559672320E+03  0.47000000000E+01 0. -1.
          5   -1    0    0  501    0  0.00000000000E+00 -0.00000000000E+00 -0.46384872645E+02  0.46622381002E+02  0.47000000000E+01 0. -1.
         25    2    1    2    0    0  0.13719804805E+02 -0.18559391695E+02  0.22252240881E+03  0.25627212981E+03  0.12500599197E+03 0.  0.
         25    2    1    2    0    0 -0.13719804805E+02  0.18559391695E+02  0.10666003405E+03  0.16594697440E+03  0.12501740432E+03 0.  0.
          5    1    3    3  502    0  0.40999072938E+02  0.33593075364E+02  0.46691630413E+02  0.70792775372E+02  0.47000000000E+01 0.  1.
         -5    1    3    3    0  502 -0.27279268133E+02 -0.52152467059E+02  0.17583077840E+03  0.18547935444E+03  0.47000000000E+01 0.  1.
          5    1    4    4  503    0 -0.61736385347E+02  0.47845331292E+01  0.96500098564E+02  0.11475466028E+03  0.47000000000E+01 0.  1.
         -5    1    4    4    0  503  0.48016580542E+02  0.13774858565E+02  0.10159935490E+02  0.51192314116E+02  0.47000000000E+01 0.  1.
<mgrwt>
<rscale>  0 0.12712719E+03</rscale>
<asrwt>0</asrwt>
<pdfrwt beam="2">  1        5 0.71566662E-02 0.12712999E+03</pdfrwt>
<pdfrwt beam="1">  1       -5 0.57800120E-01 0.12712999E+03</pdfrwt>
<totfact> 0.28066756E+02</totfact>
</mgrwt>
</event>
<event>
 8    1  0.3754098E-007  0.1276976E+03  0.7546771E-02  0.1230917E+00
          5   -1    0    0  501    0  0.00000000000E+00  0.00000000000E+00  0.24868728943E+03  0.24873169867E+03  0.47000000000E+01 0.  1.
         -5   -1    0    0    0  501 -0.00000000000E+00 -0.00000000000E+00 -0.66212369999E+02  0.66378972129E+02  0.47000000000E+01 0.  1.
         25    2    1    2    0    0  0.21084497792E+02 -0.15395810513E+02  0.74146138923E+02  0.14765379100E+03  0.12498961977E+03 0.  0.
         25    2    1    2    0    0 -0.21084497792E+02  0.15395810513E+02  0.10832878051E+03  0.16745687981E+03  0.12500037951E+03 0.  0.
          5    1    4    4  502    0 -0.61061946577E+02  0.29274450050E+02  0.22267091197E+02  0.71438561686E+02  0.47000000000E+01 0. -1.
         -5    1    4    4    0  502  0.39977448785E+02 -0.13878639537E+02  0.86061689314E+02  0.96018318119E+02  0.47000000000E+01 0. -1.
          5    1    3    3  503    0  0.11890752650E+02 -0.27985479582E+02  0.10681182728E+03  0.11115499769E+03  0.47000000000E+01 0. -1.
         -5    1    3    3    0  503  0.91937451416E+01  0.12589669069E+02 -0.32665688355E+02  0.36498793305E+02  0.47000000000E+01 0. -1.
<mgrwt>
<rscale>  0 0.12769499E+03</rscale>
<asrwt>0</asrwt>
<pdfrwt beam="1">  1        5 0.38275813E-01 0.12769762E+03</pdfrwt>
<pdfrwt beam="2">  1       -5 0.10202750E-01 0.12769762E+03</pdfrwt>
<totfact> 0.36231497E+02</totfact>
</mgrwt>
</event>
<event>
 8    1  0.3754098E-007  0.1405597E+03  0.7546771E-02  0.1212578E+00
         -5   -1    0    0    0  501 -0.00000000000E+00  0.00000000000E+00  0.29535394502E+02  0.29907014702E+02  0.47000000000E+01 0. -1.
          5   -1    0    0  501    0  0.00000000000E+00 -0.00000000000E+00 -0.69997218022E+03  0.69998795924E+03  0.47000000000E+01 0. -1.
         25    2    1    2    0    0  0.62653852869E+02 -0.14364271135E+02 -0.25292844184E+03  0.28936106713E+03  0.12500077166E+03 0.  0.
         25    2    1    2    0    0 -0.62653852869E+02  0.14364271135E+02 -0.41750834388E+03  0.44053390681E+03  0.12500027311E+03 0.  0.
          5    1    3    3  502    0 -0.21771330322E+02 -0.42388236029E+01 -0.20328146506E+00  0.22673547868E+02  0.47000000000E+01 0.  1.
         -5    1    3    3    0  502  0.84425183192E+02 -0.10125447532E+02 -0.25272516038E+03  0.26668751927E+03  0.47000000000E+01 0.  1.
          5    1    4    4  503    0  0.20707764755E+02 -0.27164384084E+02 -0.21294568645E+03  0.21571896222E+03  0.47000000000E+01 0. -1.
         -5    1    4    4    0  503 -0.83361617625E+02  0.41528655219E+02 -0.20456265743E+03  0.22481494460E+03  0.47000000000E+01 0. -1.
<mgrwt>
<rscale>  0 0.14055959E+03</rscale>
<asrwt>0</asrwt>
<pdfrwt beam="2">  1        5 0.10771782E+00 0.14055970E+03</pdfrwt>
<pdfrwt beam="1">  1       -5 0.45737073E-02 0.14055970E+03</pdfrwt>
<totfact> 0.14575640E+02</totfact>
</mgrwt>
</event>
<event>
 8    1  0.3754098E-007  0.1444820E+03  0.7546771E-02  0.1207422E+00
          5   -1    0    0  501    0  0.00000000000E+00  0.00000000000E+00  0.28163646759E+02  0.28553125902E+02  0.47000000000E+01 0. -1.
         -5   -1    0    0    0  501 -0.00000000000E+00 -0.00000000000E+00 -0.14989228223E+04  0.14989301909E+04  0.47000000000E+01 0. -1.
         25    2    1    2    0    0  0.89310095671E+01  0.71909913003E+02 -0.12802838265E+04  0.12884105375E+04  0.12499695354E+03 0.  0.
         25    2    1    2    0    0 -0.89310095671E+01 -0.71909913003E+02 -0.19047534909E+03  0.23907277929E+03  0.12499654662E+03 0.  0.
          5    1    4    4  502    0 -0.46063911452E+02  0.12104016175E+02 -0.95734360520E+02  0.10703059810E+03  0.47000000000E+01 0. -1.
         -5    1    4    4    0  502  0.37132901885E+02 -0.84013929178E+02 -0.94740988569E+02  0.13204218119E+03  0.47000000000E+01 0. -1.
          5    1    3    3  503    0  0.31550380622E+02  0.99369166941E+02 -0.10709617571E+04  0.10760347731E+04  0.47000000000E+01 0.  1.
         -5    1    3    3    0  503 -0.22619371055E+02 -0.27459253938E+02 -0.20932206941E+03  0.21237576442E+03  0.47000000000E+01 0.  1.
<mgrwt>
<rscale>  0 0.14448187E+03</rscale>
<asrwt>0</asrwt>
<pdfrwt beam="1">  1        5 0.43633967E-02 0.14448196E+03</pdfrwt>
<pdfrwt beam="2">  1       -5 0.23063398E+00 0.14448196E+03</pdfrwt>
<totfact> 0.18332671E+01</totfact>
</mgrwt>
</event>
<event>
 8    1  0.3754098E-007  0.1561180E+03  0.7546771E-02  0.1193152E+00
          5   -1    0    0  501    0  0.00000000000E+00  0.00000000000E+00  0.91369289903E+03  0.91370498726E+03  0.47000000000E+01 0. -1.
         -5   -1    0    0    0  501 -0.00000000000E+00 -0.00000000000E+00 -0.27215662878E+02  0.27618513824E+02  0.47000000000E+01 0. -1.
         25    2    1    2    0    0 -0.91217786106E+02 -0.20637433607E+02  0.36516183498E+03  0.39713475067E+03  0.12500502510E+03 0.  0.
         25    2    1    2    0    0  0.91217786106E+02  0.20637433607E+02  0.52131540118E+03  0.54418875041E+03  0.12500024160E+03 0.  0.
          5    1    3    3  502    0  0.17620236108E+02 -0.37835759006E+02  0.65376362067E+02  0.77705701832E+02  0.47000000000E+01 0. -1.
         -5    1    3    3    0  502 -0.10883802221E+03  0.17198325399E+02  0.29978547291E+03  0.31942904884E+03  0.47000000000E+01 0. -1.
          5    1    4    4  503    0  0.10639605926E+03 -0.23562741883E+02  0.35685707898E+03  0.37315464496E+03  0.47000000000E+01 0. -1.
         -5    1    4    4    0  503 -0.15178273156E+02  0.44200175490E+02  0.16445832219E+03  0.17103410545E+03  0.47000000000E+01 0. -1.
<mgrwt>
<rscale>  0 0.15611709E+03</rscale>
<asrwt>0</asrwt>
<pdfrwt beam="1">  1        5 0.14060004E+00 0.15611805E+03</pdfrwt>
<pdfrwt beam="2">  1       -5 0.42189439E-02 0.15611805E+03</pdfrwt>
<totfact> 0.86754610E+01</totfact>
</mgrwt>
</event>
<event>
 8    1  0.3754098E-007  0.1324305E+03  0.7546771E-02  0.1223897E+00
         -5   -1    0    0    0  501 -0.00000000000E+00  0.00000000000E+00  0.68715559942E+02  0.68876107455E+02  0.47000000000E+01 0. -1.
          5   -1    0    0  501    0  0.00000000000E+00 -0.00000000000E+00 -0.26580296509E+03  0.26584451517E+03  0.47000000000E+01 0. -1.
         25    2    1    2    0    0 -0.41421571662E+02 -0.13965573424E+02 -0.64382814444E+02  0.14724170221E+03  0.12499675290E+03 0.  0.
         25    2    1    2    0    0  0.41421571662E+02  0.13965573424E+02 -0.13270459070E+03  0.18747892042E+03  0.12500821320E+03 0.  0.
          5    1    3    3  502    0 -0.71377486481E+02 -0.11128144161E+02  0.38769073462E+01  0.72496217690E+02  0.47000000000E+01 0.  1.
         -5    1    3    3    0  502  0.29955914819E+02 -0.28374292635E+01 -0.68259721791E+02  0.74745484522E+02  0.47000000000E+01 0.  1.
          5    1    4    4  503    0  0.60905658316E+02  0.36347880046E+02 -0.13959788754E+03  0.15665352790E+03  0.47000000000E+01 0.  1.
         -5    1    4    4    0  503 -0.19484086653E+02 -0.22382306622E+02  0.68932968396E+01  0.30825392516E+02  0.47000000000E+01 0.  1.
<mgrwt>
<rscale>  0 0.13242779E+03</rscale>
<asrwt>0</asrwt>
<pdfrwt beam="2">  1        5 0.40908309E-01 0.13243050E+03</pdfrwt>
<pdfrwt beam="1">  1       -5 0.10587171E-01 0.13243050E+03</pdfrwt>
<totfact> 0.30050788E+02</totfact>
</mgrwt>
</event>
<event>
 8    1  0.3754098E-007  0.1271077E+03  0.7546771E-02  0.1231815E+00
          5   -1    0    0  501    0  0.00000000000E+00  0.00000000000E+00  0.10009510371E+03  0.10020538801E+03  0.47000000000E+01 0. -1.
         -5   -1    0    0    0  501 -0.00000000000E+00 -0.00000000000E+00 -0.32557288031E+03  0.32560680335E+03  0.47000000000E+01 0. -1.
         25    2    1    2    0    0 -0.19248671225E+02  0.12627808153E+02 -0.26399889634E+03  0.29300475257E+03  0.12500557939E+03 0.  0.
         25    2    1    2    0    0  0.19248671225E+02 -0.12627808153E+02  0.38521119737E+02  0.13280743879E+03  0.12499586493E+03 0.  0.
          5    1    3    3  502    0  0.41558597599E+02 -0.24334485017E+02 -0.15804260895E+03  0.16528412035E+03  0.47000000000E+01 0. -1.
         -5    1    3    3    0  502 -0.60807268824E+02  0.36962293170E+02 -0.10595628738E+03  0.12772063222E+03  0.47000000000E+01 0. -1.
          5    1    4    4  503    0 -0.40498679247E+01 -0.64184205418E+02  0.40242188975E+02  0.76010113991E+02  0.47000000000E+01 0. -1.
         -5    1    4    4    0  503  0.23298539150E+02  0.51556397265E+02 -0.17210692377E+01  0.56797324803E+02  0.47000000000E+01 0. -1.
<mgrwt>
<rscale>  0 0.12710531E+03</rscale>
<asrwt>0</asrwt>
<pdfrwt beam="1">  1        5 0.15410340E-01 0.12710770E+03</pdfrwt>
<pdfrwt beam="2">  1       -5 0.50099228E-01 0.12710770E+03</pdfrwt>
<totfact> 0.99492417E+01</totfact>
</mgrwt>
</event>
<event>
 8    1  0.3754098E-007  0.1339104E+03  0.7546771E-02  0.1221770E+00
         -5   -1    0    0    0  501 -0.00000000000E+00  0.00000000000E+00  0.53330804406E+02  0.53537507400E+02  0.47000000000E+01 0.  1.
          5   -1    0    0  501    0  0.00000000000E+00 -0.00000000000E+00 -0.39662429196E+03  0.39665213849E+03  0.47000000000E+01 0.  1.
         25    2    1    2    0    0 -0.41613641562E+02  0.23914964774E+02 -0.83184900281E+02  0.15763456871E+03  0.12500123565E+03 0.  0.
         25    2    1    2    0    0  0.41613641562E+02 -0.23914964774E+02 -0.26010858727E+03  0.29255507718E+03  0.12501350050E+03 0.  0.
          5    1    3    3  502    0  0.40727248379E+01  0.46709726519E+02  0.12786008559E+02  0.48825788821E+02  0.47000000000E+01 0. -1.
         -5    1    3    3    0  502 -0.45686366400E+02 -0.22794761746E+02 -0.95970908840E+02  0.10880877989E+03  0.47000000000E+01 0. -1.
          5    1    4    4  503    0 -0.44623335658E+02 -0.25577152631E+01 -0.86794169867E+02  0.97739970920E+02  0.47000000000E+01 0. -1.
         -5    1    4    4    0  503  0.86236977221E+02 -0.21357249511E+02 -0.17331441740E+03  0.19481510626E+03  0.47000000000E+01 0. -1.
<mgrwt>
<rscale>  0 0.13390754E+03</rscale>
<asrwt>0</asrwt>
<pdfrwt beam="2">  1        5 0.61037162E-01 0.13391040E+03</pdfrwt>
<pdfrwt beam="1">  1       -5 0.82227817E-02 0.13391040E+03</pdfrwt>
<totfact> 0.20024391E+02</totfact>
</mgrwt>
</event>
<event>
 8    1  0.3754098E-007  0.1269126E+03  0.7546771E-02  0.1232110E+00
         -5   -1    0    0    0  501 -0.00000000000E+00  0.00000000000E+00  0.29294005619E+03  0.29297775772E+03  0.47000000000E+01 0.  1.
          5   -1    0    0  501    0  0.00000000000E+00 -0.00000000000E+00 -0.55380836830E+02  0.55579916228E+02  0.47000000000E+01 0.  1.
         25    2    1    2    0    0  0.17988711566E+02 -0.12630734355E+02  0.13594613665E+03  0.18597840601E+03  0.12499394481E+03 0.  0.
         25    2    1    2    0    0 -0.17988711566E+02  0.12630734355E+02  0.10161308271E+03  0.16257926794E+03  0.12499468225E+03 0.  0.
          5    1    3    3  502    0 -0.14407259489E+02 -0.64099858983E+02  0.73127952118E+02  0.98418232196E+02  0.47000000000E+01 0.  1.
         -5    1    3    3    0  502  0.32395971055E+02  0.51469124628E+02  0.62818184529E+02  0.87560173812E+02  0.47000000000E+01 0.  1.
          5    1    4    4  503    0  0.40392318339E+02  0.25271973461E+02  0.40022894525E+01  0.48044982509E+02  0.47000000000E+01 0. -1.
         -5    1    4    4    0  503 -0.58381029905E+02 -0.12641239106E+02  0.97610793259E+02  0.11453428543E+03  0.47000000000E+01 0. -1.
<mgrwt>
<rscale>  0 0.12691239E+03</rscale>
<asrwt>0</asrwt>
<pdfrwt beam="2">  1        5 0.85383426E-02 0.12691257E+03</pdfrwt>
<pdfrwt beam="1">  1       -5 0.45085915E-01 0.12691257E+03</pdfrwt>
<totfact> 0.35159973E+02</totfact>
</mgrwt>
</event>
<event>
 8    1  0.3754098E-007  0.1547037E+03  0.7546771E-02  0.1194810E+00
          5   -1    0    0  501    0  0.00000000000E+00  0.00000000000E+00  0.86120025080E+02  0.86248180965E+02  0.47000000000E+01 0.  1.
         -5   -1    0    0    0  501 -0.00000000000E+00 -0.00000000000E+00 -0.30421222872E+03  0.30424853344E+03  0.47000000000E+01 0.  1.
         25    2    1    2    0    0 -0.49965841452E+02 -0.76235812798E+02 -0.16683284562E+03  0.22752203651E+03  0.12499837701E+03 0.  0.
         25    2    1    2    0    0  0.49965841452E+02  0.76235812798E+02 -0.51259358019E+02  0.16297467790E+03  0.12499895754E+03 0.  0.
          5    1    3    3  502    0 -0.69920816488E+02 -0.89560510196E+02 -0.16819751204E+03  0.20303324511E+03  0.47000000000E+01 0. -1.
         -5    1    3    3    0  502  0.19954975036E+02  0.13324697399E+02  0.13646664253E+01  0.24488791393E+02  0.47000000000E+01 0. -1.
          5    1    4    4  503    0  0.28144886553E+02  0.91668061489E+02  0.94557929257E+01  0.96471084560E+02  0.47000000000E+01 0.  1.
         -5    1    4    4    0  503  0.21820954898E+02 -0.15432248692E+02 -0.60715150945E+02  0.66503593336E+02  0.47000000000E+01 0.  1.
<mgrwt>
<rscale>  0 0.15470355E+03</rscale>
<asrwt>0</asrwt>
<pdfrwt beam="1">  1        5 0.13261886E-01 0.15470366E+03</pdfrwt>
<pdfrwt beam="2">  1       -5 0.46814532E-01 0.15470366E+03</pdfrwt>
<totfact> 0.16050453E+02</totfact>
</mgrwt>
</event>
<event>
 8    1  0.3754098E-007  0.1289259E+03  0.7546771E-02  0.1229062E+00
          5   -1    0    0  501    0  0.00000000000E+00  0.00000000000E+00  0.22600268083E+02  0.23083806390E+02  0.47000000000E+01 0. -1.
         -5   -1    0    0    0  501 -0.00000000000E+00 -0.00000000000E+00 -0.72768612473E+03  0.72770130281E+03  0.47000000000E+01 0. -1.
         25    2    1    2    0    0 -0.31364898222E+02 -0.35228659881E+01 -0.36278571240E+03  0.38501019851E+03  0.12499284943E+03 0.  0.
         25    2    1    2    0    0  0.31364898222E+02  0.35228659881E+01 -0.34230014424E+03  0.36577491070E+03  0.12500291645E+03 0.  0.
          5    1    4    4  502    0 -0.79934481327E+01 -0.12644484963E+02 -0.31414830952E+03  0.31453939115E+03  0.47000000000E+01 0.  1.
         -5    1    4    4    0  502  0.39358346354E+02  0.16167350951E+02 -0.28151834725E+02  0.51235519543E+02  0.47000000000E+01 0.  1.
          5    1    3    3  503    0 -0.18833490012E+02 -0.14946793004E+02 -0.28721021802E+01  0.24666696943E+02  0.47000000000E+01 0. -1.
         -5    1    3    3    0  503 -0.12531408210E+02  0.11423927016E+02 -0.35991361022E+03  0.36034350157E+03  0.47000000000E+01 0. -1.
<mgrwt>
<rscale>  0 0.12892349E+03</rscale>
<asrwt>0</asrwt>
<pdfrwt beam="1">  1        5 0.35153277E-02 0.12892593E+03</pdfrwt>
<pdfrwt beam="2">  1       -5 0.11199006E+00 0.12892593E+03</pdfrwt>
<totfact> 0.19795803E+02</totfact>
</mgrwt>
</event>
<event>
 8    1  0.3754098E-007  0.1553950E+03  0.7546771E-02  0.1193999E+00
         -5   -1    0    0    0  501 -0.00000000000E+00  0.00000000000E+00  0.16463925647E+03  0.16470632888E+03  0.47000000000E+01 0. -1.
          5   -1    0    0  501    0  0.00000000000E+00 -0.00000000000E+00 -0.20729803123E+03  0.20735130516E+03  0.47000000000E+01 0. -1.
         25    2    1    2    0    0 -0.64584740787E+02  0.65944231777E+02  0.79362722082E+02  0.17448794264E+03  0.12501107960E+03 0.  0.
         25    2    1    2    0    0  0.64584740787E+02 -0.65944231777E+02 -0.12202149684E+03  0.19756969140E+03  0.12499882728E+03 0.  0.
          5    1    4    4  502    0 -0.88045074285E+01 -0.61863477334E+02 -0.10452149380E+03  0.12186649189E+03  0.47000000000E+01 0.  1.
         -5    1    4    4    0  502  0.73389248215E+02 -0.40807544430E+01 -0.17500003044E+02  0.75703199516E+02  0.47000000000E+01 0.  1.
          5    1    3    3  503    0 -0.63915047590E+01  0.71022395117E+02  0.90005153241E+02  0.11492627877E+03  0.47000000000E+01 0.  1.
         -5    1    3    3    0  503 -0.58193236028E+02 -0.50781633403E+01 -0.10642431158E+02  0.59561663873E+02  0.47000000000E+01 0.  1.
<mgrwt>
<rscale>  0 0.15539252E+03</rscale>
<asrwt>0</asrwt>
<pdfrwt beam="2">  1        5 0.31901262E-01 0.15539498E+03</pdfrwt>
<pdfrwt beam="1">  1       -5 0.25338374E-01 0.15539498E+03</pdfrwt>
<totfact> 0.10581790E+02</totfact>
</mgrwt>
</event>
<event>
 8    1  0.3754098E-007  0.1403035E+03  0.7546771E-02  0.1212921E+00
         -5   -1    0    0    0  501 -0.00000000000E+00  0.00000000000E+00  0.52130547955E+03  0.52132666631E+03  0.47000000000E+01 0.  1.
          5   -1    0    0  501    0  0.00000000000E+00 -0.00000000000E+00 -0.48006201627E+02  0.48235727367E+02  0.47000000000E+01 0.  1.
         25    2    1    2    0    0  0.23793028078E+02 -0.59113389248E+02  0.36889881769E+03  0.39467888536E+03  0.12499833553E+03 0.  0.
         25    2    1    2    0    0 -0.23793028078E+02  0.59113389248E+02  0.10440046023E+03  0.17488350832E+03  0.12499713761E+03 0.  0.
          5    1    3    3  502    0  0.36753217004E+02  0.30543117655E+02  0.10086834620E+03  0.11171478981E+03  0.47000000000E+01 0. -1.
         -5    1    3    3    0  502 -0.12960188926E+02 -0.89656506903E+02  0.26803047148E+03  0.28296409555E+03  0.47000000000E+01 0. -1.
          5    1    4    4  503    0  0.11359889566E+02 -0.21503075565E+02 -0.13115179971E+02  0.28027259862E+02  0.47000000000E+01 0. -1.
         -5    1    4    4    0  503 -0.35152917644E+02  0.80616464813E+02  0.11751564021E+03  0.14685624846E+03  0.47000000000E+01 0. -1.
<mgrwt>
<rscale>  0 0.14030328E+03</rscale>
<asrwt>0</asrwt>
<pdfrwt beam="2">  1        5 0.74048545E-02 0.14030355E+03</pdfrwt>
<pdfrwt beam="1">  1       -5 0.80220134E-01 0.14030355E+03</pdfrwt>
<totfact> 0.13142296E+02</totfact>
</mgrwt>
</event>
<event>
 8    1  0.3754098E-007  0.1301014E+03  0.7546771E-02  0.1227310E+00
          5   -1    0    0  501    0  0.00000000000E+00  0.00000000000E+00  0.18927746364E+03  0.18933580814E+03  0.47000000000E+01 0.  1.
         -5   -1    0    0    0  501 -0.00000000000E+00 -0.00000000000E+00 -0.89314815784E+02  0.89438393984E+02  0.47000000000E+01 0.  1.
         25    2    1    2    0    0 -0.31531572520E+02  0.17525799108E+02  0.52578607608E+02  0.14032419441E+03  0.12499990343E+03 0.  0.
         25    2    1    2    0    0  0.31531572520E+02 -0.17525799108E+02  0.47384040253E+02  0.13845000771E+03  0.12498705399E+03 0.  0.
          5    1    4    4  502    0 -0.30213028323E+02  0.59360275949E+00 -0.26424486865E+02  0.40416864683E+02  0.47000000000E+01 0. -1.
         -5    1    4    4    0  502  0.61744600844E+02 -0.18119401868E+02  0.73808527118E+02  0.98033143032E+02  0.47000000000E+01 0. -1.
          5    1    3    3  503    0  0.17277580162E+02 -0.45670998466E+02  0.28757813968E+02  0.56863492166E+02  0.47000000000E+01 0. -1.
         -5    1    3    3    0  503 -0.48809152682E+02  0.63196797575E+02  0.23820793640E+02  0.83460702243E+02  0.47000000000E+01 0. -1.
<mgrwt>
<rscale>  0 0.13009830E+03</rscale>
<asrwt>0</asrwt>
<pdfrwt beam="1">  1        5 0.29133604E-01 0.13010138E+03</pdfrwt>
<pdfrwt beam="2">  1       -5 0.13754735E-01 0.13010138E+03</pdfrwt>
<totfact> 0.37018253E+02</totfact>
</mgrwt>
</event>
<event>
 8    1  0.3754098E-007  0.1504487E+03  0.7546771E-02  0.1199928E+00
          5   -1    0    0  501    0  0.00000000000E+00  0.00000000000E+00  0.70741805150E+03  0.70743366445E+03  0.47000000000E+01 0.  1.
         -5   -1    0    0    0  501 -0.00000000000E+00 -0.00000000000E+00 -0.31824310570E+02  0.32169500203E+02  0.47000000000E+01 0.  1.
         25    2    1    2    0    0  0.76469694148E+02 -0.34080033756E+02  0.34699642376E+03  0.37820172680E+03  0.12498385986E+03 0.  0.
         25    2    1    2    0    0 -0.76469694148E+02  0.34080033756E+02  0.32859731717E+03  0.36140143785E+03  0.12500295838E+03 0.  0.
          5    1    3    3  502    0 -0.23536413218E+02 -0.24968868586E+02  0.30589944446E+02  0.46208677182E+02  0.47000000000E+01 0. -1.
         -5    1    3    3    0  502  0.10000610737E+03 -0.91111651699E+01  0.31640647932E+03  0.33199304962E+03  0.47000000000E+01 0. -1.
          5    1    4    4  503    0  0.28127571058E+02  0.12070653746E+02  0.15037643306E+03  0.15353182913E+03  0.47000000000E+01 0. -1.
         -5    1    4    4    0  503 -0.10459726521E+03  0.22009380011E+02  0.17822088411E+03  0.20786960872E+03  0.47000000000E+01 0. -1.
<mgrwt>
<rscale>  0 0.15044470E+03</rscale>
<asrwt>0</asrwt>
<pdfrwt beam="1">  1        5 0.10886130E+00 0.15044867E+03</pdfrwt>
<pdfrwt beam="2">  1       -5 0.49238016E-02 0.15044867E+03</pdfrwt>
<totfact> 0.12838621E+02</totfact>
</mgrwt>
</event>
<event>
 8    1  0.3754098E-007  0.1508481E+03  0.7546771E-02  0.1199438E+00
          5   -1    0    0  501    0  0.00000000000E+00  0.00000000000E+00  0.53611905398E+03  0.53613965535E+03  0.47000000000E+01 0. -1.
         -5   -1    0    0    0  501 -0.00000000000E+00 -0.00000000000E+00 -0.42391548312E+02  0.42651299725E+02  0.47000000000E+01 0. -1.
         25    2    1    2    0    0 -0.40014885077E+02  0.74341189443E+02  0.26099784594E+03  0.30145483783E+03  0.12500936042E+03 0.  0.
         25    2    1    2    0    0  0.40014885077E+02 -0.74341189443E+02  0.23272965973E+03  0.27733611724E+03  0.12499769571E+03 0.  0.
          5    1    4    4  502    0  0.78587519041E+02 -0.45785253974E+02  0.95884008819E+02  0.13224265869E+03  0.47000000000E+01 0.  1.
         -5    1    4    4    0  502 -0.38572633964E+02 -0.28555935469E+02  0.13684565091E+03  0.14509345855E+03  0.47000000000E+01 0.  1.
          5    1    3    3  503    0  0.38368229083E+02  0.46085730051E+02  0.15690376730E+03  0.16803838165E+03  0.47000000000E+01 0. -1.
         -5    1    3    3    0  503 -0.78383114160E+02  0.28255459392E+02  0.10409407864E+03  0.13341645618E+03  0.47000000000E+01 0. -1.
<mgrwt>
<rscale>  0 0.15084566E+03</rscale>
<asrwt>0</asrwt>
<pdfrwt beam="1">  1        5 0.82501424E-01 0.15084808E+03</pdfrwt>
<pdfrwt beam="2">  1       -5 0.65433420E-02 0.15084808E+03</pdfrwt>
<totfact> 0.15551856E+02</totfact>
</mgrwt>
</event>
<event>
 8    1  0.3754098E-007  0.1323441E+03  0.7546771E-02  0.1224043E+00
         -5   -1    0    0    0  501 -0.00000000000E+00  0.00000000000E+00  0.13410895345E+03  0.13419128659E+03  0.47000000000E+01 0.  1.
          5   -1    0    0  501    0  0.00000000000E+00 -0.00000000000E+00 -0.13037200168E+03  0.13045669328E+03  0.47000000000E+01 0.  1.
         25    2    1    2    0    0 -0.11412527318E+02 -0.41956417370E+02  0.15686722784E+01  0.13235339752E+03  0.12499749743E+03 0.  0.
         25    2    1    2    0    0  0.11412527318E+02  0.41956417370E+02  0.21682794919E+01  0.13229458235E+03  0.12492625162E+03 0.  0.
          5    1    4    4  502    0  0.52317615697E+02  0.23973509807E+02  0.42676375346E+02  0.71799896221E+02  0.47000000000E+01 0.  1.
         -5    1    4    4    0  502 -0.40905088379E+02  0.17982907563E+02 -0.40508095854E+02  0.60494686125E+02  0.47000000000E+01 0.  1.
          5    1    3    3  503    0 -0.21077478983E+00  0.38711924656E+02  0.26385319266E+02  0.47084313836E+02  0.47000000000E+01 0.  1.
         -5    1    3    3    0  503 -0.11201752528E+02 -0.80668342026E+02 -0.24816646988E+02  0.85269083686E+02  0.47000000000E+01 0.  1.
<mgrwt>
<rscale>  0 0.13232728E+03</rscale>
<asrwt>0</asrwt>
<pdfrwt beam="2">  1        5 0.20070079E-01 0.13234410E+03</pdfrwt>
<pdfrwt beam="1">  1       -5 0.20644995E-01 0.13234410E+03</pdfrwt>
<totfact> 0.36053273E+02</totfact>
</mgrwt>
</event>
<event>
 8    1  0.3754098E-007  0.1635185E+03  0.7546771E-02  0.1184782E+00
         -5   -1    0    0    0  501 -0.00000000000E+00  0.00000000000E+00  0.20594590522E+03  0.20599952883E+03  0.47000000000E+01 0. -1.
          5   -1    0    0  501    0  0.00000000000E+00 -0.00000000000E+00 -0.12975095984E+03  0.12983605654E+03  0.47000000000E+01 0. -1.
         25    2    1    2    0    0 -0.73925578860E+02  0.75149912558E+02  0.40882593447E+02  0.16854764817E+03  0.12499769073E+03 0.  0.
         25    2    1    2    0    0  0.73925578860E+02 -0.75149912558E+02  0.35312351940E+02  0.16728793720E+03  0.12500316463E+03 0.  0.
          5    1    4    4  502    0 -0.90115324519E+01  0.27081847014E+02 -0.53731259031E+01  0.29420989732E+02  0.47000000000E+01 0.  1.
         -5    1    4    4    0  502  0.82937111312E+02 -0.10223175957E+03  0.40685477843E+02  0.13786694747E+03  0.47000000000E+01 0.  1.
          5    1    3    3  503    0 -0.53940131439E+02  0.18384269610E+02  0.78726957004E+02  0.97301299621E+02  0.47000000000E+01 0. -1.
         -5    1    3    3    0  503 -0.19985447421E+02  0.56765642948E+02 -0.37844363557E+02  0.71246348545E+02  0.47000000000E+01 0. -1.
<mgrwt>
<rscale>  0 0.16351743E+03</rscale>
<asrwt>0</asrwt>
<pdfrwt beam="2">  1        5 0.19972357E-01 0.16351848E+03</pdfrwt>
<pdfrwt beam="1">  1       -5 0.31694656E-01 0.16351848E+03</pdfrwt>
<totfact> 0.17105018E+02</totfact>
</mgrwt>
</event>
<event>
 8    1  0.3754098E-007  0.1354368E+03  0.7546771E-02  0.1219606E+00
         -5   -1    0    0    0  501 -0.00000000000E+00  0.00000000000E+00  0.56296109768E+03  0.56298071681E+03  0.47000000000E+01 0. -1.
          5   -1    0    0  501    0  0.00000000000E+00 -0.00000000000E+00 -0.34052444502E+02  0.34375266931E+02  0.47000000000E+01 0. -1.
         25    2    1    2    0    0 -0.60815766054E+01 -0.51779511940E+02  0.33006083321E+03  0.35676590615E+03  0.12499461886E+03 0.  0.
         25    2    1    2    0    0  0.60815766054E+01  0.51779511940E+02  0.19884781997E+03  0.24059007759E+03  0.12500010599E+03 0.  0.
          5    1    4    4  502    0 -0.13988207664E+02  0.78736051535E+02  0.18896872198E+03  0.20524693335E+03  0.47000000000E+01 0. -1.
         -5    1    4    4    0  502  0.20069784269E+02 -0.26956539595E+02  0.98790979939E+01  0.35343144239E+02  0.47000000000E+01 0. -1.
          5    1    3    3  503    0  0.38220667571E+02 -0.75445924483E+02  0.21777414781E+03  0.23366766230E+03  0.47000000000E+01 0. -1.
         -5    1    3    3    0  503 -0.44302244176E+02  0.23666412543E+02  0.11228668539E+03  0.12309824385E+03  0.47000000000E+01 0. -1.
<mgrwt>
<rscale>  0 0.13543555E+03</rscale>
<asrwt>0</asrwt>
<pdfrwt beam="2">  1        5 0.52651793E-02 0.13543681E+03</pdfrwt>
<pdfrwt beam="1">  1       -5 0.86635741E-01 0.13543681E+03</pdfrwt>
<totfact> 0.19287458E+02</totfact>
</mgrwt>
</event>
<event>
 8    1  0.3754098E-007  0.1341004E+03  0.7546771E-02  0.1221499E+00
          5   -1    0    0  501    0  0.00000000000E+00  0.00000000000E+00  0.20688557477E+03  0.20693895488E+03  0.47000000000E+01 0.  1.
         -5   -1    0    0    0  501 -0.00000000000E+00 -0.00000000000E+00 -0.86957061777E+02  0.87083985858E+02  0.47000000000E+01 0.  1.
         25    2    1    2    0    0  0.54615634889E+01 -0.48226051450E+02  0.66459471299E+02  0.14966557887E+03  0.12500937348E+03 0.  0.
         25    2    1    2    0    0 -0.54615634889E+01  0.48226051450E+02  0.53469041694E+02  0.14435736187E+03  0.12499811516E+03 0.  0.
          5    1    3    3  502    0  0.39040544113E+02 -0.74372714206E+02  0.65865061671E+02  0.10684456492E+03  0.47000000000E+01 0. -1.
         -5    1    3    3    0  502 -0.33578980624E+02  0.26146662756E+02  0.59440962775E+00  0.42821013952E+02  0.47000000000E+01 0. -1.
          5    1    4    4  503    0  0.56337680651E+02  0.29642634011E+01  0.15288725164E+02  0.58639203915E+02  0.47000000000E+01 0. -1.
         -5    1    4    4    0  503 -0.61799244139E+02  0.45261788048E+02  0.38180316530E+02  0.85718157959E+02  0.47000000000E+01 0. -1.
<mgrwt>
<rscale>  0 0.13409780E+03</rscale>
<asrwt>0</asrwt>
<pdfrwt beam="1">  1        5 0.31842420E-01 0.13410043E+03</pdfrwt>
<pdfrwt beam="2">  1       -5 0.13391879E-01 0.13410043E+03</pdfrwt>
<totfact> 0.32966404E+02</totfact>
</mgrwt>
</event>
<event>
 8    1  0.3754098E-007  0.1349070E+03  0.7546771E-02  0.1220352E+00
          5   -1    0    0  501    0  0.00000000000E+00  0.00000000000E+00  0.54149185022E+02  0.54352775813E+02  0.47000000000E+01 0.  1.
         -5   -1    0    0    0  501 -0.00000000000E+00 -0.00000000000E+00 -0.35194466856E+03  0.35197604994E+03  0.47000000000E+01 0.  1.
         25    2    1    2    0    0 -0.47150687161E+02  0.18703473292E+02 -0.19313045888E+03  0.23558283195E+03  0.12500755717E+03 0.  0.
         25    2    1    2    0    0  0.47150687161E+02 -0.18703473292E+02 -0.10466502466E+03  0.17074599380E+03  0.12500567906E+03 0.  0.
          5    1    3    3  502    0  0.44587163632E+01 -0.18707011368E+02  0.10322425780E+02  0.22326551456E+02  0.47000000000E+01 0.  1.
         -5    1    3    3    0  502 -0.51609403524E+02  0.37410484661E+02 -0.20345288466E+03  0.21325628050E+03  0.47000000000E+01 0.  1.
          5    1    4    4  503    0  0.78383646383E+02  0.23680596591E+02 -0.61896571052E+02  0.10275233420E+03  0.47000000000E+01 0. -1.
         -5    1    4    4    0  503 -0.31232959222E+02 -0.42384069883E+02 -0.42768453606E+02  0.67993659597E+02  0.47000000000E+01 0. -1.
<mgrwt>
<rscale>  0 0.13490656E+03</rscale>
<asrwt>0</asrwt>
<pdfrwt beam="1">  1        5 0.83487188E-02 0.13490699E+03</pdfrwt>
<pdfrwt beam="2">  1       -5 0.54163407E-01 0.13490699E+03</pdfrwt>
<totfact> 0.25347305E+02</totfact>
</mgrwt>
</event>
<event>
 8    1  0.3754098E-007  0.1426403E+03  0.7546771E-02  0.1209821E+00
         -5   -1    0    0    0  501 -0.00000000000E+00  0.00000000000E+00  0.17005407869E+02  0.17642956011E+02  0.47000000000E+01 0. -1.
          5   -1    0    0  501    0  0.00000000000E+00 -0.00000000000E+00 -0.11820202286E+04  0.11820295728E+04  0.47000000000E+01 0. -1.
         25    2    1    2    0    0 -0.39094570955E+00 -0.68714133886E+02 -0.53242074186E+03  0.55119620985E+03  0.12499452131E+03 0.  0.
         25    2    1    2    0    0  0.39094570955E+00  0.68714133886E+02 -0.63259407892E+03  0.64847631894E+03  0.12499793002E+03 0.  0.
          5    1    3    3  502    0  0.41049574948E+01 -0.96447672466E+02 -0.26162504886E+03  0.27890636492E+03  0.47000000000E+01 0.  1.
         -5    1    3    3    0  502 -0.44959032043E+01  0.27733538580E+02 -0.27079569299E+03  0.27228984493E+03  0.47000000000E+01 0.  1.
          5    1    4    4  503    0  0.49187262743E+02  0.14478345999E+02 -0.11839925777E+03  0.12911035419E+03  0.47000000000E+01 0. -1.
         -5    1    4    4    0  503 -0.48796317033E+02  0.54235787887E+02 -0.51419482115E+03  0.51936596475E+03  0.47000000000E+01 0. -1.
<mgrwt>
<rscale>  0 0.14263960E+03</rscale>
<asrwt>0</asrwt>
<pdfrwt beam="2">  1        5 0.18189896E+00 0.14264034E+03</pdfrwt>
<pdfrwt beam="1">  1       -5 0.26659785E-02 0.14264034E+03</pdfrwt>
<totfact> 0.86418278E+01</totfact>
</mgrwt>
</event>
<event>
 8    1  0.3754098E-007  0.1781015E+03  0.7546771E-02  0.1169658E+00
         -5   -1    0    0    0  501 -0.00000000000E+00  0.00000000000E+00  0.45828490317E+03  0.45830900327E+03  0.47000000000E+01 0. -1.
          5   -1    0    0  501    0  0.00000000000E+00 -0.00000000000E+00 -0.95629804222E+02  0.95745232025E+02  0.47000000000E+01 0. -1.
         25    2    1    2    0    0 -0.12556708761E+03 -0.18016890803E+02  0.32712083744E+03  0.37246232321E+03  0.12501375155E+03 0.  0.
         25    2    1    2    0    0  0.12556708761E+03  0.18016890803E+02  0.35534261508E+02  0.18159191208E+03  0.12498494689E+03 0.  0.
          5    1    3    3  502    0 -0.13887515374E+03 -0.20916788700E+02  0.32916994404E+03  0.35790887449E+03  0.47000000000E+01 0. -1.
         -5    1    3    3    0  502  0.13308066129E+02  0.28998978976E+01 -0.20491065975E+01  0.14553448723E+02  0.47000000000E+01 0. -1.
          5    1    4    4  503    0  0.11632511007E+03  0.17220976287E+01 -0.24106273638E+02  0.11890205751E+03  0.47000000000E+01 0.  1.
         -5    1    4    4    0  503  0.92419775453E+01  0.16294793174E+02  0.59640535146E+02  0.62689854570E+02  0.47000000000E+01 0.  1.
<mgrwt>
<rscale>  0 0.17809643E+03</rscale>
<asrwt>0</asrwt>
<pdfrwt beam="2">  1        5 0.14723011E-01 0.17810149E+03</pdfrwt>
<pdfrwt beam="1">  1       -5 0.70516103E-01 0.17810149E+03</pdfrwt>
<totfact> 0.56724770E+01</totfact>
</mgrwt>
</event>
<event>
 8    1  0.3754098E-007  0.2231445E+03  0.7546771E-02  0.1131563E+00
          5   -1    0    0  501    0  0.00000000000E+00  0.00000000000E+00  0.16769347922E+03  0.16775933051E+03  0.47000000000E+01 0.  1.
         -5   -1    0    0    0  501 -0.00000000000E+00 -0.00000000000E+00 -0.31979862364E+03  0.31983315913E+03  0.47000000000E+01 0.  1.
         25    2    1    2    0    0 -0.54536661679E+02 -0.17659958454E+03 -0.14146563145E+03  0.26419446352E+03  0.12499811578E+03 0.  0.
         25    2    1    2    0    0  0.54536661679E+02  0.17659958454E+03 -0.10639512971E+02  0.22339802612E+03  0.12502726947E+03 0.  0.
          5    1    3    3  502    0 -0.44917182465E+02 -0.86959524593E+02 -0.14365377170E+03  0.17389079424E+03  0.47000000000E+01 0.  1.
         -5    1    3    3    0  502 -0.96194792134E+01 -0.89640059946E+02  0.21881402542E+01  0.90303669279E+02  0.47000000000E+01 0.  1.
          5    1    4    4  503    0  0.70448859323E+00 -0.81553924299E+01 -0.28551444946E+02  0.30071277631E+02  0.47000000000E+01 0. -1.
         -5    1    4    4    0  503  0.53832173085E+02  0.18475497697E+03  0.17911931975E+02  0.19332674849E+03  0.47000000000E+01 0. -1.
<mgrwt>
<rscale>  0 0.22314044E+03</rscale>
<asrwt>0</asrwt>
<pdfrwt beam="1">  1        5 0.25806719E-01 0.22314452E+03</pdfrwt>
<pdfrwt beam="2">  1       -5 0.49207510E-01 0.22314452E+03</pdfrwt>
<totfact> 0.46361736E+01</totfact>
</mgrwt>
</event>
<event>
 8    1  0.3754098E-007  0.1469400E+03  0.7546771E-02  0.1204288E+00
          5   -1    0    0  501    0  0.00000000000E+00  0.00000000000E+00  0.28849340663E+03  0.28853168920E+03  0.47000000000E+01 0.  1.
         -5   -1    0    0    0  501 -0.00000000000E+00 -0.00000000000E+00 -0.86183028348E+02  0.86311090685E+02  0.47000000000E+01 0.  1.
         25    2    1    2    0    0 -0.21377321061E+01 -0.77209589067E+02  0.32866707786E+02  0.15056051381E+03  0.12498942873E+03 0.  0.
         25    2    1    2    0    0  0.21377321061E+01  0.77209589067E+02  0.16944367050E+03  0.22428226607E+03  0.12500194743E+03 0.  0.
          5    1    4    4  502    0  0.12231069671E+02  0.91183136581E+02  0.18093725227E+03  0.20303778643E+03  0.47000000000E+01 0.  1.
         -5    1    4    4    0  502 -0.10093337565E+02 -0.13973547514E+02 -0.11493581767E+02  0.21244479640E+02  0.47000000000E+01 0.  1.
          5    1    3    3  503    0 -0.54600122810E+02 -0.14613929760E+02 -0.10938554847E+02  0.57762291645E+02  0.47000000000E+01 0.  1.
         -5    1    3    3    0  503  0.52462390704E+02 -0.62595659307E+02  0.43805262632E+02  0.92798222163E+02  0.47000000000E+01 0.  1.
<mgrwt>
<rscale>  0 0.14693738E+03</rscale>
<asrwt>0</asrwt>
<pdfrwt beam="1">  1        5 0.44396397E-01 0.14694005E+03</pdfrwt>
<pdfrwt beam="2">  1       -5 0.13271723E-01 0.14694005E+03</pdfrwt>
<totfact> 0.17611540E+02</totfact>
</mgrwt>
</event>
<event>
 8    1  0.3754098E-007  0.1359911E+03  0.7546771E-02  0.1218828E+00
         -5   -1    0    0    0  501 -0.00000000000E+00  0.00000000000E+00  0.15218522934E+02  0.15927756914E+02  0.47000000000E+01 0. -1.
          5   -1    0    0  501    0  0.00000000000E+00 -0.00000000000E+00 -0.12062636027E+04  0.12062727590E+04  0.47000000000E+01 0. -1.
         25    2    1    2    0    0 -0.31397625044E+02  0.43393219564E+02 -0.67315386144E+03  0.68675301574E+03  0.12499920441E+03 0.  0.
         25    2    1    2    0    0  0.31397625044E+02 -0.43393219564E+02 -0.51789121828E+03  0.53544750016E+03  0.12499571630E+03 0.  0.
          5    1    4    4  502    0  0.52637490360E+02 -0.44370195398E+02 -0.50590843978E+03  0.51059265474E+03  0.47000000000E+01 0. -1.
         -5    1    4    4    0  502 -0.21239865316E+02  0.97697583392E+00 -0.11982778498E+02  0.24854845422E+02  0.47000000000E+01 0. -1.
          5    1    3    3  503    0 -0.29323821637E+02  0.42110471580E+02 -0.91011863203E+02  0.10458693788E+03  0.47000000000E+01 0.  1.
         -5    1    3    3    0  503 -0.20738034077E+01  0.12827479836E+01 -0.58214199823E+03  0.58216607786E+03  0.47000000000E+01 0.  1.
<mgrwt>
<rscale>  0 0.13599031E+03</rscale>
<asrwt>0</asrwt>
<pdfrwt beam="2">  1        5 0.18563420E+00 0.13599112E+03</pdfrwt>
<pdfrwt beam="1">  1       -5 0.23965730E-02 0.13599112E+03</pdfrwt>
<totfact> 0.95129419E+01</totfact>
</mgrwt>
</event>
<event>
 8    1  0.3754098E-007  0.1469682E+03  0.7546771E-02  0.1204250E+00
         -5   -1    0    0    0  501 -0.00000000000E+00  0.00000000000E+00  0.38617811755E+03  0.38620671728E+03  0.47000000000E+01 0.  1.
          5   -1    0    0  501    0  0.00000000000E+00 -0.00000000000E+00 -0.68093408490E+02  0.68255419417E+02  0.47000000000E+01 0.  1.
         25    2    1    2    0    0 -0.69231151930E+02  0.34376630456E+02  0.25544340805E+03  0.29470492185E+03  0.12499980451E+03 0.  0.
         25    2    1    2    0    0  0.69231151930E+02 -0.34376630456E+02  0.62641301011E+02  0.15975721485E+03  0.12499491984E+03 0.  0.
          5    1    3    3  502    0  0.15603928178E+02 -0.27956821371E+02  0.11285613753E+03  0.11740385093E+03  0.47000000000E+01 0.  1.
         -5    1    3    3    0  502 -0.84835080109E+02  0.62333451827E+02  0.14258727052E+03  0.17730107092E+03  0.47000000000E+01 0.  1.
          5    1    4    4  503    0  0.98557397448E+02 -0.35035308552E+02  0.18160753316E+02  0.10626822854E+03  0.47000000000E+01 0.  1.
         -5    1    4    4    0  503 -0.29326245517E+02  0.65867809623E+00  0.44480547695E+02  0.53488986308E+02  0.47000000000E+01 0.  1.
<mgrwt>
<rscale>  0 0.14696718E+03</rscale>
<asrwt>0</asrwt>
<pdfrwt beam="2">  1        5 0.10490572E-01 0.14696822E+03</pdfrwt>
<pdfrwt beam="1">  1       -5 0.59426679E-01 0.14696822E+03</pdfrwt>
<totfact> 0.14346148E+02</totfact>
</mgrwt>
</event>
<event>
 8    1  0.3754098E-007  0.1551551E+03  0.7546771E-02  0.1194278E+00
          5   -1    0    0  501    0  0.00000000000E+00  0.00000000000E+00  0.76391758730E+03  0.76393204553E+03  0.47000000000E+01 0.  1.
         -5   -1    0    0    0  501 -0.00000000000E+00 -0.00000000000E+00 -0.34592691597E+02  0.34910518643E+02  0.47000000000E+01 0.  1.
         25    2    1    2    0    0  0.48541887541E+02  0.78044805263E+02  0.24246682561E+03  0.28785980517E+03  0.12500319771E+03 0.  0.
         25    2    1    2    0    0 -0.48541887541E+02 -0.78044805263E+02  0.48685807010E+03  0.51098275901E+03  0.12500117242E+03 0.  0.
          5    1    4    4  502    0 -0.60086955099E+02 -0.10733539287E+03  0.37537883700E+03  0.39504770599E+03  0.47000000000E+01 0. -1.
         -5    1    4    4    0  502  0.11545067558E+02  0.29290587605E+02  0.11147923310E+03  0.11593505302E+03  0.47000000000E+01 0. -1.
          5    1    3    3  503    0  0.21855003180E+02 -0.31824746704E+02  0.89502895871E+02  0.97587468643E+02  0.47000000000E+01 0. -1.
         -5    1    3    3    0  503  0.26686884361E+02  0.10986955197E+03  0.15296392973E+03  0.19027233652E+03  0.47000000000E+01 0. -1.
<mgrwt>
<rscale>  0 0.15515469E+03</rscale>
<asrwt>0</asrwt>
<pdfrwt beam="1">  1        5 0.11755134E+00 0.15515510E+03</pdfrwt>
<pdfrwt beam="2">  1       -5 0.53475130E-02 0.15515510E+03</pdfrwt>
<totfact> 0.93177803E+01</totfact>
</mgrwt>
</event>
<event>
 8    1  0.3754098E-007  0.1878466E+03  0.7546771E-02  0.1160419E+00
          5   -1    0    0  501    0  0.00000000000E+00  0.00000000000E+00  0.32167999979E+02  0.32509540487E+02  0.47000000000E+01 0.  1.
         -5   -1    0    0    0  501 -0.00000000000E+00 -0.00000000000E+00 -0.11339828751E+04  0.11339926151E+04  0.47000000000E+01 0.  1.
         25    2    1    2    0    0 -0.13985374095E+03  0.10106750123E+02 -0.66473891709E+03  0.69077071203E+03  0.12500053380E+03 0.  0.
         25    2    1    2    0    0  0.13985374095E+03 -0.10106750123E+02 -0.43707595808E+03  0.47573144357E+03  0.12499519195E+03 0.  0.
          5    1    4    4  502    0  0.31934405424E+02 -0.39315073753E+02 -0.44721634583E+02  0.67731793670E+02  0.47000000000E+01 0.  1.
         -5    1    4    4    0  502  0.10791933553E+03  0.29208323629E+02 -0.39235432350E+03  0.40799964990E+03  0.47000000000E+01 0.  1.
          5    1    3    3  503    0 -0.29722227354E+02  0.59458968196E+02 -0.21440170326E+03  0.22451939796E+03  0.47000000000E+01 0. -1.
         -5    1    3    3    0  503 -0.11013151360E+03 -0.49352218073E+02 -0.45033721383E+03  0.46625131407E+03  0.47000000000E+01 0. -1.
<mgrwt>
<rscale>  0 0.18784572E+03</rscale>
<asrwt>0</asrwt>
<pdfrwt beam="1">  1        5 0.49759455E-02 0.18784661E+03</pdfrwt>
<pdfrwt beam="2">  1       -5 0.17448589E+00 0.18784661E+03</pdfrwt>
<totfact> 0.37915849E+01</totfact>
</mgrwt>
</event>
<event>
 8    1  0.3754098E-007  0.1354207E+03  0.7546771E-02  0.1219631E+00
          5   -1    0    0  501    0  0.00000000000E+00  0.00000000000E+00  0.38385644494E+03  0.38388521764E+03  0.47000000000E+01 0. -1.
         -5   -1    0    0    0  501 -0.00000000000E+00 -0.00000000000E+00 -0.52258615873E+02  0.52469542908E+02  0.47000000000E+01 0. -1.
         25    2    1    2    0    0  0.52093350315E+02 -0.67481705325E+00  0.10099352359E+03  0.16893330160E+03  0.12499838422E+03 0.  0.
         25    2    1    2    0    0 -0.52093350315E+02  0.67481705325E+00  0.23060430548E+03  0.26742145895E+03  0.12498687322E+03 0.  0.
          5    1    3    3  502    0  0.88835190157E+02  0.18568833788E+02  0.52510043828E+02  0.10495659723E+03  0.47000000000E+01 0.  1.
         -5    1    3    3    0  502 -0.36741839842E+02 -0.19243650841E+02  0.48483479761E+02  0.63976704373E+02  0.47000000000E+01 0.  1.
          5    1    4    4  503    0 -0.18269357636E+02 -0.52226425393E+02  0.17437596589E+03  0.18300392460E+03  0.47000000000E+01 0.  1.
         -5    1    4    4    0  503 -0.33823992679E+02  0.52901242446E+02  0.56228339583E+02  0.84417534348E+02  0.47000000000E+01 0.  1.
<mgrwt>
<rscale>  0 0.13541805E+03</rscale>
<asrwt>0</asrwt>
<pdfrwt beam="1">  1        5 0.59073273E-01 0.13542071E+03</pdfrwt>
<pdfrwt beam="2">  1       -5 0.80582260E-02 0.13542071E+03</pdfrwt>
<totfact> 0.22352986E+02</totfact>
</mgrwt>
</event>
<event>
 8    1  0.3754098E-007  0.1521494E+03  0.7546771E-02  0.1197859E+00
         -5   -1    0    0    0  501 -0.00000000000E+00  0.00000000000E+00  0.79018667926E+02  0.79158321614E+02  0.47000000000E+01 0. -1.
          5   -1    0    0  501    0  0.00000000000E+00 -0.00000000000E+00 -0.30172304979E+03  0.30175965399E+03  0.47000000000E+01 0. -1.
         25    2    1    2    0    0  0.92008929550E+01  0.86237000836E+02 -0.78110134297E+02  0.17102052442E+03  0.12500139979E+03 0.  0.
         25    2    1    2    0    0 -0.92008929550E+01 -0.86237000836E+02 -0.14459424757E+03  0.20989745118E+03  0.12501186679E+03 0.  0.
          5    1    3    3  502    0 -0.19696879538E+02  0.20817744153E+01  0.26622522555E+02  0.33513423511E+02  0.47000000000E+01 0.  1.
         -5    1    3    3    0  502  0.28897772493E+02  0.84155226421E+02 -0.10473265685E+03  0.13750710091E+03  0.47000000000E+01 0.  1.
          5    1    4    4  503    0  0.22958999576E+02 -0.98394723116E+02 -0.14300462282E+03  0.17516006778E+03  0.47000000000E+01 0.  1.
         -5    1    4    4    0  503 -0.32159892531E+02  0.12157722280E+02 -0.15896247506E+01  0.34737383400E+02  0.47000000000E+01 0.  1.
<mgrwt>
<rscale>  0 0.15214726E+03</rscale>
<asrwt>0</asrwt>
<pdfrwt beam="2">  1        5 0.46432488E-01 0.15214941E+03</pdfrwt>
<pdfrwt beam="1">  1       -5 0.12170277E-01 0.15214941E+03</pdfrwt>
<totfact> 0.18932230E+02</totfact>
</mgrwt>
</event>
<event>
 8    1  0.3754098E-007  0.1253801E+03  0.7546771E-02  0.1234480E+00
          5   -1    0    0  501    0  0.00000000000E+00  0.00000000000E+00  0.99500234390E+02  0.99611177302E+02  0.47000000000E+01 0.  1.
         -5   -1    0    0    0  501 -0.00000000000E+00 -0.00000000000E+00 -0.16672790778E+03  0.16679414029E+03  0.47000000000E+01 0.  1.
         25    2    1    2    0    0 -0.65686199005E+01  0.71584187039E+01 -0.64510915683E+02  0.14099577495E+03  0.12499504225E+03 0.  0.
         25    2    1    2    0    0  0.65686199005E+01 -0.71584187039E+01 -0.27167577107E+01  0.12540954264E+03  0.12500313151E+03 0.  0.
          5    1    3    3  502    0 -0.33786328940E+02 -0.19952871062E+02 -0.87478755819E+02  0.95990915229E+02  0.47000000000E+01 0.  1.
         -5    1    3    3    0  502  0.27217709039E+02  0.27111289766E+02  0.22967840136E+02  0.45004859723E+02  0.47000000000E+01 0.  1.
          5    1    4    4  503    0 -0.28274307757E+02 -0.42774575355E+02 -0.38155676519E+02  0.64086242101E+02  0.47000000000E+01 0.  1.
         -5    1    4    4    0  503  0.34842927657E+02  0.35616156651E+02  0.35438918809E+02  0.61323300536E+02  0.47000000000E+01 0.  1.
<mgrwt>
<rscale>  0 0.12537810E+03</rscale>
<asrwt>0</asrwt>
<pdfrwt beam="1">  1        5 0.15321357E-01 0.12538011E+03</pdfrwt>
<pdfrwt beam="2">  1       -5 0.25664076E-01 0.12538011E+03</pdfrwt>
<totfact> 0.38428103E+02</totfact>
</mgrwt>
</event>
<event>
 8    1  0.3754098E-007  0.1793242E+03  0.7546771E-02  0.1168460E+00
         -5   -1    0    0    0  501 -0.00000000000E+00  0.00000000000E+00  0.18225528235E+02  0.18821792674E+02  0.47000000000E+01 0. -1.
          5   -1    0    0  501    0  0.00000000000E+00 -0.00000000000E+00 -0.18471055990E+04  0.18471115786E+04  0.47000000000E+01 0. -1.
         25    2    1    2    0    0 -0.12661471738E+03  0.22381544864E+02 -0.68498866204E+03  0.70807123457E+03  0.12499274336E+03 0.  0.
         25    2    1    2    0    0  0.12661471738E+03 -0.22381544864E+02 -0.11438914087E+04  0.11578621367E+04  0.12499980995E+03 0.  0.
          5    1    4    4  502    0  0.11810630945E+03  0.87679987454E+00 -0.51196968290E+03  0.52543783202E+03  0.47000000000E+01 0. -1.
         -5    1    4    4    0  502  0.85084079340E+01 -0.23258344738E+02 -0.63192172585E+03  0.63242430472E+03  0.47000000000E+01 0. -1.
          5    1    3    3  503    0 -0.90660291210E+02  0.50452301096E+02 -0.25060944611E+03  0.27127828436E+03  0.47000000000E+01 0. -1.
         -5    1    3    3    0  503 -0.35954426172E+02 -0.28070756233E+02 -0.43437921593E+03  0.43679295020E+03  0.47000000000E+01 0. -1.
<mgrwt>
<rscale>  0 0.17932298E+03</rscale>
<asrwt>0</asrwt>
<pdfrwt beam="2">  1        5 0.28421627E+00 0.17932421E+03</pdfrwt>
<pdfrwt beam="1">  1       -5 0.28502554E-02 0.17932421E+03</pdfrwt>
<totfact> 0.17617153E+01</totfact>
</mgrwt>
</event>
<event>
 8    1  0.3754098E-007  0.1284134E+03  0.7546771E-02  0.1229831E+00
          5   -1    0    0  501    0  0.00000000000E+00  0.00000000000E+00  0.10470866205E+04  0.10470971687E+04  0.47000000000E+01 0.  1.
         -5   -1    0    0    0  501 -0.00000000000E+00 -0.00000000000E+00 -0.15423660502E+02  0.16123873706E+02  0.47000000000E+01 0.  1.
         25    2    1    2    0    0 -0.17968385315E+02 -0.23281270387E+02  0.54145492096E+03  0.55647410918E+03  0.12500048934E+03 0.  0.
         25    2    1    2    0    0  0.17968385315E+02  0.23281270387E+02  0.49020803899E+03  0.50674693324E+03  0.12499460963E+03 0.  0.
          5    1    4    4  502    0  0.62927290686E+02 -0.59618338127E+01  0.36488065720E+03  0.37034493567E+03  0.47000000000E+01 0. -1.
         -5    1    4    4    0  502 -0.44958905371E+02  0.29243104200E+02  0.12532738179E+03  0.13640199757E+03  0.47000000000E+01 0. -1.
          5    1    3    3  503    0  0.49468527924E+02 -0.32483977135E+02  0.28353910939E+03  0.28968752230E+03  0.47000000000E+01 0. -1.
         -5    1    3    3    0  503 -0.67436913239E+02  0.92027067478E+01  0.25791581158E+03  0.26678658688E+03  0.47000000000E+01 0. -1.
<mgrwt>
<rscale>  0 0.12841197E+03</rscale>
<asrwt>0</asrwt>
<pdfrwt beam="1">  1        5 0.16114493E+00 0.12841341E+03</pdfrwt>
<pdfrwt beam="2">  1       -5 0.24275447E-02 0.12841341E+03</pdfrwt>
<totfact> 0.13774418E+02</totfact>
</mgrwt>
</event>
<event>
 8    1  0.3754098E-007  0.1590630E+03  0.7546771E-02  0.1189762E+00
          5   -1    0    0  501    0  0.00000000000E+00  0.00000000000E+00  0.44995058955E+03  0.44997513602E+03  0.47000000000E+01 0.  1.
         -5   -1    0    0    0  501 -0.00000000000E+00 -0.00000000000E+00 -0.66644718373E+02  0.66810242381E+02  0.47000000000E+01 0.  1.
         25    2    1    2    0    0  0.19172300499E+02  0.96462144652E+02  0.89047325470E+02  0.18229225025E+03  0.12501406269E+03 0.  0.
         25    2    1    2    0    0 -0.19172300499E+02 -0.96462144652E+02  0.29425854571E+03  0.33449312815E+03  0.12500015441E+03 0.  0.
          5    1    4    4  502    0 -0.58847823625E+02 -0.30851175459E+02  0.66477153887E+02  0.94107190807E+02  0.47000000000E+01 0. -1.
         -5    1    4    4    0  502  0.39675523126E+02 -0.65610969193E+02  0.22778139182E+03  0.24038593735E+03  0.47000000000E+01 0. -1.
          5    1    3    3  503    0  0.23328746433E+02 -0.22679860932E+02  0.43639860624E+02  0.54636379248E+02  0.47000000000E+01 0. -1.
         -5    1    3    3    0  503 -0.41564459341E+01  0.11914200558E+03  0.45407464846E+02  0.12765587100E+03  0.47000000000E+01 0. -1.
<mgrwt>
<rscale>  0 0.15906027E+03</rscale>
<asrwt>0</asrwt>
<pdfrwt beam="1">  1        5 0.69237787E-01 0.15906300E+03</pdfrwt>
<pdfrwt beam="2">  1       -5 0.10267655E-01 0.15906300E+03</pdfrwt>
<totfact> 0.10881162E+02</totfact>
</mgrwt>
</event>
<event>
 8    1  0.3754098E-007  0.1513207E+03  0.7546771E-02  0.1198865E+00
          5   -1    0    0  501    0  0.00000000000E+00  0.00000000000E+00  0.13158966408E+03  0.13167357249E+03  0.47000000000E+01 0. -1.
         -5   -1    0    0    0  501 -0.00000000000E+00 -0.00000000000E+00 -0.17455386743E+03  0.17461713156E+03  0.47000000000E+01 0. -1.
         25    2    1    2    0    0  0.85227448669E+02  0.28235060053E+01 -0.31418633578E+02  0.15454796457E+03  0.12500501039E+03 0.  0.
         25    2    1    2    0    0 -0.85227448669E+02 -0.28235060053E+01 -0.11545569766E+02  0.15174273949E+03  0.12498347336E+03 0.  0.
          5    1    4    4  502    0 -0.84635556143E+02 -0.41203984282E+02  0.26075555845E+02  0.97790440723E+02  0.47000000000E+01 0.  1.
         -5    1    4    4    0  502 -0.59189252623E+00  0.38380478276E+02 -0.37621125611E+02  0.53952298762E+02  0.47000000000E+01 0.  1.
          5    1    3    3  503    0  0.68418975921E+02  0.31589175439E+02  0.32586884850E+02  0.82237627247E+02  0.47000000000E+01 0. -1.
         -5    1    3    3    0  503  0.16808472748E+02 -0.28765669434E+02 -0.64005518428E+02  0.72310337320E+02  0.47000000000E+01 0. -1.
<mgrwt>
<rscale>  0 0.15131621E+03</rscale>
<asrwt>0</asrwt>
<pdfrwt beam="1">  1        5 0.20255885E-01 0.15132066E+03</pdfrwt>
<pdfrwt beam="2">  1       -5 0.26865762E-01 0.15132066E+03</pdfrwt>
<totfact> 0.22466198E+02</totfact>
</mgrwt>
</event>
<event>
 8    1  0.3754098E-007  0.1386619E+03  0.7546771E-02  0.1215144E+00
         -5   -1    0    0    0  501 -0.00000000000E+00  0.00000000000E+00  0.85781345516E+02  0.85910006626E+02  0.47000000000E+01 0.  1.
          5   -1    0    0  501    0  0.00000000000E+00 -0.00000000000E+00 -0.27351518481E+03  0.27355556350E+03  0.47000000000E+01 0.  1.
         25    2    1    2    0    0 -0.58947568382E+02 -0.11408699842E+02 -0.17265490558E+02  0.13972351326E+03  0.12497835310E+03 0.  0.
         25    2    1    2    0    0  0.58947568382E+02  0.11408699842E+02 -0.17046834873E+03  0.21974205687E+03  0.12498855702E+03 0.  0.
          5    1    3    3  502    0 -0.15802201950E+02 -0.15521878586E+02 -0.68678821256E+02  0.72315342704E+02  0.47000000000E+01 0. -1.
         -5    1    3    3    0  502 -0.43145366432E+02  0.41131787446E+01  0.51413330697E+02  0.67408170553E+02  0.47000000000E+01 0. -1.
          5    1    4    4  503    0  0.11453580122E+02 -0.15369818670E+02  0.16001435021E+02  0.25407710371E+02  0.47000000000E+01 0.  1.
         -5    1    4    4    0  503  0.47493988260E+02  0.26778518512E+02 -0.18646978375E+03  0.19433434649E+03  0.47000000000E+01 0.  1.
<mgrwt>
<rscale>  0 0.13865957E+03</rscale>
<asrwt>0</asrwt>
<pdfrwt beam="2">  1        5 0.42092262E-01 0.13866187E+03</pdfrwt>
<pdfrwt beam="1">  1       -5 0.13210133E-01 0.13866187E+03</pdfrwt>
<totfact> 0.19454885E+02</totfact>
</mgrwt>
</event>
<event>
 8    1  0.3754098E-007  0.1278154E+03  0.7546771E-02  0.1230741E+00
          5   -1    0    0  501    0  0.00000000000E+00  0.00000000000E+00  0.95111547078E+02  0.95227603075E+02  0.47000000000E+01 0.  1.
         -5   -1    0    0    0  501 -0.00000000000E+00 -0.00000000000E+00 -0.17256126289E+03  0.17262525728E+03  0.47000000000E+01 0.  1.
         25    2    1    2    0    0 -0.84530680867E+01  0.25251801695E+02 -0.49302531978E+02  0.13699462325E+03  0.12501071671E+03 0.  0.
         25    2    1    2    0    0  0.84530680867E+01 -0.25251801695E+02 -0.28147183838E+02  0.13085823710E+03  0.12499002525E+03 0.  0.
          5    1    3    3  502    0  0.52415220668E+01  0.75217099922E+02 -0.33378421146E+02  0.82591129502E+02  0.47000000000E+01 0.  1.
         -5    1    3    3    0  502 -0.13694590154E+02 -0.49965298227E+02 -0.15924110832E+02  0.54403493750E+02  0.47000000000E+01 0.  1.
          5    1    4    4  503    0 -0.38409373508E+02  0.96223280734E+01 -0.53733807358E+02  0.66912489298E+02  0.47000000000E+01 0.  1.
         -5    1    4    4    0  503  0.46862441595E+02 -0.34874129769E+02  0.25586623520E+02  0.63945747806E+02  0.47000000000E+01 0.  1.
<mgrwt>
<rscale>  0 0.12781038E+03</rscale>
<asrwt>0</asrwt>
<pdfrwt beam="1">  1        5 0.14646396E-01 0.12781544E+03</pdfrwt>
<pdfrwt beam="2">  1       -5 0.26561737E-01 0.12781544E+03</pdfrwt>
<totfact> 0.39300078E+02</totfact>
</mgrwt>
</event>
<event>
 8    1  0.3754098E-007  0.1436426E+03  0.7546771E-02  0.1208510E+00
         -5   -1    0    0    0  501 -0.00000000000E+00  0.00000000000E+00  0.18288604074E+04  0.18288664467E+04  0.47000000000E+01 0.  1.
          5   -1    0    0  501    0  0.00000000000E+00 -0.00000000000E+00 -0.11036424786E+02  0.11995527169E+02  0.47000000000E+01 0.  1.
         25    2    1    2    0    0  0.67486888574E+02  0.21298169874E+02  0.10417741949E+04  0.10516304858E+04  0.12500045304E+03 0.  0.
         25    2    1    2    0    0 -0.67486888574E+02 -0.21298169874E+02  0.77604978772E+03  0.78923148808E+03  0.12499990635E+03 0.  0.
          5    1    4    4  502    0 -0.40177380696E+02  0.98282325299E+00  0.60412649834E+02  0.72711526742E+02  0.47000000000E+01 0. -1.
         -5    1    4    4    0  502 -0.27309507878E+02 -0.22280993127E+02  0.71563713788E+03  0.71651996133E+03  0.47000000000E+01 0. -1.
          5    1    3    3  503    0 -0.21154990807E+02 -0.32283194685E+02  0.34499035331E+03  0.34717455577E+03  0.47000000000E+01 0.  1.
         -5    1    3    3    0  503  0.88641879381E+02  0.53581364559E+02  0.69678384160E+03  0.70445593001E+03  0.47000000000E+01 0.  1.
<mgrwt>
<rscale>  0 0.14364251E+03</rscale>
<asrwt>0</asrwt>
<pdfrwt beam="2">  1        5 0.17721551E-02 0.14364263E+03</pdfrwt>
<pdfrwt beam="1">  1       -5 0.28143707E+00 0.14364263E+03</pdfrwt>
<totfact> 0.37255537E+01</totfact>
</mgrwt>
</event>
<event>
 8    1  0.3754098E-007  0.1317626E+03  0.7546771E-02  0.1224865E+00
         -5   -1    0    0    0  501 -0.00000000000E+00  0.00000000000E+00  0.26919859470E+02  0.27327071447E+02  0.47000000000E+01 0.  1.
          5   -1    0    0  501    0  0.00000000000E+00 -0.00000000000E+00 -0.64188631744E+03  0.64190352431E+03  0.47000000000E+01 0.  1.
         25    2    1    2    0    0 -0.40460450239E+02 -0.99288112226E+01 -0.32723167792E+03  0.35276149740E+03  0.12499789473E+03 0.  0.
         25    2    1    2    0    0  0.40460450239E+02  0.99288112226E+01 -0.28773478005E+03  0.31646909835E+03  0.12500302891E+03 0.  0.
          5    1    3    3  502    0 -0.14899265296E+02 -0.33238793072E+02 -0.31285856956E+03  0.31500695233E+03  0.47000000000E+01 0.  1.
         -5    1    3    3    0  502 -0.25561184943E+02  0.23309981849E+02 -0.14373108365E+02  0.37754545072E+02  0.47000000000E+01 0.  1.
          5    1    4    4  503    0  0.55168417789E+02 -0.41480433247E+02 -0.21642945904E+03  0.22721791611E+03  0.47000000000E+01 0.  1.
         -5    1    4    4    0  503 -0.14707967550E+02  0.51409244470E+02 -0.71305321012E+02  0.89251182238E+02  0.47000000000E+01 0.  1.
<mgrwt>
<rscale>  0 0.13176140E+03</rscale>
<asrwt>0</asrwt>
<pdfrwt beam="2">  1        5 0.98784377E-01 0.13176261E+03</pdfrwt>
<pdfrwt beam="1">  1       -5 0.41741649E-02 0.13176261E+03</pdfrwt>
<totfact> 0.20517310E+02</totfact>
</mgrwt>
</event>
<event>
 8    1  0.3754098E-007  0.1936442E+03  0.7546771E-02  0.1155215E+00
          5   -1    0    0  501    0  0.00000000000E+00  0.00000000000E+00  0.25198055076E+03  0.25202437969E+03  0.47000000000E+01 0. -1.
         -5   -1    0    0    0  501 -0.00000000000E+00 -0.00000000000E+00 -0.14872570060E+03  0.14879994630E+03  0.47000000000E+01 0. -1.
         25    2    1    2    0    0 -0.52466144918E+01 -0.14779702316E+03  0.53050684725E+02  0.20077963732E+03  0.12500640222E+03 0.  0.
         25    2    1    2    0    0  0.52466144918E+01  0.14779702316E+03  0.50204165433E+02  0.20004468867E+03  0.12500372882E+03 0.  0.
          5    1    4    4  502    0 -0.79085494959E+01 -0.15097506358E+02 -0.15819766122E+02  0.23724140733E+02  0.47000000000E+01 0.  1.
         -5    1    4    4    0  502  0.13155163988E+02  0.16289452952E+03  0.66023931555E+02  0.17632054794E+03  0.47000000000E+01 0.  1.
          5    1    3    3  503    0  0.57193228757E+02 -0.75365311429E+02  0.82909095630E+01  0.95088510157E+02  0.47000000000E+01 0.  1.
         -5    1    3    3    0  503 -0.62439843249E+02 -0.72431711730E+02  0.44759775162E+02  0.10569112717E+03  0.47000000000E+01 0.  1.
<mgrwt>
<rscale>  0 0.19364380E+03</rscale>
<asrwt>0</asrwt>
<pdfrwt beam="1">  1        5 0.38775321E-01 0.19364423E+03</pdfrwt>
<pdfrwt beam="2">  1       -5 0.22889960E-01 0.19364423E+03</pdfrwt>
<totfact> 0.92572120E+01</totfact>
</mgrwt>
</event>
<event>
 8    1  0.3754098E-007  0.1332724E+03  0.7546771E-02  0.1222688E+00
         -5   -1    0    0    0  501 -0.00000000000E+00  0.00000000000E+00  0.10320903509E+03  0.10331599549E+03  0.47000000000E+01 0.  1.
          5   -1    0    0  501    0  0.00000000000E+00 -0.00000000000E+00 -0.21801433800E+03  0.21806499392E+03  0.47000000000E+01 0.  1.
         25    2    1    2    0    0  0.45723414285E+02  0.67109684767E+01  0.16522488891E+02  0.13429265008E+03  0.12500342201E+03 0.  0.
         25    2    1    2    0    0 -0.45723414285E+02 -0.67109684767E+01 -0.13132779180E+03  0.18708833933E+03  0.12497755840E+03 0.  0.
          5    1    4    4  502    0  0.11406029429E+02 -0.23250667164E+02  0.14127836265E+02  0.29872676285E+02  0.47000000000E+01 0.  1.
         -5    1    4    4    0  502 -0.57129443713E+02  0.16539698687E+02 -0.14545562807E+03  0.15721566305E+03  0.47000000000E+01 0.  1.
          5    1    3    3  503    0  0.30167901063E+02  0.65091276306E+01  0.70937427566E+02  0.77502771736E+02  0.47000000000E+01 0. -1.
         -5    1    3    3    0  503  0.15555513221E+02  0.20184084604E+00 -0.54414938676E+02  0.56789878345E+02  0.47000000000E+01 0. -1.
<mgrwt>
<rscale>  0 0.13326630E+03</rscale>
<asrwt>0</asrwt>
<pdfrwt beam="2">  1        5 0.33552792E-01 0.13327236E+03</pdfrwt>
<pdfrwt beam="1">  1       -5 0.15890437E-01 0.13327236E+03</pdfrwt>
<totfact> 0.21776781E+02</totfact>
</mgrwt>
</event>
<event>
 8    1  0.3754098E-007  0.1330909E+03  0.7546771E-02  0.1222942E+00
         -5   -1    0    0    0  501 -0.00000000000E+00  0.00000000000E+00  0.41208130264E+02  0.41475293849E+02  0.47000000000E+01 0. -1.
          5   -1    0    0  501    0  0.00000000000E+00 -0.00000000000E+00 -0.43791534220E+03  0.43794056324E+03  0.47000000000E+01 0. -1.
         25    2    1    2    0    0 -0.42724560262E+02  0.16217864532E+02 -0.16259400132E+03  0.21011643018E+03  0.12499479104E+03 0.  0.
         25    2    1    2    0    0  0.42724560262E+02 -0.16217864532E+02 -0.23411321062E+03  0.26929942691E+03  0.12499911508E+03 0.  0.
          5    1    4    4  502    0 -0.17446597378E+02 -0.55493630796E+02 -0.13224484723E+03  0.14455004821E+03  0.47000000000E+01 0.  1.
         -5    1    4    4    0  502  0.60171157640E+02  0.39275766264E+02 -0.10186836339E+03  0.12474937871E+03  0.47000000000E+01 0.  1.
          5    1    3    3  503    0  0.21164005492E+02  0.52312482911E+02 -0.92944691214E+02  0.10883619169E+03  0.47000000000E+01 0.  1.
         -5    1    3    3    0  503 -0.63888565754E+02 -0.36094618380E+02 -0.69649310103E+02  0.10128023849E+03  0.47000000000E+01 0.  1.
<mgrwt>
<rscale>  0 0.13308988E+03</rscale>
<asrwt>0</asrwt>
<pdfrwt beam="2">  1        5 0.67394079E-01 0.13309089E+03</pdfrwt>
<pdfrwt beam="1">  1       -5 0.63622038E-02 0.13309089E+03</pdfrwt>
<totfact> 0.24828112E+02</totfact>
</mgrwt>
</event>
<event>
 8    1  0.3754098E-007  0.1314752E+03  0.7546771E-02  0.1225284E+00
          5   -1    0    0  501    0  0.00000000000E+00  0.00000000000E+00  0.11520169191E+03  0.11529752737E+03  0.47000000000E+01 0. -1.
         -5   -1    0    0    0  501 -0.00000000000E+00 -0.00000000000E+00 -0.15560885020E+03  0.15567981327E+03  0.47000000000E+01 0. -1.
         25    2    1    2    0    0 -0.37129053170E+02  0.16813503882E+02 -0.46252893952E+02  0.13937221388E+03  0.12499609314E+03 0.  0.
         25    2    1    2    0    0  0.37129053170E+02 -0.16813503882E+02  0.58457356656E+01  0.13160512677E+03  0.12499790504E+03 0.  0.
          5    1    3    3  502    0  0.12904576316E+02 -0.27662122148E+02 -0.63037702475E+02  0.70196602660E+02  0.47000000000E+01 0. -1.
         -5    1    3    3    0  502 -0.50033629486E+02  0.44475626030E+02  0.16784808523E+02  0.69175611218E+02  0.47000000000E+01 0. -1.
          5    1    4    4  503    0 -0.20805304711E+02 -0.23082262552E+02  0.49505969305E+02  0.58639428250E+02  0.47000000000E+01 0.  1.
         -5    1    4    4    0  503  0.57934357881E+02  0.62687586702E+01 -0.43660233639E+02  0.72965698515E+02  0.47000000000E+01 0.  1.
<mgrwt>
<rscale>  0 0.13147480E+03</rscale>
<asrwt>0</asrwt>
<pdfrwt beam="1">  1        5 0.17736168E-01 0.13147523E+03</pdfrwt>
<pdfrwt beam="2">  1       -5 0.23952654E-01 0.13147523E+03</pdfrwt>
<totfact> 0.34160818E+02</totfact>
</mgrwt>
</event>
<event>
 8    1  0.3754098E-007  0.1320215E+03  0.7546771E-02  0.1224488E+00
         -5   -1    0    0    0  501 -0.00000000000E+00  0.00000000000E+00  0.36041931211E+02  0.36347087991E+02  0.47000000000E+01 0.  1.
          5   -1    0    0  501    0  0.00000000000E+00 -0.00000000000E+00 -0.82134934863E+03  0.82136279591E+03  0.47000000000E+01 0.  1.
         25    2    1    2    0    0  0.23036355061E+02  0.35689154236E+02 -0.11674002387E+03  0.17623254966E+03  0.12500115600E+03 0.  0.
         25    2    1    2    0    0 -0.23036355061E+02 -0.35689154236E+02 -0.66856739355E+03  0.68147733423E+03  0.12499843189E+03 0.  0.
          5    1    4    4  502    0 -0.24705776927E+02  0.44408098518E+02 -0.29565062458E+03  0.30002305985E+03  0.47000000000E+01 0.  1.
         -5    1    4    4    0  502  0.16694218662E+01 -0.80097252754E+02 -0.37291676897E+03  0.38145427439E+03  0.47000000000E+01 0.  1.
          5    1    3    3  503    0  0.35276347826E+02  0.70946040981E+02 -0.11346987511E+03  0.13847477750E+03  0.47000000000E+01 0.  1.
         -5    1    3    3    0  503 -0.12239992766E+02 -0.35256886745E+02 -0.32701487666E+01  0.37757772164E+02  0.47000000000E+01 0.  1.
<mgrwt>
<rscale>  0 0.13202086E+03</rscale>
<asrwt>0</asrwt>
<pdfrwt beam="2">  1        5 0.12638593E+00 0.13202151E+03</pdfrwt>
<pdfrwt beam="1">  1       -5 0.55694211E-02 0.13202151E+03</pdfrwt>
<totfact> 0.68797585E+01</totfact>
</mgrwt>
</event>
<event>
 8    1  0.3754098E-007  0.1487390E+03  0.7546771E-02  0.1202044E+00
         -5   -1    0    0    0  501 -0.00000000000E+00  0.00000000000E+00  0.10450616551E+03  0.10461179966E+03  0.47000000000E+01 0.  1.
          5   -1    0    0  501    0  0.00000000000E+00 -0.00000000000E+00 -0.21139814239E+03  0.21145038332E+03  0.47000000000E+01 0.  1.
         25    2    1    2    0    0 -0.80241615356E+02  0.70382055067E+01 -0.53171827009E+02  0.15795740715E+03  0.12504017800E+03 0.  0.
         25    2    1    2    0    0  0.80241615356E+02 -0.70382055067E+01 -0.53720149879E+02  0.15810477584E+03  0.12499204962E+03 0.  0.
          5    1    4    4  502    0  0.79317697972E+01 -0.37762417389E+02  0.25455145625E+02  0.46464691734E+02  0.47000000000E+01 0.  1.
         -5    1    4    4    0  502  0.72309845559E+02  0.30724211882E+02 -0.79175295504E+02  0.11164008410E+03  0.47000000000E+01 0.  1.
          5    1    3    3  503    0  0.59733934164E+01  0.19040039350E+02 -0.66665048079E+02  0.69746133676E+02  0.47000000000E+01 0.  1.
         -5    1    3    3    0  503 -0.86215008772E+02 -0.12001833844E+02  0.13493221070E+02  0.88211273475E+02  0.47000000000E+01 0.  1.
<mgrwt>
<rscale>  0 0.14872892E+03</rscale>
<asrwt>0</asrwt>
<pdfrwt beam="2">  1        5 0.32534935E-01 0.14873903E+03</pdfrwt>
<pdfrwt beam="1">  1       -5 0.16090016E-01 0.14873903E+03</pdfrwt>
<totfact> 0.23482134E+02</totfact>
</mgrwt>
</event>
<event>
 8    1  0.3754098E-007  0.1412195E+03  0.7546771E-02  0.1211700E+00
         -5   -1    0    0    0  501 -0.00000000000E+00  0.00000000000E+00  0.31649094213E+02  0.31996174217E+02  0.47000000000E+01 0.  1.
          5   -1    0    0  501    0  0.00000000000E+00 -0.00000000000E+00 -0.62822783522E+03  0.62824541618E+03  0.47000000000E+01 0.  1.
         25    2    1    2    0    0 -0.64980265546E+02  0.97319510704E+01 -0.31658982031E+03  0.34665843261E+03  0.12500323512E+03 0.  0.
         25    2    1    2    0    0  0.64980265546E+02 -0.97319510704E+01 -0.27998892070E+03  0.31358315779E+03  0.12499382125E+03 0.  0.
          5    1    3    3  502    0 -0.23018392597E+01  0.21175356046E+02 -0.26118123509E+03  0.26209048386E+03  0.47000000000E+01 0. -1.
         -5    1    3    3    0  502 -0.62678426286E+02 -0.11443404976E+02 -0.55408585223E+02  0.84567948748E+02  0.47000000000E+01 0. -1.
          5    1    4    4  503    0  0.12791139007E+01 -0.26400430469E+02 -0.97220283492E+00  0.26863619259E+02  0.47000000000E+01 0. -1.
         -5    1    4    4    0  503  0.63701151645E+02  0.16668479399E+02 -0.27901671786E+03  0.28671953853E+03  0.47000000000E+01 0. -1.
<mgrwt>
<rscale>  0 0.14121744E+03</rscale>
<asrwt>0</asrwt>
<pdfrwt beam="2">  1        5 0.96678478E-01 0.14121953E+03</pdfrwt>
<pdfrwt beam="1">  1       -5 0.48971427E-02 0.14121953E+03</pdfrwt>
<totfact> 0.16987944E+02</totfact>
</mgrwt>
</event>
<event>
 8    1  0.3754098E-007  0.1267795E+03  0.7546771E-02  0.1232314E+00
         -5   -1    0    0    0  501 -0.00000000000E+00  0.00000000000E+00  0.58597732296E+03  0.58599617151E+03  0.47000000000E+01 0. -1.
          5   -1    0    0  501    0  0.00000000000E+00 -0.00000000000E+00 -0.27242481766E+02  0.27644941902E+02  0.47000000000E+01 0. -1.
         25    2    1    2    0    0  0.10848175118E+02 -0.18162718132E+02  0.29010434323E+03  0.31659687066E+03  0.12500192526E+03 0.  0.
         25    2    1    2    0    0 -0.10848175118E+02  0.18162718132E+02  0.26863049797E+03  0.29704424275E+03  0.12500148191E+03 0.  0.
          5    1    4    4  502    0 -0.66398175592E+02 -0.23110376023E+01  0.12543076091E+03  0.14201769044E+03  0.47000000000E+01 0. -1.
         -5    1    4    4    0  502  0.55550000474E+02  0.20473755735E+02  0.14319973706E+03  0.15502655231E+03  0.47000000000E+01 0. -1.
          5    1    3    3  503    0  0.55024914289E+02 -0.24316932530E+02  0.72062943074E+02  0.93990489756E+02  0.47000000000E+01 0.  1.
         -5    1    3    3    0  503 -0.44176739171E+02  0.61542143974E+01  0.21804140016E+03  0.22260638091E+03  0.47000000000E+01 0.  1.
<mgrwt>
<rscale>  0 0.12677942E+03</rscale>
<asrwt>0</asrwt>
<pdfrwt beam="2">  1        5 0.42235595E-02 0.12677953E+03</pdfrwt>
<pdfrwt beam="1">  1       -5 0.90182764E-01 0.12677953E+03</pdfrwt>
<totfact> 0.24690498E+02</totfact>
</mgrwt>
</event>
<event>
 8    1  0.3754098E-007  0.1364499E+03  0.7546771E-02  0.1218191E+00
          5   -1    0    0  501    0  0.00000000000E+00  0.00000000000E+00  0.11381787230E+03  0.11391487196E+03  0.47000000000E+01 0. -1.
         -5   -1    0    0    0  501 -0.00000000000E+00 -0.00000000000E+00 -0.16557353807E+03  0.16564023216E+03  0.47000000000E+01 0. -1.
         25    2    1    2    0    0 -0.49599266410E+02  0.23100194482E+02 -0.41999881058E+02  0.14275688390E+03  0.12498732607E+03 0.  0.
         25    2    1    2    0    0  0.49599266410E+02 -0.23100194482E+02 -0.97557847173E+01  0.13679822022E+03  0.12499948603E+03 0.  0.
          5    1    3    3  502    0  0.33686730320E+02  0.37884260171E+02 -0.23340569489E+02  0.56007902589E+02  0.47000000000E+01 0. -1.
         -5    1    3    3    0  502 -0.83285996730E+02 -0.14784065689E+02 -0.18659311569E+02  0.86748981307E+02  0.47000000000E+01 0. -1.
          5    1    4    4  503    0  0.46056159219E+01 -0.70394189795E+02 -0.51782991040E+00  0.70702982983E+02  0.47000000000E+01 0. -1.
         -5    1    4    4    0  503  0.44993650488E+02  0.47293995313E+02 -0.92379548069E+01  0.66095237241E+02  0.47000000000E+01 0. -1.
<mgrwt>
<rscale>  0 0.13644712E+03</rscale>
<asrwt>0</asrwt>
<pdfrwt beam="1">  1        5 0.17523034E-01 0.13644991E+03</pdfrwt>
<pdfrwt beam="2">  1       -5 0.25485444E-01 0.13644991E+03</pdfrwt>
<totfact> 0.31428013E+02</totfact>
</mgrwt>
</event>
<event>
 8    1  0.3754098E-007  0.1292882E+03  0.7546771E-02  0.1228521E+00
         -5   -1    0    0    0  501 -0.00000000000E+00  0.00000000000E+00  0.13270253848E+03  0.13278574366E+03  0.47000000000E+01 0.  1.
          5   -1    0    0  501    0  0.00000000000E+00 -0.00000000000E+00 -0.21795774963E+03  0.21800841870E+03  0.47000000000E+01 0.  1.
         25    2    1    2    0    0 -0.73103921007E+01  0.32176930789E+02  0.71394294204E+02  0.14769085688E+03  0.12500658884E+03 0.  0.
         25    2    1    2    0    0  0.73103921007E+01 -0.32176930789E+02 -0.15664950536E+03  0.20310330548E+03  0.12499235360E+03 0.  0.
          5    1    3    3  502    0  0.40726751642E+02  0.53420850503E+02  0.66645516851E+02  0.94742653985E+02  0.47000000000E+01 0. -1.
         -5    1    3    3    0  502 -0.48037143743E+02 -0.21243919715E+02  0.47487773533E+01  0.52948202898E+02  0.47000000000E+01 0. -1.
          5    1    4    4  503    0 -0.47013595455E+01 -0.31134488422E+02  0.11952032706E+02  0.34005885324E+02  0.47000000000E+01 0.  1.
         -5    1    4    4    0  503  0.12011751646E+02 -0.10424423670E+01 -0.16860153807E+03  0.16909742015E+03  0.47000000000E+01 0.  1.
<mgrwt>
<rscale>  0 0.12928478E+03</rscale>
<asrwt>0</asrwt>
<pdfrwt beam="2">  1        5 0.33542260E-01 0.12928822E+03</pdfrwt>
<pdfrwt beam="1">  1       -5 0.20426073E-01 0.12928822E+03</pdfrwt>
<totfact> 0.13571523E+02</totfact>
</mgrwt>
</event>
<event>
 8    1  0.3754098E-007  0.1286125E+03  0.7546771E-02  0.1229530E+00
         -5   -1    0    0    0  501 -0.00000000000E+00  0.00000000000E+00  0.11281496028E+03  0.11291282151E+03  0.47000000000E+01 0. -1.
          5   -1    0    0  501    0  0.00000000000E+00 -0.00000000000E+00 -0.15145724378E+03  0.15153015110E+03  0.47000000000E+01 0. -1.
         25    2    1    2    0    0  0.15129014998E+02 -0.26211754577E+02  0.47748946432E+01  0.12869975822E+03  0.12499953989E+03 0.  0.
         25    2    1    2    0    0 -0.15129014998E+02  0.26211754577E+02 -0.43417178146E+02  0.13574321440E+03  0.12500090289E+03 0.  0.
          5    1    3    3  502    0 -0.13180796755E+02  0.43238925735E+02  0.23631708886E+02  0.51223878872E+02  0.47000000000E+01 0. -1.
         -5    1    3    3    0  502  0.28309811753E+02 -0.69450680311E+02 -0.18856814243E+02  0.77475879347E+02  0.47000000000E+01 0. -1.
          5    1    4    4  503    0 -0.22925177356E+02 -0.34618330452E+02 -0.58994282268E+02  0.72293899469E+02  0.47000000000E+01 0.  1.
         -5    1    4    4    0  503  0.77961623579E+01  0.60830085029E+02  0.15577104122E+02  0.63449314929E+02  0.47000000000E+01 0.  1.
<mgrwt>
<rscale>  0 0.12861214E+03</rscale>
<asrwt>0</asrwt>
<pdfrwt beam="2">  1        5 0.23314250E-01 0.12861248E+03</pdfrwt>
<pdfrwt beam="1">  1       -5 0.17369284E-01 0.12861248E+03</pdfrwt>
<totfact> 0.37067799E+02</totfact>
</mgrwt>
</event>
<event>
 8    1  0.3754098E-007  0.1356323E+03  0.7546771E-02  0.1219332E+00
         -5   -1    0    0    0  501 -0.00000000000E+00  0.00000000000E+00  0.12784833697E+04  0.12784920088E+04  0.47000000000E+01 0. -1.
          5   -1    0    0  501    0  0.00000000000E+00 -0.00000000000E+00 -0.15590802824E+02  0.16283830407E+02  0.47000000000E+01 0. -1.
         25    2    1    2    0    0  0.47858902055E+02 -0.21923276151E+02  0.83376500382E+03  0.84472409396E+03  0.12499443499E+03 0.  0.
         25    2    1    2    0    0 -0.47858902055E+02  0.21923276151E+02  0.42912756304E+03  0.45005174524E+03  0.12500001398E+03 0.  0.
          5    1    3    3  502    0  0.61947065447E+02 -0.37612436709E+02  0.24436693787E+03  0.25493023484E+03  0.47000000000E+01 0.  1.
         -5    1    3    3    0  502 -0.14088163392E+02  0.15689160558E+02  0.58939806595E+03  0.58979385912E+03  0.47000000000E+01 0.  1.
          5    1    4    4  503    0 -0.72992339223E+02  0.54752032737E+02  0.25051687559E+03  0.26665794875E+03  0.47000000000E+01 0.  1.
         -5    1    4    4    0  503  0.25133437168E+02 -0.32828756587E+02  0.17861068744E+03  0.18339379649E+03  0.47000000000E+01 0.  1.
<mgrwt>
<rscale>  0 0.13563097E+03</rscale>
<asrwt>0</asrwt>
<pdfrwt beam="2">  1        5 0.24525595E-02 0.13563225E+03</pdfrwt>
<pdfrwt beam="1">  1       -5 0.19674371E+00 0.13563225E+03</pdfrwt>
<totfact> 0.76805915E+01</totfact>
</mgrwt>
</event>
<event>
 8    1  0.3754098E-007  0.1637719E+03  0.7546771E-02  0.1184505E+00
         -5   -1    0    0    0  501 -0.00000000000E+00  0.00000000000E+00  0.68237870453E+02  0.68399539209E+02  0.47000000000E+01 0. -1.
          5   -1    0    0  501    0  0.00000000000E+00 -0.00000000000E+00 -0.40420945403E+03  0.40423677805E+03  0.47000000000E+01 0. -1.
         25    2    1    2    0    0  0.65576475297E+02 -0.83026310677E+02 -0.12758625404E+03  0.20759729824E+03  0.12499897456E+03 0.  0.
         25    2    1    2    0    0 -0.65576475297E+02  0.83026310677E+02 -0.20838532953E+03  0.26503901901E+03  0.12501037420E+03 0.  0.
          5    1    3    3  502    0  0.38055915134E+02  0.47551325835E+01  0.11909337234E+02  0.40432490350E+02  0.47000000000E+01 0.  1.
         -5    1    3    3    0  502  0.27520560163E+02 -0.87781443261E+02 -0.13949559127E+03  0.16716480789E+03  0.47000000000E+01 0.  1.
          5    1    4    4  503    0  0.29383079787E-01  0.93210724658E+02 -0.92513614605E+02  0.13141194368E+03  0.47000000000E+01 0.  1.
         -5    1    4    4    0  503 -0.65605858376E+02 -0.10184413981E+02 -0.11587171493E+03  0.13362707533E+03  0.47000000000E+01 0.  1.
<mgrwt>
<rscale>  0 0.16376973E+03</rscale>
<asrwt>0</asrwt>
<pdfrwt beam="2">  1        5 0.62200607E-01 0.16377190E+03</pdfrwt>
<pdfrwt beam="1">  1       -5 0.10512672E-01 0.16377190E+03</pdfrwt>
<totfact> 0.13378936E+02</totfact>
</mgrwt>
</event>
<event>
 8    1  0.3754098E-007  0.1295818E+03  0.7546771E-02  0.1228082E+00
          5   -1    0    0  501    0  0.00000000000E+00  0.00000000000E+00  0.69894294447E+02  0.70052140554E+02  0.47000000000E+01 0. -1.
         -5   -1    0    0    0  501 -0.00000000000E+00 -0.00000000000E+00 -0.23986963527E+03  0.23991567670E+03  0.47000000000E+01 0. -1.
         25    2    1    2    0    0  0.18807893745E+02 -0.28501383996E+02 -0.88230425486E+02  0.15676752198E+03  0.12500152883E+03 0.  0.
         25    2    1    2    0    0 -0.18807893745E+02  0.28501383996E+02 -0.81744915338E+02  0.15320029527E+03  0.12498813356E+03 0.  0.
          5    1    4    4  502    0 -0.16133374873E+02 -0.85473229085E+01  0.29954065067E+02  0.35393198891E+02  0.47000000000E+01 0.  1.
         -5    1    4    4    0  502 -0.26745188721E+01  0.37048706904E+02 -0.11169898041E+03  0.11780709638E+03  0.47000000000E+01 0.  1.
          5    1    3    3  503    0 -0.24405465979E+02 -0.27907631843E+02  0.18371673776E+02  0.41642179123E+02  0.47000000000E+01 0. -1.
         -5    1    3    3    0  503  0.43213359724E+02 -0.59375215235E+00 -0.10660209926E+03  0.11512534285E+03  0.47000000000E+01 0. -1.
<mgrwt>
<rscale>  0 0.12957859E+03</rscale>
<asrwt>0</asrwt>
<pdfrwt beam="1">  1        5 0.10768652E-01 0.12958182E+03</pdfrwt>
<pdfrwt beam="2">  1       -5 0.36918704E-01 0.12958182E+03</pdfrwt>
<totfact> 0.35655105E+02</totfact>
</mgrwt>
</event>
<event>
 8    1  0.3754098E-007  0.1363923E+03  0.7546771E-02  0.1218288E+00
          5   -1    0    0  501    0  0.00000000000E+00  0.00000000000E+00  0.90720822754E+01  0.10217273453E+02  0.47000000000E+01 0.  1.
         -5   -1    0    0    0  501 -0.00000000000E+00 -0.00000000000E+00 -0.21215543814E+04  0.21215595875E+04  0.47000000000E+01 0.  1.
         25    2    1    2    0    0  0.47046372407E+02 -0.27360391483E+02 -0.13792747533E+04  0.13860020576E+04  0.12506360933E+03 0.  0.
         25    2    1    2    0    0 -0.47046372407E+02  0.27360391483E+02 -0.73320754579E+03  0.74577480331E+03  0.12499919947E+03 0.  0.
          5    1    4    4  502    0 -0.25502617323E+01  0.18189627931E+02 -0.10592334514E+02  0.21717595392E+02  0.47000000000E+01 0. -1.
         -5    1    4    4    0  502 -0.44496110674E+02  0.91707635526E+01 -0.72261521128E+03  0.72405720792E+03  0.47000000000E+01 0. -1.
          5    1    3    3  503    0 -0.10778440947E+02  0.19050867220E+02 -0.51564658788E+02  0.56214894530E+02  0.47000000000E+01 0.  1.
         -5    1    3    3    0  503  0.57824813354E+02 -0.46411258704E+02 -0.13277100945E+04  0.13297871631E+04  0.47000000000E+01 0.  1.
<mgrwt>
<rscale>  0 0.13637753E+03</rscale>
<asrwt>0</asrwt>
<pdfrwt beam="1">  1        5 0.14841988E-02 0.13639230E+03</pdfrwt>
<pdfrwt beam="2">  1       -5 0.32648110E+00 0.13639230E+03</pdfrwt>
<totfact> 0.25170551E+01</totfact>
</mgrwt>
</event>
<event>
 8    1  0.3754098E-007  0.1308077E+03  0.7546771E-02  0.1226265E+00
          5   -1    0    0  501    0  0.00000000000E+00  0.00000000000E+00  0.35003077078E+02  0.35317211171E+02  0.47000000000E+01 0. -1.
         -5   -1    0    0    0  501 -0.00000000000E+00 -0.00000000000E+00 -0.49071650579E+03  0.49073901318E+03  0.47000000000E+01 0. -1.
         25    2    1    2    0    0  0.12161567300E+02 -0.36531340500E+02 -0.25280818092E+03  0.28464122161E+03  0.12500482447E+03 0.  0.
         25    2    1    2    0    0 -0.12161567300E+02  0.36531340500E+02 -0.20290524779E+03  0.24141500274E+03  0.12501288497E+03 0.  0.
          5    1    4    4  502    0  0.32296110566E+01 -0.39898765006E+02 -0.12401737916E+03  0.13040223223E+03  0.47000000000E+01 0.  1.
         -5    1    4    4    0  502 -0.15391178357E+02  0.76430105507E+02 -0.78887868632E+02  0.11101277051E+03  0.47000000000E+01 0.  1.
          5    1    3    3  503    0  0.63560681396E+02 -0.40596238646E+02 -0.18077005552E+03  0.19592834860E+03  0.47000000000E+01 0.  1.
         -5    1    3    3    0  503 -0.51399114096E+02  0.40648981457E+01 -0.72038125394E+02  0.88712873007E+02  0.47000000000E+01 0.  1.
<mgrwt>
<rscale>  0 0.13080581E+03</rscale>
<asrwt>0</asrwt>
<pdfrwt beam="1">  1        5 0.54109846E-02 0.13080774E+03</pdfrwt>
<pdfrwt beam="2">  1       -5 0.75520737E-01 0.13080774E+03</pdfrwt>
<totfact> 0.25032949E+02</totfact>
</mgrwt>
</event>
<event>
 8    1  0.3754098E-007  0.1296628E+03  0.7546771E-02  0.1227958E+00
          5   -1    0    0  501    0  0.00000000000E+00  0.00000000000E+00  0.34699925582E+03  0.34703108440E+03  0.47000000000E+01 0.  1.
         -5   -1    0    0    0  501 -0.00000000000E+00 -0.00000000000E+00 -0.51146137398E+02  0.51361633256E+02  0.47000000000E+01 0.  1.
         25    2    1    2    0    0  0.22054248650E+02  0.26467667212E+02  0.10106951730E+03  0.16440042713E+03  0.12500210327E+03 0.  0.
         25    2    1    2    0    0 -0.22054248650E+02 -0.26467667212E+02  0.19478360112E+03  0.23399229053E+03  0.12499925387E+03 0.  0.
          5    1    3    3  502    0 -0.17383168793E+01  0.68435454076E+02  0.22743869467E+02  0.72289741447E+02  0.47000000000E+01 0.  1.
         -5    1    3    3    0  502  0.23792565529E+02 -0.41967786864E+02  0.78325647833E+02  0.92110685684E+02  0.47000000000E+01 0.  1.
          5    1    4    4  503    0 -0.67702541175E+02  0.10122617519E+02  0.82592163448E+02  0.10737624006E+03  0.47000000000E+01 0.  1.
         -5    1    4    4    0  503  0.45648292525E+02 -0.36590284730E+02  0.11219143768E+03  0.12661605046E+03  0.47000000000E+01 0.  1.
<mgrwt>
<rscale>  0 0.12966216E+03</rscale>
<asrwt>0</asrwt>
<pdfrwt beam="1">  1        5 0.53403525E-01 0.12966284E+03</pdfrwt>
<pdfrwt beam="2">  1       -5 0.78876616E-02 0.12966284E+03</pdfrwt>
<totfact> 0.28401902E+02</totfact>
</mgrwt>
</event>
<event>
 8    1  0.3754098E-007  0.1289577E+03  0.7546771E-02  0.1229014E+00
          5   -1    0    0  501    0  0.00000000000E+00  0.00000000000E+00  0.47265609296E+03  0.47267946033E+03  0.47000000000E+01 0. -1.
         -5   -1    0    0    0  501 -0.00000000000E+00 -0.00000000000E+00 -0.37137475296E+02  0.37433702347E+02  0.47000000000E+01 0. -1.
         25    2    1    2    0    0  0.13878565929E+02  0.28509278787E+02  0.15685560896E+03  0.20306097097E+03  0.12499872919E+03 0.  0.
         25    2    1    2    0    0 -0.13878565929E+02 -0.28509278787E+02  0.27866300870E+03  0.30705219171E+03  0.12499032939E+03 0.  0.
          5    1    4    4  502    0 -0.17939397449E+01 -0.77297381669E+02  0.18697922343E+03  0.20238928684E+03  0.47000000000E+01 0. -1.
         -5    1    4    4    0  502 -0.12084626184E+02  0.48788102883E+02  0.91683785278E+02  0.10466290487E+03  0.47000000000E+01 0. -1.
          5    1    3    3  503    0  0.66444311944E+02  0.35393976440E+02  0.98777648884E+02  0.12428472986E+03  0.47000000000E+01 0.  1.
         -5    1    3    3    0  503 -0.52565746015E+02 -0.68846976536E+01  0.58077960078E+02  0.78776241106E+02  0.47000000000E+01 0.  1.
<mgrwt>
<rscale>  0 0.12895562E+03</rscale>
<asrwt>0</asrwt>
<pdfrwt beam="1">  1        5 0.72740907E-01 0.12895765E+03</pdfrwt>
<pdfrwt beam="2">  1       -5 0.57380418E-02 0.12895765E+03</pdfrwt>
<totfact> 0.24591303E+02</totfact>
</mgrwt>
</event>
<event>
 8    1  0.3754098E-007  0.1284847E+03  0.7546771E-02  0.1229722E+00
         -5   -1    0    0    0  501 -0.00000000000E+00  0.00000000000E+00  0.41702448503E+02  0.41966465317E+02  0.47000000000E+01 0. -1.
          5   -1    0    0  501    0  0.00000000000E+00 -0.00000000000E+00 -0.40466888559E+03  0.40469617859E+03  0.47000000000E+01 0. -1.
         25    2    1    2    0    0  0.25273162015E+02 -0.15642894983E+02 -0.14580146014E+03  0.19433574972E+03  0.12499953983E+03 0.  0.
         25    2    1    2    0    0 -0.25273162015E+02  0.15642894983E+02 -0.21716497695E+03  0.25232689419E+03  0.12499920574E+03 0.  0.
          5    1    3    3  502    0 -0.40165729358E+02  0.23031345391E+02 -0.84911862804E+02  0.96828937463E+02  0.47000000000E+01 0.  1.
         -5    1    3    3    0  502  0.65438891372E+02 -0.38674240374E+02 -0.60889597334E+02  0.97506812254E+02  0.47000000000E+01 0.  1.
          5    1    4    4  503    0 -0.65402115219E+02  0.16769032859E+02 -0.61328590755E+02  0.91334129339E+02  0.47000000000E+01 0.  1.
         -5    1    4    4    0  503  0.40128953204E+02 -0.11261378764E+01 -0.15583638619E+03  0.16099276485E+03  0.47000000000E+01 0.  1.
<mgrwt>
<rscale>  0 0.12848462E+03</rscale>
<asrwt>0</asrwt>
<pdfrwt beam="2">  1        5 0.62279157E-01 0.12848470E+03</pdfrwt>
<pdfrwt beam="1">  1       -5 0.64381700E-02 0.12848470E+03</pdfrwt>
<totfact> 0.28628223E+02</totfact>
</mgrwt>
</event>
<event>
 8    1  0.3754098E-007  0.1336776E+03  0.7546771E-02  0.1222101E+00
          5   -1    0    0  501    0  0.00000000000E+00  0.00000000000E+00  0.63218294686E+03  0.63220041783E+03  0.47000000000E+01 0.  1.
         -5   -1    0    0    0  501 -0.00000000000E+00 -0.00000000000E+00 -0.28777640609E+02  0.29158919716E+02  0.47000000000E+01 0.  1.
         25    2    1    2    0    0  0.69424177509E+01  0.46851136635E+02  0.35383527040E+03  0.37824292553E+03  0.12500034387E+03 0.  0.
         25    2    1    2    0    0 -0.69424177509E+01 -0.46851136635E+02  0.24957003585E+03  0.28311641201E+03  0.12500589501E+03 0.  0.
          5    1    4    4  502    0 -0.26191919986E+01 -0.88757394602E+02  0.14258715162E+03  0.16804142665E+03  0.47000000000E+01 0.  1.
         -5    1    4    4    0  502 -0.43232257522E+01  0.41906257968E+02  0.10698288423E+03  0.11507498536E+03  0.47000000000E+01 0.  1.
          5    1    3    3  503    0 -0.32470152982E+02  0.75933771859E+02  0.19118175492E+03  0.20830938999E+03  0.47000000000E+01 0.  1.
         -5    1    3    3    0  503  0.39412570733E+02 -0.29082635225E+02  0.16265351548E+03  0.16993353554E+03  0.47000000000E+01 0.  1.
<mgrwt>
<rscale>  0 0.13367630E+03</rscale>
<asrwt>0</asrwt>
<pdfrwt beam="1">  1        5 0.97289590E-01 0.13367760E+03</pdfrwt>
<pdfrwt beam="2">  1       -5 0.44580023E-02 0.13367760E+03</pdfrwt>
<totfact> 0.19196804E+02</totfact>
</mgrwt>
</event>
<event>
 8    1  0.3754098E-007  0.1467100E+03  0.7546771E-02  0.1204590E+00
         -5   -1    0    0    0  501 -0.00000000000E+00  0.00000000000E+00  0.88057434770E+02  0.88182775065E+02  0.47000000000E+01 0.  1.
          5   -1    0    0  501    0  0.00000000000E+00 -0.00000000000E+00 -0.24586823318E+03  0.24591315152E+03  0.47000000000E+01 0.  1.
         25    2    1    2    0    0 -0.33196391986E+02 -0.69160705740E+02 -0.64437366189E+02  0.16019242290E+03  0.12499693810E+03 0.  0.
         25    2    1    2    0    0  0.33196391986E+02  0.69160705740E+02 -0.93373432225E+02  0.17390350368E+03  0.12505449647E+03 0.  0.
          5    1    4    4  502    0  0.43241514462E+02  0.28223746951E+02 -0.11510726974E+03  0.12624651287E+03  0.47000000000E+01 0. -1.
         -5    1    4    4    0  502 -0.10045122476E+02  0.40936958789E+02  0.21733837512E+02  0.47656990814E+02  0.47000000000E+01 0. -1.
          5    1    3    3  503    0 -0.99494465287E+01  0.19088523878E+02  0.24310024277E+02  0.32809000448E+02  0.47000000000E+01 0.  1.
         -5    1    3    3    0  503 -0.23246945457E+02 -0.88249229618E+02 -0.88747390466E+02  0.12738342245E+03  0.47000000000E+01 0.  1.
<mgrwt>
<rscale>  0 0.14669776E+03</rscale>
<asrwt>0</asrwt>
<pdfrwt beam="2">  1        5 0.37838979E-01 0.14671002E+03</pdfrwt>
<pdfrwt beam="1">  1       -5 0.13560395E-01 0.14671002E+03</pdfrwt>
<totfact> 0.23522549E+02</totfact>
</mgrwt>
</event>
<event>
 8    1  0.3754098E-007  0.1298947E+03  0.7546771E-02  0.1227617E+00
          5   -1    0    0  501    0  0.00000000000E+00  0.00000000000E+00  0.29690720753E+03  0.29694440538E+03  0.47000000000E+01 0. -1.
         -5   -1    0    0    0  501 -0.00000000000E+00 -0.00000000000E+00 -0.63297194657E+02  0.63471449105E+02  0.47000000000E+01 0. -1.
         25    2    1    2    0    0  0.33036407868E+02 -0.12391105408E+02  0.58661971798E+02  0.14252665918E+03  0.12501071116E+03 0.  0.
         25    2    1    2    0    0 -0.33036407868E+02  0.12391105408E+02  0.17494804108E+03  0.21788919530E+03  0.12499576238E+03 0.  0.
          5    1    3    3  502    0 -0.36753467487E+02 -0.35945169565E+02  0.62438983617E+01  0.51999508210E+02  0.47000000000E+01 0. -1.
         -5    1    3    3    0  502  0.69789875355E+02  0.23554064157E+02  0.52418073436E+02  0.90527150972E+02  0.47000000000E+01 0. -1.
          5    1    4    4  503    0 -0.77394395473E+02 -0.12027426086E+02  0.96084893484E+02  0.12405219944E+03  0.47000000000E+01 0.  1.
         -5    1    4    4    0  503  0.44357987605E+02  0.24418531494E+02  0.78863147593E+02  0.93836995865E+02  0.47000000000E+01 0.  1.
<mgrwt>
<rscale>  0 0.12989106E+03</rscale>
<asrwt>0</asrwt>
<pdfrwt beam="1">  1        5 0.45694297E-01 0.12989466E+03</pdfrwt>
<pdfrwt beam="2">  1       -5 0.97542955E-02 0.12989466E+03</pdfrwt>
<totfact> 0.27388116E+02</totfact>
</mgrwt>
</event>
<event>
 8    1  0.3754098E-007  0.1565531E+03  0.7546771E-02  0.1192645E+00
          5   -1    0    0  501    0  0.00000000000E+00  0.00000000000E+00  0.26958649917E+03  0.26962746621E+03  0.47000000000E+01 0. -1.
         -5   -1    0    0    0  501 -0.00000000000E+00 -0.00000000000E+00 -0.90871352757E+02  0.90992817035E+02  0.47000000000E+01 0. -1.
         25    2    1    2    0    0 -0.62930076417E+02  0.70158938176E+02  0.94324335323E+02  0.18277010749E+03  0.12500144333E+03 0.  0.
         25    2    1    2    0    0  0.62930076417E+02 -0.70158938176E+02  0.84390811093E+02  0.17785017576E+03  0.12500561946E+03 0.  0.
          5    1    4    4  502    0 -0.11627830699E+02 -0.12560340400E+01 -0.25330345293E+02  0.28293116847E+02  0.47000000000E+01 0.  1.
         -5    1    4    4    0  502  0.74557907116E+02 -0.68902904136E+02  0.10972115639E+03  0.14955705891E+03  0.47000000000E+01 0.  1.
          5    1    3    3  503    0 -0.13408143705E+02  0.75570940954E+02  0.10275464121E+01  0.76901828885E+02  0.47000000000E+01 0. -1.
         -5    1    3    3    0  503 -0.49521932712E+02 -0.54120027776E+01  0.93296788911E+02  0.10586827860E+03  0.47000000000E+01 0. -1.
<mgrwt>
<rscale>  0 0.15655228E+03</rscale>
<asrwt>0</asrwt>
<pdfrwt beam="1">  1        5 0.41487341E-01 0.15655311E+03</pdfrwt>
<pdfrwt beam="2">  1       -5 0.13992703E-01 0.15655311E+03</pdfrwt>
<totfact> 0.18814038E+02</totfact>
</mgrwt>
</event>
<event>
 8    1  0.3754098E-007  0.1507295E+03  0.7546771E-02  0.1199584E+00
         -5   -1    0    0    0  501 -0.00000000000E+00  0.00000000000E+00  0.38932278453E+03  0.38935115327E+03  0.47000000000E+01 0.  1.
          5   -1    0    0  501    0  0.00000000000E+00 -0.00000000000E+00 -0.67186218932E+02  0.67350412132E+02  0.47000000000E+01 0.  1.
         25    2    1    2    0    0  0.24453095774E+02 -0.80596980253E+02  0.24432816047E+03  0.28707394479E+03  0.12498548979E+03 0.  0.
         25    2    1    2    0    0 -0.24453095774E+02  0.80596980253E+02  0.77808405128E+02  0.16962762062E+03  0.12500221858E+03 0.  0.
          5    1    4    4  502    0  0.20417405630E+01  0.56930198219E+02  0.10837589895E+03  0.12252608558E+03  0.47000000000E+01 0.  1.
         -5    1    4    4    0  502 -0.26494836337E+02  0.23666782034E+02 -0.30567493824E+02  0.47101535039E+02  0.47000000000E+01 0.  1.
          5    1    3    3  503    0  0.26790143178E+02  0.29148595251E+02  0.51341401416E+02  0.65002937441E+02  0.47000000000E+01 0. -1.
         -5    1    3    3    0  503 -0.23370474043E+01 -0.10974557550E+03  0.19298675906E+03  0.22207100735E+03  0.47000000000E+01 0. -1.
<mgrwt>
<rscale>  0 0.15072603E+03</rscale>
<asrwt>0</asrwt>
<pdfrwt beam="2">  1        5 0.10351154E-01 0.15072950E+03</pdfrwt>
<pdfrwt beam="1">  1       -5 0.59910627E-01 0.15072950E+03</pdfrwt>
<totfact> 0.14546363E+02</totfact>
</mgrwt>
</event>
<event>
 8    1  0.3754098E-007  0.1399430E+03  0.7546771E-02  0.1213406E+00
          5   -1    0    0  501    0  0.00000000000E+00  0.00000000000E+00  0.63016583786E+02  0.63191612039E+02  0.47000000000E+01 0. -1.
         -5   -1    0    0    0  501 -0.00000000000E+00 -0.00000000000E+00 -0.31578432291E+03  0.31581929738E+03  0.47000000000E+01 0. -1.
         25    2    1    2    0    0 -0.61319522079E+02 -0.14095745101E+02 -0.15168913603E+03  0.20638149913E+03  0.12499982149E+03 0.  0.
         25    2    1    2    0    0  0.61319522079E+02  0.14095745101E+02 -0.10107860310E+03  0.17262941029E+03  0.12500102190E+03 0.  0.
          5    1    4    4  502    0  0.39353267910E+01 -0.51634827393E+02 -0.45301543335E+02  0.68963483275E+02  0.47000000000E+01 0.  1.
         -5    1    4    4    0  502  0.57384195288E+02  0.65730572494E+02 -0.55777059762E+02  0.10366592702E+03  0.47000000000E+01 0.  1.
          5    1    3    3  503    0 -0.97120293603E+02  0.72271100511E+01 -0.11389736067E+03  0.14993092181E+03  0.47000000000E+01 0.  1.
         -5    1    3    3    0  503  0.35800771525E+02 -0.21322855152E+02 -0.37791775365E+02  0.56450577312E+02  0.47000000000E+01 0.  1.
<mgrwt>
<rscale>  0 0.13994268E+03</rscale>
<asrwt>0</asrwt>
<pdfrwt beam="1">  1        5 0.97110133E-02 0.13994295E+03</pdfrwt>
<pdfrwt beam="2">  1       -5 0.48598357E-01 0.13994295E+03</pdfrwt>
<totfact> 0.24886119E+02</totfact>
</mgrwt>
</event>
<event>
 8    1  0.3754098E-007  0.1371532E+03  0.7546771E-02  0.1217219E+00
          5   -1    0    0  501    0  0.00000000000E+00  0.00000000000E+00  0.46778001432E+02  0.47013523777E+02  0.47000000000E+01 0. -1.
         -5   -1    0    0    0  501 -0.00000000000E+00 -0.00000000000E+00 -0.40084354066E+03  0.40087109411E+03  0.47000000000E+01 0. -1.
         25    2    1    2    0    0 -0.48645686446E+02 -0.28552224112E+02 -0.17893840306E+03  0.22544245152E+03  0.12499485808E+03 0.  0.
         25    2    1    2    0    0  0.48645686446E+02  0.28552224112E+02 -0.17512713617E+03  0.22244216636E+03  0.12501748374E+03 0.  0.
          5    1    4    4  502    0  0.61833967013E+02  0.20201731803E+02 -0.22567452510E+02  0.69013979433E+02  0.47000000000E+01 0.  1.
         -5    1    4    4    0  502 -0.13188280567E+02  0.83504923082E+01 -0.15255968366E+03  0.15342818693E+03  0.47000000000E+01 0.  1.
          5    1    3    3  503    0 -0.58810038728E+02  0.37758750633E+01 -0.19314704243E+02  0.62193453737E+02  0.47000000000E+01 0. -1.
         -5    1    3    3    0  503  0.10164352282E+02 -0.32328099175E+02 -0.15962369882E+03  0.16324899778E+03  0.47000000000E+01 0. -1.
<mgrwt>
<rscale>  0 0.13714806E+03</rscale>
<asrwt>0</asrwt>
<pdfrwt beam="1">  1        5 0.72168525E-02 0.13715321E+03</pdfrwt>
<pdfrwt beam="2">  1       -5 0.61688471E-01 0.13715321E+03</pdfrwt>
<totfact> 0.24649150E+02</totfact>
</mgrwt>
</event>
<event>
 8    1  0.3754098E-007  0.1255532E+03  0.7546771E-02  0.1234207E+00
         -5   -1    0    0    0  501 -0.00000000000E+00  0.00000000000E+00  0.62945934083E+02  0.63121158240E+02  0.47000000000E+01 0. -1.
          5   -1    0    0  501    0  0.00000000000E+00 -0.00000000000E+00 -0.26232207106E+03  0.26236417241E+03  0.47000000000E+01 0. -1.
         25    2    1    2    0    0 -0.43757864152E-01 -0.11768890369E+02 -0.64266514399E+02  0.14104508110E+03  0.12500008534E+03 0.  0.
         25    2    1    2    0    0  0.43757864152E-01  0.11768890369E+02 -0.13510962258E+03  0.18444024955E+03  0.12500034738E+03 0.  0.
          5    1    4    4  502    0 -0.24212687070E+02  0.33866356678E+02 -0.14412303533E+03  0.15008905237E+03  0.47000000000E+01 0.  1.
         -5    1    4    4    0  502  0.24256444934E+02 -0.22097466309E+02  0.90134127503E+01  0.34351197178E+02  0.47000000000E+01 0.  1.
          5    1    3    3  503    0 -0.26212758540E+02 -0.26904133797E+02 -0.92167784099E+02  0.99639006175E+02  0.47000000000E+01 0. -1.
         -5    1    3    3    0  503  0.26169000676E+02  0.15135243428E+02  0.27901269700E+02  0.41406074927E+02  0.47000000000E+01 0. -1.
<mgrwt>
<rscale>  0 0.12555309E+03</rscale>
<asrwt>0</asrwt>
<pdfrwt beam="2">  1        5 0.40373959E-01 0.12555316E+03</pdfrwt>
<pdfrwt beam="1">  1       -5 0.97007073E-02 0.12555316E+03</pdfrwt>
<totfact> 0.35265280E+02</totfact>
</mgrwt>
</event>
<event>
 8    1  0.3754098E-007  0.1313586E+03  0.7546771E-02  0.1225454E+00
         -5   -1    0    0    0  501 -0.00000000000E+00  0.00000000000E+00  0.33071034125E+02  0.33403342618E+02  0.47000000000E+01 0. -1.
          5   -1    0    0  501    0  0.00000000000E+00 -0.00000000000E+00 -0.52175683129E+03  0.52177799972E+03  0.47000000000E+01 0. -1.
         25    2    1    2    0    0  0.12336571495E+02 -0.38445803454E+02 -0.26524139165E+03  0.29598661708E+03  0.12499924337E+03 0.  0.
         25    2    1    2    0    0 -0.12336571495E+02  0.38445803454E+02 -0.22344440551E+03  0.25919472526E+03  0.12499692977E+03 0.  0.
          5    1    3    3  502    0  0.27325678380E+02 -0.23146610430E+02 -0.69685953441E+01  0.36784638022E+02  0.47000000000E+01 0. -1.
         -5    1    3    3    0  502 -0.14989106886E+02 -0.15299193024E+02 -0.25827279631E+03  0.25920197905E+03  0.47000000000E+01 0. -1.
          5    1    4    4  503    0  0.37006598674E+02  0.82344557470E+01 -0.12173859986E+02  0.40094731247E+02  0.47000000000E+01 0. -1.
         -5    1    4    4    0  503 -0.49343170168E+02  0.30211347707E+02 -0.21127054552E+03  0.21909999402E+03  0.47000000000E+01 0. -1.
<mgrwt>
<rscale>  0 0.13135805E+03</rscale>
<asrwt>0</asrwt>
<pdfrwt beam="2">  1        5 0.80297466E-01 0.13135860E+03</pdfrwt>
<pdfrwt beam="1">  1       -5 0.51150423E-02 0.13135860E+03</pdfrwt>
<totfact> 0.23911587E+02</totfact>
</mgrwt>
</event>
<event>
 8    1  0.3754098E-007  0.2777872E+03  0.7546771E-02  0.1096907E+00
         -5   -1    0    0    0  501 -0.00000000000E+00  0.00000000000E+00  0.53943878122E+03  0.53945925581E+03  0.47000000000E+01 0.  1.
          5   -1    0    0  501    0  0.00000000000E+00 -0.00000000000E+00 -0.14723926261E+03  0.14731425747E+03  0.47000000000E+01 0.  1.
         25    2    1    2    0    0 -0.75084581376E+02  0.23641251892E+03  0.25450916107E+03  0.37673424882E+03  0.12500083082E+03 0.  0.
         25    2    1    2    0    0  0.75084581376E+02 -0.23641251892E+03  0.13769035754E+03  0.31003926446E+03  0.12504854053E+03 0.  0.
          5    1    3    3  502    0  0.63245538121E+01  0.17475028481E+03  0.14850360619E+03  0.22946257445E+03  0.47000000000E+01 0. -1.
         -5    1    3    3    0  502 -0.81409135188E+02  0.61662234106E+02  0.10600555488E+03  0.14727167437E+03  0.47000000000E+01 0. -1.
          5    1    4    4  503    0  0.48593817779E+02 -0.12741027228E+03  0.14298638387E+03  0.19764091828E+03  0.47000000000E+01 0. -1.
         -5    1    4    4    0  503  0.26490763597E+02 -0.10900224664E+03 -0.52960263324E+01  0.11239834618E+03  0.47000000000E+01 0. -1.
<mgrwt>
<rscale>  0 0.27778180E+03</rscale>
<asrwt>0</asrwt>
<pdfrwt beam="2">  1        5 0.22659538E-01 0.27778717E+03</pdfrwt>
<pdfrwt beam="1">  1       -5 0.82997926E-01 0.27778717E+03</pdfrwt>
<totfact> 0.19399038E+01</totfact>
</mgrwt>
</event>
<event>
 8    1  0.3754098E-007  0.1359342E+03  0.7546771E-02  0.1218909E+00
         -5   -1    0    0    0  501 -0.00000000000E+00  0.00000000000E+00  0.22078795178E+03  0.22083797149E+03  0.47000000000E+01 0. -1.
          5   -1    0    0  501    0  0.00000000000E+00 -0.00000000000E+00 -0.84200609789E+02  0.84331682592E+02  0.47000000000E+01 0. -1.
         25    2    1    2    0    0 -0.35518525651E+02  0.39884301413E+02  0.81563463640E+02  0.15852663156E+03  0.12500308456E+03 0.  0.
         25    2    1    2    0    0  0.35518525651E+02 -0.39884301413E+02  0.55023878347E+02  0.14664302252E+03  0.12499690277E+03 0.  0.
          5    1    3    3  502    0 -0.80178554252E+02  0.34457983406E+02  0.36608237199E+02  0.94753396843E+02  0.47000000000E+01 0.  1.
         -5    1    3    3    0  502  0.44660028601E+02  0.54263180072E+01  0.44955226440E+02  0.63773234716E+02  0.47000000000E+01 0.  1.
          5    1    4    4  503    0  0.15889879448E+02 -0.84462855347E+02  0.43172924471E+02  0.96293580314E+02  0.47000000000E+01 0.  1.
         -5    1    4    4    0  503  0.19628646203E+02  0.44578553934E+02  0.11850953877E+02  0.50349442205E+02  0.47000000000E+01 0.  1.
<mgrwt>
<rscale>  0 0.13593273E+03</rscale>
<asrwt>0</asrwt>
<pdfrwt beam="2">  1        5 0.12967870E-01 0.13593415E+03</pdfrwt>
<pdfrwt beam="1">  1       -5 0.33981307E-01 0.13593415E+03</pdfrwt>
<totfact> 0.30831385E+02</totfact>
</mgrwt>
</event>
<event>
 8    1  0.3754098E-007  0.1435344E+03  0.7546771E-02  0.1208667E+00
          5   -1    0    0  501    0  0.00000000000E+00  0.00000000000E+00  0.21970674808E+03  0.21975701389E+03  0.47000000000E+01 0. -1.
         -5   -1    0    0    0  501 -0.00000000000E+00 -0.00000000000E+00 -0.10166532941E+03  0.10177391220E+03  0.47000000000E+01 0. -1.
         25    2    1    2    0    0 -0.68194246476E+02 -0.18045220190E+02  0.13818882064E+02  0.14414867571E+03  0.12494716477E+03 0.  0.
         25    2    1    2    0    0  0.68194246476E+02  0.18045220190E+02  0.10422253661E+03  0.17738225037E+03  0.12500416147E+03 0.  0.
          5    1    3    3  502    0 -0.80857681353E+01  0.50036925646E+02  0.15438274139E+02  0.53193081155E+02  0.47000000000E+01 0.  1.
         -5    1    3    3    0  502 -0.60108478341E+02 -0.68082145836E+02 -0.16193920747E+01  0.90955594555E+02  0.47000000000E+01 0.  1.
          5    1    4    4  503    0  0.37829819388E+01  0.63878796944E+02  0.42272549681E+02  0.76836645606E+02  0.47000000000E+01 0. -1.
         -5    1    4    4    0  503  0.64411264537E+02 -0.45833576754E+02  0.61949986931E+02  0.10054560477E+03  0.47000000000E+01 0. -1.
<mgrwt>
<rscale>  0 0.14352200E+03</rscale>
<asrwt>0</asrwt>
<pdfrwt beam="1">  1        5 0.33813257E-01 0.14353441E+03</pdfrwt>
<pdfrwt beam="2">  1       -5 0.15653039E-01 0.14353441E+03</pdfrwt>
<totfact> 0.22595968E+02</totfact>
</mgrwt>
</event>
<event>
 8    1  0.3754098E-007  0.1452508E+03  0.7546771E-02  0.1206434E+00
          5   -1    0    0  501    0  0.00000000000E+00  0.00000000000E+00  0.17450092850E+02  0.18071960062E+02  0.47000000000E+01 0.  1.
         -5   -1    0    0    0  501 -0.00000000000E+00 -0.00000000000E+00 -0.14925726080E+04  0.14925800080E+04  0.47000000000E+01 0.  1.
         25    2    1    2    0    0 -0.68001737566E+02 -0.29125200454E+02 -0.10791371743E+04  0.10888686023E+04  0.12500111401E+03 0.  0.
         25    2    1    2    0    0  0.68001737566E+02  0.29125200454E+02 -0.39598534086E+03  0.42178336572E+03  0.12499721523E+03 0.  0.
          5    1    4    4  502    0  0.10462045542E+02 -0.46355458671E+02 -0.98051885254E+02  0.10906211600E+03  0.47000000000E+01 0. -1.
         -5    1    4    4    0  502  0.57539692024E+02  0.75480659125E+02 -0.29793345560E+03  0.31272124972E+03  0.47000000000E+01 0. -1.
          5    1    3    3  503    0 -0.41701221305E+02 -0.72063344003E+02 -0.44703362106E+03  0.45474527569E+03  0.47000000000E+01 0.  1.
         -5    1    3    3    0  503 -0.26300516261E+02  0.42938143549E+02 -0.63210355327E+03  0.63412332664E+03  0.47000000000E+01 0.  1.
<mgrwt>
<rscale>  0 0.14524995E+03</rscale>
<asrwt>0</asrwt>
<pdfrwt beam="1">  1        5 0.27330360E-02 0.14525079E+03</pdfrwt>
<pdfrwt beam="2">  1       -5 0.22967486E+00 0.14525079E+03</pdfrwt>
<totfact> 0.39889474E+01</totfact>
</mgrwt>
</event>
<event>
 8    1  0.3754098E-007  0.1323118E+03  0.7546771E-02  0.1224071E+00
          5   -1    0    0  501    0  0.00000000000E+00  0.00000000000E+00  0.12082238621E+02  0.12964200326E+02  0.47000000000E+01 0.  1.
         -5   -1    0    0    0  501 -0.00000000000E+00 -0.00000000000E+00 -0.16187965000E+04  0.16188033230E+04  0.47000000000E+01 0.  1.
         25    2    1    2    0    0  0.16707549076E+02 -0.39954806762E+02 -0.11054115674E+04  0.11133019080E+04  0.12502350264E+03 0.  0.
         25    2    1    2    0    0 -0.16707549076E+02  0.39954806762E+02 -0.50130269398E+03  0.51846561529E+03  0.12500669770E+03 0.  0.
          5    1    3    3  502    0  0.56932951056E+02 -0.56980806537E+02 -0.87699329621E+03  0.88069716976E+03  0.47000000000E+01 0.  1.
         -5    1    3    3    0  502 -0.40225401980E+02  0.17025999775E+02 -0.22841827119E+03  0.23260473823E+03  0.47000000000E+01 0.  1.
          5    1    4    4  503    0 -0.25435051530E+02 -0.42226572061E+02 -0.18776203183E+03  0.19418212027E+03  0.47000000000E+01 0.  1.
         -5    1    4    4    0  503  0.87275024531E+01  0.82181378823E+02 -0.31354066215E+03  0.32428349502E+03  0.47000000000E+01 0.  1.
<mgrwt>
<rscale>  0 0.13230780E+03</rscale>
<asrwt>0</asrwt>
<pdfrwt beam="1">  1        5 0.19271753E-02 0.13231177E+03</pdfrwt>
<pdfrwt beam="2">  1       -5 0.24911382E+00 0.13231177E+03</pdfrwt>
<totfact> 0.51047049E+01</totfact>
</mgrwt>
</event>
<event>
 8    1  0.3754098E-007  0.1373544E+03  0.7546771E-02  0.1216944E+00
          5   -1    0    0  501    0  0.00000000000E+00  0.00000000000E+00  0.30972902438E+03  0.30976468253E+03  0.47000000000E+01 0. -1.
         -5   -1    0    0    0  501 -0.00000000000E+00 -0.00000000000E+00 -0.67647005835E+02  0.67810083310E+02  0.47000000000E+01 0. -1.
         25    2    1    2    0    0  0.10906401062E+02  0.55886353396E+02  0.60926525610E+02  0.15023463276E+03  0.12496467211E+03 0.  0.
         25    2    1    2    0    0 -0.10906401062E+02 -0.55886353396E+02  0.18115549293E+03  0.22734013309E+03  0.12499595758E+03 0.  0.
          5    1    4    4  502    0 -0.11502083078E+02 -0.85921534757E+02  0.17634356109E+03  0.19655520748E+03  0.47000000000E+01 0.  1.
         -5    1    4    4    0  502  0.59568201642E+00  0.30035181361E+02  0.48119318478E+01  0.30784925606E+02  0.47000000000E+01 0.  1.
          5    1    3    3  503    0  0.12187467504E+02  0.92469470292E+02  0.20721133395E+02  0.95658730231E+02  0.47000000000E+01 0. -1.
         -5    1    3    3    0  503 -0.12810664424E+01 -0.36583116897E+02  0.40205392216E+02  0.54575902524E+02  0.47000000000E+01 0. -1.
<mgrwt>
<rscale>  0 0.13734725E+03</rscale>
<asrwt>0</asrwt>
<pdfrwt beam="1">  1        5 0.47665907E-01 0.13735437E+03</pdfrwt>
<pdfrwt beam="2">  1       -5 0.10422519E-01 0.13735437E+03</pdfrwt>
<totfact> 0.22767940E+02</totfact>
</mgrwt>
</event>
<event>
 8    1  0.3754098E-007  0.1274397E+03  0.7546771E-02  0.1231311E+00
         -5   -1    0    0    0  501 -0.00000000000E+00  0.00000000000E+00  0.24244000764E+03  0.24248556102E+03  0.47000000000E+01 0. -1.
          5   -1    0    0  501    0  0.00000000000E+00 -0.00000000000E+00 -0.94599393845E+02  0.94716077388E+02  0.47000000000E+01 0. -1.
         25    2    1    2    0    0 -0.76697920797E+01  0.23596476998E+02  0.16515325236E+03  0.20860605011E+03  0.12500107174E+03 0.  0.
         25    2    1    2    0    0  0.76697920797E+01 -0.23596476998E+02 -0.17312638568E+02  0.12859558831E+03  0.12498591297E+03 0.  0.
          5    1    3    3  502    0  0.32373077594E+02 -0.55766290184E+01 -0.29270132502E+01  0.33313245875E+02  0.47000000000E+01 0.  1.
         -5    1    3    3    0  502 -0.40042869674E+02  0.29173106016E+02  0.16808026561E+03  0.17529280423E+03  0.47000000000E+01 0.  1.
          5    1    4    4  503    0  0.63782660931E+02 -0.48981379939E+01 -0.24845304514E+02  0.68786617504E+02  0.47000000000E+01 0. -1.
         -5    1    4    4    0  503 -0.56112868851E+02 -0.18698339004E+02  0.75326659462E+01  0.59808970802E+02  0.47000000000E+01 0. -1.
<mgrwt>
<rscale>  0 0.12743602E+03</rscale>
<asrwt>0</asrwt>
<pdfrwt beam="2">  1        5 0.14566233E-01 0.12743974E+03</pdfrwt>
<pdfrwt beam="1">  1       -5 0.37310942E-01 0.12743974E+03</pdfrwt>
<totfact> 0.20278751E+02</totfact>
</mgrwt>
</event>
<event>
 8    1  0.3754098E-007  0.1334627E+03  0.7546771E-02  0.1222411E+00
         -5   -1    0    0    0  501 -0.00000000000E+00  0.00000000000E+00  0.11868760625E+03  0.11878062922E+03  0.47000000000E+01 0.  1.
          5   -1    0    0  501    0  0.00000000000E+00 -0.00000000000E+00 -0.15288186938E+03  0.15295409764E+03  0.47000000000E+01 0.  1.
         25    2    1    2    0    0  0.28718151732E+01  0.46629056168E+02  0.19482131499E+01  0.13347687200E+03  0.12501905304E+03 0.  0.
         25    2    1    2    0    0 -0.28718151732E+01 -0.46629056168E+02 -0.36142476273E+02  0.13825785486E+03  0.12500575842E+03 0.  0.
          5    1    3    3  502    0 -0.58061491289E+02  0.38777056611E+02 -0.10071490310E+02  0.70698810507E+02  0.47000000000E+01 0. -1.
         -5    1    3    3    0  502  0.60933306462E+02  0.78519995570E+01  0.12019703460E+02  0.62778061492E+02  0.47000000000E+01 0. -1.
          5    1    4    4  503    0 -0.53307632292E+02 -0.57684355062E+02 -0.75407466084E+01  0.79045185425E+02  0.47000000000E+01 0. -1.
         -5    1    4    4    0  503  0.50435817119E+02  0.11055298895E+02 -0.28601729665E+02  0.59212669437E+02  0.47000000000E+01 0. -1.
<mgrwt>
<rscale>  0 0.13345954E+03</rscale>
<asrwt>0</asrwt>
<pdfrwt beam="2">  1        5 0.23532999E-01 0.13346265E+03</pdfrwt>
<pdfrwt beam="1">  1       -5 0.18272343E-01 0.13346265E+03</pdfrwt>
<totfact> 0.33621943E+02</totfact>
</mgrwt>
</event>
<event>
 8    1  0.3754098E-007  0.1397981E+03  0.7546771E-02  0.1213604E+00
          5   -1    0    0  501    0  0.00000000000E+00  0.00000000000E+00  0.13295450340E+03  0.13303755099E+03  0.47000000000E+01 0. -1.
         -5   -1    0    0    0  501 -0.00000000000E+00 -0.00000000000E+00 -0.14895981997E+03  0.14903394903E+03  0.47000000000E+01 0. -1.
         25    2    1    2    0    0 -0.25616217875E+02 -0.57119617533E+02 -0.24907911064E+02  0.14199025209E+03  0.12498794474E+03 0.  0.
         25    2    1    2    0    0  0.25616217875E+02  0.57119617533E+02  0.89025944984E+01  0.14008124794E+03  0.12499863403E+03 0.  0.
          5    1    4    4  502    0  0.10014028305E+02 -0.39873473133E+02  0.46067101594E+01  0.41635158233E+02  0.47000000000E+01 0.  1.
         -5    1    4    4    0  502  0.15602189571E+02  0.96993090666E+02  0.42958843390E+01  0.98446089707E+02  0.47000000000E+01 0.  1.
          5    1    3    3  503    0 -0.73570491138E+02 -0.18517292176E+02 -0.16914965658E+01  0.76029326161E+02  0.47000000000E+01 0.  1.
         -5    1    3    3    0  503  0.47954273263E+02 -0.38602325357E+02 -0.23216414498E+02  0.65960925928E+02  0.47000000000E+01 0.  1.
<mgrwt>
<rscale>  0 0.13979568E+03</rscale>
<asrwt>0</asrwt>
<pdfrwt beam="1">  1        5 0.20466629E-01 0.13979807E+03</pdfrwt>
<pdfrwt beam="2">  1       -5 0.22928986E-01 0.13979807E+03</pdfrwt>
<totfact> 0.29068761E+02</totfact>
</mgrwt>
</event>
<event>
 8    1  0.3754098E-007  0.1280297E+03  0.7546771E-02  0.1230410E+00
          5   -1    0    0  501    0  0.00000000000E+00  0.00000000000E+00  0.59368022120E+02  0.59553774444E+02  0.47000000000E+01 0. -1.
         -5   -1    0    0    0  501 -0.00000000000E+00 -0.00000000000E+00 -0.27601798722E+03  0.27605799983E+03  0.47000000000E+01 0. -1.
         25    2    1    2    0    0 -0.25177175392E+02  0.11507964771E+02 -0.10076320544E+03  0.16292579819E+03  0.12500107492E+03 0.  0.
         25    2    1    2    0    0  0.25177175392E+02 -0.11507964771E+02 -0.11588675966E+03  0.17268597609E+03  0.12499752741E+03 0.  0.
          5    1    4    4  502    0 -0.23810104391E+02  0.36663416276E+02 -0.88031663282E+02  0.98401173287E+02  0.47000000000E+01 0.  1.
         -5    1    4    4    0  502  0.48987279783E+02 -0.48171381047E+02 -0.27855096379E+02  0.74284802798E+02  0.47000000000E+01 0.  1.
          5    1    3    3  503    0 -0.28183538238E+02  0.11278882632E+02 -0.12978547305E+03  0.13337122641E+03  0.47000000000E+01 0. -1.
         -5    1    3    3    0  503  0.30063628456E+01  0.22908213946E+00  0.29022267603E+02  0.29554571778E+02  0.47000000000E+01 0. -1.
<mgrwt>
<rscale>  0 0.12802879E+03</rscale>
<asrwt>0</asrwt>
<pdfrwt beam="1">  1        5 0.91509086E-02 0.12802965E+03</pdfrwt>
<pdfrwt beam="2">  1       -5 0.42481671E-01 0.12802965E+03</pdfrwt>
<totfact> 0.35403365E+02</totfact>
</mgrwt>
</event>
<event>
 8    1  0.3754098E-007  0.1766214E+03  0.7546771E-02  0.1171116E+00
          5   -1    0    0  501    0  0.00000000000E+00  0.00000000000E+00  0.37208454506E+02  0.37504120930E+02  0.47000000000E+01 0. -1.
         -5   -1    0    0    0  501 -0.00000000000E+00 -0.00000000000E+00 -0.88704024173E+03  0.88705269316E+03  0.47000000000E+01 0. -1.
         25    2    1    2    0    0  0.10469698650E+03 -0.67882075752E+02 -0.53717410664E+03  0.56546541751E+03  0.12500272942E+03 0.  0.
         25    2    1    2    0    0 -0.10469698650E+03  0.67882075752E+02 -0.31265768058E+03  0.35909139659E+03  0.12498948229E+03 0.  0.
          5    1    4    4  502    0 -0.15274018025E+02  0.84029653697E+02 -0.15708886016E+03  0.17886664953E+03  0.47000000000E+01 0.  1.
         -5    1    4    4    0  502 -0.89422968473E+02 -0.16147577944E+02 -0.15556882042E+03  0.18022474706E+03  0.47000000000E+01 0.  1.
          5    1    3    3  503    0  0.93838235672E+02 -0.99182969498E+02 -0.35778138329E+03  0.38297843822E+03  0.47000000000E+01 0.  1.
         -5    1    3    3    0  503  0.10858750826E+02  0.31300893745E+02 -0.17939272335E+03  0.18248697929E+03  0.47000000000E+01 0.  1.
<mgrwt>
<rscale>  0 0.17661905E+03</rscale>
<asrwt>0</asrwt>
<pdfrwt beam="1">  1        5 0.57480797E-02 0.17662140E+03</pdfrwt>
<pdfrwt beam="2">  1       -5 0.13649141E+00 0.17662140E+03</pdfrwt>
<totfact> 0.58092696E+01</totfact>
</mgrwt>
</event>
<event>
 8    1  0.3754098E-007  0.1407437E+03  0.7546771E-02  0.1212333E+00
         -5   -1    0    0    0  501 -0.00000000000E+00  0.00000000000E+00  0.64539252425E+02  0.64710162290E+02  0.47000000000E+01 0. -1.
          5   -1    0    0  501    0  0.00000000000E+00 -0.00000000000E+00 -0.30656328532E+03  0.30659931165E+03  0.47000000000E+01 0. -1.
         25    2    1    2    0    0 -0.55190907283E+02 -0.33724136237E+02 -0.12623764262E+03  0.18905888159E+03  0.12499585866E+03 0.  0.
         25    2    1    2    0    0  0.55190907283E+02  0.33724136237E+02 -0.11578639027E+03  0.18225059236E+03  0.12500174651E+03 0.  0.
          5    1    3    3  502    0 -0.46863627344E+02 -0.16523894334E+02 -0.15006922632E+03  0.15815214617E+03  0.47000000000E+01 0. -1.
         -5    1    3    3    0  502 -0.83272799396E+01 -0.17200241903E+02  0.23831583694E+02  0.30906735416E+02  0.47000000000E+01 0. -1.
          5    1    4    4  503    0 -0.12863737726E+02 -0.16322580761E+02  0.15300386337E+02  0.26231549955E+02  0.47000000000E+01 0.  1.
         -5    1    4    4    0  503  0.68054645009E+02  0.50046716997E+02 -0.13108677661E+03  0.15601904240E+03  0.47000000000E+01 0.  1.
<mgrwt>
<rscale>  0 0.14074240E+03</rscale>
<asrwt>0</asrwt>
<pdfrwt beam="2">  1        5 0.47179500E-01 0.14074370E+03</pdfrwt>
<pdfrwt beam="1">  1       -5 0.99450341E-02 0.14074370E+03</pdfrwt>
<totfact> 0.25459729E+02</totfact>
</mgrwt>
</event>
<event>
 8    1  0.3754098E-007  0.1346435E+03  0.7546771E-02  0.1220728E+00
         -5   -1    0    0    0  501 -0.00000000000E+00  0.00000000000E+00  0.21492052146E+02  0.21999961487E+02  0.47000000000E+01 0.  1.
          5   -1    0    0  501    0  0.00000000000E+00 -0.00000000000E+00 -0.87823528236E+03  0.87824785862E+03  0.47000000000E+01 0.  1.
         25    2    1    2    0    0 -0.29629571170E+02  0.40322110847E+02 -0.32632610602E+03  0.35300820534E+03  0.12498912537E+03 0.  0.
         25    2    1    2    0    0  0.29629571170E+02 -0.40322110847E+02 -0.53041712419E+03  0.54723961477E+03  0.12500034489E+03 0.  0.
          5    1    3    3  502    0 -0.43670752494E+02  0.39657850770E+02 -0.33192887766E+03  0.33716279388E+03  0.47000000000E+01 0.  1.
         -5    1    3    3    0  502  0.14041181324E+02  0.66426007715E+00  0.56027716430E+01  0.15845411465E+02  0.47000000000E+01 0.  1.
          5    1    4    4  503    0 -0.67108469526E+01 -0.80096685149E+02 -0.32442569721E+03  0.33426731436E+03  0.47000000000E+01 0. -1.
         -5    1    4    4    0  503  0.36340418123E+02  0.39774574302E+02 -0.20599142698E+03  0.21297230041E+03  0.47000000000E+01 0. -1.
<mgrwt>
<rscale>  0 0.13464089E+03</rscale>
<asrwt>0</asrwt>
<pdfrwt beam="2">  1        5 0.13515313E+00 0.13464349E+03</pdfrwt>
<pdfrwt beam="1">  1       -5 0.33465076E-02 0.13464349E+03</pdfrwt>
<totfact> 0.13447274E+02</totfact>
</mgrwt>
</event>
<event>
 8    1  0.3754098E-007  0.1308436E+03  0.7546771E-02  0.1226210E+00
          5   -1    0    0  501    0  0.00000000000E+00  0.00000000000E+00  0.14241027380E+03  0.14248781030E+03  0.47000000000E+01 0.  1.
         -5   -1    0    0    0  501 -0.00000000000E+00 -0.00000000000E+00 -0.12107907963E+03  0.12117026667E+03  0.47000000000E+01 0.  1.
         25    2    1    2    0    0  0.38090520792E+02 -0.66827899494E+01  0.22756910987E+02  0.13280666804E+03  0.12499674645E+03 0.  0.
         25    2    1    2    0    0 -0.38090520792E+02  0.66827899494E+01 -0.14257168173E+01  0.13085140892E+03  0.12499804435E+03 0.  0.
          5    1    4    4  502    0 -0.51798132545E+02  0.39621357947E+02  0.39473439616E+02  0.76375002297E+02  0.47000000000E+01 0. -1.
         -5    1    4    4    0  502  0.13707611753E+02 -0.32938567997E+02 -0.40899156434E+02  0.54476406624E+02  0.47000000000E+01 0. -1.
          5    1    3    3  503    0  0.39886900467E+02 -0.55077424883E+02  0.42465322750E+02  0.80311152382E+02  0.47000000000E+01 0. -1.
         -5    1    3    3    0  503 -0.17963796751E+01  0.48394634934E+02 -0.19708411763E+02  0.52495515661E+02  0.47000000000E+01 0. -1.
<mgrwt>
<rscale>  0 0.13084333E+03</rscale>
<asrwt>0</asrwt>
<pdfrwt beam="1">  1        5 0.21922252E-01 0.13084364E+03</pdfrwt>
<pdfrwt beam="2">  1       -5 0.18640530E-01 0.13084364E+03</pdfrwt>
<totfact> 0.36795003E+02</totfact>
</mgrwt>
</event>
<event>
 8    1  0.3754098E-007  0.1820162E+03  0.7546771E-02  0.1165868E+00
          5   -1    0    0  501    0  0.00000000000E+00  0.00000000000E+00  0.61105004794E+02  0.61285492663E+02  0.47000000000E+01 0. -1.
         -5   -1    0    0    0  501 -0.00000000000E+00 -0.00000000000E+00 -0.14833583814E+04  0.14833658273E+04  0.47000000000E+01 0. -1.
         25    2    1    2    0    0 -0.12209769656E+03 -0.50958801093E+02 -0.13266171525E+04  0.13390455444E+04  0.12500101438E+03 0.  0.
         25    2    1    2    0    0  0.12209769656E+03  0.50958801093E+02 -0.95636224058E+02  0.20560577560E+03  0.12499120247E+03 0.  0.
          5    1    4    4  502    0  0.42810115818E+02  0.17236302637E+01  0.27423122227E+02  0.51086148321E+02  0.47000000000E+01 0.  1.
         -5    1    4    4    0  502  0.79287580738E+02  0.49235170829E+02 -0.12305934628E+03  0.15451962728E+03  0.47000000000E+01 0.  1.
          5    1    3    3  503    0 -0.79563897352E+02 -0.83190113466E+02 -0.11074151486E+04  0.11133918493E+04  0.47000000000E+01 0. -1.
         -5    1    3    3    0  503 -0.42533799204E+02  0.32231312373E+02 -0.21920200398E+03  0.22565369512E+03  0.47000000000E+01 0. -1.
<mgrwt>
<rscale>  0 0.18201452E+03</rscale>
<asrwt>0</asrwt>
<pdfrwt beam="1">  1        5 0.94152275E-02 0.18201621E+03</pdfrwt>
<pdfrwt beam="2">  1       -5 0.22822341E+00 0.18201621E+03</pdfrwt>
<totfact> 0.54434799E+00</totfact>
</mgrwt>
</event>
<event>
 8    1  0.3754098E-007  0.1344308E+03  0.7546771E-02  0.1221029E+00
         -5   -1    0    0    0  501 -0.00000000000E+00  0.00000000000E+00  0.38690637643E+02  0.38975061786E+02  0.47000000000E+01 0. -1.
          5   -1    0    0  501    0  0.00000000000E+00 -0.00000000000E+00 -0.54048546095E+03  0.54050589589E+03  0.47000000000E+01 0. -1.
         25    2    1    2    0    0  0.48582245314E+02 -0.90434630441E+01 -0.14266598577E+03  0.19601626472E+03  0.12500709482E+03 0.  0.
         25    2    1    2    0    0 -0.48582245314E+02  0.90434630441E+01 -0.35912883753E+03  0.38346469296E+03  0.12501851869E+03 0.  0.
          5    1    3    3  502    0  0.16784855115E+02 -0.20499016443E+02 -0.15679243673E+03  0.15908456636E+03  0.47000000000E+01 0. -1.
         -5    1    3    3    0  502  0.31797390199E+02  0.11455553399E+02  0.14126450962E+02  0.36931698362E+02  0.47000000000E+01 0. -1.
          5    1    4    4  503    0 -0.66839495095E+02 -0.38512554612E+02 -0.26842614323E+03  0.27933030509E+03  0.47000000000E+01 0. -1.
         -5    1    4    4    0  503  0.18257249781E+02  0.47556017656E+02 -0.90702694300E+02  0.10413438788E+03  0.47000000000E+01 0. -1.
<mgrwt>
<rscale>  0 0.13442818E+03</rscale>
<asrwt>0</asrwt>
<pdfrwt beam="2">  1        5 0.83175055E-01 0.13443083E+03</pdfrwt>
<pdfrwt beam="1">  1       -5 0.59758569E-02 0.13443083E+03</pdfrwt>
<totfact> 0.17127275E+02</totfact>
</mgrwt>
</event>
<event>
 8    1  0.3754098E-007  0.1280520E+03  0.7546771E-02  0.1230380E+00
         -5   -1    0    0    0  501 -0.00000000000E+00  0.00000000000E+00  0.56333416490E+02  0.56529141276E+02  0.47000000000E+01 0. -1.
          5   -1    0    0  501    0  0.00000000000E+00 -0.00000000000E+00 -0.35241667748E+03  0.35244801682E+03  0.47000000000E+01 0. -1.
         25    2    1    2    0    0  0.24711431752E+02  0.12669312363E+02 -0.62244121424E+02  0.14237853787E+03  0.12500460416E+03 0.  0.
         25    2    1    2    0    0 -0.24711431752E+02 -0.12669312363E+02 -0.23383913956E+03  0.26659862023E+03  0.12499165884E+03 0.  0.
          5    1    3    3  502    0 -0.39485703263E+02 -0.22411290269E+02  0.85727812993E+00  0.45653166587E+02  0.47000000000E+01 0. -1.
         -5    1    3    3    0  502  0.64197135014E+02  0.35080602631E+02 -0.63101399554E+02  0.96725371287E+02  0.47000000000E+01 0. -1.
          5    1    4    4  503    0  0.25623233078E+02 -0.27788425310E+00  0.98916396024E+00  0.26070975017E+02  0.47000000000E+01 0.  1.
         -5    1    4    4    0  503 -0.50334664829E+02 -0.12391428110E+02 -0.23482830352E+03  0.24052764521E+03  0.47000000000E+01 0.  1.
<mgrwt>
<rscale>  0 0.12804885E+03</rscale>
<asrwt>0</asrwt>
<pdfrwt beam="2">  1        5 0.54235416E-01 0.12805201E+03</pdfrwt>
<pdfrwt beam="1">  1       -5 0.86841461E-02 0.12805201E+03</pdfrwt>
<totfact> 0.23188399E+02</totfact>
</mgrwt>
</event>
<event>
 8    1  0.3754098E-007  0.1371818E+03  0.7546771E-02  0.1217175E+00
          5   -1    0    0  501    0  0.00000000000E+00  0.00000000000E+00  0.77129423809E+03  0.77130855804E+03  0.47000000000E+01 0.  1.
         -5   -1    0    0    0  501 -0.00000000000E+00 -0.00000000000E+00 -0.26801665100E+02  0.27210645934E+02  0.47000000000E+01 0.  1.
         25    2    1    2    0    0  0.42277510617E+02  0.37502202105E+02  0.24783583458E+03  0.28326512366E+03  0.12499090491E+03 0.  0.
         25    2    1    2    0    0 -0.42277510617E+02 -0.37502202105E+02  0.49665673841E+03  0.51525408032E+03  0.12500019365E+03 0.  0.
          5    1    3    3  502    0 -0.72649977276E+01  0.16298092029E+02  0.22296548967E+03  0.22372775327E+03  0.47000000000E+01 0. -1.
         -5    1    3    3    0  502  0.49542508345E+02  0.21204110076E+02  0.24870344906E+02  0.59537370390E+02  0.47000000000E+01 0. -1.
          5    1    4    4  503    0 -0.85606628645E+01 -0.81086583951E+02  0.30982029118E+03  0.32040446606E+03  0.47000000000E+01 0.  1.
         -5    1    4    4    0  503 -0.33716847753E+02  0.43584381846E+02  0.18683644723E+03  0.19484961426E+03  0.47000000000E+01 0.  1.
<mgrwt>
<rscale>  0 0.13717970E+03</rscale>
<asrwt>0</asrwt>
<pdfrwt beam="1">  1        5 0.11869321E+00 0.13718182E+03</pdfrwt>
<pdfrwt beam="2">  1       -5 0.41558947E-02 0.13718182E+03</pdfrwt>
<totfact> 0.13286837E+02</totfact>
</mgrwt>
</event>
<event>
 8    1  0.3754098E-007  0.2013807E+03  0.7546771E-02  0.1148582E+00
          5   -1    0    0  501    0  0.00000000000E+00  0.00000000000E+00  0.12092103117E+03  0.12101233730E+03  0.47000000000E+01 0.  1.
         -5   -1    0    0    0  501 -0.00000000000E+00 -0.00000000000E+00 -0.35169047397E+03  0.35172187802E+03  0.47000000000E+01 0.  1.
         25    2    1    2    0    0  0.15082984609E+03  0.46633707497E+02 -0.16667732024E+03  0.26140034390E+03  0.12499786223E+03 0.  0.
         25    2    1    2    0    0 -0.15082984609E+03 -0.46633707497E+02 -0.64092122552E+02  0.21133387143E+03  0.12501943806E+03 0.  0.
          5    1    4    4  502    0  0.16769196328E+02 -0.81045719522E+01  0.12606294193E+02  0.22976045902E+02  0.47000000000E+01 0. -1.
         -5    1    4    4    0  502 -0.16759904242E+03 -0.38529135545E+02 -0.76698416745E+02  0.18835782552E+03  0.47000000000E+01 0. -1.
          5    1    3    3  503    0  0.98632170389E+02 -0.23793807985E+02 -0.44346000293E+02  0.11082918422E+03  0.47000000000E+01 0.  1.
         -5    1    3    3    0  503  0.52197675701E+02  0.70427515482E+02 -0.12233131995E+03  0.15057115967E+03  0.47000000000E+01 0.  1.
<mgrwt>
<rscale>  0 0.20137740E+03</rscale>
<asrwt>0</asrwt>
<pdfrwt beam="1">  1        5 0.18612675E-01 0.20138075E+03</pdfrwt>
<pdfrwt beam="2">  1       -5 0.54115666E-01 0.20138075E+03</pdfrwt>
<totfact> 0.68510755E+01</totfact>
</mgrwt>
</event>
<event>
 8    1  0.3754098E-007  0.1635053E+03  0.7546771E-02  0.1184797E+00
         -5   -1    0    0    0  501 -0.00000000000E+00  0.00000000000E+00  0.34998447434E+02  0.35312622712E+02  0.47000000000E+01 0. -1.
          5   -1    0    0  501    0  0.00000000000E+00 -0.00000000000E+00 -0.78029136249E+03  0.78030551734E+03  0.47000000000E+01 0. -1.
         25    2    1    2    0    0 -0.10444574723E+01 -0.10538447779E+03 -0.30706547861E+03  0.34788389044E+03  0.12500805583E+03 0.  0.
         25    2    1    2    0    0  0.10444574723E+01  0.10538447779E+03 -0.43822743645E+03  0.46773424961E+03  0.12500025260E+03 0.  0.
          5    1    3    3  502    0  0.38816042432E+02 -0.11287010240E+03 -0.19575601202E+03  0.22932259245E+03  0.47000000000E+01 0.  1.
         -5    1    3    3    0  502 -0.39860499904E+02  0.74856246073E+01 -0.11130946659E+03  0.11856129799E+03  0.47000000000E+01 0.  1.
          5    1    4    4  503    0  0.23864720139E+02 -0.12943948617E+02 -0.18745929770E+03  0.18947334633E+03  0.47000000000E+01 0. -1.
         -5    1    4    4    0  503 -0.22820262667E+02  0.11832842641E+03 -0.25076813875E+03  0.27826090328E+03  0.47000000000E+01 0. -1.
<mgrwt>
<rscale>  0 0.16350384E+03</rscale>
<asrwt>0</asrwt>
<pdfrwt beam="2">  1        5 0.12007007E+00 0.16350533E+03</pdfrwt>
<pdfrwt beam="1">  1       -5 0.54096333E-02 0.16350533E+03</pdfrwt>
<totfact> 0.87943100E+01</totfact>
</mgrwt>
</event>
<event>
 8    1  0.3754098E-007  0.1318337E+03  0.7546771E-02  0.1224775E+00
          5   -1    0    0  501    0  0.00000000000E+00  0.00000000000E+00  0.30795425734E+03  0.30799012097E+03  0.47000000000E+01 0. -1.
         -5   -1    0    0    0  501 -0.00000000000E+00 -0.00000000000E+00 -0.56548566845E+02  0.56743549521E+02  0.47000000000E+01 0. -1.
         25    2    1    2    0    0 -0.41735068796E+02 -0.17182871113E+01  0.13819534519E+03  0.19099233178E+03  0.12504138870E+03 0.  0.
         25    2    1    2    0    0  0.41735068796E+02  0.17182871113E+01  0.11321034530E+03  0.17374133871E+03  0.12499880805E+03 0.  0.
          5    1    3    3  502    0 -0.47899100584E+02 -0.37880274996E+02  0.15972383157E+02  0.63296493539E+02  0.47000000000E+01 0. -1.
         -5    1    3    3    0  502  0.61640317885E+01  0.36161987885E+02  0.12222296203E+03  0.12769583824E+03  0.47000000000E+01 0. -1.
          5    1    4    4  503    0 -0.40767298621E+02 -0.74951105221E+01  0.13358458771E+02  0.43802827984E+02  0.47000000000E+01 0. -1.
         -5    1    4    4    0  503  0.82502367417E+02  0.92133976334E+01  0.99851886533E+02  0.12993851073E+03  0.47000000000E+01 0. -1.
<mgrwt>
<rscale>  0 0.13182358E+03</rscale>
<asrwt>0</asrwt>
<pdfrwt beam="1">  1        5 0.47395334E-01 0.13183367E+03</pdfrwt>
<pdfrwt beam="2">  1       -5 0.87175371E-02 0.13183367E+03</pdfrwt>
<totfact> 0.30989258E+02</totfact>
</mgrwt>
</event>
<event>
 8    1  0.3754098E-007  0.1329535E+03  0.7546771E-02  0.1223140E+00
          5   -1    0    0  501    0  0.00000000000E+00  0.00000000000E+00  0.15872896250E+02  0.16554118381E+02  0.47000000000E+01 0.  1.
         -5   -1    0    0    0  501 -0.00000000000E+00 -0.00000000000E+00 -0.13710357703E+04  0.13710438262E+04  0.47000000000E+01 0.  1.
         25    2    1    2    0    0 -0.12590621970E+02 -0.43514401667E+02 -0.99189718417E+03  0.10007680275E+04  0.12499837593E+03 0.  0.
         25    2    1    2    0    0  0.12590621970E+02  0.43514401667E+02 -0.36326568990E+03  0.38682991713E+03  0.12499358550E+03 0.  0.
          5    1    4    4  502    0 -0.51994167612E+02  0.41545333192E+02 -0.21267147509E+03  0.22289157564E+03  0.47000000000E+01 0. -1.
         -5    1    4    4    0  502  0.64584789581E+02  0.19690684748E+01 -0.15059421481E+03  0.16393834149E+03  0.47000000000E+01 0. -1.
          5    1    3    3  503    0 -0.60155367744E+02  0.92974397166E+01 -0.50832956113E+03  0.51198256159E+03  0.47000000000E+01 0.  1.
         -5    1    3    3    0  503  0.47564745774E+02 -0.52811841383E+02 -0.48356762304E+03  0.48878546591E+03  0.47000000000E+01 0.  1.
<mgrwt>
<rscale>  0 0.13295233E+03</rscale>
<asrwt>0</asrwt>
<pdfrwt beam="1">  1        5 0.24950065E-02 0.13295345E+03</pdfrwt>
<pdfrwt beam="2">  1       -5 0.21098151E+00 0.13295345E+03</pdfrwt>
<totfact> 0.59657238E+01</totfact>
</mgrwt>
</event>
<event>
 8    1  0.3754098E-007  0.1294600E+03  0.7546771E-02  0.1228260E+00
          5   -1    0    0  501    0  0.00000000000E+00  0.00000000000E+00  0.18892343462E+02  0.19468195640E+02  0.47000000000E+01 0. -1.
         -5   -1    0    0    0  501 -0.00000000000E+00 -0.00000000000E+00 -0.99668168421E+03  0.99669276592E+03  0.47000000000E+01 0. -1.
         25    2    1    2    0    0  0.32853339678E+02 -0.74463519589E+01 -0.66766747393E+03  0.68010274542E+03  0.12500039399E+03 0.  0.
         25    2    1    2    0    0 -0.32853339678E+02  0.74463519589E+01 -0.31012186682E+03  0.33605821614E+03  0.12499904909E+03 0.  0.
          5    1    3    3  502    0  0.13209027781E+02  0.54132128449E+02 -0.43496322359E+03  0.43854288459E+03  0.47000000000E+01 0. -1.
         -5    1    3    3    0  502  0.19644311897E+02 -0.61578480408E+02 -0.23270425034E+03  0.24155986083E+03  0.47000000000E+01 0. -1.
          5    1    4    4  503    0 -0.33048514802E+02 -0.24163572382E+02 -0.23058584074E+02  0.47221508451E+02  0.47000000000E+01 0.  1.
         -5    1    4    4    0  503  0.19517512437E+00  0.31609924340E+02 -0.28706328274E+03  0.28883670769E+03  0.47000000000E+01 0.  1.
<mgrwt>
<rscale>  0 0.12945966E+03</rscale>
<asrwt>0</asrwt>
<pdfrwt beam="1">  1        5 0.29516639E-02 0.12945999E+03</pdfrwt>
<pdfrwt beam="2">  1       -5 0.15338075E+00 0.12945999E+03</pdfrwt>
<totfact> 0.11576006E+02</totfact>
</mgrwt>
</event>
<event>
 8    1  0.3754098E-007  0.1307591E+03  0.7546771E-02  0.1226334E+00
          5   -1    0    0  501    0  0.00000000000E+00  0.00000000000E+00  0.10415737754E+03  0.10426336507E+03  0.47000000000E+01 0. -1.
         -5   -1    0    0    0  501 -0.00000000000E+00 -0.00000000000E+00 -0.22451652044E+03  0.22456570965E+03  0.47000000000E+01 0. -1.
         25    2    1    2    0    0 -0.13217993950E+01  0.38358373134E+02 -0.14555638773E+03  0.19566453077E+03  0.12499933860E+03 0.  0.
         25    2    1    2    0    0  0.13217993950E+01 -0.38358373134E+02  0.25197244826E+02  0.13316454395E+03  0.12499913070E+03 0.  0.
          5    1    4    4  502    0 -0.28532174290E+01 -0.39952209782E+02 -0.46284352122E+02  0.61389340829E+02  0.47000000000E+01 0.  1.
         -5    1    4    4    0  502  0.41750168241E+01  0.15938366473E+01  0.71481596947E+02  0.71775203120E+02  0.47000000000E+01 0.  1.
          5    1    3    3  503    0 -0.28967701789E+02  0.60733865902E+02 -0.28486252725E+02  0.73220808577E+02  0.47000000000E+01 0. -1.
         -5    1    3    3    0  503  0.27645902394E+02 -0.22375492767E+02 -0.11707013500E+03  0.12244372220E+03  0.47000000000E+01 0. -1.
<mgrwt>
<rscale>  0 0.13075907E+03</rscale>
<asrwt>0</asrwt>
<pdfrwt beam="1">  1        5 0.16036149E-01 0.13075912E+03</pdfrwt>
<pdfrwt beam="2">  1       -5 0.34552940E-01 0.13075912E+03</pdfrwt>
<totfact> 0.20064119E+02</totfact>
</mgrwt>
</event>
<event>
 8    1  0.3754098E-007  0.1394109E+03  0.7546771E-02  0.1214124E+00
         -5   -1    0    0    0  501 -0.00000000000E+00  0.00000000000E+00  0.37610453485E+03  0.37613390054E+03  0.47000000000E+01 0. -1.
          5   -1    0    0  501    0  0.00000000000E+00 -0.00000000000E+00 -0.51878173901E+02  0.52090641456E+02  0.47000000000E+01 0. -1.
         25    2    1    2    0    0 -0.40787171049E+01  0.61594840456E+02  0.17943174225E+03  0.22722489805E+03  0.12499937545E+03 0.  0.
         25    2    1    2    0    0  0.40787171049E+01 -0.61594840456E+02  0.14479461870E+03  0.20099964395E+03  0.12499925983E+03 0.  0.
          5    1    4    4  502    0 -0.10447472983E+02  0.79181460361E+01 -0.18333143406E+02  0.23022616610E+02  0.47000000000E+01 0. -1.
         -5    1    4    4    0  502  0.14526190088E+02 -0.69512986492E+02  0.16312776211E+03  0.17797702734E+03  0.47000000000E+01 0. -1.
          5    1    3    3  503    0  0.33366423203E+02  0.76063678851E+02  0.64121668310E+02  0.10503656404E+03  0.47000000000E+01 0. -1.
         -5    1    3    3    0  503 -0.37445140308E+02 -0.14468838395E+02  0.11531007394E+03  0.12218833401E+03  0.47000000000E+01 0. -1.
<mgrwt>
<rscale>  0 0.13941089E+03</rscale>
<asrwt>0</asrwt>
<pdfrwt beam="2">  1        5 0.79998601E-02 0.13941092E+03</pdfrwt>
<pdfrwt beam="1">  1       -5 0.57880838E-01 0.13941092E+03</pdfrwt>
<totfact> 0.23893621E+02</totfact>
</mgrwt>
</event>
<event>
 8    1  0.3754098E-007  0.1510751E+03  0.7546771E-02  0.1199159E+00
         -5   -1    0    0    0  501 -0.00000000000E+00  0.00000000000E+00  0.13521045536E+03  0.13529211817E+03  0.47000000000E+01 0.  1.
          5   -1    0    0  501    0  0.00000000000E+00 -0.00000000000E+00 -0.19878887047E+03  0.19884442417E+03  0.47000000000E+01 0.  1.
         25    2    1    2    0    0 -0.13415618357E+02 -0.83778748353E+02  0.33259760224E+02  0.15468926226E+03  0.12499479476E+03 0.  0.
         25    2    1    2    0    0  0.13415618357E+02  0.83778748353E+02 -0.96838175337E+02  0.17944728007E+03  0.12499934652E+03 0.  0.
          5    1    4    4  502    0 -0.55454688792E+02  0.31344150857E+02 -0.48451660086E+02  0.80170640930E+02  0.47000000000E+01 0.  1.
         -5    1    4    4    0  502  0.68870307149E+02  0.52434597496E+02 -0.48386515251E+02  0.99276639143E+02  0.47000000000E+01 0.  1.
          5    1    3    3  503    0  0.25153155480E+02 -0.53922605603E+01  0.58125054646E+02  0.63736721615E+02  0.47000000000E+01 0. -1.
         -5    1    3    3    0  503 -0.38568773837E+02 -0.78386487793E+02 -0.24865294422E+02  0.90952540649E+02  0.47000000000E+01 0. -1.
<mgrwt>
<rscale>  0 0.15107419E+03</rscale>
<asrwt>0</asrwt>
<pdfrwt beam="2">  1        5 0.30593458E-01 0.15107513E+03</pdfrwt>
<pdfrwt beam="1">  1       -5 0.20812164E-01 0.15107513E+03</pdfrwt>
<totfact> 0.16556704E+02</totfact>
</mgrwt>
</event>
<event>
 8    1  0.3754098E-007  0.1265791E+03  0.7546771E-02  0.1232623E+00
          5   -1    0    0  501    0  0.00000000000E+00  0.00000000000E+00  0.26267256301E+03  0.26271460820E+03  0.47000000000E+01 0. -1.
         -5   -1    0    0    0  501 -0.00000000000E+00 -0.00000000000E+00 -0.60908702393E+02  0.61089770234E+02  0.47000000000E+01 0. -1.
         25    2    1    2    0    0 -0.15945944550E+02 -0.11951213009E+02  0.96208122421E+02  0.15899144554E+03  0.12500068917E+03 0.  0.
         25    2    1    2    0    0  0.15945944550E+02  0.11951213009E+02  0.10555573820E+03  0.16481293289E+03  0.12499673733E+03 0.  0.
          5    1    3    3  502    0 -0.13793358919E+02 -0.39478641294E+02  0.11685094505E+03  0.12419763777E+03  0.47000000000E+01 0. -1.
         -5    1    3    3    0  502 -0.21525856312E+01  0.27527428285E+02 -0.20642822628E+02  0.34793807767E+02  0.47000000000E+01 0. -1.
          5    1    4    4  503    0  0.23174437262E+02  0.26829874422E+02 -0.18020086103E+02  0.40046350733E+02  0.47000000000E+01 0. -1.
         -5    1    4    4    0  503 -0.72284927117E+01 -0.14878661413E+02  0.12357582430E+03  0.12476658216E+03  0.47000000000E+01 0. -1.
<mgrwt>
<rscale>  0 0.12657816E+03</rscale>
<asrwt>0</asrwt>
<pdfrwt beam="1">  1        5 0.40428326E-01 0.12657913E+03</pdfrwt>
<pdfrwt beam="2">  1       -5 0.93877323E-02 0.12657913E+03</pdfrwt>
<totfact> 0.37340547E+02</totfact>
</mgrwt>
</event>
<event>
 8    1  0.3754098E-007  0.1579184E+03  0.7546771E-02  0.1191067E+00
          5   -1    0    0  501    0  0.00000000000E+00  0.00000000000E+00  0.35536789379E+02  0.35846246657E+02  0.47000000000E+01 0. -1.
         -5   -1    0    0    0  501 -0.00000000000E+00 -0.00000000000E+00 -0.71248768414E+03  0.71250318599E+03  0.47000000000E+01 0. -1.
         25    2    1    2    0    0  0.48827437667E+02  0.83238917138E+02 -0.39108920245E+03  0.42176887548E+03  0.12500153620E+03 0.  0.
         25    2    1    2    0    0 -0.48827437667E+02 -0.83238917138E+02 -0.28586169231E+03  0.32658055717E+03  0.12500046879E+03 0.  0.
          5    1    4    4  502    0 -0.88505578270E+02 -0.35141716348E+02 -0.16875174033E+03  0.19382316032E+03  0.47000000000E+01 0. -1.
         -5    1    4    4    0  502  0.39678140603E+02 -0.48097200790E+02 -0.11710995197E+03  0.13275739685E+03  0.47000000000E+01 0. -1.
          5    1    3    3  503    0 -0.61504554928E+01 -0.22667342438E+02 -0.17797242701E+02  0.29840716542E+02  0.47000000000E+01 0. -1.
         -5    1    3    3    0  503  0.54977893160E+02  0.10590625958E+03 -0.37329195975E+03  0.39192815894E+03  0.47000000000E+01 0. -1.
<mgrwt>
<rscale>  0 0.15791819E+03</rscale>
<asrwt>0</asrwt>
<pdfrwt beam="1">  1        5 0.54921958E-02 0.15791840E+03</pdfrwt>
<pdfrwt beam="2">  1       -5 0.10963848E+00 0.15791840E+03</pdfrwt>
<totfact> 0.10671188E+02</totfact>
</mgrwt>
</event>
<event>
 8    1  0.3754098E-007  0.1269293E+03  0.7546771E-02  0.1232085E+00
         -5   -1    0    0    0  501 -0.00000000000E+00  0.00000000000E+00  0.22680361539E+03  0.22685230869E+03  0.47000000000E+01 0.  1.
          5   -1    0    0  501    0  0.00000000000E+00 -0.00000000000E+00 -0.71337226147E+02  0.71491886493E+02  0.47000000000E+01 0.  1.
         25    2    1    2    0    0 -0.71308852793E+01  0.20926981001E+02  0.89394849482E+02  0.15524975399E+03  0.12498903528E+03 0.  0.
         25    2    1    2    0    0  0.71308852793E+01 -0.20926981001E+02  0.66071539765E+02  0.14309444119E+03  0.12498713004E+03 0.  0.
          5    1    3    3  502    0  0.40510346303E+02 -0.19815474147E+02 -0.75376210084E+00  0.45347539411E+02  0.47000000000E+01 0. -1.
         -5    1    3    3    0  502 -0.47641231583E+02  0.40742455148E+02  0.90148611583E+02  0.10990221458E+03  0.47000000000E+01 0. -1.
          5    1    4    4  503    0 -0.52444254726E+02  0.92981187930E+00  0.18612867095E+01  0.52695529147E+02  0.47000000000E+01 0. -1.
         -5    1    4    4    0  503  0.59575140005E+02 -0.21856792880E+02  0.64210253056E+02  0.90398912046E+02  0.47000000000E+01 0. -1.
<mgrwt>
<rscale>  0 0.12692883E+03</rscale>
<asrwt>0</asrwt>
<pdfrwt beam="2">  1        5 0.10990601E-01 0.12692930E+03</pdfrwt>
<pdfrwt beam="1">  1       -5 0.34908506E-01 0.12692930E+03</pdfrwt>
<totfact> 0.38204824E+02</totfact>
</mgrwt>
</event>
<event>
 8    1  0.3754098E-007  0.1818128E+03  0.7546771E-02  0.1166065E+00
          5   -1    0    0  501    0  0.00000000000E+00  0.00000000000E+00  0.17223104776E+03  0.17229516479E+03  0.47000000000E+01 0. -1.
         -5   -1    0    0    0  501 -0.00000000000E+00 -0.00000000000E+00 -0.19730615331E+03  0.19736212436E+03  0.47000000000E+01 0. -1.
         25    2    1    2    0    0  0.88251660640E+02 -0.98166376933E+02 -0.43471108844E+02  0.18691617975E+03  0.12499171086E+03 0.  0.
         25    2    1    2    0    0 -0.88251660640E+02  0.98166376933E+02  0.18396003292E+02  0.18274110940E+03  0.12502362562E+03 0.  0.
          5    1    4    4  502    0 -0.87689491895E+02  0.71298580064E+02 -0.38626500761E+02  0.11952836931E+03  0.47000000000E+01 0. -1.
         -5    1    4    4    0  502 -0.56216874591E+00  0.26867796869E+02  0.57022504053E+02  0.63212740098E+02  0.47000000000E+01 0. -1.
          5    1    3    3  503    0 -0.14828848742E+02  0.93645802022E+01  0.18126123007E+02  0.25656119204E+02  0.47000000000E+01 0.  1.
         -5    1    3    3    0  503  0.10308050938E+03 -0.10753095713E+03 -0.61597231851E+02  0.16126006055E+03  0.47000000000E+01 0.  1.
<mgrwt>
<rscale>  0 0.18180733E+03</rscale>
<asrwt>0</asrwt>
<pdfrwt beam="1">  1        5 0.26506322E-01 0.18181282E+03</pdfrwt>
<pdfrwt beam="2">  1       -5 0.30364030E-01 0.18181282E+03</pdfrwt>
<totfact> 0.11209823E+02</totfact>
</mgrwt>
</event>
<event>
 8    1  0.3754098E-007  0.1738582E+03  0.7546771E-02  0.1173884E+00
          5   -1    0    0  501    0  0.00000000000E+00  0.00000000000E+00  0.13682286668E+03  0.13690356769E+03  0.47000000000E+01 0. -1.
         -5   -1    0    0    0  501 -0.00000000000E+00 -0.00000000000E+00 -0.22074874926E+03  0.22079877785E+03  0.47000000000E+01 0. -1.
         25    2    1    2    0    0 -0.97154120110E+02  0.71853920024E+02 -0.42907527314E+02  0.17907466760E+03  0.12499908719E+03 0.  0.
         25    2    1    2    0    0  0.97154120110E+02 -0.71853920024E+02 -0.41018355267E+02  0.17862767794E+03  0.12499373177E+03 0.  0.
          5    1    4    4  502    0  0.99551890516E+02  0.20909210868E+01 -0.25340847367E+02  0.10285523517E+03  0.47000000000E+01 0. -1.
         -5    1    4    4    0  502 -0.23977704057E+01 -0.73944841111E+02 -0.15677507900E+02  0.75772442773E+02  0.47000000000E+01 0. -1.
          5    1    3    3  503    0 -0.59649049390E+02  0.71881204212E+02 -0.82227870703E+02  0.12453284439E+03  0.47000000000E+01 0.  1.
         -5    1    3    3    0  503 -0.37505070720E+02 -0.27284188003E-01  0.39320343389E+02  0.54541823204E+02  0.47000000000E+01 0.  1.
<mgrwt>
<rscale>  0 0.17385726E+03</rscale>
<asrwt>0</asrwt>
<pdfrwt beam="1">  1        5 0.21059728E-01 0.17385822E+03</pdfrwt>
<pdfrwt beam="2">  1       -5 0.33971402E-01 0.17385822E+03</pdfrwt>
<totfact> 0.13735137E+02</totfact>
</mgrwt>
</event>
<event>
 8    1  0.3754098E-007  0.1363941E+03  0.7546771E-02  0.1218265E+00
         -5   -1    0    0    0  501 -0.00000000000E+00  0.00000000000E+00  0.10245873550E+03  0.10256647834E+03  0.47000000000E+01 0.  1.
          5   -1    0    0  501    0  0.00000000000E+00 -0.00000000000E+00 -0.18623050614E+03  0.18628980492E+03  0.47000000000E+01 0.  1.
         25    2    1    2    0    0  0.12714598271E+02 -0.53070495685E+02 -0.18479108943E+02  0.13763965204E+03  0.12500023130E+03 0.  0.
         25    2    1    2    0    0 -0.12714598271E+02  0.53070495685E+02 -0.65292661701E+02  0.15121663122E+03  0.12500079746E+03 0.  0.
          5    1    3    3  502    0 -0.32225599042E+02  0.81981476171E-01  0.36426431072E+02  0.48861752273E+02  0.47000000000E+01 0. -1.
         -5    1    3    3    0  502  0.44940197313E+02 -0.53152477161E+02 -0.54905540015E+02  0.88777899768E+02  0.47000000000E+01 0. -1.
          5    1    4    4  503    0 -0.33888421024E+02  0.29595318550E+02  0.27591377330E+02  0.52987565169E+02  0.47000000000E+01 0. -1.
         -5    1    4    4    0  503  0.21173822753E+02  0.23475177135E+02 -0.92884039031E+02  0.98229066056E+02  0.47000000000E+01 0. -1.
<mgrwt>
<rscale>  0 0.13639392E+03</rscale>
<asrwt>0</asrwt>
<pdfrwt beam="2">  1        5 0.28663696E-01 0.13639405E+03</pdfrwt>
<pdfrwt beam="1">  1       -5 0.15775732E-01 0.13639405E+03</pdfrwt>
<totfact> 0.30333617E+02</totfact>
</mgrwt>
</event>
<event>
 8    1  0.3754098E-007  0.1290725E+03  0.7546771E-02  0.1228839E+00
         -5   -1    0    0    0  501 -0.00000000000E+00  0.00000000000E+00  0.66971416654E+03  0.66973065845E+03  0.47000000000E+01 0. -1.
          5   -1    0    0  501    0  0.00000000000E+00 -0.00000000000E+00 -0.29269707994E+02  0.29644658980E+02  0.47000000000E+01 0. -1.
         25    2    1    2    0    0  0.15817301192E+02 -0.28022110696E+02  0.45834462146E+03  0.47617122696E+03  0.12499527857E+03 0.  0.
         25    2    1    2    0    0 -0.15817301192E+02  0.28022110696E+02  0.18209983709E+03  0.22320409047E+03  0.12499715848E+03 0.  0.
          5    1    3    3  502    0  0.17001915517E+02 -0.21768995631E+02  0.13227930855E+02  0.30984229161E+02  0.47000000000E+01 0. -1.
         -5    1    3    3    0  502 -0.11846143249E+01 -0.62531150657E+01  0.44511669060E+03  0.44518699780E+03  0.47000000000E+01 0. -1.
          5    1    4    4  503    0  0.14249971916E+02 -0.46218186031E+02  0.75420340436E+02  0.89719006743E+02  0.47000000000E+01 0. -1.
         -5    1    4    4    0  503 -0.30067273107E+02  0.74240296727E+02  0.10667949665E+03  0.13348508372E+03  0.47000000000E+01 0. -1.
<mgrwt>
<rscale>  0 0.12907206E+03</rscale>
<asrwt>0</asrwt>
<pdfrwt beam="2">  1        5 0.45331433E-02 0.12907252E+03</pdfrwt>
<pdfrwt beam="1">  1       -5 0.10306305E+00 0.12907252E+03</pdfrwt>
<totfact> 0.16036253E+02</totfact>
</mgrwt>
</event>
<event>
 8    1  0.3754098E-007  0.1585466E+03  0.7546771E-02  0.1190354E+00
         -5   -1    0    0    0  501 -0.00000000000E+00  0.00000000000E+00  0.24303693805E+03  0.24308237957E+03  0.47000000000E+01 0.  1.
          5   -1    0    0  501    0  0.00000000000E+00 -0.00000000000E+00 -0.11338424432E+03  0.11348161464E+03  0.47000000000E+01 0.  1.
         25    2    1    2    0    0 -0.73983279566E+02  0.63552877234E+02  0.11794333840E+03  0.19758555982E+03  0.12496770989E+03 0.  0.
         25    2    1    2    0    0  0.73983279566E+02 -0.63552877234E+02  0.11709355329E+02  0.15897843439E+03  0.12499815894E+03 0.  0.
          5    1    3    3  502    0 -0.14839795265E+02  0.28315813137E+02 -0.23670004079E+02  0.40054511484E+02  0.47000000000E+01 0. -1.
         -5    1    3    3    0  502 -0.59143484301E+02  0.35237064097E+02  0.14161334248E+03  0.15753104833E+03  0.47000000000E+01 0. -1.
          5    1    4    4  503    0  0.69145492098E+01 -0.86230520386E+02  0.15107862833E+02  0.87942317210E+02  0.47000000000E+01 0. -1.
         -5    1    4    4    0  503  0.67068730356E+02  0.22677643152E+02 -0.33985075041E+01  0.71036117179E+02  0.47000000000E+01 0. -1.
<mgrwt>
<rscale>  0 0.15854063E+03</rscale>
<asrwt>0</asrwt>
<pdfrwt beam="2">  1        5 0.17454716E-01 0.15854663E+03</pdfrwt>
<pdfrwt beam="1">  1       -5 0.37401283E-01 0.15854663E+03</pdfrwt>
<totfact> 0.15610228E+02</totfact>
</mgrwt>
</event>
<event>
 8    1  0.3754098E-007  0.1438727E+03  0.7546771E-02  0.1208218E+00
          5   -1    0    0  501    0  0.00000000000E+00  0.00000000000E+00  0.11479082514E+04  0.11479178732E+04  0.47000000000E+01 0.  1.
         -5   -1    0    0    0  501 -0.00000000000E+00 -0.00000000000E+00 -0.29786119452E+02  0.30154649924E+02  0.47000000000E+01 0.  1.
         25    2    1    2    0    0 -0.65738998447E+02  0.27424828951E+02  0.18714367776E+03  0.23604267767E+03  0.12497860774E+03 0.  0.
         25    2    1    2    0    0  0.65738998447E+02 -0.27424828951E+02  0.93097845414E+03  0.94202984542E+03  0.12500244171E+03 0.  0.
          5    1    4    4  502    0  0.80783073365E+02 -0.64524827394E+02  0.65687481559E+03  0.66497817382E+03  0.47000000000E+01 0. -1.
         -5    1    4    4    0  502 -0.15044074919E+02  0.37099998444E+02  0.27410363855E+03  0.27705167160E+03  0.47000000000E+01 0. -1.
          5    1    3    3  503    0 -0.20252656794E+02  0.54654500644E+02  0.17054696357E+03  0.18029320933E+03  0.47000000000E+01 0. -1.
         -5    1    3    3    0  503 -0.45486341652E+02 -0.27229671694E+02  0.16596714192E+02  0.55749468333E+02  0.47000000000E+01 0. -1.
<mgrwt>
<rscale>  0 0.14386750E+03</rscale>
<asrwt>0</asrwt>
<pdfrwt beam="1">  1        5 0.17663032E+00 0.14387268E+03</pdfrwt>
<pdfrwt beam="2">  1       -5 0.46115694E-02 0.14387268E+03</pdfrwt>
<totfact> 0.38678495E+01</totfact>
</mgrwt>
</event>
<event>
 8    1  0.3754098E-007  0.1319170E+03  0.7546771E-02  0.1224640E+00
          5   -1    0    0  501    0  0.00000000000E+00  0.00000000000E+00  0.10750928961E+03  0.10761197588E+03  0.47000000000E+01 0.  1.
         -5   -1    0    0    0  501 -0.00000000000E+00 -0.00000000000E+00 -0.23991355581E+03  0.23995958880E+03  0.47000000000E+01 0.  1.
         25    2    1    2    0    0  0.21525841558E+02  0.36236848444E+02 -0.16543068735E+03  0.21158783251E+03  0.12500251002E+03 0.  0.
         25    2    1    2    0    0 -0.21525841558E+02 -0.36236848444E+02  0.33026421148E+02  0.13598373217E+03  0.12499743950E+03 0.  0.
          5    1    3    3  502    0  0.39747005176E+01 -0.13076517391E+02 -0.15782592636E+03  0.15848629778E+03  0.47000000000E+01 0. -1.
         -5    1    3    3    0  502  0.17551141040E+02  0.49313365835E+02 -0.76047609866E+01  0.53101534737E+02  0.47000000000E+01 0. -1.
          5    1    4    4  503    0  0.23474690649E+02 -0.23381537015E+02 -0.38101195502E+02  0.50710437514E+02  0.47000000000E+01 0. -1.
         -5    1    4    4    0  503 -0.45000532206E+02 -0.12855311428E+02  0.71127616650E+02  0.85273294654E+02  0.47000000000E+01 0. -1.
<mgrwt>
<rscale>  0 0.13191581E+03</rscale>
<asrwt>0</asrwt>
<pdfrwt beam="1">  1        5 0.16551331E-01 0.13191701E+03</pdfrwt>
<pdfrwt beam="2">  1       -5 0.36921218E-01 0.13191701E+03</pdfrwt>
<totfact> 0.16630141E+02</totfact>
</mgrwt>
</event>
<event>
 8    1  0.3754098E-007  0.1451548E+03  0.7546771E-02  0.1206558E+00
          5   -1    0    0  501    0  0.00000000000E+00  0.00000000000E+00  0.13641617208E+04  0.13641698173E+04  0.47000000000E+01 0. -1.
         -5   -1    0    0    0  501 -0.00000000000E+00 -0.00000000000E+00 -0.15373879244E+02  0.16076260853E+02  0.47000000000E+01 0. -1.
         25    2    1    2    0    0  0.30229509955E+02 -0.67309551440E+02  0.58097655950E+03  0.59883525755E+03  0.12500201605E+03 0.  0.
         25    2    1    2    0    0 -0.30229509955E+02  0.67309551440E+02  0.76781128208E+03  0.78141082065E+03  0.12499722695E+03 0.  0.
          5    1    4    4  502    0 -0.57261352952E+01  0.26066062151E+02  0.24480219402E+02  0.36518479753E+02  0.47000000000E+01 0. -1.
         -5    1    4    4    0  502 -0.24503374660E+02  0.41243489289E+02  0.74333106268E+03  0.74489234090E+03  0.47000000000E+01 0. -1.
          5    1    3    3  503    0 -0.68360853587E+01 -0.51139558177E+01 -0.31330186491E+01  0.10236718859E+02  0.47000000000E+01 0.  1.
         -5    1    3    3    0  503  0.37065595314E+02 -0.62195595622E+02  0.58410957814E+03  0.58859853869E+03  0.47000000000E+01 0.  1.
<mgrwt>
<rscale>  0 0.14515372E+03</rscale>
<asrwt>0</asrwt>
<pdfrwt beam="1">  1        5 0.20992575E+00 0.14515476E+03</pdfrwt>
<pdfrwt beam="2">  1       -5 0.24198636E-02 0.14515476E+03</pdfrwt>
<totfact> 0.65261607E+01</totfact>
</mgrwt>
</event>
<event>
 8    1  0.3754098E-007  0.1270957E+03  0.7546771E-02  0.1231837E+00
         -5   -1    0    0    0  501 -0.00000000000E+00  0.00000000000E+00  0.91326873770E+02  0.91447733010E+02  0.47000000000E+01 0. -1.
          5   -1    0    0  501    0  0.00000000000E+00 -0.00000000000E+00 -0.17761512783E+03  0.17767730196E+03  0.47000000000E+01 0. -1.
         25    2    1    2    0    0 -0.77036150204E+00  0.22862450523E+02 -0.32870978433E+02  0.13127764441E+03  0.12502013277E+03 0.  0.
         25    2    1    2    0    0  0.77036150204E+00 -0.22862450523E+02 -0.53417275624E+02  0.13784739057E+03  0.12500085060E+03 0.  0.
          5    1    4    4  502    0  0.49264667658E+02  0.73450731873E+01  0.11403967715E+02  0.51313721938E+02  0.47000000000E+01 0. -1.
         -5    1    4    4    0  502 -0.48494306156E+02 -0.30207523710E+02 -0.64821243339E+02  0.86533668628E+02  0.47000000000E+01 0. -1.
          5    1    3    3  503    0  0.43795197901E+02 -0.26949235219E+02 -0.37950013497E+02  0.64082557396E+02  0.47000000000E+01 0. -1.
         -5    1    3    3    0  503 -0.44565559403E+02  0.49811685741E+02  0.50790350637E+01  0.67195087011E+02  0.47000000000E+01 0. -1.
<mgrwt>
<rscale>  0 0.12709096E+03</rscale>
<asrwt>0</asrwt>
<pdfrwt beam="2">  1        5 0.27339484E-01 0.12709571E+03</pdfrwt>
<pdfrwt beam="1">  1       -5 0.14064368E-01 0.12709571E+03</pdfrwt>
<totfact> 0.39900158E+02</totfact>
</mgrwt>
</event>
<event>
 8    1  0.3754098E-007  0.1291016E+03  0.7546771E-02  0.1228800E+00
         -5   -1    0    0    0  501 -0.00000000000E+00  0.00000000000E+00  0.10050014237E+03  0.10060998269E+03  0.47000000000E+01 0.  1.
          5   -1    0    0  501    0  0.00000000000E+00 -0.00000000000E+00 -0.22215720976E+03  0.22220692124E+03  0.47000000000E+01 0.  1.
         25    2    1    2    0    0 -0.24761482044E+02 -0.20668933903E+02  0.20589392306E+02  0.13071984118E+03  0.12499367176E+03 0.  0.
         25    2    1    2    0    0  0.24761482044E+02  0.20668933903E+02 -0.14224645969E+03  0.19209706275E+03  0.12500756138E+03 0.  0.
          5    1    4    4  502    0 -0.81467427398E+01  0.57261175966E+02 -0.12817117279E+03  0.14069524237E+03  0.47000000000E+01 0.  1.
         -5    1    4    4    0  502  0.32908224783E+02 -0.36592242063E+02 -0.14075286903E+02  0.51401820386E+02  0.47000000000E+01 0.  1.
          5    1    3    3  503    0 -0.40602556300E+02 -0.46296420137E+02 -0.32281652231E+02  0.69685874941E+02  0.47000000000E+01 0. -1.
         -5    1    3    3    0  503  0.15841074256E+02  0.25627486234E+02  0.52871044537E+02  0.61033966238E+02  0.47000000000E+01 0. -1.
<mgrwt>
<rscale>  0 0.12909825E+03</rscale>
<asrwt>0</asrwt>
<pdfrwt beam="2">  1        5 0.34190305E-01 0.12910161E+03</pdfrwt>
<pdfrwt beam="1">  1       -5 0.15473834E-01 0.12910161E+03</pdfrwt>
<totfact> 0.21765135E+02</totfact>
</mgrwt>
</event>
<event>
 8    1  0.3754098E-007  0.1403074E+03  0.7546771E-02  0.1212917E+00
          5   -1    0    0  501    0  0.00000000000E+00  0.00000000000E+00  0.25996859313E+02  0.26418302257E+02  0.47000000000E+01 0. -1.
         -5   -1    0    0    0  501 -0.00000000000E+00 -0.00000000000E+00 -0.76412593899E+03  0.76414039327E+03  0.47000000000E+01 0. -1.
         25    2    1    2    0    0  0.20303594737E+02  0.60399399521E+02 -0.31672587875E+03  0.34641224314E+03  0.12500334596E+03 0.  0.
         25    2    1    2    0    0 -0.20303594737E+02 -0.60399399521E+02 -0.42140320092E+03  0.44414645239E+03  0.12500036002E+03 0.  0.
          5    1    3    3  502    0  0.40615896864E+02  0.28466133573E+01 -0.25916843736E+03  0.26238925895E+03  0.47000000000E+01 0. -1.
         -5    1    3    3    0  502 -0.20312302128E+02  0.57552786164E+02 -0.57557441390E+02  0.84022984190E+02  0.47000000000E+01 0. -1.
          5    1    4    4  503    0  0.35663028688E+02  0.20394370300E+02 -0.14343373293E+03  0.14927527491E+03  0.47000000000E+01 0. -1.
         -5    1    4    4    0  503 -0.55966623425E+02 -0.80793769821E+02 -0.27796946799E+03  0.29487117748E+03  0.47000000000E+01 0. -1.
<mgrwt>
<rscale>  0 0.14030671E+03</rscale>
<asrwt>0</asrwt>
<pdfrwt beam="1">  1        5 0.40330480E-02 0.14030738E+03</pdfrwt>
<pdfrwt beam="2">  1       -5 0.11759135E+00 0.14030738E+03</pdfrwt>
<totfact> 0.14393877E+02</totfact>
</mgrwt>
</event>
<event>
 8    1  0.3754098E-007  0.1389605E+03  0.7546771E-02  0.1214738E+00
         -5   -1    0    0    0  501 -0.00000000000E+00  0.00000000000E+00  0.75002409736E+02  0.75149527385E+02  0.47000000000E+01 0.  1.
          5   -1    0    0  501    0  0.00000000000E+00 -0.00000000000E+00 -0.25741421616E+03  0.25745712008E+03  0.47000000000E+01 0.  1.
         25    2    1    2    0    0  0.49021789949E+02 -0.35770057302E+02 -0.97728663458E+02  0.16987603867E+03  0.12499737583E+03 0.  0.
         25    2    1    2    0    0 -0.49021789949E+02  0.35770057302E+02 -0.84683142965E+02  0.16273060879E+03  0.12500953342E+03 0.  0.
          5    1    3    3  502    0  0.34204945141E+02 -0.20573422063E+02 -0.12711813633E+03  0.13332049562E+03  0.47000000000E+01 0.  1.
         -5    1    3    3    0  502  0.14816844807E+02 -0.15196635239E+02  0.29389472871E+02  0.36555543058E+02  0.47000000000E+01 0.  1.
          5    1    4    4  503    0 -0.49898160882E+02 -0.27820983547E+02 -0.76039642642E+00  0.57328019219E+02  0.47000000000E+01 0. -1.
         -5    1    4    4    0  503  0.87637093310E+00  0.63591040849E+02 -0.83922746539E+02  0.10540258957E+03  0.47000000000E+01 0. -1.
<mgrwt>
<rscale>  0 0.13895775E+03</rscale>
<asrwt>0</asrwt>
<pdfrwt beam="2">  1        5 0.39616804E-01 0.13896048E+03</pdfrwt>
<pdfrwt beam="1">  1       -5 0.11553449E-01 0.13896048E+03</pdfrwt>
<totfact> 0.27976835E+02</totfact>
</mgrwt>
</event>
<event>
 8    1  0.3754098E-007  0.1348865E+03  0.7546771E-02  0.1220384E+00
          5   -1    0    0  501    0  0.00000000000E+00  0.00000000000E+00  0.45227936925E+02  0.45471488633E+02  0.47000000000E+01 0. -1.
         -5   -1    0    0    0  501 -0.00000000000E+00 -0.00000000000E+00 -0.40153140767E+03  0.40155891391E+03  0.47000000000E+01 0. -1.
         25    2    1    2    0    0  0.49994087240E+02  0.83844047537E+01 -0.18692365996E+03  0.23050354304E+03  0.12498688611E+03 0.  0.
         25    2    1    2    0    0 -0.49994087240E+02 -0.83844047537E+01 -0.16937981078E+03  0.21652685951E+03  0.12499861434E+03 0.  0.
          5    1    4    4  502    0  0.14986451867E+02  0.44051829468E+02 -0.35675955450E+02  0.58821945023E+02  0.47000000000E+01 0. -1.
         -5    1    4    4    0  502 -0.64980539108E+02 -0.52436234221E+02 -0.13370385533E+03  0.15770491449E+03  0.47000000000E+01 0. -1.
          5    1    3    3  503    0 -0.11124505188E+02  0.51055422756E+02 -0.11685700868E+03  0.12809395492E+03  0.47000000000E+01 0. -1.
         -5    1    3    3    0  503  0.61118592428E+02 -0.42671018002E+02 -0.70066651277E+02  0.10240958812E+03  0.47000000000E+01 0. -1.
<mgrwt>
<rscale>  0 0.13488376E+03</rscale>
<asrwt>0</asrwt>
<pdfrwt beam="1">  1        5 0.69789950E-02 0.13488647E+03</pdfrwt>
<pdfrwt beam="2">  1       -5 0.61794911E-01 0.13488647E+03</pdfrwt>
<totfact> 0.25848980E+02</totfact>
</mgrwt>
</event>
<event>
 8    1  0.3754098E-007  0.1633659E+03  0.7546771E-02  0.1184949E+00
         -5   -1    0    0    0  501 -0.00000000000E+00  0.00000000000E+00  0.27225699416E+03  0.27229755942E+03  0.47000000000E+01 0. -1.
          5   -1    0    0  501    0  0.00000000000E+00 -0.00000000000E+00 -0.98023705648E+02  0.98136317788E+02  0.47000000000E+01 0. -1.
         25    2    1    2    0    0 -0.10380967351E+03  0.16933800088E+02  0.93147833438E+02  0.18805563445E+03  0.12500080349E+03 0.  0.
         25    2    1    2    0    0  0.10380967351E+03 -0.16933800088E+02  0.81085455071E+02  0.18237824276E+03  0.12499508195E+03 0.  0.
          5    1    4    4  502    0  0.53095956598E+02  0.53869339740E+02  0.31681335563E+02  0.82139414377E+02  0.47000000000E+01 0.  1.
         -5    1    4    4    0  502  0.50713716908E+02 -0.70803139828E+02  0.49404119508E+02  0.10023882839E+03  0.47000000000E+01 0.  1.
          5    1    3    3  503    0 -0.63742954378E+02 -0.35244095575E+02 -0.11301708185E+01  0.72997793061E+02  0.47000000000E+01 0. -1.
         -5    1    3    3    0  503 -0.40066719128E+02  0.52177895663E+02  0.94278004256E+02  0.11505784138E+03  0.47000000000E+01 0. -1.
<mgrwt>
<rscale>  0 0.16336476E+03</rscale>
<asrwt>0</asrwt>
<pdfrwt beam="2">  1        5 0.15092353E-01 0.16336586E+03</pdfrwt>
<pdfrwt beam="1">  1       -5 0.41897473E-01 0.16336586E+03</pdfrwt>
<totfact> 0.16294306E+02</totfact>
</mgrwt>
</event>
<event>
 8    1  0.3754098E-007  0.1584682E+03  0.7546771E-02  0.1190439E+00
         -5   -1    0    0    0  501 -0.00000000000E+00  0.00000000000E+00  0.12030264050E+03  0.12039441562E+03  0.47000000000E+01 0.  1.
          5   -1    0    0  501    0  0.00000000000E+00 -0.00000000000E+00 -0.32362029557E+03  0.32365442327E+03  0.47000000000E+01 0.  1.
         25    2    1    2    0    0  0.50823631356E+02  0.83087724035E+02  0.30715077011E+02  0.16141216670E+03  0.12499544077E+03 0.  0.
         25    2    1    2    0    0 -0.50823631356E+02 -0.83087724035E+02 -0.23403273208E+03  0.28263667219E+03  0.12500222955E+03 0.  0.
          5    1    3    3  502    0  0.35256290290E+02  0.10194574211E+03  0.59556482396E+02  0.12330857608E+03  0.47000000000E+01 0.  1.
         -5    1    3    3    0  502  0.15567341066E+02 -0.18858018072E+02 -0.28841405385E+02  0.38103590619E+02  0.47000000000E+01 0.  1.
          5    1    4    4  503    0  0.14734801439E+02  0.42561297475E+01  0.73586461570E+01  0.17648475490E+02  0.47000000000E+01 0.  1.
         -5    1    4    4    0  503 -0.65558432795E+02 -0.87343853783E+02 -0.24139137824E+03  0.26498819670E+03  0.47000000000E+01 0.  1.
<mgrwt>
<rscale>  0 0.15846686E+03</rscale>
<asrwt>0</asrwt>
<pdfrwt beam="2">  1        5 0.49797422E-01 0.15846819E+03</pdfrwt>
<pdfrwt beam="1">  1       -5 0.18517783E-01 0.15846819E+03</pdfrwt>
<totfact> 0.77239471E+01</totfact>
</mgrwt>
</event>
<event>
 8    1  0.3754098E-007  0.1461102E+03  0.7546771E-02  0.1205338E+00
         -5   -1    0    0    0  501 -0.00000000000E+00  0.00000000000E+00  0.21742168075E+04  0.21742218874E+04  0.47000000000E+01 0.  1.
          5   -1    0    0  501    0  0.00000000000E+00 -0.00000000000E+00 -0.11249934446E+02  0.12192252665E+02  0.47000000000E+01 0.  1.
         25    2    1    2    0    0 -0.56675871153E+02 -0.50103409209E+02  0.15224174348E+04  0.15294120189E+04  0.12499508722E+03 0.  0.
         25    2    1    2    0    0  0.56675871153E+02  0.50103409209E+02  0.64054943818E+03  0.65700212116E+03  0.12500279386E+03 0.  0.
          5    1    3    3  502    0 -0.30694827071E+02 -0.88795162862E+02  0.80728621372E+03  0.81274834618E+03  0.47000000000E+01 0.  1.
         -5    1    3    3    0  502 -0.25981044082E+02  0.38691753652E+02  0.71513122111E+03  0.71666367276E+03  0.47000000000E+01 0.  1.
          5    1    4    4  503    0  0.92039707833E+02  0.57896121560E+02  0.44894433666E+03  0.46194845614E+03  0.47000000000E+01 0.  1.
         -5    1    4    4    0  503 -0.35363836680E+02 -0.77927123507E+01  0.19160510152E+03  0.19505366502E+03  0.47000000000E+01 0.  1.
<mgrwt>
<rscale>  0 0.14610860E+03</rscale>
<asrwt>0</asrwt>
<pdfrwt beam="2">  1        5 0.18036359E-02 0.14611025E+03</pdfrwt>
<pdfrwt beam="1">  1       -5 0.33456777E+00 0.14611025E+03</pdfrwt>
<totfact> 0.16680248E+01</totfact>
</mgrwt>
</event>
<event>
 8    1  0.3754098E-007  0.1811949E+03  0.7546771E-02  0.1166654E+00
         -5   -1    0    0    0  501 -0.00000000000E+00  0.00000000000E+00  0.61497407741E+03  0.61499203726E+03  0.47000000000E+01 0.  1.
          5   -1    0    0  501    0  0.00000000000E+00 -0.00000000000E+00 -0.83591889196E+02  0.83723914979E+02  0.47000000000E+01 0.  1.
         25    2    1    2    0    0 -0.95113790265E+02  0.90314440768E+02  0.47589613431E+03  0.50922365490E+03  0.12501307430E+03 0.  0.
         25    2    1    2    0    0  0.95113790265E+02 -0.90314440768E+02  0.55486053907E+02  0.18949229734E+03  0.12500118905E+03 0.  0.
          5    1    4    4  502    0  0.10868693220E+03 -0.31613998423E+02  0.61248789696E+02  0.12878586245E+03  0.47000000000E+01 0. -1.
         -5    1    4    4    0  502 -0.13573141934E+02 -0.58700442344E+02 -0.57627357893E+01  0.60706434891E+02  0.47000000000E+01 0. -1.
          5    1    3    3  503    0 -0.11050252667E+03  0.46545682426E+02  0.41799753755E+03  0.43488083465E+03  0.47000000000E+01 0. -1.
         -5    1    3    3    0  503  0.15388736401E+02  0.43768758342E+02  0.57898596762E+02  0.74342820244E+02  0.47000000000E+01 0. -1.
<mgrwt>
<rscale>  0 0.18119287E+03</rscale>
<asrwt>0</asrwt>
<pdfrwt beam="2">  1        5 0.12871828E-01 0.18119492E+03</pdfrwt>
<pdfrwt beam="1">  1       -5 0.94622931E-01 0.18119492E+03</pdfrwt>
<totfact> 0.36520150E+01</totfact>
</mgrwt>
</event>
<event>
 8    1  0.3754098E-007  0.1644408E+03  0.7546771E-02  0.1183777E+00
         -5   -1    0    0    0  501 -0.00000000000E+00  0.00000000000E+00  0.41819541094E+02  0.42082823305E+02  0.47000000000E+01 0.  1.
          5   -1    0    0  501    0  0.00000000000E+00 -0.00000000000E+00 -0.64960128528E+03  0.64961828780E+03  0.47000000000E+01 0.  1.
         25    2    1    2    0    0  0.45978732817E+01  0.10671382070E+03 -0.27248134446E+03  0.31824812549E+03  0.12500722511E+03 0.  0.
         25    2    1    2    0    0 -0.45978732817E+01 -0.10671382070E+03 -0.33530039973E+03  0.37345298561E+03  0.12502717481E+03 0.  0.
          5    1    3    3  502    0  0.11217945924E+02  0.86758690496E+02 -0.63600069902E+02  0.10825881756E+03  0.47000000000E+01 0. -1.
         -5    1    3    3    0  502 -0.66200726419E+01  0.19955130203E+02 -0.20888127456E+03  0.20998930793E+03  0.47000000000E+01 0. -1.
          5    1    4    4  503    0 -0.36484341356E+01 -0.38835829454E+02 -0.28779391029E+03  0.29046334970E+03  0.47000000000E+01 0. -1.
         -5    1    4    4    0  503 -0.94943914608E+00 -0.67877991245E+02 -0.47506489438E+02  0.82989635913E+02  0.47000000000E+01 0. -1.
<mgrwt>
<rscale>  0 0.16443700E+03</rscale>
<asrwt>0</asrwt>
<pdfrwt beam="2">  1        5 0.99960212E-01 0.16444079E+03</pdfrwt>
<pdfrwt beam="1">  1       -5 0.64553364E-02 0.16444079E+03</pdfrwt>
<totfact> 0.10340111E+02</totfact>
</mgrwt>
</event>
<event>
 8    1  0.3754098E-007  0.1296991E+03  0.7546771E-02  0.1227906E+00
          5   -1    0    0  501    0  0.00000000000E+00  0.00000000000E+00  0.14481741875E+02  0.15225335718E+02  0.47000000000E+01 0. -1.
         -5   -1    0    0    0  501 -0.00000000000E+00 -0.00000000000E+00 -0.13378457652E+04  0.13378540210E+04  0.47000000000E+01 0. -1.
         25    2    1    2    0    0  0.51359774050E+01  0.34181981405E+02 -0.92719114608E+03  0.93621860728E+03  0.12500829222E+03 0.  0.
         25    2    1    2    0    0 -0.51359774050E+01 -0.34181981405E+02 -0.39617287723E+03  0.41686074941E+03  0.12500059852E+03 0.  0.
          5    1    4    4  502    0 -0.14141965323E+02  0.36700239424E+02 -0.26008142519E+03  0.26308048291E+03  0.47000000000E+01 0.  1.
         -5    1    4    4    0  502  0.90059879185E+01 -0.70882220829E+02 -0.13609145204E+03  0.15378026650E+03  0.47000000000E+01 0.  1.
          5    1    3    3  503    0  0.35434709710E+02 -0.36529409206E+02 -0.44183137013E+03  0.44477754667E+03  0.47000000000E+01 0.  1.
         -5    1    3    3    0  503 -0.30298732305E+02  0.70711390611E+02 -0.48535977595E+03  0.49144106061E+03  0.47000000000E+01 0.  1.
<mgrwt>
<rscale>  0 0.12969726E+03</rscale>
<asrwt>0</asrwt>
<pdfrwt beam="1">  1        5 0.22857959E-02 0.12969911E+03</pdfrwt>
<pdfrwt beam="2">  1       -5 0.20588016E+00 0.12969911E+03</pdfrwt>
<totfact> 0.73607470E+01</totfact>
</mgrwt>
</event>
<event>
 8    1  0.3754098E-007  0.1360616E+03  0.7546771E-02  0.1218730E+00
          5   -1    0    0  501    0  0.00000000000E+00  0.00000000000E+00  0.19020805342E+03  0.19026611255E+03  0.47000000000E+01 0.  1.
         -5   -1    0    0    0  501 -0.00000000000E+00 -0.00000000000E+00 -0.12443953131E+03  0.12452825764E+03  0.47000000000E+01 0.  1.
         25    2    1    2    0    0 -0.53042587504E+02 -0.85703906592E+01 -0.40713964733E+02  0.14202244244E+03  0.12500311814E+03 0.  0.
         25    2    1    2    0    0  0.53042587504E+02  0.85703906592E+01  0.10648248685E+03  0.17277192776E+03  0.12499860532E+03 0.  0.
          5    1    3    3  502    0  0.97367091322E+01  0.45979385439E+02  0.41378546219E+01  0.47414335711E+02  0.47000000000E+01 0.  1.
         -5    1    3    3    0  502 -0.62779296636E+02 -0.54549776098E+02 -0.44851819355E+02  0.94608106724E+02  0.47000000000E+01 0.  1.
          5    1    4    4  503    0  0.23278058408E+02  0.48665607940E+02 -0.10030743217E+01  0.54159999607E+02  0.47000000000E+01 0. -1.
         -5    1    4    4    0  503  0.29764529096E+02 -0.40095217281E+02  0.10748556117E+03  0.11861192816E+03  0.47000000000E+01 0. -1.
<mgrwt>
<rscale>  0 0.13606052E+03</rscale>
<asrwt>0</asrwt>
<pdfrwt beam="1">  1        5 0.29274069E-01 0.13606156E+03</pdfrwt>
<pdfrwt beam="2">  1       -5 0.19155834E-01 0.13606156E+03</pdfrwt>
<totfact> 0.20360023E+02</totfact>
</mgrwt>
</event>
<event>
 8    1  0.3754098E-007  0.1373813E+03  0.7546771E-02  0.1216900E+00
          5   -1    0    0  501    0  0.00000000000E+00  0.00000000000E+00  0.38266200934E+03  0.38269087184E+03  0.47000000000E+01 0. -1.
         -5   -1    0    0    0  501 -0.00000000000E+00 -0.00000000000E+00 -0.55419679770E+02  0.55618620135E+02  0.47000000000E+01 0. -1.
         25    2    1    2    0    0  0.50923945953E+02 -0.25548541843E+02  0.90224247336E+02  0.16435950259E+03  0.12501061964E+03 0.  0.
         25    2    1    2    0    0 -0.50923945953E+02  0.25548541843E+02  0.23701808223E+03  0.27394998938E+03  0.12500019647E+03 0.  0.
          5    1    4    4  502    0 -0.73349543832E+02 -0.73873479363E+01  0.68572095711E+02  0.10079162068E+03  0.47000000000E+01 0.  1.
         -5    1    4    4    0  502  0.22425597879E+02  0.32935889780E+02  0.16844598652E+03  0.17315836870E+03  0.47000000000E+01 0.  1.
          5    1    3    3  503    0  0.41616801888E+02 -0.45291032649E+01  0.11957769394E+03  0.12678085764E+03  0.47000000000E+01 0. -1.
         -5    1    3    3    0  503  0.93071440648E+01 -0.21019438578E+02 -0.29353446606E+02  0.37578644952E+02  0.47000000000E+01 0. -1.
<mgrwt>
<rscale>  0 0.13737896E+03</rscale>
<asrwt>0</asrwt>
<pdfrwt beam="1">  1        5 0.58888602E-01 0.13738134E+03</pdfrwt>
<pdfrwt beam="2">  1       -5 0.85436278E-02 0.13738134E+03</pdfrwt>
<totfact> 0.20451653E+02</totfact>
</mgrwt>
</event>
<event>
 8    1  0.3754098E-007  0.2024648E+03  0.7546771E-02  0.1147677E+00
          5   -1    0    0  501    0  0.00000000000E+00  0.00000000000E+00  0.13815287422E+03  0.13823279876E+03  0.47000000000E+01 0. -1.
         -5   -1    0    0    0  501 -0.00000000000E+00 -0.00000000000E+00 -0.40133471463E+03  0.40136223435E+03  0.47000000000E+01 0. -1.
         25    2    1    2    0    0  0.15881207344E+03  0.12063273637E+02 -0.26944654852E+03  0.33703627339E+03  0.12500083933E+03 0.  0.
         25    2    1    2    0    0 -0.15881207344E+03 -0.12063273637E+02  0.62647081038E+01  0.20255875973E+03  0.12499602927E+03 0.  0.
          5    1    4    4  502    0  0.16025682859E+02  0.12503102654E+02  0.15047266715E+02  0.25722758846E+02  0.47000000000E+01 0.  1.
         -5    1    4    4    0  502 -0.17483775630E+03 -0.24566376292E+02 -0.87825586108E+01  0.17683600088E+03  0.47000000000E+01 0.  1.
          5    1    3    3  503    0  0.58309426027E+02 -0.55583933246E+02 -0.95870518617E+02  0.12531085004E+03  0.47000000000E+01 0.  1.
         -5    1    3    3    0  503  0.10050264741E+03  0.67647206883E+02 -0.17357602990E+03  0.21172542335E+03  0.47000000000E+01 0.  1.
<mgrwt>
<rscale>  0 0.20246409E+03</rscale>
<asrwt>0</asrwt>
<pdfrwt beam="1">  1        5 0.21262554E-01 0.20246483E+03</pdfrwt>
<pdfrwt beam="2">  1       -5 0.61752066E-01 0.20246483E+03</pdfrwt>
<totfact> 0.40018178E+01</totfact>
</mgrwt>
</event>
<event>
 8    1  0.3754098E-007  0.1376016E+03  0.7546771E-02  0.1216594E+00
         -5   -1    0    0    0  501 -0.00000000000E+00  0.00000000000E+00  0.97405231168E+02  0.97518557510E+02  0.47000000000E+01 0. -1.
          5   -1    0    0  501    0  0.00000000000E+00 -0.00000000000E+00 -0.23336682413E+03  0.23341414825E+03  0.47000000000E+01 0. -1.
         25    2    1    2    0    0 -0.54917884112E+02 -0.17057619886E+02 -0.15616151324E+00  0.13760170659E+03  0.12500907518E+03 0.  0.
         25    2    1    2    0    0  0.54917884112E+02  0.17057619886E+02 -0.13580543145E+03  0.19333099917E+03  0.12500729434E+03 0.  0.
          5    1    4    4  502    0  0.26616881734E+02  0.57088242895E+02 -0.12897393815E+03  0.14361021061E+03  0.47000000000E+01 0. -1.
         -5    1    4    4    0  502  0.28301002378E+02 -0.40030623010E+02 -0.68314932925E+01  0.49720788557E+02  0.47000000000E+01 0. -1.
          5    1    3    3  503    0  0.28549994152E+02  0.29981491660E+02  0.71664658194E+00  0.41672480014E+02  0.47000000000E+01 0. -1.
         -5    1    3    3    0  503 -0.83467878264E+02 -0.47039111546E+02 -0.87280809518E+00  0.95929226573E+02  0.47000000000E+01 0. -1.
<mgrwt>
<rscale>  0 0.13760121E+03</rscale>
<asrwt>0</asrwt>
<pdfrwt beam="2">  1        5 0.35914946E-01 0.13760162E+03</pdfrwt>
<pdfrwt beam="1">  1       -5 0.14997778E-01 0.13760162E+03</pdfrwt>
<totfact> 0.21335368E+02</totfact>
</mgrwt>
</event>
<event>
 8    1  0.3754098E-007  0.1407793E+03  0.7546771E-02  0.1212289E+00
          5   -1    0    0  501    0  0.00000000000E+00  0.00000000000E+00  0.13806677132E+03  0.13814674568E+03  0.47000000000E+01 0. -1.
         -5   -1    0    0    0  501 -0.00000000000E+00 -0.00000000000E+00 -0.17105748351E+03  0.17112204026E+03  0.47000000000E+01 0. -1.
         25    2    1    2    0    0 -0.61050205731E+02  0.21589698131E+02 -0.78679418268E+02  0.16126116241E+03  0.12498587504E+03 0.  0.
         25    2    1    2    0    0  0.61050205731E+02 -0.21589698131E+02  0.45688706084E+02  0.14800762353E+03  0.12500222428E+03 0.  0.
          5    1    3    3  502    0 -0.23983898792E+02 -0.52317705494E+02 -0.28062367630E+02  0.64202462464E+02  0.47000000000E+01 0.  1.
         -5    1    3    3    0  502 -0.37066306938E+02  0.73907403624E+02 -0.50617050639E+02  0.97058699950E+02  0.47000000000E+01 0.  1.
          5    1    4    4  503    0  0.76626219994E+02  0.32498606808E+02  0.35519926814E+02  0.90617284422E+02  0.47000000000E+01 0.  1.
         -5    1    4    4    0  503 -0.15576014264E+02 -0.54088304939E+02  0.10168779270E+02  0.57390339111E+02  0.47000000000E+01 0.  1.
<mgrwt>
<rscale>  0 0.14077563E+03</rscale>
<asrwt>0</asrwt>
<pdfrwt beam="1">  1        5 0.21252160E-01 0.14077926E+03</pdfrwt>
<pdfrwt beam="2">  1       -5 0.26327654E-01 0.14077926E+03</pdfrwt>
<totfact> 0.20842739E+02</totfact>
</mgrwt>
</event>
<event>
 8    1  0.3754098E-007  0.1401236E+03  0.7546771E-02  0.1213167E+00
          5   -1    0    0  501    0  0.00000000000E+00  0.00000000000E+00  0.30006771725E+03  0.30010452335E+03  0.47000000000E+01 0.  1.
         -5   -1    0    0    0  501 -0.00000000000E+00 -0.00000000000E+00 -0.70717174676E+02  0.70873188119E+02  0.47000000000E+01 0.  1.
         25    2    1    2    0    0 -0.56831098132E+02 -0.27874579728E+02  0.63418175701E+02  0.15379532822E+03  0.12499748823E+03 0.  0.
         25    2    1    2    0    0  0.56831098132E+02  0.27874579728E+02  0.16593236687E+03  0.21718238325E+03  0.12501148470E+03 0.  0.
          5    1    3    3  502    0 -0.10461581783E+02  0.44495284979E+02  0.47812704249E+02  0.66313043712E+02  0.47000000000E+01 0.  1.
         -5    1    3    3    0  502 -0.46369516349E+02 -0.72369864707E+02  0.15605471451E+02  0.87482284512E+02  0.47000000000E+01 0.  1.
          5    1    4    4  503    0  0.40312601196E+02 -0.12773514593E+02 -0.29304403548E+01  0.42649102815E+02  0.47000000000E+01 0.  1.
         -5    1    4    4    0  503  0.16518496936E+02  0.40648094321E+02  0.16886280723E+03  0.17453328043E+03  0.47000000000E+01 0.  1.
<mgrwt>
<rscale>  0 0.14012053E+03</rscale>
<asrwt>0</asrwt>
<pdfrwt beam="1">  1        5 0.46179096E-01 0.14012365E+03</pdfrwt>
<pdfrwt beam="2">  1       -5 0.10894398E-01 0.14012365E+03</pdfrwt>
<totfact> 0.22665483E+02</totfact>
</mgrwt>
</event>
<event>
 8    1  0.3754098E-007  0.1362592E+03  0.7546771E-02  0.1218456E+00
         -5   -1    0    0    0  501 -0.00000000000E+00  0.00000000000E+00  0.15967687993E+03  0.15974603590E+03  0.47000000000E+01 0.  1.
          5   -1    0    0  501    0  0.00000000000E+00 -0.00000000000E+00 -0.15717536308E+03  0.15724561921E+03  0.47000000000E+01 0.  1.
         25    2    1    2    0    0 -0.48087689737E+02  0.25054872797E+02  0.82208650328E+02  0.15913161617E+03  0.12499774606E+03 0.  0.
         25    2    1    2    0    0  0.48087689737E+02 -0.25054872797E+02 -0.79707133477E+02  0.15786003894E+03  0.12500556872E+03 0.  0.
          5    1    3    3  502    0 -0.50563591498E+02 -0.41624820032E+02  0.59158567136E+02  0.88380588895E+02  0.47000000000E+01 0. -1.
         -5    1    3    3    0  502  0.24759017604E+01  0.66679692829E+02  0.23050083192E+02  0.70751027275E+02  0.47000000000E+01 0. -1.
          5    1    4    4  503    0  0.16533762656E+02 -0.38622414737E+02  0.23930507172E+02  0.48577931216E+02  0.47000000000E+01 0.  1.
         -5    1    4    4    0  503  0.31553927081E+02  0.13567541940E+02 -0.10363764065E+03  0.10928210772E+03  0.47000000000E+01 0.  1.
<mgrwt>
<rscale>  0 0.13625739E+03</rscale>
<asrwt>0</asrwt>
<pdfrwt beam="2">  1        5 0.24191549E-01 0.13625918E+03</pdfrwt>
<pdfrwt beam="1">  1       -5 0.24576398E-01 0.13625918E+03</pdfrwt>
<totfact> 0.18410910E+02</totfact>
</mgrwt>
</event>
<event>
 8    1  0.3754098E-007  0.1456004E+03  0.7546771E-02  0.1205986E+00
         -5   -1    0    0    0  501 -0.00000000000E+00  0.00000000000E+00  0.67010188668E+02  0.67174812135E+02  0.47000000000E+01 0.  1.
          5   -1    0    0  501    0  0.00000000000E+00 -0.00000000000E+00 -0.31909856284E+03  0.31913317409E+03  0.47000000000E+01 0.  1.
         25    2    1    2    0    0 -0.74663631383E+02  0.64670535075E+00 -0.14570867178E+03  0.20598662774E+03  0.12499759076E+03 0.  0.
         25    2    1    2    0    0  0.74663631383E+02 -0.64670535075E+00 -0.10637970238E+03  0.18032135849E+03  0.12499630062E+03 0.  0.
          5    1    3    3  502    0 -0.72747795540E+02 -0.53844064771E+02 -0.84996734884E+02  0.12424958756E+03  0.47000000000E+01 0. -1.
         -5    1    3    3    0  502 -0.19158358427E+01  0.54490770122E+02 -0.60711936899E+02  0.81737040181E+02  0.47000000000E+01 0. -1.
          5    1    4    4  503    0 -0.27709410109E+02  0.26640407199E+02 -0.20245617602E+02  0.43697800133E+02  0.47000000000E+01 0. -1.
         -5    1    4    4    0  503  0.10237304149E+03 -0.27287112550E+02 -0.86134084782E+02  0.13662355835E+03  0.47000000000E+01 0. -1.
<mgrwt>
<rscale>  0 0.14560011E+03</rscale>
<asrwt>0</asrwt>
<pdfrwt beam="2">  1        5 0.49107412E-01 0.14560039E+03</pdfrwt>
<pdfrwt beam="1">  1       -5 0.10324586E-01 0.14560039E+03</pdfrwt>
<totfact> 0.22165972E+02</totfact>
</mgrwt>
</event>
<event>
 8    1  0.3754098E-007  0.1280860E+03  0.7546771E-02  0.1230325E+00
          5   -1    0    0  501    0  0.00000000000E+00  0.00000000000E+00  0.41833527068E+03  0.41836167211E+03  0.47000000000E+01 0.  1.
         -5   -1    0    0    0  501 -0.00000000000E+00 -0.00000000000E+00 -0.39409672655E+02  0.39688944289E+02  0.47000000000E+01 0.  1.
         25    2    1    2    0    0 -0.19108493149E+02 -0.20391517380E+02  0.16760689502E+03  0.21094415163E+03  0.12499766141E+03 0.  0.
         25    2    1    2    0    0  0.19108493149E+02  0.20391517380E+02  0.21131870300E+03  0.24710646477E+03  0.12500024881E+03 0.  0.
          5    1    3    3  502    0 -0.51099063686E+02  0.36058984681E+02  0.74930743399E+02  0.97714231267E+02  0.47000000000E+01 0. -1.
         -5    1    3    3    0  502  0.31990570537E+02 -0.56450502061E+02  0.92676151624E+02  0.11322992037E+03  0.47000000000E+01 0. -1.
          5    1    4    4  503    0  0.51913860012E+02  0.57969801114E+02  0.13090687234E+03  0.15236221949E+03  0.47000000000E+01 0.  1.
         -5    1    4    4    0  503 -0.32805366863E+02 -0.37578283733E+02  0.80411830655E+02  0.94744245275E+02  0.47000000000E+01 0.  1.
<mgrwt>
<rscale>  0 0.12808532E+03</rscale>
<asrwt>0</asrwt>
<pdfrwt beam="1">  1        5 0.64382785E-01 0.12808595E+03</pdfrwt>
<pdfrwt beam="2">  1       -5 0.60865400E-02 0.12808595E+03</pdfrwt>
<totfact> 0.29209284E+02</totfact>
</mgrwt>
</event>
<event>
 8    1  0.3754098E-007  0.1395647E+03  0.7546771E-02  0.1213916E+00
          5   -1    0    0  501    0  0.00000000000E+00  0.00000000000E+00  0.10642771358E+03  0.10653144239E+03  0.47000000000E+01 0.  1.
         -5   -1    0    0    0  501 -0.00000000000E+00 -0.00000000000E+00 -0.18360972813E+03  0.18366987305E+03  0.47000000000E+01 0.  1.
         25    2    1    2    0    0 -0.13623935931E+02  0.60562272519E+02 -0.48248735215E+02  0.14766906801E+03  0.12499925086E+03 0.  0.
         25    2    1    2    0    0  0.13623935931E+02 -0.60562272519E+02 -0.28933279340E+02  0.14253224742E+03  0.12499962568E+03 0.  0.
          5    1    4    4  502    0  0.22004952685E+02  0.32687365577E+02  0.10160984619E+02  0.40963610918E+02  0.47000000000E+01 0. -1.
         -5    1    4    4    0  502 -0.83810167547E+01 -0.93249638095E+02 -0.39094263960E+02  0.10156863650E+03  0.47000000000E+01 0. -1.
          5    1    3    3  503    0 -0.44179204564E+02  0.81453838029E+02 -0.57593896558E+02  0.10920474700E+03  0.47000000000E+01 0.  1.
         -5    1    3    3    0  503  0.30555268634E+02 -0.20891565511E+02  0.93451613429E+01  0.38464321017E+02  0.47000000000E+01 0.  1.
<mgrwt>
<rscale>  0 0.13956462E+03</rscale>
<asrwt>0</asrwt>
<pdfrwt beam="1">  1        5 0.16386100E-01 0.13956471E+03</pdfrwt>
<pdfrwt beam="2">  1       -5 0.28260256E-01 0.13956471E+03</pdfrwt>
<totfact> 0.29328081E+02</totfact>
</mgrwt>
</event>
<event>
 8    1  0.3754098E-007  0.1448905E+03  0.7546771E-02  0.1206898E+00
         -5   -1    0    0    0  501 -0.00000000000E+00  0.00000000000E+00  0.63418699083E+02  0.63592620589E+02  0.47000000000E+01 0.  1.
          5   -1    0    0  501    0  0.00000000000E+00 -0.00000000000E+00 -0.39387269207E+03  0.39390073313E+03  0.47000000000E+01 0.  1.
         25    2    1    2    0    0 -0.65278389132E+02  0.33273221420E+02 -0.73396690233E+02  0.16241418672E+03  0.12499167397E+03 0.  0.
         25    2    1    2    0    0  0.65278389132E+02 -0.33273221420E+02 -0.25705730275E+03  0.29507916699E+03  0.12499953017E+03 0.  0.
          5    1    4    4  502    0  0.10245386597E+03 -0.17180908007E+02 -0.17917382103E+03  0.20716497386E+03  0.47000000000E+01 0. -1.
         -5    1    4    4    0  502 -0.37175476836E+02 -0.16092313412E+02 -0.77883481724E+02  0.87914193134E+02  0.47000000000E+01 0. -1.
          5    1    3    3  503    0  0.33800771400E+02  0.24762338912E+02 -0.37979734076E+02  0.56746945082E+02  0.47000000000E+01 0. -1.
         -5    1    3    3    0  503 -0.99079160532E+02  0.85108825081E+01 -0.35416956157E+02  0.10566724164E+03  0.47000000000E+01 0. -1.
<mgrwt>
<rscale>  0 0.14488881E+03</rscale>
<asrwt>0</asrwt>
<pdfrwt beam="2">  1        5 0.60611333E-01 0.14489050E+03</pdfrwt>
<pdfrwt beam="1">  1       -5 0.97722588E-02 0.14489050E+03</pdfrwt>
<totfact> 0.15481578E+02</totfact>
</mgrwt>
</event>
<event>
 8    1  0.3754098E-007  0.1308556E+03  0.7546771E-02  0.1226193E+00
          5   -1    0    0  501    0  0.00000000000E+00  0.00000000000E+00  0.65151220047E+03  0.65152915312E+03  0.47000000000E+01 0.  1.
         -5   -1    0    0    0  501 -0.00000000000E+00 -0.00000000000E+00 -0.28080592651E+02  0.28471207976E+02  0.47000000000E+01 0.  1.
         25    2    1    2    0    0 -0.32003679831E+02 -0.21751371768E+02  0.22105629879E+03  0.25688208415E+03  0.12500064091E+03 0.  0.
         25    2    1    2    0    0  0.32003679831E+02  0.21751371768E+02  0.40237530903E+03  0.42311827694E+03  0.12500331703E+03 0.  0.
          5    1    4    4  502    0  0.39799694937E+02  0.61980364066E+02  0.14759667131E+03  0.16502257006E+03  0.47000000000E+01 0. -1.
         -5    1    4    4    0  502 -0.77960151063E+01 -0.40228992298E+02  0.25477863772E+03  0.25809570688E+03  0.47000000000E+01 0. -1.
          5    1    3    3  503    0 -0.30242358014E+01  0.38033594323E+02  0.16640395343E+02  0.41889056524E+02  0.47000000000E+01 0. -1.
         -5    1    3    3    0  503 -0.28979444030E+02 -0.59784966091E+02  0.20441590345E+03  0.21499302763E+03  0.47000000000E+01 0. -1.
<mgrwt>
<rscale>  0 0.13085496E+03</rscale>
<asrwt>0</asrwt>
<pdfrwt beam="1">  1        5 0.10026400E+00 0.13085560E+03</pdfrwt>
<pdfrwt beam="2">  1       -5 0.43514426E-02 0.13085560E+03</pdfrwt>
<totfact> 0.18437705E+02</totfact>
</mgrwt>
</event>
<event>
 8    1  0.3754098E-007  0.1865059E+03  0.7546771E-02  0.1161651E+00
         -5   -1    0    0    0  501 -0.00000000000E+00  0.00000000000E+00  0.76171249208E+02  0.76316113672E+02  0.47000000000E+01 0. -1.
          5   -1    0    0  501    0  0.00000000000E+00 -0.00000000000E+00 -0.52687268843E+03  0.52689365133E+03  0.47000000000E+01 0. -1.
         25    2    1    2    0    0 -0.78246629790E+02 -0.11417943517E+03 -0.11480196013E+03  0.21900548996E+03  0.12499774436E+03 0.  0.
         25    2    1    2    0    0  0.78246629790E+02  0.11417943517E+03 -0.33589947909E+03  0.38420427504E+03  0.12499994567E+03 0.  0.
          5    1    4    4  502    0  0.12642809769E+02  0.11973137308E+03 -0.21498270712E+03  0.24644491616E+03  0.47000000000E+01 0. -1.
         -5    1    4    4    0  502  0.65603820021E+02 -0.55519379137E+01 -0.12091677197E+03  0.13775935888E+03  0.47000000000E+01 0. -1.
          5    1    3    3  503    0 -0.59960636404E+02 -0.56026524646E+02  0.72293015347E+01  0.82514254421E+02  0.47000000000E+01 0. -1.
         -5    1    3    3    0  503 -0.18285993386E+02 -0.58152910522E+02 -0.12203126166E+03  0.13649123554E+03  0.47000000000E+01 0. -1.
<mgrwt>
<rscale>  0 0.18650557E+03</rscale>
<asrwt>0</asrwt>
<pdfrwt beam="2">  1        5 0.81070090E-01 0.18650594E+03</pdfrwt>
<pdfrwt beam="1">  1       -5 0.11731410E-01 0.18650594E+03</pdfrwt>
<totfact> 0.62692716E+01</totfact>
</mgrwt>
</event>
<event>
 8    1  0.3754098E-007  0.1469631E+03  0.7546771E-02  0.1204257E+00
         -5   -1    0    0    0  501 -0.00000000000E+00  0.00000000000E+00  0.41887360434E+02  0.42150219029E+02  0.47000000000E+01 0. -1.
          5   -1    0    0  501    0  0.00000000000E+00 -0.00000000000E+00 -0.64740827588E+03  0.64742533599E+03  0.47000000000E+01 0. -1.
         25    2    1    2    0    0 -0.76883576792E+02  0.78007171038E+01 -0.14611193585E+03  0.20723255418E+03  0.12499879258E+03 0.  0.
         25    2    1    2    0    0  0.76883576792E+02 -0.78007171038E+01 -0.45940897960E+03  0.48234300084E+03  0.12500489733E+03 0.  0.
          5    1    4    4  502    0  0.90137149791E+02  0.18424180765E+02 -0.18851288283E+03  0.20981742826E+03  0.47000000000E+01 0.  1.
         -5    1    4    4    0  502 -0.13253572998E+02 -0.26224897869E+02 -0.27089609677E+03  0.27252557258E+03  0.47000000000E+01 0.  1.
          5    1    3    3  503    0 -0.97111834261E+02  0.15225903151E+02 -0.15487869271E+03  0.18349941671E+03  0.47000000000E+01 0. -1.
         -5    1    3    3    0  503  0.20228257469E+02 -0.74251860474E+01  0.87667568561E+01  0.23733137463E+02  0.47000000000E+01 0. -1.
<mgrwt>
<rscale>  0 0.14696183E+03</rscale>
<asrwt>0</asrwt>
<pdfrwt beam="2">  1        5 0.99622798E-01 0.14696312E+03</pdfrwt>
<pdfrwt beam="1">  1       -5 0.64657420E-02 0.14696312E+03</pdfrwt>
<totfact> 0.10045958E+02</totfact>
</mgrwt>
</event>
<event>
 8    1  0.3754098E-007  0.1462142E+03  0.7546771E-02  0.1205205E+00
          5   -1    0    0  501    0  0.00000000000E+00  0.00000000000E+00  0.12999127539E+03  0.13007621488E+03  0.47000000000E+01 0. -1.
         -5   -1    0    0    0  501 -0.00000000000E+00 -0.00000000000E+00 -0.21586674517E+03  0.21591790494E+03  0.47000000000E+01 0. -1.
         25    2    1    2    0    0  0.67608190892E+02  0.34385610750E+02 -0.12747512749E+03  0.19398064216E+03  0.12500137480E+03 0.  0.
         25    2    1    2    0    0 -0.67608190892E+02 -0.34385610750E+02  0.41599657702E+02  0.15201347766E+03  0.12499731264E+03 0.  0.
          5    1    4    4  502    0 -0.79320798686E+02 -0.71517110449E+02  0.32767199515E+02  0.11181353029E+03  0.47000000000E+01 0.  1.
         -5    1    4    4    0  502  0.11712607795E+02  0.37131499699E+02  0.88324581869E+01  0.40199947374E+02  0.47000000000E+01 0.  1.
          5    1    3    3  503    0 -0.38986023069E+01 -0.11460855651E+02  0.19930385642E+02  0.23787824281E+02  0.47000000000E+01 0.  1.
         -5    1    3    3    0  503  0.71506793198E+02  0.45846466401E+02 -0.14740551313E+03  0.17019281787E+03  0.47000000000E+01 0.  1.
<mgrwt>
<rscale>  0 0.14621329E+03</rscale>
<asrwt>0</asrwt>
<pdfrwt beam="1">  1        5 0.20009127E-01 0.14621416E+03</pdfrwt>
<pdfrwt beam="2">  1       -5 0.33220738E-01 0.14621416E+03</pdfrwt>
<totfact> 0.14978148E+02</totfact>
</mgrwt>
</event>
<event>
 8    1  0.3754098E-007  0.1559119E+03  0.7546771E-02  0.1193393E+00
          5   -1    0    0  501    0  0.00000000000E+00  0.00000000000E+00  0.13485136450E+03  0.13493324464E+03  0.47000000000E+01 0.  1.
         -5   -1    0    0    0  501 -0.00000000000E+00 -0.00000000000E+00 -0.19765224569E+03  0.19770811876E+03  0.47000000000E+01 0.  1.
         25    2    1    2    0    0  0.21644093042E-01 -0.93179283757E+02 -0.80965836628E+02  0.17567481837E+03  0.12499518278E+03 0.  0.
         25    2    1    2    0    0 -0.21644093042E-01  0.93179283757E+02  0.18164955442E+02  0.15696654503E+03  0.12500460497E+03 0.  0.
          5    1    3    3  502    0  0.33789871064E+02 -0.21200085126E+01 -0.69906202671E+02  0.77815274814E+02  0.47000000000E+01 0. -1.
         -5    1    3    3    0  502 -0.33768226971E+02 -0.91059275245E+02 -0.11059633957E+02  0.97859543551E+02  0.47000000000E+01 0. -1.
          5    1    4    4  503    0  0.14219806310E+02  0.10952572087E+03 -0.20461946454E+02  0.11242271868E+03  0.47000000000E+01 0. -1.
         -5    1    4    4    0  503 -0.14241450403E+02 -0.16346437113E+02  0.38626901895E+02  0.44543826350E+02  0.47000000000E+01 0. -1.
<mgrwt>
<rscale>  0 0.15591004E+03</rscale>
<asrwt>0</asrwt>
<pdfrwt beam="1">  1        5 0.20756960E-01 0.15591193E+03</pdfrwt>
<pdfrwt beam="2">  1       -5 0.30418634E-01 0.15591193E+03</pdfrwt>
<totfact> 0.17001830E+02</totfact>
</mgrwt>
</event>
<event>
 8    1  0.3754098E-007  0.1404190E+03  0.7546771E-02  0.1212767E+00
          5   -1    0    0  501    0  0.00000000000E+00  0.00000000000E+00  0.98659885084E+02  0.98771771903E+02  0.47000000000E+01 0. -1.
         -5   -1    0    0    0  501 -0.00000000000E+00 -0.00000000000E+00 -0.28961040528E+03  0.28964854021E+03  0.47000000000E+01 0. -1.
         25    2    1    2    0    0 -0.55910600029E+02  0.31067633187E+02 -0.20371712438E+03  0.24742304295E+03  0.12500520945E+03 0.  0.
         25    2    1    2    0    0  0.55910600029E+02 -0.31067633187E+02  0.12766604186E+02  0.14099726916E+03  0.12500420274E+03 0.  0.
          5    1    3    3  502    0 -0.69616308316E+02  0.54433633534E+02 -0.20121475656E+03  0.21981564799E+03  0.47000000000E+01 0. -1.
         -5    1    3    3    0  502  0.13705708286E+02 -0.23366000348E+02 -0.25023678237E+01  0.27607394962E+02  0.47000000000E+01 0. -1.
          5    1    4    4  503    0 -0.25434517403E+02 -0.46284664076E+02 -0.12243636228E+02  0.54416738530E+02  0.47000000000E+01 0.  1.
         -5    1    4    4    0  503  0.81345117433E+02  0.15217030890E+02  0.25010240415E+02  0.86580530634E+02  0.47000000000E+01 0.  1.
<mgrwt>
<rscale>  0 0.14041878E+03</rscale>
<asrwt>0</asrwt>
<pdfrwt beam="1">  1        5 0.15189984E-01 0.14041900E+03</pdfrwt>
<pdfrwt beam="2">  1       -5 0.44566987E-01 0.14041900E+03</pdfrwt>
<totfact> 0.13496518E+02</totfact>
</mgrwt>
</event>
<event>
 8    1  0.3754098E-007  0.1260613E+03  0.7546771E-02  0.1233420E+00
         -5   -1    0    0    0  501 -0.00000000000E+00  0.00000000000E+00  0.19477194064E+02  0.20036244374E+02  0.47000000000E+01 0. -1.
          5   -1    0    0  501    0  0.00000000000E+00 -0.00000000000E+00 -0.85629183081E+03  0.85630472936E+03  0.47000000000E+01 0. -1.
         25    2    1    2    0    0  0.60713516202E+01  0.15161033144E+02 -0.30994586292E+03  0.33460103447E+03  0.12499878435E+03 0.  0.
         25    2    1    2    0    0 -0.60713516202E+01 -0.15161033144E+02 -0.52686877382E+03  0.54173993926E+03  0.12499895488E+03 0.  0.
          5    1    4    4  502    0  0.49985485723E+02 -0.36179536531E+02 -0.19841415620E+03  0.20784074439E+03  0.47000000000E+01 0. -1.
         -5    1    4    4    0  502 -0.56056837343E+02  0.21018503387E+02 -0.32845461762E+03  0.33389919487E+03  0.47000000000E+01 0. -1.
          5    1    3    3  503    0  0.85846754845E+01  0.60328268857E+02 -0.82609980846E+02  0.10276037958E+03  0.47000000000E+01 0.  1.
         -5    1    3    3    0  503 -0.25133238643E+01 -0.45167235713E+02 -0.22733588208E+03  0.23184065489E+03  0.47000000000E+01 0.  1.
<mgrwt>
<rscale>  0 0.12606128E+03</rscale>
<asrwt>0</asrwt>
<pdfrwt beam="2">  1        5 0.13178117E+00 0.12606132E+03</pdfrwt>
<pdfrwt beam="1">  1       -5 0.30404881E-02 0.12606132E+03</pdfrwt>
<totfact> 0.16411554E+02</totfact>
</mgrwt>
</event>
<event>
 8    1  0.3754098E-007  0.1746125E+03  0.7546771E-02  0.1173123E+00
          5   -1    0    0  501    0  0.00000000000E+00  0.00000000000E+00  0.31754542027E+03  0.31758020080E+03  0.47000000000E+01 0. -1.
         -5   -1    0    0    0  501 -0.00000000000E+00 -0.00000000000E+00 -0.95971921980E+02  0.96086938803E+02  0.47000000000E+01 0. -1.
         25    2    1    2    0    0 -0.11044821609E+03  0.51596803134E+02  0.10575802380E+03  0.20414280571E+03  0.12501394720E+03 0.  0.
         25    2    1    2    0    0  0.11044821609E+03 -0.51596803134E+02  0.11581547450E+03  0.20952433389E+03  0.12500473522E+03 0.  0.
          5    1    3    3  502    0  0.23641352904E+01 -0.26412924091E+02  0.48425315614E+02  0.55410584612E+02  0.47000000000E+01 0. -1.
         -5    1    3    3    0  502 -0.11281235138E+03  0.78009727226E+02  0.57332708182E+02  0.14873222110E+03  0.47000000000E+01 0. -1.
          5    1    4    4  503    0  0.55194564989E+02  0.23510387948E+02 -0.74823366126E+00  0.60181626760E+02  0.47000000000E+01 0. -1.
         -5    1    4    4    0  503  0.55253651100E+02 -0.75107191082E+02  0.11656370816E+03  0.14934270713E+03  0.47000000000E+01 0. -1.
<mgrwt>
<rscale>  0 0.17461085E+03</rscale>
<asrwt>0</asrwt>
<pdfrwt beam="1">  1        5 0.48864665E-01 0.17461250E+03</pdfrwt>
<pdfrwt beam="2">  1       -5 0.14776434E-01 0.17461250E+03</pdfrwt>
<totfact> 0.12518161E+02</totfact>
</mgrwt>
</event>
<event>
 8    1  0.3754098E-007  0.1511997E+03  0.7546771E-02  0.1199007E+00
          5   -1    0    0  501    0  0.00000000000E+00  0.00000000000E+00  0.16943467482E+03  0.16949984965E+03  0.47000000000E+01 0.  1.
         -5   -1    0    0    0  501 -0.00000000000E+00 -0.00000000000E+00 -0.16732055716E+03  0.16738655516E+03  0.47000000000E+01 0.  1.
         25    2    1    2    0    0  0.12120234157E+02 -0.84202510158E+02 -0.73180167559E+02  0.16797825164E+03  0.12499757321E+03 0.  0.
         25    2    1    2    0    0 -0.12120234157E+02  0.84202510158E+02  0.75294285224E+02  0.16890815316E+03  0.12499508800E+03 0.  0.
          5    1    4    4  502    0  0.31788444754E+01  0.77316647091E+01  0.89061796909E+02  0.89576656334E+02  0.47000000000E+01 0.  1.
         -5    1    4    4    0  502 -0.15299078632E+02  0.76470845449E+02 -0.13767511685E+02  0.79331496826E+02  0.47000000000E+01 0.  1.
          5    1    3    3  503    0 -0.42972300778E+02 -0.26140659728E+02  0.11025385005E+02  0.51706883872E+02  0.47000000000E+01 0. -1.
         -5    1    3    3    0  503  0.55092534935E+02 -0.58061850430E+02 -0.84205552565E+02  0.11627136777E+03  0.47000000000E+01 0. -1.
<mgrwt>
<rscale>  0 0.15119921E+03</rscale>
<asrwt>0</asrwt>
<pdfrwt beam="1">  1        5 0.26076963E-01 0.15119972E+03</pdfrwt>
<pdfrwt beam="2">  1       -5 0.25751715E-01 0.15119972E+03</pdfrwt>
<totfact> 0.15082761E+02</totfact>
</mgrwt>
</event>
<event>
 8    1  0.3754098E-007  0.1285058E+03  0.7546771E-02  0.1229692E+00
          5   -1    0    0  501    0  0.00000000000E+00  0.00000000000E+00  0.79172227176E+03  0.79173622223E+03  0.47000000000E+01 0.  1.
         -5   -1    0    0    0  501 -0.00000000000E+00 -0.00000000000E+00 -0.23845493253E+02  0.24304270169E+02  0.47000000000E+01 0.  1.
         25    2    1    2    0    0  0.18613044418E+02 -0.23265880645E+02  0.23449127108E+03  0.26739462378E+03  0.12500392789E+03 0.  0.
         25    2    1    2    0    0 -0.18613044418E+02  0.23265880645E+02  0.53338550743E+03  0.54864586862E+03  0.12499777199E+03 0.  0.
          5    1    3    3  502    0 -0.25722879575E+02 -0.34806131122E+02  0.19810559355E+02  0.47829714188E+02  0.47000000000E+01 0. -1.
         -5    1    3    3    0  502  0.44335923993E+02  0.11540250477E+02  0.21468071172E+03  0.21956490959E+03  0.47000000000E+01 0. -1.
          5    1    4    4  503    0  0.13955320740E+02 -0.46820298038E+02  0.16184751117E+03  0.16912598309E+03  0.47000000000E+01 0. -1.
         -5    1    4    4    0  503 -0.32568365158E+02  0.70086178683E+02  0.37153799626E+03  0.37951988553E+03  0.47000000000E+01 0. -1.
<mgrwt>
<rscale>  0 0.12850426E+03</rscale>
<asrwt>0</asrwt>
<pdfrwt beam="1">  1        5 0.12183980E+00 0.12850575E+03</pdfrwt>
<pdfrwt beam="2">  1       -5 0.37049008E-02 0.12850575E+03</pdfrwt>
<totfact> 0.14679139E+02</totfact>
</mgrwt>
</event>
<event>
 8    1  0.3754098E-007  0.1397733E+03  0.7546771E-02  0.1213640E+00
         -5   -1    0    0    0  501 -0.00000000000E+00  0.00000000000E+00  0.94312866659E+02  0.94429904255E+02  0.47000000000E+01 0.  1.
          5   -1    0    0  501    0  0.00000000000E+00 -0.00000000000E+00 -0.20832431357E+03  0.20837732512E+03  0.47000000000E+01 0.  1.
         25    2    1    2    0    0  0.40887288675E+02  0.47309740820E+02 -0.44267365371E+02  0.14659964570E+03  0.12498749750E+03 0.  0.
         25    2    1    2    0    0 -0.40887288675E+02 -0.47309740820E+02 -0.69744081543E+02  0.15620758368E+03  0.12500636118E+03 0.  0.
          5    1    4    4  502    0 -0.21029106848E+02 -0.76445319969E+02 -0.86028568001E+02  0.11708592910E+03  0.47000000000E+01 0. -1.
         -5    1    4    4    0  502 -0.19858181827E+02  0.29135579149E+02  0.16284486458E+02  0.39121654580E+02  0.47000000000E+01 0. -1.
          5    1    3    3  503    0 -0.34481296520E+02  0.54480331261E+01 -0.48747176966E+02  0.60141650600E+02  0.47000000000E+01 0. -1.
         -5    1    3    3    0  503  0.75368585195E+02  0.41861707694E+02  0.44798115952E+01  0.86457995103E+02  0.47000000000E+01 0. -1.
<mgrwt>
<rscale>  0 0.13976907E+03</rscale>
<asrwt>0</asrwt>
<pdfrwt beam="2">  1        5 0.32062975E-01 0.13977329E+03</pdfrwt>
<pdfrwt beam="1">  1       -5 0.14522753E-01 0.13977329E+03</pdfrwt>
<totfact> 0.28512069E+02</totfact>
</mgrwt>
</event>
<event>
 8    1  0.3754098E-007  0.1285258E+03  0.7546771E-02  0.1229670E+00
          5   -1    0    0  501    0  0.00000000000E+00  0.00000000000E+00  0.27127166868E+03  0.27131238127E+03  0.47000000000E+01 0. -1.
         -5   -1    0    0    0  501 -0.00000000000E+00 -0.00000000000E+00 -0.60945155950E+02  0.61126115808E+02  0.47000000000E+01 0. -1.
         25    2    1    2    0    0 -0.54966874578E+00 -0.29779535672E+02  0.11466699398E+03  0.17224226680E+03  0.12502702142E+03 0.  0.
         25    2    1    2    0    0  0.54966874578E+00  0.29779535672E+02  0.95659518758E+02  0.16019623028E+03  0.12499986314E+03 0.  0.
          5    1    4    4  502    0  0.51374193983E+02 -0.34374529154E+01  0.83323263742E+02  0.98061104269E+02  0.47000000000E+01 0.  1.
         -5    1    4    4    0  502 -0.50824525237E+02  0.33216988587E+02  0.12336255016E+02  0.62135126010E+02  0.47000000000E+01 0.  1.
          5    1    3    3  503    0  0.10160607846E+02 -0.76070208499E+02  0.49458617968E+02  0.91422970112E+02  0.47000000000E+01 0. -1.
         -5    1    3    3    0  503 -0.10710276592E+02  0.46290672827E+02  0.65208376008E+02  0.80819296687E+02  0.47000000000E+01 0. -1.
<mgrwt>
<rscale>  0 0.12851919E+03</rscale>
<asrwt>0</asrwt>
<pdfrwt beam="1">  1        5 0.41751155E-01 0.12852579E+03</pdfrwt>
<pdfrwt beam="2">  1       -5 0.93932295E-02 0.12852579E+03</pdfrwt>
<totfact> 0.35116193E+02</totfact>
</mgrwt>
</event>
<event>
 8    1  0.3754098E-007  0.1388623E+03  0.7546771E-02  0.1214868E+00
         -5   -1    0    0    0  501 -0.00000000000E+00  0.00000000000E+00  0.19202783713E+03  0.19208534622E+03  0.47000000000E+01 0. -1.
          5   -1    0    0  501    0  0.00000000000E+00 -0.00000000000E+00 -0.10110442459E+03  0.10121360913E+03  0.47000000000E+01 0. -1.
         25    2    1    2    0    0 -0.47372371606E+02 -0.37590217075E+02  0.58627339128E+02  0.15073050645E+03  0.12500141867E+03 0.  0.
         25    2    1    2    0    0  0.47372371606E+02  0.37590217075E+02  0.32296073405E+02  0.14256844889E+03  0.12500224098E+03 0.  0.
          5    1    4    4  502    0 -0.23749393572E+02 -0.27245439729E+02  0.28277545365E+02  0.46130870932E+02  0.47000000000E+01 0.  1.
         -5    1    4    4    0  502  0.71121765177E+02  0.64835656804E+02  0.40185280403E+01  0.96437577960E+02  0.47000000000E+01 0.  1.
          5    1    3    3  503    0 -0.24116347670E+01 -0.75336579125E+02  0.51496169118E+02  0.91407666912E+02  0.47000000000E+01 0. -1.
         -5    1    3    3    0  503 -0.44960736839E+02  0.37746362050E+02  0.71311700102E+01  0.59322839538E+02  0.47000000000E+01 0. -1.
<mgrwt>
<rscale>  0 0.13886207E+03</rscale>
<asrwt>0</asrwt>
<pdfrwt beam="2">  1        5 0.15567350E-01 0.13886226E+03</pdfrwt>
<pdfrwt beam="1">  1       -5 0.29555566E-01 0.13886226E+03</pdfrwt>
<totfact> 0.29449815E+02</totfact>
</mgrwt>
</event>
<event>
 8    1  0.3754098E-007  0.1362431E+03  0.7546771E-02  0.1218480E+00
          5   -1    0    0  501    0  0.00000000000E+00  0.00000000000E+00  0.17116475296E+03  0.17122926927E+03  0.47000000000E+01 0. -1.
         -5   -1    0    0    0  501 -0.00000000000E+00 -0.00000000000E+00 -0.11794346820E+03  0.11803707762E+03  0.47000000000E+01 0. -1.
         25    2    1    2    0    0 -0.53762899749E+02 -0.67635578623E+01 -0.14718578065E+02  0.13703580190E+03  0.12500391737E+03 0.  0.
         25    2    1    2    0    0  0.53762899749E+02  0.67635578623E+01  0.67939862820E+02  0.15223054499E+03  0.12498847452E+03 0.  0.
          5    1    3    3  502    0 -0.71361904429E+02  0.66537838575E+00  0.37842261426E+02  0.80914095694E+02  0.47000000000E+01 0.  1.
         -5    1    3    3    0  502  0.17599004680E+02 -0.74289362481E+01 -0.52560839490E+02  0.56121706206E+02  0.47000000000E+01 0.  1.
          5    1    4    4  503    0  0.40051367481E+02  0.45941538441E+02 -0.11756537092E+02  0.62249844625E+02  0.47000000000E+01 0.  1.
         -5    1    4    4    0  503  0.13711532268E+02 -0.39177980579E+02  0.79696399912E+02  0.89980700366E+02  0.47000000000E+01 0.  1.
<mgrwt>
<rscale>  0 0.13623953E+03</rscale>
<asrwt>0</asrwt>
<pdfrwt beam="1">  1        5 0.26345202E-01 0.13624307E+03</pdfrwt>
<pdfrwt beam="2">  1       -5 0.18157313E-01 0.13624307E+03</pdfrwt>
<totfact> 0.27600508E+02</totfact>
</mgrwt>
</event>
<event>
 8    1  0.3754098E-007  0.1282652E+03  0.7546771E-02  0.1230057E+00
          5   -1    0    0  501    0  0.00000000000E+00  0.00000000000E+00  0.19741653589E+03  0.19747247566E+03  0.47000000000E+01 0.  1.
         -5   -1    0    0    0  501 -0.00000000000E+00 -0.00000000000E+00 -0.86095309105E+02  0.86223501726E+02  0.47000000000E+01 0.  1.
         25    2    1    2    0    0  0.28094875833E+02 -0.60185409034E+01  0.29654544289E+02  0.13164864061E+03  0.12500571065E+03 0.  0.
         25    2    1    2    0    0 -0.28094875833E+02  0.60185409034E+01  0.81666682498E+02  0.15204733678E+03  0.12499360267E+03 0.  0.
          5    1    3    3  502    0 -0.33345938266E+02 -0.80746418703E+01  0.54994714613E+02  0.64989692071E+02  0.47000000000E+01 0.  1.
         -5    1    3    3    0  502  0.61440814099E+02  0.20561009669E+01 -0.25340170324E+02  0.66658948539E+02  0.47000000000E+01 0.  1.
          5    1    4    4  503    0  0.15213750533E+00  0.21836465835E+02  0.10785419814E+03  0.11014296365E+03  0.47000000000E+01 0.  1.
         -5    1    4    4    0  503 -0.28247013338E+02 -0.15817924931E+02 -0.26187515640E+02  0.41904373126E+02  0.47000000000E+01 0.  1.
<mgrwt>
<rscale>  0 0.12826229E+03</rscale>
<asrwt>0</asrwt>
<pdfrwt beam="1">  1        5 0.30385939E-01 0.12826524E+03</pdfrwt>
<pdfrwt beam="2">  1       -5 0.13259596E-01 0.12826524E+03</pdfrwt>
<totfact> 0.36212468E+02</totfact>
</mgrwt>
</event>
<event>
 8    1  0.3754098E-007  0.1354303E+03  0.7546771E-02  0.1219615E+00
         -5   -1    0    0    0  501 -0.00000000000E+00  0.00000000000E+00  0.19807235800E+02  0.20357224517E+02  0.47000000000E+01 0.  1.
          5   -1    0    0  501    0  0.00000000000E+00 -0.00000000000E+00 -0.91276214770E+03  0.91277424826E+03  0.47000000000E+01 0.  1.
         25    2    1    2    0    0 -0.32725379378E+02  0.40561408178E+02 -0.44366264267E+03  0.46387151458E+03  0.12499625294E+03 0.  0.
         25    2    1    2    0    0  0.32725379378E+02 -0.40561408178E+02 -0.44929226924E+03  0.46925995820E+03  0.12500074753E+03 0.  0.
          5    1    3    3  502    0  0.38669512156E+01  0.29734807013E+02 -0.15674494588E+02  0.34159798600E+02  0.47000000000E+01 0. -1.
         -5    1    3    3    0  502 -0.36592330594E+02  0.10826601165E+02 -0.42798814808E+03  0.42971171598E+03  0.47000000000E+01 0. -1.
          5    1    4    4  503    0 -0.28059913246E+02 -0.15920495175E+02 -0.34107906688E+03  0.34263368305E+03  0.47000000000E+01 0.  1.
         -5    1    4    4    0  503  0.60785292624E+02 -0.24640913003E+02 -0.10821320236E+03  0.12662627515E+03  0.47000000000E+01 0.  1.
<mgrwt>
<rscale>  0 0.13542926E+03</rscale>
<asrwt>0</asrwt>
<pdfrwt beam="2">  1        5 0.14046815E+00 0.13543030E+03</pdfrwt>
<pdfrwt beam="1">  1       -5 0.30905054E-02 0.13543030E+03</pdfrwt>
<totfact> 0.13835940E+02</totfact>
</mgrwt>
</event>
<event>
 8    1  0.3754098E-007  0.1459352E+03  0.7546771E-02  0.1205563E+00
         -5   -1    0    0    0  501 -0.00000000000E+00  0.00000000000E+00  0.32890997226E+02  0.33225106448E+02  0.47000000000E+01 0. -1.
          5   -1    0    0  501    0  0.00000000000E+00 -0.00000000000E+00 -0.72827958519E+03  0.72829475091E+03  0.47000000000E+01 0. -1.
         25    2    1    2    0    0  0.27427643137E+02 -0.70118048045E+02 -0.21805649785E+03  0.26237757190E+03  0.12499815082E+03 0.  0.
         25    2    1    2    0    0 -0.27427643137E+02  0.70118048045E+02 -0.47733209011E+03  0.49914228546E+03  0.12501312178E+03 0.  0.
          5    1    4    4  502    0 -0.54896272210E+02  0.32846875773E+01 -0.33429540228E+03  0.33882133324E+03  0.47000000000E+01 0. -1.
         -5    1    4    4    0  502  0.27468629072E+02  0.66833360468E+02 -0.14303668783E+03  0.16032095222E+03  0.47000000000E+01 0. -1.
          5    1    3    3  503    0  0.64196027394E+02 -0.61766754053E+02 -0.82195052092E+02  0.12130283767E+03  0.47000000000E+01 0. -1.
         -5    1    3    3    0  503 -0.36768384256E+02 -0.83512939925E+01 -0.13586144576E+03  0.14107473422E+03  0.47000000000E+01 0. -1.
<mgrwt>
<rscale>  0 0.14593204E+03</rscale>
<asrwt>0</asrwt>
<pdfrwt beam="2">  1        5 0.11206987E+00 0.14593525E+03</pdfrwt>
<pdfrwt beam="1">  1       -5 0.50870213E-02 0.14593525E+03</pdfrwt>
<totfact> 0.11203476E+02</totfact>
</mgrwt>
</event>
<event>
 8    1  0.3754098E-007  0.1677100E+03  0.7546771E-02  0.1180257E+00
          5   -1    0    0  501    0  0.00000000000E+00  0.00000000000E+00  0.33901160350E+03  0.33904418194E+03  0.47000000000E+01 0. -1.
         -5   -1    0    0    0  501 -0.00000000000E+00 -0.00000000000E+00 -0.23331856763E+03  0.23336590154E+03  0.47000000000E+01 0. -1.
         25    2    1    2    0    0  0.88153800221E+01  0.11145993068E+03 -0.17692268754E+03  0.24377912876E+03  0.12500239669E+03 0.  0.
         25    2    1    2    0    0 -0.88153800221E+01 -0.11145993068E+03  0.28261572341E+03  0.32863095472E+03  0.12500252081E+03 0.  0.
          5    1    3    3  502    0  0.66373482051E+02  0.61508743630E+02 -0.10735125493E+03  0.14048183725E+03  0.47000000000E+01 0. -1.
         -5    1    3    3    0  502 -0.57558102029E+02  0.49951187054E+02 -0.69571432619E+02  0.10329729151E+03  0.47000000000E+01 0. -1.
          5    1    4    4  503    0  0.52875351129E+02 -0.29659470590E+02  0.71069196609E+02  0.93532922864E+02  0.47000000000E+01 0.  1.
         -5    1    4    4    0  503 -0.61690731151E+02 -0.81800460093E+02  0.21154652680E+03  0.23509803186E+03  0.47000000000E+01 0.  1.
<mgrwt>
<rscale>  0 0.16771002E+03</rscale>
<asrwt>0</asrwt>
<pdfrwt beam="1">  1        5 0.52161778E-01 0.16771004E+03</pdfrwt>
<pdfrwt beam="2">  1       -5 0.35901312E-01 0.16771004E+03</pdfrwt>
<totfact> 0.19780479E+01</totfact>
</mgrwt>
</event>
<event>
 8    1  0.3754098E-007  0.1382296E+03  0.7546771E-02  0.1215732E+00
          5   -1    0    0  501    0  0.00000000000E+00  0.00000000000E+00  0.44311866972E+02  0.44560425879E+02  0.47000000000E+01 0. -1.
         -5   -1    0    0    0  501 -0.00000000000E+00 -0.00000000000E+00 -0.60970641045E+03  0.60972452546E+03  0.47000000000E+01 0. -1.
         25    2    1    2    0    0  0.35924884175E+02 -0.46811572883E+02 -0.46039609458E+03  0.48069894349E+03  0.12499995885E+03 0.  0.
         25    2    1    2    0    0 -0.35924884175E+02  0.46811572883E+02 -0.10499844890E+03  0.17358600785E+03  0.12500202874E+03 0.  0.
          5    1    4    4  502    0 -0.13726913447E+02  0.17018007528E+02  0.27759404553E+02  0.35647093488E+02  0.47000000000E+01 0.  1.
         -5    1    4    4    0  502 -0.22197970728E+02  0.29793565355E+02 -0.13275785346E+03  0.13793891436E+03  0.47000000000E+01 0.  1.
          5    1    3    3  503    0  0.39635679234E+02  0.78999614729E+01 -0.41197475094E+02  0.57902663269E+02  0.47000000000E+01 0. -1.
         -5    1    3    3    0  503 -0.37107950583E+01 -0.54711534356E+02 -0.41919861948E+03  0.42279628022E+03  0.47000000000E+01 0. -1.
<mgrwt>
<rscale>  0 0.13822915E+03</rscale>
<asrwt>0</asrwt>
<pdfrwt beam="1">  1        5 0.68377241E-02 0.13822962E+03</pdfrwt>
<pdfrwt beam="2">  1       -5 0.93821494E-01 0.13822962E+03</pdfrwt>
<totfact> 0.10359284E+02</totfact>
</mgrwt>
</event>
<event>
 8    1  0.3754098E-007  0.1267135E+03  0.7546771E-02  0.1232419E+00
         -5   -1    0    0    0  501 -0.00000000000E+00  0.00000000000E+00  0.50836766167E+02  0.51053567890E+02  0.47000000000E+01 0. -1.
          5   -1    0    0  501    0  0.00000000000E+00 -0.00000000000E+00 -0.44457720261E+03  0.44460204575E+03  0.47000000000E+01 0. -1.
         25    2    1    2    0    0  0.21246139616E+01  0.20653424770E+02 -0.63071542320E+02  0.14154272123E+03  0.12500097817E+03 0.  0.
         25    2    1    2    0    0 -0.21246139616E+01 -0.20653424770E+02 -0.33066889412E+03  0.35411289240E+03  0.12499178007E+03 0.  0.
          5    1    3    3  502    0  0.24964852024E+02  0.68295395154E+02 -0.28576907819E+02  0.78270265723E+02  0.47000000000E+01 0.  1.
         -5    1    3    3    0  502 -0.22840238062E+02 -0.47641970385E+02 -0.34494634501E+02  0.63272455510E+02  0.47000000000E+01 0.  1.
          5    1    4    4  503    0 -0.48846332691E+02  0.28692653632E+02 -0.17996830471E+03  0.18873238538E+03  0.47000000000E+01 0. -1.
         -5    1    4    4    0  503  0.46721718729E+02 -0.49346078402E+02 -0.15070058941E+03  0.16538050702E+03  0.47000000000E+01 0. -1.
<mgrwt>
<rscale>  0 0.12671128E+03</rscale>
<asrwt>0</asrwt>
<pdfrwt beam="2">  1        5 0.68415078E-01 0.12671354E+03</pdfrwt>
<pdfrwt beam="1">  1       -5 0.78396293E-02 0.12671354E+03</pdfrwt>
<totfact> 0.16551878E+02</totfact>
</mgrwt>
</event>
<event>
 8    1  0.3754098E-007  0.1302853E+03  0.7546771E-02  0.1227036E+00
         -5   -1    0    0    0  501 -0.00000000000E+00  0.00000000000E+00  0.92673872778E+02  0.92792977620E+02  0.47000000000E+01 0.  1.
          5   -1    0    0  501    0  0.00000000000E+00 -0.00000000000E+00 -0.18730031664E+03  0.18735927683E+03  0.47000000000E+01 0.  1.
         25    2    1    2    0    0 -0.16692978075E+02 -0.32696862627E+02 -0.25811860596E+02  0.13281760567E+03  0.12500609540E+03 0.  0.
         25    2    1    2    0    0  0.16692978075E+02  0.32696862627E+02 -0.68814583268E+02  0.14733464878E+03  0.12499724604E+03 0.  0.
          5    1    4    4  502    0 -0.25311865667E+02 -0.34736043045E+02 -0.48945766211E+02  0.65307436482E+02  0.47000000000E+01 0.  1.
         -5    1    4    4    0  502  0.42004843742E+02  0.67432905672E+02 -0.19868817058E+02  0.82027212293E+02  0.47000000000E+01 0.  1.
          5    1    3    3  503    0 -0.47137917207E+02  0.38177558027E+01 -0.58170887618E+02  0.75116580488E+02  0.47000000000E+01 0. -1.
         -5    1    3    3    0  503  0.30444939132E+02 -0.36514618430E+02  0.32359027022E+02  0.57701025187E+02  0.47000000000E+01 0. -1.
<mgrwt>
<rscale>  0 0.13028320E+03</rscale>
<asrwt>0</asrwt>
<pdfrwt beam="2">  1        5 0.28829131E-01 0.13028532E+03</pdfrwt>
<pdfrwt beam="1">  1       -5 0.14271216E-01 0.13028532E+03</pdfrwt>
<totfact> 0.35382073E+02</totfact>
</mgrwt>
</event>
<event>
 8    1  0.3754098E-007  0.2046945E+03  0.7546771E-02  0.1145838E+00
          5   -1    0    0  501    0  0.00000000000E+00  0.00000000000E+00  0.95984232250E+02  0.96099234340E+02  0.47000000000E+01 0. -1.
         -5   -1    0    0    0  501 -0.00000000000E+00 -0.00000000000E+00 -0.75623566243E+03  0.75625026753E+03  0.47000000000E+01 0. -1.
         25    2    1    2    0    0  0.98604684454E+02  0.12865243865E+03 -0.60737119709E+03  0.64093650275E+03  0.12500198291E+03 0.  0.
         25    2    1    2    0    0 -0.98604684454E+02 -0.12865243865E+03 -0.52880233091E+02  0.21141299912E+03  0.12499921351E+03 0.  0.
          5    1    3    3  502    0  0.26890539786E+02 -0.20402531252E+02 -0.16834998918E+03  0.17176487787E+03  0.47000000000E+01 0. -1.
         -5    1    3    3    0  502  0.71714144668E+02  0.14905496990E+03 -0.43902120791E+03  0.46917162488E+03  0.47000000000E+01 0. -1.
          5    1    4    4  503    0  0.14997248082E+02 -0.67831944990E+02 -0.43560900828E+02  0.82132407076E+02  0.47000000000E+01 0. -1.
         -5    1    4    4    0  503 -0.11360193254E+03 -0.60820493662E+02 -0.93193322634E+01  0.12928059204E+03  0.47000000000E+01 0. -1.
<mgrwt>
<rscale>  0 0.20469406E+03</rscale>
<asrwt>0</asrwt>
<pdfrwt beam="1">  1        5 0.14776775E-01 0.20469448E+03</pdfrwt>
<pdfrwt beam="2">  1       -5 0.11635391E+00 0.20469448E+03</pdfrwt>
<totfact> 0.17572787E+01</totfact>
</mgrwt>
</event>
<event>
 8    1  0.3754098E-007  0.1537656E+03  0.7546771E-02  0.1195932E+00
          5   -1    0    0  501    0  0.00000000000E+00  0.00000000000E+00  0.41371687907E+03  0.41374357521E+03  0.47000000000E+01 0. -1.
         -5   -1    0    0    0  501 -0.00000000000E+00 -0.00000000000E+00 -0.65692811595E+02  0.65860728019E+02  0.47000000000E+01 0. -1.
         25    2    1    2    0    0 -0.83411960517E+02 -0.32539048528E+02  0.86987221574E+02  0.17666535405E+03  0.12501010266E+03 0.  0.
         25    2    1    2    0    0  0.83411960517E+02  0.32539048528E+02  0.26103684590E+03  0.30293894918E+03  0.12496170284E+03 0.  0.
          5    1    3    3  502    0 -0.10335380823E+02 -0.61691188552E+02  0.73626000810E+02  0.96723837998E+02  0.47000000000E+01 0.  1.
         -5    1    3    3    0  502 -0.73076579694E+02  0.29152140025E+02  0.13361220764E+02  0.79941516048E+02  0.47000000000E+01 0.  1.
          5    1    4    4  503    0  0.84500534918E+02  0.65030490263E+02  0.24313520844E+03  0.26552989407E+03  0.47000000000E+01 0. -1.
         -5    1    4    4    0  503 -0.10885744013E+01 -0.32491441735E+02  0.17901637466E+02  0.37409055110E+02  0.47000000000E+01 0. -1.
<mgrwt>
<rscale>  0 0.15375580E+03</rscale>
<asrwt>0</asrwt>
<pdfrwt beam="1">  1        5 0.63663719E-01 0.15376564E+03</pdfrwt>
<pdfrwt beam="2">  1       -5 0.10121557E-01 0.15376564E+03</pdfrwt>
<totfact> 0.13317507E+02</totfact>
</mgrwt>
</event>
<event>
 8    1  0.3754098E-007  0.1262415E+03  0.7546771E-02  0.1233147E+00
          5   -1    0    0  501    0  0.00000000000E+00  0.00000000000E+00  0.44513929357E+02  0.44761366231E+02  0.47000000000E+01 0. -1.
         -5   -1    0    0    0  501 -0.00000000000E+00 -0.00000000000E+00 -0.35746985842E+03  0.35750075480E+03  0.47000000000E+01 0. -1.
         25    2    1    2    0    0 -0.13034494811E+02 -0.11748269849E+02 -0.14732626853E+03  0.19401535006E+03  0.12501602601E+03 0.  0.
         25    2    1    2    0    0  0.13034494811E+02  0.11748269849E+02 -0.16562966053E+03  0.20824677097E+03  0.12500245306E+03 0.  0.
          5    1    3    3  502    0  0.43138724838E+02 -0.37264388169E+02 -0.10328838084E+03  0.11806847091E+03  0.47000000000E+01 0.  1.
         -5    1    3    3    0  502 -0.56173219649E+02  0.25516118320E+02 -0.44037887687E+02  0.75946879145E+02  0.47000000000E+01 0.  1.
          5    1    4    4  503    0  0.22225978877E+02  0.61557199820E+02 -0.13158621082E+03  0.14703844349E+03  0.47000000000E+01 0. -1.
         -5    1    4    4    0  503 -0.91914840653E+01 -0.49808929971E+02 -0.34043449712E+02  0.61208327476E+02  0.47000000000E+01 0. -1.
<mgrwt>
<rscale>  0 0.12623818E+03</rscale>
<asrwt>0</asrwt>
<pdfrwt beam="1">  1        5 0.68697073E-02 0.12624154E+03</pdfrwt>
<pdfrwt beam="2">  1       -5 0.55016771E-01 0.12624154E+03</pdfrwt>
<totfact> 0.33383004E+02</totfact>
</mgrwt>
</event>
<event>
 8    1  0.3754098E-007  0.1332948E+03  0.7546771E-02  0.1222648E+00
         -5   -1    0    0    0  501 -0.00000000000E+00  0.00000000000E+00  0.53432660294E+03  0.53434727342E+03  0.47000000000E+01 0. -1.
          5   -1    0    0  501    0  0.00000000000E+00 -0.00000000000E+00 -0.39727251866E+02  0.40004306528E+02  0.47000000000E+01 0. -1.
         25    2    1    2    0    0  0.27586473878E+02  0.37169383126E+02  0.36442967822E+03  0.38804185666E+03  0.12499966227E+03 0.  0.
         25    2    1    2    0    0 -0.27586473878E+02 -0.37169383126E+02  0.13016967285E+03  0.18630972329E+03  0.12499837070E+03 0.  0.
          5    1    4    4  502    0 -0.35156879644E+02 -0.80230794772E+02  0.72604227742E+02  0.11387032318E+03  0.47000000000E+01 0.  1.
         -5    1    4    4    0  502  0.75704057656E+01  0.43061411646E+02  0.57565445111E+02  0.72439400103E+02  0.47000000000E+01 0.  1.
          5    1    3    3  503    0 -0.16404452696E+02  0.58024017899E+02  0.30564061277E+03  0.31156727507E+03  0.47000000000E+01 0. -1.
         -5    1    3    3    0  503  0.43990926574E+02 -0.20854634774E+02  0.58789065453E+02  0.76474581589E+02  0.47000000000E+01 0. -1.
<mgrwt>
<rscale>  0 0.13329445E+03</rscale>
<asrwt>0</asrwt>
<pdfrwt beam="2">  1        5 0.61347870E-02 0.13329476E+03</pdfrwt>
<pdfrwt beam="1">  1       -5 0.82226993E-01 0.13329476E+03</pdfrwt>
<totfact> 0.16784442E+02</totfact>
</mgrwt>
</event>
<event>
 8    1  0.3754098E-007  0.1385840E+03  0.7546771E-02  0.1215249E+00
          5   -1    0    0  501    0  0.00000000000E+00  0.00000000000E+00  0.18898393764E+02  0.19474067035E+02  0.47000000000E+01 0. -1.
         -5   -1    0    0    0  501 -0.00000000000E+00 -0.00000000000E+00 -0.17113051285E+04  0.17113115826E+04  0.47000000000E+01 0. -1.
         25    2    1    2    0    0  0.43985056094E+02  0.40552789077E+02 -0.14038745142E+04  0.14106975824E+04  0.12499921371E+03 0.  0.
         25    2    1    2    0    0 -0.43985056094E+02 -0.40552789077E+02 -0.28853222046E+03  0.32008806721E+03  0.12500525856E+03 0.  0.
          5    1    4    4  502    0 -0.39850971689E+02 -0.21590642814E+02 -0.29545908264E+03  0.29895219570E+03  0.47000000000E+01 0. -1.
         -5    1    4    4    0  502 -0.41340844051E+01 -0.18962146264E+02  0.69268621801E+01  0.21135871509E+02  0.47000000000E+01 0. -1.
          5    1    3    3  503    0  0.73743501048E+02  0.66047602317E+02 -0.10083439685E+04  0.10132028615E+04  0.47000000000E+01 0.  1.
         -5    1    3    3    0  503 -0.29758444954E+02 -0.25494813240E+02 -0.39553054573E+03  0.39749472091E+03  0.47000000000E+01 0.  1.
<mgrwt>
<rscale>  0 0.13858265E+03</rscale>
<asrwt>0</asrwt>
<pdfrwt beam="1">  1        5 0.29522256E-02 0.13858401E+03</pdfrwt>
<pdfrwt beam="2">  1       -5 0.26332237E+00 0.13858401E+03</pdfrwt>
<totfact> 0.21268665E+01</totfact>
</mgrwt>
</event>
<event>
 8    1  0.3754098E-007  0.1261656E+03  0.7546771E-02  0.1233262E+00
         -5   -1    0    0    0  501 -0.00000000000E+00  0.00000000000E+00  0.75741181556E+02  0.75886867003E+02  0.47000000000E+01 0. -1.
          5   -1    0    0  501    0  0.00000000000E+00 -0.00000000000E+00 -0.21867762184E+03  0.21872812415E+03  0.47000000000E+01 0. -1.
         25    2    1    2    0    0 -0.33310175895E+01 -0.16714162118E+02 -0.41754422035E+02  0.13289541376E+03  0.12500920104E+03 0.  0.
         25    2    1    2    0    0  0.33310175895E+01  0.16714162118E+02 -0.10118201825E+03  0.16171957740E+03  0.12499984801E+03 0.  0.
          5    1    3    3  502    0  0.27899226616E+02  0.12931109036E+02 -0.73089409568E+02  0.79433822883E+02  0.47000000000E+01 0. -1.
         -5    1    3    3    0  502 -0.31230244206E+02 -0.29645271155E+02  0.31334987533E+02  0.53461590873E+02  0.47000000000E+01 0. -1.
          5    1    4    4  503    0  0.11474950798E+02  0.52661851979E+02 -0.11083017109E+03  0.12333029625E+03  0.47000000000E+01 0.  1.
         -5    1    4    4    0  503 -0.81439332082E+01 -0.35947689860E+02  0.96481528323E+01  0.38389281153E+02  0.47000000000E+01 0.  1.
<mgrwt>
<rscale>  0 0.12616329E+03</rscale>
<asrwt>0</asrwt>
<pdfrwt beam="2">  1        5 0.33657802E-01 0.12616560E+03</pdfrwt>
<pdfrwt beam="1">  1       -5 0.11667581E-01 0.12616560E+03</pdfrwt>
<totfact> 0.36903015E+02</totfact>
</mgrwt>
</event>
<event>
 8    1  0.3754098E-007  0.1368266E+03  0.7546771E-02  0.1217667E+00
         -5   -1    0    0    0  501 -0.00000000000E+00  0.00000000000E+00  0.14338168481E+03  0.14345869629E+03  0.47000000000E+01 0. -1.
          5   -1    0    0  501    0  0.00000000000E+00 -0.00000000000E+00 -0.13832384179E+03  0.13840366760E+03  0.47000000000E+01 0. -1.
         25    2    1    2    0    0  0.49165012452E+02  0.26052011210E+02  0.36222996580E+02  0.14153136619E+03  0.12499246536E+03 0.  0.
         25    2    1    2    0    0 -0.49165012452E+02 -0.26052011210E+02 -0.31165153552E+02  0.14033099770E+03  0.12500246551E+03 0.  0.
          5    1    3    3  502    0  0.73101503246E+02  0.50204836676E+02  0.52899281971E+02  0.10336720677E+03  0.47000000000E+01 0. -1.
         -5    1    3    3    0  502 -0.23936490794E+02 -0.24152825466E+02 -0.16676285391E+02  0.38164159416E+02  0.47000000000E+01 0. -1.
          5    1    4    4  503    0  0.39228902413E+02 -0.94552701603E+01  0.91743881669E+01  0.41648149018E+02  0.47000000000E+01 0. -1.
         -5    1    4    4    0  503 -0.88393914865E+02 -0.16596741050E+02 -0.40339541719E+02  0.98682848686E+02  0.47000000000E+01 0. -1.
<mgrwt>
<rscale>  0 0.13682433E+03</rscale>
<asrwt>0</asrwt>
<pdfrwt beam="2">  1        5 0.21292655E-01 0.13682661E+03</pdfrwt>
<pdfrwt beam="1">  1       -5 0.22070785E-01 0.13682661E+03</pdfrwt>
<totfact> 0.28797401E+02</totfact>
</mgrwt>
</event>
<event>
 8    1  0.3754098E-007  0.1518750E+03  0.7546771E-02  0.1198195E+00
          5   -1    0    0  501    0  0.00000000000E+00  0.00000000000E+00  0.35037463013E+03  0.35040615211E+03  0.47000000000E+01 0.  1.
         -5   -1    0    0    0  501 -0.00000000000E+00 -0.00000000000E+00 -0.67696251976E+02  0.67859211104E+02  0.47000000000E+01 0.  1.
         25    2    1    2    0    0  0.59721736966E+02 -0.62241121304E+02  0.10549654537E+03  0.18489994723E+03  0.12497130211E+03 0.  0.
         25    2    1    2    0    0 -0.59721736966E+02  0.62241121304E+02  0.17718183278E+03  0.23336541599E+03  0.12500148985E+03 0.  0.
          5    1    4    4  502    0 -0.88303172153E+02  0.77733410804E+01  0.11987652933E+03  0.14916550314E+03  0.47000000000E+01 0.  1.
         -5    1    4    4    0  502  0.28581435187E+02  0.54467780224E+02  0.57305303453E+02  0.84199912848E+02  0.47000000000E+01 0.  1.
          5    1    3    3  503    0 -0.14228953170E+02 -0.38258492254E+02  0.98470815960E+02  0.10669942331E+03  0.47000000000E+01 0.  1.
         -5    1    3    3    0  503  0.73950690136E+02 -0.23982629051E+02  0.70257294119E+01  0.78200523921E+02  0.47000000000E+01 0.  1.
<mgrwt>
<rscale>  0 0.15186879E+03</rscale>
<asrwt>0</asrwt>
<pdfrwt beam="1">  1        5 0.53918749E-01 0.15187500E+03</pdfrwt>
<pdfrwt beam="2">  1       -5 0.10429768E-01 0.15187500E+03</pdfrwt>
<totfact> 0.18089101E+02</totfact>
</mgrwt>
</event>
<event>
 8    1  0.3754098E-007  0.1258056E+03  0.7546771E-02  0.1233817E+00
          5   -1    0    0  501    0  0.00000000000E+00  0.00000000000E+00  0.22030977085E+03  0.22035989910E+03  0.47000000000E+01 0.  1.
         -5   -1    0    0    0  501 -0.00000000000E+00 -0.00000000000E+00 -0.71967484027E+02  0.72120792822E+02  0.47000000000E+01 0.  1.
         25    2    1    2    0    0 -0.14173837181E+02 -0.68374459474E+00  0.65304306578E+02  0.14174135949E+03  0.12499838145E+03 0.  0.
         25    2    1    2    0    0  0.14173837181E+02  0.68374459474E+00  0.83037980245E+02  0.15073933244E+03  0.12500270003E+03 0.  0.
          5    1    4    4  502    0  0.78070318967E+01 -0.60782976808E+02  0.55911484685E+02  0.83088531919E+02  0.47000000000E+01 0. -1.
         -5    1    4    4    0  502  0.63668052846E+01  0.61466721403E+02  0.27126495560E+02  0.67650800520E+02  0.47000000000E+01 0. -1.
          5    1    3    3  503    0 -0.50883569956E+02  0.20738743733E+00  0.85473064058E+02  0.99583710417E+02  0.47000000000E+01 0. -1.
         -5    1    3    3    0  503  0.36709732774E+02 -0.89113203206E+00 -0.20168757480E+02  0.42157649068E+02  0.47000000000E+01 0. -1.
<mgrwt>
<rscale>  0 0.12580449E+03</rscale>
<asrwt>0</asrwt>
<pdfrwt beam="1">  1        5 0.33909459E-01 0.12580556E+03</pdfrwt>
<pdfrwt beam="2">  1       -5 0.11087570E-01 0.12580556E+03</pdfrwt>
<totfact> 0.39733947E+02</totfact>
</mgrwt>
</event>
<event>
 8    1  0.3754098E-007  0.1472001E+03  0.7546771E-02  0.1203961E+00
         -5   -1    0    0    0  501 -0.00000000000E+00  0.00000000000E+00  0.46623423240E+02  0.46859722519E+02  0.47000000000E+01 0.  1.
          5   -1    0    0  501    0  0.00000000000E+00 -0.00000000000E+00 -0.47327152777E+03  0.47329486475E+03  0.47000000000E+01 0.  1.
         25    2    1    2    0    0 -0.75234002027E+02  0.19532132828E+02 -0.17554703671E+03  0.22909521542E+03  0.12500478535E+03 0.  0.
         25    2    1    2    0    0  0.75234002027E+02 -0.19532132828E+02 -0.25110106782E+03  0.29105937184E+03  0.12498860909E+03 0.  0.
          5    1    3    3  502    0 -0.10069857264E+03 -0.19628719870E+01 -0.16581296363E+03  0.19406206303E+03  0.47000000000E+01 0.  1.
         -5    1    3    3    0  502  0.25464570608E+02  0.21495004815E+02 -0.97340730713E+01  0.35033152396E+02  0.47000000000E+01 0.  1.
          5    1    4    4  503    0  0.58018700731E+02 -0.70374203043E+02 -0.13408129113E+03  0.16223002410E+03  0.47000000000E+01 0. -1.
         -5    1    4    4    0  503  0.17215301296E+02  0.50842070215E+02 -0.11701977669E+03  0.12882934774E+03  0.47000000000E+01 0. -1.
<mgrwt>
<rscale>  0 0.14719662E+03</rscale>
<asrwt>0</asrwt>
<pdfrwt beam="2">  1        5 0.72830973E-01 0.14720005E+03</pdfrwt>
<pdfrwt beam="1">  1       -5 0.71928067E-02 0.14720005E+03</pdfrwt>
<totfact> 0.17507590E+02</totfact>
</mgrwt>
</event>
<event>
 8    1  0.3754098E-007  0.1290903E+03  0.7546771E-02  0.1228815E+00
          5   -1    0    0  501    0  0.00000000000E+00  0.00000000000E+00  0.27125461091E+03  0.27129532605E+03  0.47000000000E+01 0. -1.
         -5   -1    0    0    0  501 -0.00000000000E+00 -0.00000000000E+00 -0.72550722642E+02  0.72702801568E+02  0.47000000000E+01 0. -1.
         25    2    1    2    0    0  0.30047537370E+02 -0.11583926848E+02  0.31698021162E+02  0.13291695243E+03  0.12500043933E+03 0.  0.
         25    2    1    2    0    0 -0.30047537370E+02  0.11583926848E+02  0.16700586710E+03  0.21108117519E+03  0.12500904372E+03 0.  0.
          5    1    3    3  502    0  0.69328105642E+02 -0.39497627015E+02  0.26570215776E+02  0.84228944777E+02  0.47000000000E+01 0. -1.
         -5    1    3    3    0  502 -0.39280568273E+02  0.27913700167E+02  0.51278053864E+01  0.48688007650E+02  0.47000000000E+01 0. -1.
          5    1    4    4  503    0 -0.53317670271E+02  0.98430634074E+01  0.17706461933E+03  0.18523938371E+03  0.47000000000E+01 0. -1.
         -5    1    4    4    0  503  0.23270132901E+02  0.17408634410E+01 -0.10058752224E+02  0.25841791483E+02  0.47000000000E+01 0. -1.
<mgrwt>
<rscale>  0 0.12908821E+03</rscale>
<asrwt>0</asrwt>
<pdfrwt beam="1">  1        5 0.41746308E-01 0.12909029E+03</pdfrwt>
<pdfrwt beam="2">  1       -5 0.11176480E-01 0.12909029E+03</pdfrwt>
<totfact> 0.25968773E+02</totfact>
</mgrwt>
</event>
<event>
 8    1  0.3754098E-007  0.1293849E+03  0.7546771E-02  0.1228377E+00
         -5   -1    0    0    0  501 -0.00000000000E+00  0.00000000000E+00  0.21010162709E+03  0.21015419031E+03  0.47000000000E+01 0.  1.
          5   -1    0    0  501    0  0.00000000000E+00 -0.00000000000E+00 -0.10343141958E+03  0.10353815025E+03  0.47000000000E+01 0.  1.
         25    2    1    2    0    0 -0.14753233983E+02 -0.29889103496E+02  0.12865642280E+03  0.18245269391E+03  0.12500197584E+03 0.  0.
         25    2    1    2    0    0  0.14753233983E+02  0.29889103496E+02 -0.21986215298E+02  0.13123964665E+03  0.12501773782E+03 0.  0.
          5    1    3    3  502    0  0.36295324538E+02 -0.56319213752E+01  0.11937277552E+03  0.12498407361E+03  0.47000000000E+01 0. -1.
         -5    1    3    3    0  502 -0.51048558520E+02 -0.24257182120E+02  0.92836472821E+01  0.57468620292E+02  0.47000000000E+01 0. -1.
          5    1    4    4  503    0 -0.22214454188E+02  0.65655086467E+02  0.10443505648E+02  0.70251186211E+02  0.47000000000E+01 0.  1.
         -5    1    4    4    0  503  0.36967688171E+02 -0.35765982971E+02 -0.32429720946E+02  0.60988460443E+02  0.47000000000E+01 0.  1.
<mgrwt>
<rscale>  0 0.12938109E+03</rscale>
<asrwt>0</asrwt>
<pdfrwt beam="2">  1        5 0.15924780E-01 0.12938490E+03</pdfrwt>
<pdfrwt beam="1">  1       -5 0.32335580E-01 0.12938490E+03</pdfrwt>
<totfact> 0.23099054E+02</totfact>
</mgrwt>
</event>
<event>
 8    1  0.3754098E-007  0.1483005E+03  0.7546771E-02  0.1202577E+00
          5   -1    0    0  501    0  0.00000000000E+00  0.00000000000E+00  0.12021510216E+04  0.12021602093E+04  0.47000000000E+01 0.  1.
         -5   -1    0    0    0  501 -0.00000000000E+00 -0.00000000000E+00 -0.18079247227E+02  0.18680181485E+02  0.47000000000E+01 0.  1.
         25    2    1    2    0    0 -0.75511657555E+02  0.25804235337E+02  0.63574153057E+03  0.65280957380E+03  0.12500070781E+03 0.  0.
         25    2    1    2    0    0  0.75511657555E+02 -0.25804235337E+02  0.54833024384E+03  0.56803081700E+03  0.12500033503E+03 0.  0.
          5    1    3    3  502    0 -0.55438268520E+02  0.70279489363E+02  0.28791464943E+03  0.30154525962E+03  0.47000000000E+01 0. -1.
         -5    1    3    3    0  502 -0.20073389035E+02 -0.44475254025E+02  0.34782688114E+03  0.35126431417E+03  0.47000000000E+01 0. -1.
          5    1    4    4  503    0 -0.24943862691E+02 -0.27151382244E+02  0.70150842510E+02  0.79389070712E+02  0.47000000000E+01 0. -1.
         -5    1    4    4    0  503  0.10045552025E+03  0.13471469064E+01  0.47817940133E+03  0.48864174628E+03  0.47000000000E+01 0. -1.
<mgrwt>
<rscale>  0 0.14830045E+03</rscale>
<asrwt>0</asrwt>
<pdfrwt beam="1">  1        5 0.18499330E+00 0.14830053E+03</pdfrwt>
<pdfrwt beam="2">  1       -5 0.28283543E-02 0.14830053E+03</pdfrwt>
<totfact> 0.75578677E+01</totfact>
</mgrwt>
</event>
<event>
 8    1  0.3754098E-007  0.1408297E+03  0.7546771E-02  0.1212218E+00
          5   -1    0    0  501    0  0.00000000000E+00  0.00000000000E+00  0.14829710988E+03  0.14837157005E+03  0.47000000000E+01 0. -1.
         -5   -1    0    0    0  501 -0.00000000000E+00 -0.00000000000E+00 -0.13386798430E+03  0.13395046555E+03  0.47000000000E+01 0. -1.
         25    2    1    2    0    0  0.57869078027E+02 -0.29297459148E+02  0.74714331080E+00  0.14082926427E+03  0.12500060859E+03 0.  0.
         25    2    1    2    0    0 -0.57869078027E+02  0.29297459148E+02  0.13681982276E+02  0.14149277133E+03  0.12500334553E+03 0.  0.
          5    1    3    3  502    0  0.83793886522E+02 -0.55091247766E+02 -0.13510842092E+02  0.10129705747E+03  0.47000000000E+01 0.  1.
         -5    1    3    3    0  502 -0.25924808494E+02  0.25793788619E+02  0.14257985403E+02  0.39532206801E+02  0.47000000000E+01 0.  1.
          5    1    4    4  503    0 -0.18757636466E+02  0.26418827692E+02  0.67332926269E+02  0.74870664097E+02  0.47000000000E+01 0.  1.
         -5    1    4    4    0  503 -0.39111441562E+02  0.28786314562E+01 -0.53650943994E+02  0.66622107228E+02  0.47000000000E+01 0.  1.
<mgrwt>
<rscale>  0 0.14082910E+03</rscale>
<asrwt>0</asrwt>
<pdfrwt beam="1">  1        5 0.22827012E-01 0.14082971E+03</pdfrwt>
<pdfrwt beam="2">  1       -5 0.20607147E-01 0.14082971E+03</pdfrwt>
<totfact> 0.29014861E+02</totfact>
</mgrwt>
</event>
<event>
 8    1  0.3754098E-007  0.1448198E+03  0.7546771E-02  0.1206988E+00
         -5   -1    0    0    0  501 -0.00000000000E+00  0.00000000000E+00  0.21760123211E+03  0.21765198417E+03  0.47000000000E+01 0.  1.
          5   -1    0    0  501    0  0.00000000000E+00 -0.00000000000E+00 -0.12639038051E+03  0.12647773830E+03  0.47000000000E+01 0.  1.
         25    2    1    2    0    0 -0.30018306275E+02  0.66681952254E+02  0.12956489721E+03  0.19431710894E+03  0.12499797906E+03 0.  0.
         25    2    1    2    0    0  0.30018306275E+02 -0.66681952254E+02 -0.38354045616E+02  0.14981261354E+03  0.12500081956E+03 0.  0.
          5    1    3    3  502    0  0.24126384488E+02 -0.13473761851E+02  0.81532329770E+02  0.86216213583E+02  0.47000000000E+01 0.  1.
         -5    1    3    3    0  502 -0.54144690764E+02  0.80155714105E+02  0.48032567443E+02  0.10810089536E+03  0.47000000000E+01 0.  1.
          5    1    4    4  503    0  0.29664452211E+02 -0.89595593434E+02 -0.64743124183E+02  0.11454742344E+03  0.47000000000E+01 0. -1.
         -5    1    4    4    0  503  0.35385406418E+00  0.22913641180E+02  0.26389078568E+02  0.35265190096E+02  0.47000000000E+01 0. -1.
<mgrwt>
<rscale>  0 0.14481923E+03</rscale>
<asrwt>0</asrwt>
<pdfrwt beam="2">  1        5 0.19455298E-01 0.14481984E+03</pdfrwt>
<pdfrwt beam="1">  1       -5 0.33487736E-01 0.14481984E+03</pdfrwt>
<totfact> 0.15484988E+02</totfact>
</mgrwt>
</event>
<event>
 8    1  0.3754098E-007  0.1441481E+03  0.7546771E-02  0.1207856E+00
          5   -1    0    0  501    0  0.00000000000E+00  0.00000000000E+00  0.72820389955E+02  0.72971906877E+02  0.47000000000E+01 0.  1.
         -5   -1    0    0    0  501 -0.00000000000E+00 -0.00000000000E+00 -0.29911943560E+03  0.29915635837E+03  0.47000000000E+01 0.  1.
         25    2    1    2    0    0 -0.71784233842E+02  0.44212394357E+00 -0.15376230910E+03  0.21076411035E+03  0.12500196322E+03 0.  0.
         25    2    1    2    0    0  0.71784233842E+02 -0.44212394357E+00 -0.72536736542E+02  0.16136415490E+03  0.12499456243E+03 0.  0.
          5    1    4    4  502    0  0.28251715521E+02 -0.47124968934E+02 -0.79745985293E+02  0.96955836840E+02  0.47000000000E+01 0. -1.
         -5    1    4    4    0  502  0.43532518321E+02  0.46682844991E+02  0.72092487514E+01  0.64408318060E+02  0.47000000000E+01 0. -1.
          5    1    3    3  503    0 -0.10094055430E+03  0.26808764745E+02 -0.11029638815E+03  0.15197068339E+03  0.47000000000E+01 0.  1.
         -5    1    3    3    0  503  0.29156320458E+02 -0.26366640801E+02 -0.43465920954E+02  0.58793426964E+02  0.47000000000E+01 0.  1.
<mgrwt>
<rscale>  0 0.14414645E+03</rscale>
<asrwt>0</asrwt>
<pdfrwt beam="1">  1        5 0.11217632E-01 0.14414806E+03</pdfrwt>
<pdfrwt beam="2">  1       -5 0.46032869E-01 0.14414806E+03</pdfrwt>
<totfact> 0.21877578E+02</totfact>
</mgrwt>
</event>
<event>
 8    1  0.3754098E-007  0.1464076E+03  0.7546771E-02  0.1204979E+00
         -5   -1    0    0    0  501 -0.00000000000E+00  0.00000000000E+00  0.15689756610E+02  0.16378597695E+02  0.47000000000E+01 0.  1.
          5   -1    0    0  501    0  0.00000000000E+00 -0.00000000000E+00 -0.13520721844E+04  0.13520803533E+04  0.47000000000E+01 0.  1.
         25    2    1    2    0    0  0.16366360922E+02 -0.74304768812E+02 -0.59271325606E+03  0.61052779673E+03  0.12508449234E+03 0.  0.
         25    2    1    2    0    0 -0.16366360922E+02  0.74304768812E+02 -0.74366917172E+03  0.75793115428E+03  0.12500696469E+03 0.  0.
          5    1    4    4  502    0  0.34043757419E+02 -0.48744702930E+01 -0.74437588462E+02  0.82132712459E+02  0.47000000000E+01 0. -1.
         -5    1    4    4    0  502 -0.50410118341E+02  0.79179239106E+02 -0.66923158326E+03  0.67579844182E+03  0.47000000000E+01 0. -1.
          5    1    3    3  503    0 -0.71199700183E+01 -0.86688774653E+02 -0.21674592725E+03  0.23359478719E+03  0.47000000000E+01 0.  1.
         -5    1    3    3    0  503  0.23486330941E+02  0.12384005841E+02 -0.37596732882E+03  0.37693300954E+03  0.47000000000E+01 0.  1.
<mgrwt>
<rscale>  0 0.14639104E+03</rscale>
<asrwt>0</asrwt>
<pdfrwt beam="2">  1        5 0.20806463E+00 0.14640760E+03</pdfrwt>
<pdfrwt beam="1">  1       -5 0.24674259E-02 0.14640760E+03</pdfrwt>
<totfact> 0.65242807E+01</totfact>
</mgrwt>
</event>
<event>
 8    1  0.3754098E-007  0.1332838E+03  0.7546771E-02  0.1222665E+00
         -5   -1    0    0    0  501 -0.00000000000E+00  0.00000000000E+00  0.27623817364E+03  0.27627815435E+03  0.47000000000E+01 0.  1.
          5   -1    0    0  501    0  0.00000000000E+00 -0.00000000000E+00 -0.79128370412E+02  0.79267830827E+02  0.47000000000E+01 0.  1.
         25    2    1    2    0    0 -0.22784367359E+02 -0.40233030430E+02  0.17573697016E+03  0.22055942615E+03  0.12500061459E+03 0.  0.
         25    2    1    2    0    0  0.22784367359E+02  0.40233030430E+02  0.21372833059E+02  0.13498655903E+03  0.12500699577E+03 0.  0.
          5    1    4    4  502    0 -0.35644001660E+02  0.59884012695E+02  0.21771285159E+02  0.73161934694E+02  0.47000000000E+01 0. -1.
         -5    1    4    4    0  502  0.58428369019E+02 -0.19650982265E+02 -0.39845210029E+00  0.61824624336E+02  0.47000000000E+01 0. -1.
          5    1    3    3  503    0 -0.70355565946E+02 -0.46947439783E+02  0.10479595528E+03  0.13475255102E+03  0.47000000000E+01 0. -1.
         -5    1    3    3    0  503  0.47571198587E+02  0.67144093530E+01  0.70941014883E+02  0.85806875136E+02  0.47000000000E+01 0. -1.
<mgrwt>
<rscale>  0 0.13328231E+03</rscale>
<asrwt>0</asrwt>
<pdfrwt beam="2">  1        5 0.12187399E-01 0.13328381E+03</pdfrwt>
<pdfrwt beam="1">  1       -5 0.42511983E-01 0.13328381E+03</pdfrwt>
<totfact> 0.21712058E+02</totfact>
</mgrwt>
</event>
<event>
 8    1  0.3754098E-007  0.1273375E+03  0.7546771E-02  0.1231463E+00
          5   -1    0    0  501    0  0.00000000000E+00  0.00000000000E+00  0.10232707034E+03  0.10243495167E+03  0.47000000000E+01 0.  1.
         -5   -1    0    0    0  501 -0.00000000000E+00 -0.00000000000E+00 -0.16767007159E+03  0.16773593207E+03  0.47000000000E+01 0.  1.
         25    2    1    2    0    0 -0.23231742716E+02 -0.70040819192E+01 -0.64711648830E+02  0.14283707564E+03  0.12500424653E+03 0.  0.
         25    2    1    2    0    0  0.23231742716E+02  0.70040819192E+01 -0.63135241665E+00  0.12733380810E+03  0.12499891618E+03 0.  0.
          5    1    3    3  502    0  0.36267946793E+02  0.37861157026E+02 -0.28305135069E+02  0.59767063231E+02  0.47000000000E+01 0. -1.
         -5    1    3    3    0  502 -0.59499689509E+02 -0.44865238945E+02 -0.36406513761E+02  0.83070012408E+02  0.47000000000E+01 0. -1.
          5    1    4    4  503    0  0.55364179409E+02 -0.34686873380E+02  0.23030085525E+02  0.69432315141E+02  0.47000000000E+01 0.  1.
         -5    1    4    4    0  503 -0.32132436693E+02  0.41690955299E+02 -0.23661437942E+02  0.57901492961E+02  0.47000000000E+01 0.  1.
<mgrwt>
<rscale>  0 0.12733617E+03</rscale>
<asrwt>0</asrwt>
<pdfrwt beam="1">  1        5 0.15755991E-01 0.12733748E+03</pdfrwt>
<pdfrwt beam="2">  1       -5 0.25808760E-01 0.12733748E+03</pdfrwt>
<totfact> 0.36342888E+02</totfact>
</mgrwt>
</event>
<event>
 8    1  0.3754098E-007  0.1332683E+03  0.7546771E-02  0.1222690E+00
          5   -1    0    0  501    0  0.00000000000E+00  0.00000000000E+00  0.85398152639E+02  0.85527390199E+02  0.47000000000E+01 0.  1.
         -5   -1    0    0    0  501 -0.00000000000E+00 -0.00000000000E+00 -0.21043392968E+03  0.21048640992E+03  0.47000000000E+01 0.  1.
         25    2    1    2    0    0  0.34654810640E+02 -0.30582891557E+02 -0.45466306284E+02  0.14081061377E+03  0.12499669911E+03 0.  0.
         25    2    1    2    0    0 -0.34654810640E+02  0.30582891557E+02 -0.79569470760E+02  0.15520318635E+03  0.12498183556E+03 0.  0.
          5    1    4    4  502    0 -0.25262529672E+02  0.52305731170E+02 -0.10503708635E+03  0.12012062449E+03  0.47000000000E+01 0.  1.
         -5    1    4    4    0  502 -0.93922809679E+01 -0.21722839613E+02  0.25467615592E+02  0.35082561859E+02  0.47000000000E+01 0.  1.
          5    1    3    3  503    0  0.67768206543E+00  0.45139964231E+02 -0.34391469058E+02  0.56946806475E+02  0.47000000000E+01 0. -1.
         -5    1    3    3    0  503  0.33977128574E+02 -0.75722855787E+02 -0.11074837226E+02  0.83863807297E+02  0.47000000000E+01 0. -1.
<mgrwt>
<rscale>  0 0.13326483E+03</rscale>
<asrwt>0</asrwt>
<pdfrwt beam="1">  1        5 0.13152156E-01 0.13326832E+03</pdfrwt>
<pdfrwt beam="2">  1       -5 0.32388429E-01 0.13326832E+03</pdfrwt>
<totfact> 0.32850970E+02</totfact>
</mgrwt>
</event>
<event>
 8    1  0.3754098E-007  0.1501281E+03  0.7546771E-02  0.1200316E+00
          5   -1    0    0  501    0  0.00000000000E+00  0.00000000000E+00  0.49371067274E+02  0.49594276724E+02  0.47000000000E+01 0. -1.
         -5   -1    0    0    0  501 -0.00000000000E+00 -0.00000000000E+00 -0.54390301492E+03  0.54392332147E+03  0.47000000000E+01 0. -1.
         25    2    1    2    0    0  0.81771521883E+02 -0.15068786796E+02 -0.36705363146E+03  0.39656881936E+03  0.12499923998E+03 0.  0.
         25    2    1    2    0    0 -0.81771521883E+02  0.15068786796E+02 -0.12747831619E+03  0.19694877884E+03  0.12499780102E+03 0.  0.
          5    1    4    4  502    0  0.12811031948E+02 -0.26360396421E+02 -0.75759413693E+02  0.81366896230E+02  0.47000000000E+01 0. -1.
         -5    1    4    4    0  502 -0.94582553831E+02  0.41429183217E+02 -0.51718902498E+02  0.11558188261E+03  0.47000000000E+01 0. -1.
          5    1    3    3  503    0  0.41749691957E+02  0.21107516590E+02 -0.32398063496E+03  0.32737456509E+03  0.47000000000E+01 0. -1.
         -5    1    3    3    0  503  0.40021829925E+02 -0.36176303387E+02 -0.43072996495E+02  0.69194254272E+02  0.47000000000E+01 0. -1.
<mgrwt>
<rscale>  0 0.15012785E+03</rscale>
<asrwt>0</asrwt>
<pdfrwt beam="1">  1        5 0.76142812E-02 0.15012815E+03</pdfrwt>
<pdfrwt beam="2">  1       -5 0.83696115E-01 0.15012815E+03</pdfrwt>
<totfact> 0.11600931E+02</totfact>
</mgrwt>
</event>
<event>
 8    1  0.3754098E-007  0.1509578E+03  0.7546771E-02  0.1199308E+00
          5   -1    0    0  501    0  0.00000000000E+00  0.00000000000E+00  0.94826627041E+02  0.94943031319E+02  0.47000000000E+01 0.  1.
         -5   -1    0    0    0  501 -0.00000000000E+00 -0.00000000000E+00 -0.27217076364E+03  0.27221134175E+03  0.47000000000E+01 0.  1.
         25    2    1    2    0    0 -0.80328916259E+02 -0.26536113900E+02 -0.15178031909E+03  0.21406897348E+03  0.12502543747E+03 0.  0.
         25    2    1    2    0    0  0.80328916259E+02  0.26536113900E+02 -0.25563817501E+02  0.15308539959E+03  0.12499892269E+03 0.  0.
          5    1    3    3  502    0 -0.10264676891E+03 -0.48072055933E+02 -0.14084340641E+03  0.18084865733E+03  0.47000000000E+01 0.  1.
         -5    1    3    3    0  502  0.22317852649E+02  0.21535942033E+02 -0.10936912682E+02  0.33220316150E+02  0.47000000000E+01 0.  1.
          5    1    4    4  503    0  0.90839308325E+02  0.52262224179E+02 -0.49602561256E+02  0.11604147576E+03  0.47000000000E+01 0.  1.
         -5    1    4    4    0  503 -0.10510392066E+02 -0.25726110279E+02  0.24038743755E+02  0.37043923831E+02  0.47000000000E+01 0.  1.
<mgrwt>
<rscale>  0 0.15095232E+03</rscale>
<asrwt>0</asrwt>
<pdfrwt beam="1">  1        5 0.14600788E-01 0.15095781E+03</pdfrwt>
<pdfrwt beam="2">  1       -5 0.41884500E-01 0.15095781E+03</pdfrwt>
<totfact> 0.16882764E+02</totfact>
</mgrwt>
</event>
<event>
 8    1  0.3754098E-007  0.2056325E+03  0.7546771E-02  0.1145073E+00
         -5   -1    0    0    0  501 -0.00000000000E+00  0.00000000000E+00  0.20553278173E+03  0.20558651310E+03  0.47000000000E+01 0. -1.
          5   -1    0    0  501    0  0.00000000000E+00 -0.00000000000E+00 -0.20580607187E+03  0.20585973190E+03  0.47000000000E+01 0. -1.
         25    2    1    2    0    0 -0.13775195162E+02 -0.16269695712E+03  0.60125456959E+01  0.20572038204E+03  0.12499867609E+03 0.  0.
         25    2    1    2    0    0  0.13775195162E+02  0.16269695712E+03 -0.62858358328E+01  0.20572586295E+03  0.12499425225E+03 0.  0.
          5    1    3    3  502    0  0.55332939337E+02 -0.84526525424E+02  0.52646769521E+01  0.10127326646E+03  0.47000000000E+01 0. -1.
         -5    1    3    3    0  502 -0.69108134499E+02 -0.78170431701E+02  0.74786874374E+00  0.10444711558E+03  0.47000000000E+01 0. -1.
          5    1    4    4  503    0 -0.98922067053E+01  0.17194733836E+03 -0.24612824762E+02  0.17404489095E+03  0.47000000000E+01 0. -1.
         -5    1    4    4    0  503  0.23667401867E+02 -0.92503812334E+01  0.18326988929E+02  0.31680972007E+02  0.47000000000E+01 0. -1.
<mgrwt>
<rscale>  0 0.20563183E+03</rscale>
<asrwt>0</asrwt>
<pdfrwt beam="2">  1        5 0.31670733E-01 0.20563250E+03</pdfrwt>
<pdfrwt beam="1">  1       -5 0.31628689E-01 0.20563250E+03</pdfrwt>
<totfact> 0.75403636E+01</totfact>
</mgrwt>
</event>
<event>
 8    1  0.3754098E-007  0.1600066E+03  0.7546771E-02  0.1188699E+00
         -5   -1    0    0    0  501 -0.00000000000E+00  0.00000000000E+00  0.61847963030E+02  0.62026289031E+02  0.47000000000E+01 0. -1.
          5   -1    0    0  501    0  0.00000000000E+00 -0.00000000000E+00 -0.50528136336E+03  0.50530322200E+03  0.47000000000E+01 0. -1.
         25    2    1    2    0    0 -0.97372019852E+02 -0.22020555692E+02 -0.10058427499E+03  0.18899556087E+03  0.12504363451E+03 0.  0.
         25    2    1    2    0    0  0.97372019852E+02  0.22020555692E+02 -0.34284912534E+03  0.37833395015E+03  0.12499935987E+03 0.  0.
          5    1    3    3  502    0 -0.11236293856E+03 -0.79505577424E+01 -0.31931710611E+02  0.11717664218E+03  0.47000000000E+01 0.  1.
         -5    1    3    3    0  502  0.14990918712E+02 -0.14069997949E+02 -0.68652564378E+02  0.71818918690E+02  0.47000000000E+01 0.  1.
          5    1    4    4  503    0 -0.90415513693E+01 -0.21609154025E+02 -0.16342060069E+03  0.16515776676E+03  0.47000000000E+01 0.  1.
         -5    1    4    4    0  503  0.10641357122E+03  0.43629709717E+02 -0.17942852465E+03  0.21317618340E+03  0.47000000000E+01 0.  1.
<mgrwt>
<rscale>  0 0.15999799E+03</rscale>
<asrwt>0</asrwt>
<pdfrwt beam="2">  1        5 0.77750990E-01 0.16000664E+03</pdfrwt>
<pdfrwt beam="1">  1       -5 0.95304704E-02 0.16000664E+03</pdfrwt>
<totfact> 0.95320088E+01</totfact>
</mgrwt>
</event>
<event>
 8    1  0.3754098E-007  0.1268887E+03  0.7546771E-02  0.1232155E+00
          5   -1    0    0  501    0  0.00000000000E+00  0.00000000000E+00  0.83966094013E+02  0.84097532329E+02  0.47000000000E+01 0.  1.
         -5   -1    0    0    0  501 -0.00000000000E+00 -0.00000000000E+00 -0.20021459358E+03  0.20026975179E+03  0.47000000000E+01 0.  1.
         25    2    1    2    0    0  0.21291971223E+02 -0.38341802882E+01 -0.87930604455E+02  0.15437788602E+03  0.12503076228E+03 0.  0.
         25    2    1    2    0    0 -0.21291971223E+02  0.38341802882E+01 -0.28317895107E+02  0.12998939809E+03  0.12500916549E+03 0.  0.
          5    1    3    3  502    0  0.10470064620E+02 -0.12965915723E+02 -0.11881951398E+03  0.12007457735E+03  0.47000000000E+01 0.  1.
         -5    1    3    3    0  502  0.10821906603E+02  0.91317354348E+01  0.30888909521E+02  0.34303308674E+02  0.47000000000E+01 0.  1.
          5    1    4    4  503    0  0.41870151340E+01  0.61846985901E+02 -0.22796681735E+02  0.66214495836E+02  0.47000000000E+01 0. -1.
         -5    1    4    4    0  503 -0.25478986357E+02 -0.58012805612E+02 -0.55212133724E+01  0.63774902257E+02  0.47000000000E+01 0. -1.
<mgrwt>
<rscale>  0 0.12688337E+03</rscale>
<asrwt>0</asrwt>
<pdfrwt beam="1">  1        5 0.12932214E-01 0.12688869E+03</pdfrwt>
<pdfrwt beam="2">  1       -5 0.30816599E-01 0.12688869E+03</pdfrwt>
<totfact> 0.36685578E+02</totfact>
</mgrwt>
</event>
<event>
 8    1  0.3754098E-007  0.1467682E+03  0.7546771E-02  0.1204502E+00
         -5   -1    0    0    0  501 -0.00000000000E+00  0.00000000000E+00  0.29703770882E+03  0.29707489032E+03  0.47000000000E+01 0.  1.
          5   -1    0    0  501    0  0.00000000000E+00 -0.00000000000E+00 -0.74435124699E+02  0.74583361341E+02  0.47000000000E+01 0.  1.
         25    2    1    2    0    0 -0.76742192866E+02 -0.51806270602E+01  0.14198778923E+03  0.20420931078E+03  0.12499882903E+03 0.  0.
         25    2    1    2    0    0  0.76742192866E+02  0.51806270602E+01  0.80614794888E+02  0.16744894088E+03  0.12499679829E+03 0.  0.
          5    1    3    3  502    0  0.19157648726E+02 -0.35204156330E+02  0.68954239229E+02  0.79894463108E+02  0.47000000000E+01 0.  1.
         -5    1    3    3    0  502 -0.95899841592E+02  0.30023529270E+02  0.73033550000E+02  0.12431484768E+03  0.47000000000E+01 0.  1.
          5    1    4    4  503    0  0.25414953150E+01  0.43642679875E+02 -0.89347844530E+01  0.44867171499E+02  0.47000000000E+01 0. -1.
         -5    1    4    4    0  503  0.74200697551E+02 -0.38462052815E+02  0.89549579341E+02  0.12258176938E+03  0.47000000000E+01 0. -1.
<mgrwt>
<rscale>  0 0.14676779E+03</rscale>
<asrwt>0</asrwt>
<pdfrwt beam="2">  1        5 0.11465821E-01 0.14676822E+03</pdfrwt>
<pdfrwt beam="1">  1       -5 0.45712371E-01 0.14676822E+03</pdfrwt>
<totfact> 0.21486645E+02</totfact>
</mgrwt>
</event>
<event>
 8    1  0.3754098E-007  0.1253963E+03  0.7546771E-02  0.1234452E+00
         -5   -1    0    0    0  501 -0.00000000000E+00  0.00000000000E+00  0.11386025566E+03  0.11395721925E+03  0.47000000000E+01 0.  1.
          5   -1    0    0  501    0  0.00000000000E+00 -0.00000000000E+00 -0.14421716501E+03  0.14429373057E+03  0.47000000000E+01 0.  1.
         25    2    1    2    0    0  0.30488053339E+01 -0.94863417949E+01  0.11824927190E+02  0.12595001663E+03  0.12499716754E+03 0.  0.
         25    2    1    2    0    0 -0.30488053339E+01  0.94863417949E+01 -0.42181836538E+02  0.13230093319E+03  0.12499977478E+03 0.  0.
          5    1    4    4  502    0  0.40204177301E+01  0.34988555332E+02 -0.79054264462E+02  0.86671964859E+02  0.47000000000E+01 0.  1.
         -5    1    4    4    0  502 -0.70692230639E+01 -0.25502213537E+02  0.36872427923E+02  0.45628968331E+02  0.47000000000E+01 0.  1.
          5    1    3    3  503    0 -0.25979234698E+02 -0.56009875044E+02 -0.16458444032E+02  0.64070251427E+02  0.47000000000E+01 0.  1.
         -5    1    3    3    0  503  0.29028040032E+02  0.46523533250E+02  0.28283371222E+02  0.61879765205E+02  0.47000000000E+01 0.  1.
<mgrwt>
<rscale>  0 0.12539564E+03</rscale>
<asrwt>0</asrwt>
<pdfrwt beam="2">  1        5 0.22200605E-01 0.12539629E+03</pdfrwt>
<pdfrwt beam="1">  1       -5 0.17530311E-01 0.12539629E+03</pdfrwt>
<totfact> 0.39606944E+02</totfact>
</mgrwt>
</event>
<event>
 8    1  0.3754098E-007  0.1452285E+03  0.7546771E-02  0.1206463E+00
         -5   -1    0    0    0  501 -0.00000000000E+00  0.00000000000E+00  0.17740148786E+03  0.17746373685E+03  0.47000000000E+01 0.  1.
          5   -1    0    0  501    0  0.00000000000E+00 -0.00000000000E+00 -0.11876231926E+03  0.11885528375E+03  0.47000000000E+01 0.  1.
         25    2    1    2    0    0 -0.67675515367E+01  0.73618391514E+02  0.28468502752E+02  0.14798974095E+03  0.12500016182E+03 0.  0.
         25    2    1    2    0    0  0.67675515367E+01 -0.73618391514E+02  0.30170665853E+02  0.14832927965E+03  0.12500335515E+03 0.  0.
          5    1    3    3  502    0 -0.26043783941E+02  0.45474222406E+02 -0.43460603370E+02  0.68242930994E+02  0.47000000000E+01 0.  1.
         -5    1    3    3    0  502  0.19276232404E+02  0.28144169108E+02  0.71929106122E+02  0.79746809955E+02  0.47000000000E+01 0.  1.
          5    1    4    4  503    0  0.27081595765E+02 -0.10079732590E+03  0.28560391089E+01  0.10451679625E+03  0.47000000000E+01 0. -1.
         -5    1    4    4    0  503 -0.20314044228E+02  0.27178934389E+02  0.27314626744E+02  0.43812483399E+02  0.47000000000E+01 0. -1.
<mgrwt>
<rscale>  0 0.14522777E+03</rscale>
<asrwt>0</asrwt>
<pdfrwt beam="2">  1        5 0.18283066E-01 0.14522846E+03</pdfrwt>
<pdfrwt beam="1">  1       -5 0.27304476E-01 0.14522846E+03</pdfrwt>
<totfact> 0.25986448E+02</totfact>
</mgrwt>
</event>
<event>
 8    1  0.3754098E-007  0.1343951E+03  0.7546771E-02  0.1221080E+00
          5   -1    0    0  501    0  0.00000000000E+00  0.00000000000E+00  0.47853869069E+03  0.47856177081E+03  0.47000000000E+01 0. -1.
         -5   -1    0    0    0  501 -0.00000000000E+00 -0.00000000000E+00 -0.48564553944E+02  0.48791453143E+02  0.47000000000E+01 0. -1.
         25    2    1    2    0    0  0.40104876016E+02 -0.28725777249E+02  0.89892172431E+02  0.16167878923E+03  0.12500342741E+03 0.  0.
         25    2    1    2    0    0 -0.40104876016E+02  0.28725777249E+02  0.34008196431E+03  0.36567443473E+03  0.12501391284E+03 0.  0.
          5    1    3    3  502    0  0.47579191059E+02  0.17010267746E+02  0.10167118870E+03  0.11363207840E+03  0.47000000000E+01 0.  1.
         -5    1    3    3    0  502 -0.74743150426E+01 -0.45736044995E+02 -0.11779016268E+02  0.48046710827E+02  0.47000000000E+01 0.  1.
          5    1    4    4  503    0 -0.61555900500E+02  0.17743069095E+02  0.72072532944E+02  0.96542660996E+02  0.47000000000E+01 0. -1.
         -5    1    4    4    0  503  0.21451024484E+02  0.10982708153E+02  0.26800943137E+03  0.26913177373E+03  0.47000000000E+01 0. -1.
<mgrwt>
<rscale>  0 0.13439269E+03</rscale>
<asrwt>0</asrwt>
<pdfrwt beam="1">  1        5 0.73640567E-01 0.13439513E+03</pdfrwt>
<pdfrwt beam="2">  1       -5 0.74906989E-02 0.13439513E+03</pdfrwt>
<totfact> 0.15464136E+02</totfact>
</mgrwt>
</event>
<event>
 8    1  0.3754098E-007  0.2495216E+03  0.7546771E-02  0.1113609E+00
         -5   -1    0    0    0  501 -0.00000000000E+00  0.00000000000E+00  0.42724751068E+02  0.42982488921E+02  0.47000000000E+01 0.  1.
          5   -1    0    0  501    0  0.00000000000E+00 -0.00000000000E+00 -0.16349070409E+04  0.16349137966E+04  0.47000000000E+01 0.  1.
         25    2    1    2    0    0  0.20126041825E+03  0.78269836188E+02 -0.51594793323E+03  0.57311719180E+03  0.12501648899E+03 0.  0.
         25    2    1    2    0    0 -0.20126041825E+03 -0.78269836188E+02 -0.10762343566E+04  0.11047790937E+04  0.12499812971E+03 0.  0.
          5    1    4    4  502    0 -0.39560358685E+02 -0.26401708226E+02 -0.54389264726E+03  0.54598843754E+03  0.47000000000E+01 0.  1.
         -5    1    4    4    0  502 -0.16170005957E+03 -0.51868127962E+02 -0.53234170931E+03  0.55879065618E+03  0.47000000000E+01 0.  1.
          5    1    3    3  503    0  0.75346169900E+02  0.46040783081E+02 -0.83809809387E+02  0.12183174125E+03  0.47000000000E+01 0. -1.
         -5    1    3    3    0  503  0.12591424835E+03  0.32229053107E+02 -0.43213812384E+03  0.45128545055E+03  0.47000000000E+01 0. -1.
<mgrwt>
<rscale>  0 0.24951933E+03</rscale>
<asrwt>0</asrwt>
<pdfrwt beam="2">  1        5 0.25154446E+00 0.24952163E+03</pdfrwt>
<pdfrwt beam="1">  1       -5 0.65933856E-02 0.24952163E+03</pdfrwt>
<totfact> 0.75357239E+00</totfact>
</mgrwt>
</event>
<event>
 8    1  0.3754098E-007  0.1442193E+03  0.7546771E-02  0.1207769E+00
          5   -1    0    0  501    0  0.00000000000E+00  0.00000000000E+00  0.42505841265E+02  0.42764898476E+02  0.47000000000E+01 0. -1.
         -5   -1    0    0    0  501 -0.00000000000E+00 -0.00000000000E+00 -0.54768151293E+03  0.54770167939E+03  0.47000000000E+01 0. -1.
         25    2    1    2    0    0  0.55811910931E+02 -0.45314564333E+02 -0.35045568195E+03  0.37897016182E+03  0.12502327543E+03 0.  0.
         25    2    1    2    0    0 -0.55811910931E+02  0.45314564333E+02 -0.15471998972E+03  0.21149641604E+03  0.12499631850E+03 0.  0.
          5    1    4    4  502    0 -0.50790314343E+02  0.86478889056E+02 -0.12465450500E+03  0.16005964482E+03  0.47000000000E+01 0.  1.
         -5    1    4    4    0  502 -0.50215965881E+01 -0.41164324723E+02 -0.30065484712E+02  0.51436771216E+02  0.47000000000E+01 0.  1.
          5    1    3    3  503    0 -0.55618422362E+01 -0.72570662816E+02 -0.13776620243E+03  0.15588153105E+03  0.47000000000E+01 0. -1.
         -5    1    3    3    0  503  0.61373753167E+02  0.27256098484E+02 -0.21268947951E+03  0.22308863077E+03  0.47000000000E+01 0. -1.
<mgrwt>
<rscale>  0 0.14421343E+03</rscale>
<asrwt>0</asrwt>
<pdfrwt beam="1">  1        5 0.65608393E-02 0.14421927E+03</pdfrwt>
<pdfrwt beam="2">  1       -5 0.84280168E-01 0.14421927E+03</pdfrwt>
<totfact> 0.14517459E+02</totfact>
</mgrwt>
</event>
<event>
 8    1  0.3754098E-007  0.1476104E+03  0.7546771E-02  0.1203442E+00
         -5   -1    0    0    0  501 -0.00000000000E+00  0.00000000000E+00  0.87371666808E+03  0.87372930938E+03  0.47000000000E+01 0.  1.
          5   -1    0    0  501    0  0.00000000000E+00 -0.00000000000E+00 -0.57646808996E+02  0.57838089417E+02  0.47000000000E+01 0.  1.
         25    2    1    2    0    0  0.74121064235E+02  0.25862218881E+02  0.75914355443E+03  0.77336042568E+03  0.12499850103E+03 0.  0.
         25    2    1    2    0    0 -0.74121064235E+02 -0.25862218881E+02  0.56926304654E+02  0.15820697311E+03  0.12500422253E+03 0.  0.
          5    1    3    3  502    0  0.61395143263E+02 -0.21202751313E+01  0.72324925622E+03  0.72586874558E+03  0.47000000000E+01 0.  1.
         -5    1    3    3    0  502  0.12725920972E+02  0.27982494012E+02  0.35894298205E+02  0.47491680107E+02  0.47000000000E+01 0.  1.
          5    1    4    4  503    0 -0.42270679480E+02 -0.16970714007E+02  0.96265044812E+02  0.10660142743E+03  0.47000000000E+01 0.  1.
         -5    1    4    4    0  503 -0.31850384755E+02 -0.88915048733E+01 -0.39338740159E+02  0.51605545683E+02  0.47000000000E+01 0.  1.
<mgrwt>
<rscale>  0 0.14760923E+03</rscale>
<asrwt>0</asrwt>
<pdfrwt beam="2">  1        5 0.88844256E-02 0.14761044E+03</pdfrwt>
<pdfrwt beam="1">  1       -5 0.13443364E+00 0.14761044E+03</pdfrwt>
<totfact> 0.27377576E+01</totfact>
</mgrwt>
</event>
<event>
 8    1  0.3754098E-007  0.1299754E+03  0.7546771E-02  0.1227497E+00
          5   -1    0    0  501    0  0.00000000000E+00  0.00000000000E+00  0.36549982067E+02  0.36850931997E+02  0.47000000000E+01 0. -1.
         -5   -1    0    0    0  501 -0.00000000000E+00 -0.00000000000E+00 -0.46778281673E+03  0.46780642752E+03  0.47000000000E+01 0. -1.
         25    2    1    2    0    0 -0.34220990705E+02  0.98729534974E+01 -0.18298804946E+03  0.22445097357E+03  0.12500024750E+03 0.  0.
         25    2    1    2    0    0  0.34220990705E+02 -0.98729534974E+01 -0.24824478520E+03  0.28020638594E+03  0.12498637497E+03 0.  0.
          5    1    4    4  502    0 -0.13692004143E+02 -0.49903366624E+02 -0.18106599149E+03  0.18837409655E+03  0.47000000000E+01 0.  1.
         -5    1    4    4    0  502  0.47912994849E+02  0.40030413126E+02 -0.67178793713E+02  0.91832289393E+02  0.47000000000E+01 0.  1.
          5    1    3    3  503    0  0.43184542066E+02 -0.17652608758E+02 -0.54782465548E+02  0.72109138123E+02  0.47000000000E+01 0. -1.
         -5    1    3    3    0  503 -0.77405532771E+02  0.27525562255E+02 -0.12820558391E+03  0.15234183545E+03  0.47000000000E+01 0. -1.
<mgrwt>
<rscale>  0 0.12997210E+03</rscale>
<asrwt>0</asrwt>
<pdfrwt beam="1">  1        5 0.56480407E-02 0.12997543E+03</pdfrwt>
<pdfrwt beam="2">  1       -5 0.71991549E-01 0.12997543E+03</pdfrwt>
<totfact> 0.25922248E+02</totfact>
</mgrwt>
</event>
<event>
 8    1  0.3754098E-007  0.1266451E+03  0.7546771E-02  0.1232522E+00
         -5   -1    0    0    0  501 -0.00000000000E+00  0.00000000000E+00  0.40251303266E+03  0.40254047183E+03  0.47000000000E+01 0.  1.
          5   -1    0    0  501    0  0.00000000000E+00 -0.00000000000E+00 -0.47745158197E+02  0.47975932833E+02  0.47000000000E+01 0.  1.
         25    2    1    2    0    0 -0.17729299988E+02 -0.99329782669E+01  0.26970578191E+03  0.29796004076E+03  0.12500393977E+03 0.  0.
         25    2    1    2    0    0  0.17729299988E+02  0.99329782669E+01  0.85062092561E+02  0.15255636391E+03  0.12499956977E+03 0.  0.
          5    1    4    4  502    0  0.55917595744E+02  0.22968161838E+02  0.93139388813E+02  0.11113662637E+03  0.47000000000E+01 0.  1.
         -5    1    4    4    0  502 -0.38188295755E+02 -0.13035183571E+02 -0.80772962520E+01  0.41419737544E+02  0.47000000000E+01 0.  1.
          5    1    3    3  503    0  0.51085606071E+02 -0.22268466028E+02  0.10489480823E+03  0.11887234548E+03  0.47000000000E+01 0. -1.
         -5    1    3    3    0  503 -0.68814906060E+02  0.12335487761E+02  0.16481097367E+03  0.17908769527E+03  0.47000000000E+01 0. -1.
<mgrwt>
<rscale>  0 0.12664400E+03</rscale>
<asrwt>0</asrwt>
<pdfrwt beam="2">  1        5 0.73652718E-02 0.12664508E+03</pdfrwt>
<pdfrwt beam="1">  1       -5 0.61944943E-01 0.12664508E+03</pdfrwt>
<totfact> 0.22945384E+02</totfact>
</mgrwt>
</event>
<event>
 8    1  0.3754098E-007  0.1330234E+03  0.7546771E-02  0.1223039E+00
          5   -1    0    0  501    0  0.00000000000E+00  0.00000000000E+00  0.56944118454E+03  0.56946058042E+03  0.47000000000E+01 0.  1.
         -5   -1    0    0    0  501 -0.00000000000E+00 -0.00000000000E+00 -0.30879860747E+02  0.31235489427E+02  0.47000000000E+01 0.  1.
         25    2    1    2    0    0  0.18652509050E+02  0.41509776364E+02  0.26585154084E+03  0.29727472846E+03  0.12499697912E+03 0.  0.
         25    2    1    2    0    0 -0.18652509050E+02 -0.41509776364E+02  0.27270978296E+03  0.30342134138E+03  0.12499162796E+03 0.  0.
          5    1    3    3  502    0 -0.51159718602E+02  0.19091730425E+02  0.75995993397E+02  0.93697876125E+02  0.47000000000E+01 0. -1.
         -5    1    3    3    0  502  0.69812227652E+02  0.22418045939E+02  0.18985554744E+03  0.20357685234E+03  0.47000000000E+01 0. -1.
          5    1    4    4  503    0 -0.71870225525E+02 -0.22759916169E+02  0.17271100331E+03  0.18850603111E+03  0.47000000000E+01 0. -1.
         -5    1    4    4    0  503  0.53217716475E+02 -0.18749860195E+02  0.99998779650E+02  0.11491531027E+03  0.47000000000E+01 0. -1.
<mgrwt>
<rscale>  0 0.13302213E+03</rscale>
<asrwt>0</asrwt>
<pdfrwt beam="1">  1        5 0.87635184E-01 0.13302339E+03</pdfrwt>
<pdfrwt beam="2">  1       -5 0.47795958E-02 0.13302339E+03</pdfrwt>
<totfact> 0.21914738E+02</totfact>
</mgrwt>
</event>
<event>
 8    1  0.3754098E-007  0.1274558E+03  0.7546771E-02  0.1231282E+00
          5   -1    0    0  501    0  0.00000000000E+00  0.00000000000E+00  0.28430816378E+03  0.28434700981E+03  0.47000000000E+01 0.  1.
         -5   -1    0    0    0  501 -0.00000000000E+00 -0.00000000000E+00 -0.72093740955E+02  0.72246781831E+02  0.47000000000E+01 0.  1.
         25    2    1    2    0    0  0.14447104099E+02  0.20288023979E+02  0.24638951830E+02  0.12981546949E+03  0.12499862174E+03 0.  0.
         25    2    1    2    0    0 -0.14447104099E+02 -0.20288023979E+02  0.18757547099E+03  0.22677832216E+03  0.12499410926E+03 0.  0.
          5    1    4    4  502    0 -0.52965190159E+02 -0.48329051918E+02  0.72191277016E+02  0.10185616871E+03  0.47000000000E+01 0.  1.
         -5    1    4    4    0  502  0.38518086060E+02  0.28041027939E+02  0.11538419397E+03  0.12492215344E+03  0.47000000000E+01 0.  1.
          5    1    3    3  503    0  0.52670655657E+02 -0.30044025263E+02 -0.25080423747E+01  0.60870532263E+02  0.47000000000E+01 0.  1.
         -5    1    3    3    0  503 -0.38223551558E+02  0.50332049242E+02  0.27146994205E+02  0.68944937225E+02  0.47000000000E+01 0.  1.
<mgrwt>
<rscale>  0 0.12745468E+03</rscale>
<asrwt>0</asrwt>
<pdfrwt beam="1">  1        5 0.43754478E-01 0.12745579E+03</pdfrwt>
<pdfrwt beam="2">  1       -5 0.11106105E-01 0.12745579E+03</pdfrwt>
<totfact> 0.23723115E+02</totfact>
</mgrwt>
</event>
<event>
 8    1  0.3754098E-007  0.1266921E+03  0.7546771E-02  0.1232448E+00
          5   -1    0    0  501    0  0.00000000000E+00  0.00000000000E+00  0.38848936944E+03  0.38851779904E+03  0.47000000000E+01 0. -1.
         -5   -1    0    0    0  501 -0.00000000000E+00 -0.00000000000E+00 -0.45122294327E+02  0.45366413186E+02  0.47000000000E+01 0. -1.
         25    2    1    2    0    0 -0.32264419892E+01 -0.20363351044E+02  0.10753680850E+03  0.16617777813E+03  0.12500325103E+03 0.  0.
         25    2    1    2    0    0  0.32264419892E+01  0.20363351044E+02  0.23583026662E+03  0.26770643410E+03  0.12500297681E+03 0.  0.
          5    1    4    4  502    0 -0.35740828434E+02  0.56422158660E+02  0.88097975375E+02  0.11065355878E+03  0.47000000000E+01 0. -1.
         -5    1    4    4    0  502  0.38967270423E+02 -0.36058807616E+02  0.14773229124E+03  0.15705287532E+03  0.47000000000E+01 0. -1.
          5    1    3    3  503    0  0.51515840324E+02  0.11638973232E+02  0.82016106046E+02  0.97663090025E+02  0.47000000000E+01 0. -1.
         -5    1    3    3    0  503 -0.54742282313E+02 -0.32002324276E+02  0.25520702450E+02  0.68514688100E+02  0.47000000000E+01 0. -1.
<mgrwt>
<rscale>  0 0.12669203E+03</rscale>
<asrwt>0</asrwt>
<pdfrwt beam="1">  1        5 0.59788563E-01 0.12669210E+03</pdfrwt>
<pdfrwt beam="2">  1       -5 0.69628564E-02 0.12669210E+03</pdfrwt>
<totfact> 0.27283749E+02</totfact>
</mgrwt>
</event>
<event>
 8    1  0.3754098E-007  0.2106529E+03  0.7546771E-02  0.1141051E+00
          5   -1    0    0  501    0  0.00000000000E+00  0.00000000000E+00  0.91040305004E+02  0.91161544168E+02  0.47000000000E+01 0. -1.
         -5   -1    0    0    0  501 -0.00000000000E+00 -0.00000000000E+00 -0.53364310778E+03  0.53366380473E+03  0.47000000000E+01 0. -1.
         25    2    1    2    0    0  0.14854864709E+03  0.81746047248E+02 -0.31369694855E+03  0.37786109104E+03  0.12499644716E+03 0.  0.
         25    2    1    2    0    0 -0.14854864709E+03 -0.81746047248E+02 -0.12890585422E+03  0.24696425785E+03  0.12500203442E+03 0.  0.
          5    1    4    4  502    0 -0.21701879378E+02 -0.67880964891E+02 -0.93294231845E+01  0.72027252482E+02  0.47000000000E+01 0. -1.
         -5    1    4    4    0  502 -0.12684676771E+03 -0.13865082357E+02 -0.11957643104E+03  0.17493700537E+03  0.47000000000E+01 0. -1.
          5    1    3    3  503    0  0.71031055839E+02  0.55348864970E+02 -0.27055033766E+03  0.28518149125E+03  0.47000000000E+01 0.  1.
         -5    1    3    3    0  503  0.77517591252E+02  0.26397182278E+02 -0.43146610892E+02  0.92679599790E+02  0.47000000000E+01 0.  1.
<mgrwt>
<rscale>  0 0.21065203E+03</rscale>
<asrwt>0</asrwt>
<pdfrwt beam="1">  1        5 0.14017119E-01 0.21065286E+03</pdfrwt>
<pdfrwt beam="2">  1       -5 0.82109856E-01 0.21065286E+03</pdfrwt>
<totfact> 0.45641391E+01</totfact>
</mgrwt>
</event>
<event>
 8    1  0.3754098E-007  0.1471835E+03  0.7546771E-02  0.1203988E+00
         -5   -1    0    0    0  501 -0.00000000000E+00  0.00000000000E+00  0.44869408876E+02  0.45114896131E+02  0.47000000000E+01 0. -1.
          5   -1    0    0  501    0  0.00000000000E+00 -0.00000000000E+00 -0.58343238694E+03  0.58345131771E+03  0.47000000000E+01 0. -1.
         25    2    1    2    0    0 -0.77636576992E+02  0.11681106166E+01 -0.13772323593E+03  0.20157054860E+03  0.12503676970E+03 0.  0.
         25    2    1    2    0    0  0.77636576992E+02 -0.11681106166E+01 -0.40083974214E+03  0.42699566524E+03  0.12499598668E+03 0.  0.
          5    1    3    3  502    0 -0.81112348430E+02  0.37779422033E+02 -0.13794910617E+03  0.16449481357E+03  0.47000000000E+01 0.  1.
         -5    1    3    3    0  502  0.34757714378E+01 -0.36611311417E+02  0.22587024261E+00  0.37075735031E+02  0.47000000000E+01 0.  1.
          5    1    4    4  503    0  0.26807470747E+02  0.33494031797E+02 -0.33833317840E+02  0.54838618235E+02  0.47000000000E+01 0. -1.
         -5    1    4    4    0  503  0.50829106245E+02 -0.34662142414E+02 -0.36700642430E+03  0.37215704700E+03  0.47000000000E+01 0. -1.
<mgrwt>
<rscale>  0 0.14717488E+03</rscale>
<asrwt>0</asrwt>
<pdfrwt beam="2">  1        5 0.89779163E-01 0.14718355E+03</pdfrwt>
<pdfrwt beam="1">  1       -5 0.69233263E-02 0.14718355E+03</pdfrwt>
<totfact> 0.11492280E+02</totfact>
</mgrwt>
</event>
<event>
 8    1  0.3754098E-007  0.1284150E+03  0.7546771E-02  0.1229827E+00
          5   -1    0    0  501    0  0.00000000000E+00  0.00000000000E+00  0.82264783080E+03  0.82266125684E+03  0.47000000000E+01 0. -1.
         -5   -1    0    0    0  501 -0.00000000000E+00 -0.00000000000E+00 -0.19934240689E+02  0.20480819120E+02  0.47000000000E+01 0. -1.
         25    2    1    2    0    0  0.20562873874E+02 -0.21053984010E+02  0.36206941311E+03  0.38416744867E+03  0.12499706668E+03 0.  0.
         25    2    1    2    0    0 -0.20562873874E+02  0.21053984010E+02  0.44064417699E+03  0.45897462730E+03  0.12499726301E+03 0.  0.
          5    1    4    4  502    0 -0.27190998748E+02  0.31777062486E+02  0.44327294156E+03  0.44526635044E+03  0.47000000000E+01 0.  1.
         -5    1    4    4    0  502  0.66281248738E+01 -0.10723078476E+02 -0.26287645643E+01  0.13708276861E+02  0.47000000000E+01 0.  1.
          5    1    3    3  503    0  0.21137385994E+02 -0.50687761142E+02  0.34553616334E+03  0.34990479904E+03  0.47000000000E+01 0.  1.
         -5    1    3    3    0  503 -0.57451211964E+00  0.29633777132E+02  0.16533249771E+02  0.34262649624E+02  0.47000000000E+01 0.  1.
<mgrwt>
<rscale>  0 0.12841497E+03</rscale>
<asrwt>0</asrwt>
<pdfrwt beam="1">  1        5 0.12660428E+00 0.12841502E+03</pdfrwt>
<pdfrwt beam="2">  1       -5 0.31098835E-02 0.12841502E+03</pdfrwt>
<totfact> 0.17668601E+02</totfact>
</mgrwt>
</event>
<event>
 8    1  0.3754098E-007  0.1544033E+03  0.7546771E-02  0.1195165E+00
          5   -1    0    0  501    0  0.00000000000E+00  0.00000000000E+00  0.22445620614E+03  0.22450540857E+03  0.47000000000E+01 0.  1.
         -5   -1    0    0    0  501 -0.00000000000E+00 -0.00000000000E+00 -0.10677149071E+03  0.10687488587E+03  0.47000000000E+01 0.  1.
         25    2    1    2    0    0  0.63219773346E+02  0.64956399122E+02  0.45694470152E+02  0.16101897258E+03  0.12499220535E+03 0.  0.
         25    2    1    2    0    0 -0.63219773346E+02 -0.64956399122E+02  0.71990245276E+02  0.17036132186E+03  0.12499724414E+03 0.  0.
          5    1    4    4  502    0 -0.36325366950E+02 -0.99985273258E+02  0.33605295058E+02  0.11166016751E+03  0.47000000000E+01 0. -1.
         -5    1    4    4    0  502 -0.26894406396E+02  0.35028874137E+02  0.38384950218E+02  0.58701154349E+02  0.47000000000E+01 0. -1.
          5    1    3    3  503    0 -0.32519531006E+02  0.44772388363E+02  0.24986416173E+02  0.60897435494E+02  0.47000000000E+01 0. -1.
         -5    1    3    3    0  503  0.95739304352E+02  0.20184010759E+02  0.20708053979E+02  0.10012153708E+03  0.47000000000E+01 0. -1.
<mgrwt>
<rscale>  0 0.15440230E+03</rscale>
<asrwt>0</asrwt>
<pdfrwt beam="1">  1        5 0.34543462E-01 0.15440332E+03</pdfrwt>
<pdfrwt beam="2">  1       -5 0.16438122E-01 0.15440332E+03</pdfrwt>
<totfact> 0.20285145E+02</totfact>
</mgrwt>
</event>
<event>
 8    1  0.3754098E-007  0.1367357E+03  0.7546771E-02  0.1217791E+00
         -5   -1    0    0    0  501 -0.00000000000E+00  0.00000000000E+00  0.13999457349E+03  0.14007344719E+03  0.47000000000E+01 0. -1.
          5   -1    0    0  501    0  0.00000000000E+00 -0.00000000000E+00 -0.15577199922E+03  0.15584288801E+03  0.47000000000E+01 0. -1.
         25    2    1    2    0    0 -0.22305631311E+02  0.50740170938E+02  0.48164524764E+02  0.14496859654E+03  0.12499586555E+03 0.  0.
         25    2    1    2    0    0  0.22305631311E+02 -0.50740170938E+02 -0.63941950494E+02  0.15094773865E+03  0.12499816253E+03 0.  0.
          5    1    3    3  502    0 -0.19384563563E+02  0.62737593540E+02 -0.25150408046E+02  0.70472689551E+02  0.47000000000E+01 0. -1.
         -5    1    3    3    0  502 -0.29210677474E+01 -0.11997422602E+02  0.73314932810E+02  0.74495906994E+02  0.47000000000E+01 0. -1.
          5    1    4    4  503    0  0.12881938347E+02 -0.89417443107E+01  0.37396630942E+02  0.40822752635E+02  0.47000000000E+01 0.  1.
         -5    1    4    4    0  503  0.94236929638E+01 -0.41798426627E+02 -0.10133858144E+03  0.11012498602E+03  0.47000000000E+01 0.  1.
<mgrwt>
<rscale>  0 0.13673516E+03</rscale>
<asrwt>0</asrwt>
<pdfrwt beam="2">  1        5 0.23976443E-01 0.13673568E+03</pdfrwt>
<pdfrwt beam="1">  1       -5 0.21549147E-01 0.13673568E+03</pdfrwt>
<totfact> 0.24058000E+02</totfact>
</mgrwt>
</event>
<event>
 8    1  0.3754098E-007  0.1383041E+03  0.7546771E-02  0.1215629E+00
         -5   -1    0    0    0  501 -0.00000000000E+00  0.00000000000E+00  0.37769027870E+03  0.37771952110E+03  0.47000000000E+01 0.  1.
          5   -1    0    0  501    0  0.00000000000E+00 -0.00000000000E+00 -0.56241805678E+02  0.56437848169E+02  0.47000000000E+01 0.  1.
         25    2    1    2    0    0  0.22681838224E+02  0.54665497239E+02  0.22991442988E+03  0.26830705804E+03  0.12500099980E+03 0.  0.
         25    2    1    2    0    0 -0.22681838224E+02 -0.54665497239E+02  0.91534043138E+02  0.16585031123E+03  0.12500024924E+03 0.  0.
          5    1    3    3  502    0  0.34841063634E+02 -0.32327301929E+02  0.57487036147E+02  0.74738233121E+02  0.47000000000E+01 0.  1.
         -5    1    3    3    0  502 -0.12159225410E+02  0.86992799168E+02  0.17242739373E+03  0.19356882492E+03  0.47000000000E+01 0.  1.
          5    1    4    4  503    0  0.51387614833E+02 -0.23958999573E+02  0.27831998567E+02  0.63335856850E+02  0.47000000000E+01 0.  1.
         -5    1    4    4    0  503 -0.74069453057E+02 -0.30706497666E+02  0.63702044571E+02  0.10251445438E+03  0.47000000000E+01 0.  1.
<mgrwt>
<rscale>  0 0.13830396E+03</rscale>
<asrwt>0</asrwt>
<pdfrwt beam="2">  1        5 0.86699150E-02 0.13830413E+03</pdfrwt>
<pdfrwt beam="1">  1       -5 0.58123527E-01 0.13830413E+03</pdfrwt>
<totfact> 0.20562953E+02</totfact>
</mgrwt>
</event>
<event>
 8    1  0.3754098E-007  0.1367436E+03  0.7546771E-02  0.1217780E+00
          5   -1    0    0  501    0  0.00000000000E+00  0.00000000000E+00  0.73634803267E+02  0.73784647808E+02  0.47000000000E+01 0.  1.
         -5   -1    0    0    0  501 -0.00000000000E+00 -0.00000000000E+00 -0.25841720423E+03  0.25845994166E+03  0.47000000000E+01 0.  1.
         25    2    1    2    0    0 -0.35558246146E+02  0.42532760158E+02 -0.11528406509E+03  0.17885530351E+03  0.12500151750E+03 0.  0.
         25    2    1    2    0    0  0.35558246146E+02 -0.42532760158E+02 -0.69498335875E+02  0.15338928595E+03  0.12499931920E+03 0.  0.
          5    1    4    4  502    0  0.63922516396E+02 -0.69679048480E+02 -0.61926178393E+02  0.11312912742E+03  0.47000000000E+01 0.  1.
         -5    1    4    4    0  502 -0.28364270250E+02  0.27146288322E+02 -0.75721574822E+01  0.40260158537E+02  0.47000000000E+01 0.  1.
          5    1    3    3  503    0 -0.16570866490E+02  0.50669987067E+02 -0.13786737290E+03  0.14789030974E+03  0.47000000000E+01 0.  1.
         -5    1    3    3    0  503 -0.18987379656E+02 -0.81372269086E+01  0.22583307807E+02  0.30964993775E+02  0.47000000000E+01 0.  1.
<mgrwt>
<rscale>  0 0.13674307E+03</rscale>
<asrwt>0</asrwt>
<pdfrwt beam="1">  1        5 0.11343245E-01 0.13674357E+03</pdfrwt>
<pdfrwt beam="2">  1       -5 0.39771307E-01 0.13674357E+03</pdfrwt>
<totfact> 0.28512806E+02</totfact>
</mgrwt>
</event>
<event>
 8    1  0.3754098E-007  0.1388541E+03  0.7546771E-02  0.1214886E+00
         -5   -1    0    0    0  501 -0.00000000000E+00  0.00000000000E+00  0.37109751177E+03  0.37112727365E+03  0.47000000000E+01 0.  1.
          5   -1    0    0  501    0  0.00000000000E+00 -0.00000000000E+00 -0.52283809043E+02  0.52494634850E+02  0.47000000000E+01 0.  1.
         25    2    1    2    0    0  0.17934594130E+02  0.57700378833E+02  0.17951922128E+03  0.22694094880E+03  0.12499624014E+03 0.  0.
         25    2    1    2    0    0 -0.17934594130E+02 -0.57700378833E+02  0.13929448145E+03  0.19668095970E+03  0.12501785457E+03 0.  0.
          5    1    4    4  502    0 -0.18936465695E+02 -0.35053653852E+02 -0.13357751691E+02  0.42283187104E+02  0.47000000000E+01 0. -1.
         -5    1    4    4    0  502  0.10018715648E+01 -0.22646724981E+02  0.15265223314E+03  0.15439777259E+03  0.47000000000E+01 0. -1.
          5    1    3    3  503    0  0.10506049156E+02 -0.36688276147E+02  0.83918064984E+02  0.92307845312E+02  0.47000000000E+01 0. -1.
         -5    1    3    3    0  503  0.74285449746E+01  0.94388654980E+02  0.95601156297E+02  0.13463310349E+03  0.47000000000E+01 0. -1.
<mgrwt>
<rscale>  0 0.13884919E+03</rscale>
<asrwt>0</asrwt>
<pdfrwt beam="2">  1        5 0.80621700E-02 0.13885405E+03</pdfrwt>
<pdfrwt beam="1">  1       -5 0.57110430E-01 0.13885405E+03</pdfrwt>
<totfact> 0.24241391E+02</totfact>
</mgrwt>
</event>
<event>
 8    1  0.3754098E-007  0.1350285E+03  0.7546771E-02  0.1220187E+00
          5   -1    0    0  501    0  0.00000000000E+00  0.00000000000E+00  0.14492912454E+03  0.14500531418E+03  0.47000000000E+01 0. -1.
         -5   -1    0    0    0  501 -0.00000000000E+00 -0.00000000000E+00 -0.12690177306E+03  0.12698877906E+03  0.47000000000E+01 0. -1.
         25    2    1    2    0    0 -0.28912152608E+02  0.42029487830E+02  0.22618050049E+02  0.13688755650E+03  0.12499694605E+03 0.  0.
         25    2    1    2    0    0  0.28912152608E+02 -0.42029487830E+02 -0.45906985654E+01  0.13510653674E+03  0.12502124356E+03 0.  0.
          5    1    4    4  502    0  0.64439718698E+02 -0.48345122641E+02 -0.34734294000E+02  0.87853795642E+02  0.47000000000E+01 0. -1.
         -5    1    4    4    0  502 -0.35527566090E+02  0.63156348104E+01  0.30143595434E+02  0.47252741096E+02  0.47000000000E+01 0. -1.
          5    1    3    3  503    0 -0.19353084829E+02  0.86504638513E+02  0.20508872335E+02  0.91105972477E+02  0.47000000000E+01 0. -1.
         -5    1    3    3    0  503 -0.95590677791E+01 -0.44475150682E+02  0.21091777145E+01  0.45781584023E+02  0.47000000000E+01 0. -1.
<mgrwt>
<rscale>  0 0.13502290E+03</rscale>
<asrwt>0</asrwt>
<pdfrwt beam="1">  1        5 0.22309342E-01 0.13502852E+03</pdfrwt>
<pdfrwt beam="2">  1       -5 0.19535903E-01 0.13502852E+03</pdfrwt>
<totfact> 0.32998703E+02</totfact>
</mgrwt>
</event>
<event>
 8    1  0.3754098E-007  0.1350274E+03  0.7546771E-02  0.1220212E+00
          5   -1    0    0  501    0  0.00000000000E+00  0.00000000000E+00  0.22503335192E+03  0.22508242818E+03  0.47000000000E+01 0.  1.
         -5   -1    0    0    0  501 -0.00000000000E+00 -0.00000000000E+00 -0.81191629152E+02  0.81327551570E+02  0.47000000000E+01 0.  1.
         25    2    1    2    0    0  0.18564081733E+02  0.47572681809E+02  0.81980311638E+02  0.15796573052E+03  0.12499846133E+03 0.  0.
         25    2    1    2    0    0 -0.18564081733E+02 -0.47572681809E+02  0.61861411128E+02  0.14844424923E+03  0.12490426638E+03 0.  0.
          5    1    3    3  502    0 -0.25699010155E+02 -0.18555084157E+02  0.70486103254E+02  0.77428102282E+02  0.47000000000E+01 0.  1.
         -5    1    3    3    0  502  0.44263091889E+02  0.66127765965E+02  0.11494208384E+02  0.80537628233E+02  0.47000000000E+01 0.  1.
          5    1    4    4  503    0 -0.11344886716E+02 -0.75749655522E+02 -0.34271291355E+01  0.76815050482E+02  0.47000000000E+01 0. -1.
         -5    1    4    4    0  503 -0.72191950173E+01  0.28176973714E+02  0.65288540263E+02  0.71629198753E+02  0.47000000000E+01 0. -1.
<mgrwt>
<rscale>  0 0.13500560E+03</rscale>
<asrwt>0</asrwt>
<pdfrwt beam="1">  1        5 0.34634746E-01 0.13502741E+03</pdfrwt>
<pdfrwt beam="2">  1       -5 0.12505251E-01 0.13502741E+03</pdfrwt>
<totfact> 0.31591171E+02</totfact>
</mgrwt>
</event>
<event>
 8    1  0.3754098E-007  0.1388701E+03  0.7546771E-02  0.1214859E+00
          5   -1    0    0  501    0  0.00000000000E+00  0.00000000000E+00  0.37219320780E+02  0.37514901563E+02  0.47000000000E+01 0.  1.
         -5   -1    0    0    0  501 -0.00000000000E+00 -0.00000000000E+00 -0.58627438843E+03  0.58629322742E+03  0.47000000000E+01 0.  1.
         25    2    1    2    0    0 -0.13453089689E+02  0.58975061138E+02 -0.38266220282E+03  0.40708141006E+03  0.12500347791E+03 0.  0.
         25    2    1    2    0    0  0.13453089689E+02 -0.58975061138E+02 -0.16639286483E+03  0.21672671893E+03  0.12499936710E+03 0.  0.
          5    1    3    3  502    0  0.36326517663E+02  0.46821059916E+02 -0.77825774932E+02  0.97932470513E+02  0.47000000000E+01 0.  1.
         -5    1    3    3    0  502 -0.49779607352E+02  0.12154001222E+02 -0.30483642789E+03  0.30914893954E+03  0.47000000000E+01 0.  1.
          5    1    4    4  503    0 -0.37998267902E+02 -0.47868966190E+02 -0.14896109732E+03  0.16108011920E+03  0.47000000000E+01 0. -1.
         -5    1    4    4    0  503  0.51451357591E+02 -0.11106094948E+02 -0.17431767509E+02  0.55646599729E+02  0.47000000000E+01 0. -1.
<mgrwt>
<rscale>  0 0.13886920E+03</rscale>
<asrwt>0</asrwt>
<pdfrwt beam="1">  1        5 0.57502359E-02 0.13887013E+03</pdfrwt>
<pdfrwt beam="2">  1       -5 0.90220239E-01 0.13887013E+03</pdfrwt>
<totfact> 0.15251148E+02</totfact>
</mgrwt>
</event>
<event>
 8    1  0.3754098E-007  0.1267988E+03  0.7546771E-02  0.1232289E+00
         -5   -1    0    0    0  501 -0.00000000000E+00  0.00000000000E+00  0.34901258874E+02  0.35216301211E+02  0.47000000000E+01 0.  1.
          5   -1    0    0  501    0  0.00000000000E+00 -0.00000000000E+00 -0.47698086660E+03  0.47700402211E+03  0.47000000000E+01 0.  1.
         25    2    1    2    0    0  0.19213143768E+02  0.89982274470E+01 -0.17028409286E+03  0.21230779721E+03  0.12501126143E+03 0.  0.
         25    2    1    2    0    0 -0.19213143768E+02 -0.89982274470E+01 -0.27179551487E+03  0.29991252611E+03  0.12499843368E+03 0.  0.
          5    1    3    3  502    0 -0.13008222104E+02  0.57888747398E+02 -0.12392387853E+03  0.13747559270E+03  0.47000000000E+01 0. -1.
         -5    1    3    3    0  502  0.32221365872E+02 -0.48890519951E+02 -0.46360214330E+02  0.74832204514E+02  0.47000000000E+01 0. -1.
          5    1    4    4  503    0  0.38923349881E+02  0.30876597277E+01 -0.26340868463E+02  0.47333837367E+02  0.47000000000E+01 0. -1.
         -5    1    4    4    0  503 -0.58136493649E+02 -0.12085887175E+02 -0.24545464641E+03  0.25257868874E+03  0.47000000000E+01 0. -1.
<mgrwt>
<rscale>  0 0.12679561E+03</rscale>
<asrwt>0</asrwt>
<pdfrwt beam="2">  1        5 0.73407682E-01 0.12679877E+03</pdfrwt>
<pdfrwt beam="1">  1       -5 0.53954400E-02 0.12679877E+03</pdfrwt>
<totfact> 0.26534234E+02</totfact>
</mgrwt>
</event>
<event>
 8    1  0.3754098E-007  0.1283479E+03  0.7546771E-02  0.1229937E+00
         -5   -1    0    0    0  501 -0.00000000000E+00  0.00000000000E+00  0.42310046702E+02  0.42570295418E+02  0.47000000000E+01 0.  1.
          5   -1    0    0  501    0  0.00000000000E+00 -0.00000000000E+00 -0.58962691814E+03  0.58964565003E+03  0.47000000000E+01 0.  1.
         25    2    1    2    0    0  0.19835118714E+02 -0.21163739162E+02 -0.88778650087E+02  0.15606036104E+03  0.12502740415E+03 0.  0.
         25    2    1    2    0    0 -0.19835118714E+02  0.21163739162E+02 -0.45853822135E+03  0.47615558440E+03  0.12500201729E+03 0.  0.
          5    1    4    4  502    0 -0.75858452945E+01  0.69368072928E+02 -0.17881442394E+03  0.19200563221E+03  0.47000000000E+01 0.  1.
         -5    1    4    4    0  502 -0.12249273420E+02 -0.48204333766E+02 -0.27972379741E+03  0.28414995220E+03  0.47000000000E+01 0.  1.
          5    1    3    3  503    0 -0.11694661624E+02 -0.49767225378E+02  0.63549353885E+01  0.51730233289E+02  0.47000000000E+01 0.  1.
         -5    1    3    3    0  503  0.31529780339E+02  0.28603486216E+02 -0.95133585475E+02  0.10433012775E+03  0.47000000000E+01 0.  1.
<mgrwt>
<rscale>  0 0.12834173E+03</rscale>
<asrwt>0</asrwt>
<pdfrwt beam="2">  1        5 0.90733288E-01 0.12834792E+03</pdfrwt>
<pdfrwt beam="1">  1       -5 0.65306984E-02 0.12834792E+03</pdfrwt>
<totfact> 0.11833545E+02</totfact>
</mgrwt>
</event>
<event>
 8    1  0.3754098E-007  0.1567530E+03  0.7546771E-02  0.1192414E+00
          5   -1    0    0  501    0  0.00000000000E+00  0.00000000000E+00  0.78516291110E+02  0.78656836764E+02  0.47000000000E+01 0. -1.
         -5   -1    0    0    0  501 -0.00000000000E+00 -0.00000000000E+00 -0.31318228636E+03  0.31321755138E+03  0.47000000000E+01 0. -1.
         25    2    1    2    0    0  0.92093001432E+02  0.21544905569E+02 -0.10818623990E+03  0.19045782794E+03  0.12499847139E+03 0.  0.
         25    2    1    2    0    0 -0.92093001432E+02 -0.21544905569E+02 -0.12647975535E+03  0.20141656020E+03  0.12500479328E+03 0.  0.
          5    1    4    4  502    0 -0.72665299491E+02 -0.66845813649E+02 -0.11293380220E+03  0.15008245144E+03  0.47000000000E+01 0. -1.
         -5    1    4    4    0  502 -0.19427701941E+02  0.45300908080E+02 -0.13545953155E+02  0.51334108762E+02  0.47000000000E+01 0. -1.
          5    1    3    3  503    0  0.99585113286E+02 -0.30229647454E+02 -0.74071014305E+02  0.12782656818E+03  0.47000000000E+01 0.  1.
         -5    1    3    3    0  503 -0.74921118542E+01  0.51774553024E+02 -0.34115225596E+02  0.62631259754E+02  0.47000000000E+01 0.  1.
<mgrwt>
<rscale>  0 0.15675174E+03</rscale>
<asrwt>0</asrwt>
<pdfrwt beam="1">  1        5 0.12092953E-01 0.15675300E+03</pdfrwt>
<pdfrwt beam="2">  1       -5 0.48195413E-01 0.15675300E+03</pdfrwt>
<totfact> 0.17876189E+02</totfact>
</mgrwt>
</event>
<event>
 8    1  0.3754098E-007  0.1653734E+03  0.7546771E-02  0.1182767E+00
          5   -1    0    0  501    0  0.00000000000E+00  0.00000000000E+00  0.13906910837E+03  0.13914850665E+03  0.47000000000E+01 0. -1.
         -5   -1    0    0    0  501 -0.00000000000E+00 -0.00000000000E+00 -0.32287518485E+03  0.32290939130E+03  0.47000000000E+01 0. -1.
         25    2    1    2    0    0  0.10064702294E+03  0.39817970221E+02 -0.23643085831E+03  0.28851326096E+03  0.12500022802E+03 0.  0.
         25    2    1    2    0    0 -0.10064702294E+03 -0.39817970221E+02  0.52624781839E+02  0.17354463700E+03  0.12503231338E+03 0.  0.
          5    1    4    4  502    0 -0.79745111155E+02 -0.78811447282E+02  0.61812254085E+02  0.12811468195E+03  0.47000000000E+01 0.  1.
         -5    1    4    4    0  502 -0.20901911785E+02  0.38993477062E+02 -0.91874722466E+01  0.45429955051E+02  0.47000000000E+01 0.  1.
          5    1    3    3  503    0  0.32572353428E+02  0.58064268729E+02 -0.35642129206E+02  0.75662863316E+02  0.47000000000E+01 0.  1.
         -5    1    3    3    0  503  0.68074669512E+02 -0.18246298508E+02 -0.20078872911E+03  0.21285039764E+03  0.47000000000E+01 0.  1.
<mgrwt>
<rscale>  0 0.16536737E+03</rscale>
<asrwt>0</asrwt>
<pdfrwt beam="1">  1        5 0.21403986E-01 0.16537344E+03</pdfrwt>
<pdfrwt beam="2">  1       -5 0.49681844E-01 0.16537344E+03</pdfrwt>
<totfact> 0.59938557E+01</totfact>
</mgrwt>
</event>
<event>
 8    1  0.3754098E-007  0.1655536E+03  0.7546771E-02  0.1182570E+00
          5   -1    0    0  501    0  0.00000000000E+00  0.00000000000E+00  0.18160560139E+03  0.18166640982E+03  0.47000000000E+01 0. -1.
         -5   -1    0    0    0  501 -0.00000000000E+00 -0.00000000000E+00 -0.23120180906E+03  0.23124957624E+03  0.47000000000E+01 0. -1.
         25    2    1    2    0    0 -0.23989805455E+02 -0.10584629866E+03 -0.14652903339E+03  0.22108542683E+03  0.12501623344E+03 0.  0.
         25    2    1    2    0    0  0.23989805455E+02  0.10584629866E+03  0.96932825725E+02  0.19183055924E+03  0.12499616413E+03 0.  0.
          5    1    4    4  502    0  0.46603230744E+02  0.11283790846E+03  0.10999227173E+03  0.16439174110E+03  0.47000000000E+01 0.  1.
         -5    1    4    4    0  502 -0.22613425290E+02 -0.69916098005E+01 -0.13059446003E+02  0.27438818138E+02  0.47000000000E+01 0.  1.
          5    1    3    3  503    0  0.42713140686E+02 -0.77505931770E+02 -0.55226396742E+02  0.10442043260E+03  0.47000000000E+01 0.  1.
         -5    1    3    3    0  503 -0.66702946140E+02 -0.28340366888E+02 -0.91302636648E+02  0.11666499423E+03  0.47000000000E+01 0.  1.
<mgrwt>
<rscale>  0 0.16554985E+03</rscale>
<asrwt>0</asrwt>
<pdfrwt beam="1">  1        5 0.27947675E-01 0.16555364E+03</pdfrwt>
<pdfrwt beam="2">  1       -5 0.35577861E-01 0.16555364E+03</pdfrwt>
<totfact> 0.71729175E+01</totfact>
</mgrwt>
</event>
<event>
 8    1  0.3754098E-007  0.2080565E+03  0.7546771E-02  0.1143116E+00
         -5   -1    0    0    0  501 -0.00000000000E+00  0.00000000000E+00  0.43361977676E+03  0.43364524764E+03  0.47000000000E+01 0. -1.
          5   -1    0    0  501    0  0.00000000000E+00 -0.00000000000E+00 -0.10397047526E+03  0.10407665313E+03  0.47000000000E+01 0. -1.
         25    2    1    2    0    0 -0.88177028465E+02  0.14100859503E+03  0.21901490289E+03  0.30207923975E+03  0.12500290869E+03 0.  0.
         25    2    1    2    0    0  0.88177028465E+02 -0.14100859503E+03  0.11063439861E+03  0.23564266101E+03  0.12501552429E+03 0.  0.
          5    1    4    4  502    0  0.11537194163E+03 -0.83059229555E+02  0.89563691794E+02  0.16808707689E+03  0.47000000000E+01 0.  1.
         -5    1    4    4    0  502 -0.27194913164E+02 -0.57949365471E+02  0.21070706817E+02  0.67555584123E+02  0.47000000000E+01 0.  1.
          5    1    3    3  503    0  0.13852462698E+02  0.76148975746E+02  0.43521180615E+02  0.88919853757E+02  0.47000000000E+01 0. -1.
         -5    1    3    3    0  503 -0.10202949116E+03  0.64859619280E+02  0.17549372228E+03  0.21315938600E+03  0.47000000000E+01 0. -1.
<mgrwt>
<rscale>  0 0.20805457E+03</rscale>
<asrwt>0</asrwt>
<pdfrwt beam="2">  1        5 0.16005585E-01 0.20805647E+03</pdfrwt>
<pdfrwt beam="1">  1       -5 0.66720861E-01 0.20805647E+03</pdfrwt>
<totfact> 0.57544518E+01</totfact>
</mgrwt>
</event>
<event>
 8    1  0.3754098E-007  0.1346504E+03  0.7546771E-02  0.1220717E+00
         -5   -1    0    0    0  501 -0.00000000000E+00  0.00000000000E+00  0.27727997895E+02  0.28123510934E+02  0.47000000000E+01 0. -1.
          5   -1    0    0  501    0  0.00000000000E+00 -0.00000000000E+00 -0.71133349121E+03  0.71134901822E+03  0.47000000000E+01 0. -1.
         25    2    1    2    0    0  0.46756063190E+02 -0.17875119973E+02 -0.23220420401E+03  0.26841643264E+03  0.12499175810E+03 0.  0.
         25    2    1    2    0    0 -0.46756063190E+02  0.17875119973E+02 -0.45140128931E+03  0.47105609651E+03  0.12500029086E+03 0.  0.
          5    1    4    4  502    0  0.41917470962E+02  0.12785011991E+02 -0.11693972825E+03  0.12497008021E+03  0.47000000000E+01 0.  1.
         -5    1    4    4    0  502 -0.88673534153E+02  0.50901079828E+01 -0.33446156105E+03  0.34608601630E+03  0.47000000000E+01 0.  1.
          5    1    3    3  503    0  0.17206331794E+02  0.53817607053E+02 -0.10627190582E+03  0.12044999231E+03  0.47000000000E+01 0. -1.
         -5    1    3    3    0  503  0.29549731396E+02 -0.71692727026E+02 -0.12593229819E+03  0.14796644032E+03  0.47000000000E+01 0. -1.
<mgrwt>
<rscale>  0 0.13464839E+03</rscale>
<asrwt>0</asrwt>
<pdfrwt beam="2">  1        5 0.10946753E+00 0.13465037E+03</pdfrwt>
<pdfrwt beam="1">  1       -5 0.42974648E-02 0.13465037E+03</pdfrwt>
<totfact> 0.15306323E+02</totfact>
</mgrwt>
</event>
<event>
 8    1  0.3754098E-007  0.1260891E+03  0.7546771E-02  0.1233388E+00
         -5   -1    0    0    0  501 -0.00000000000E+00  0.00000000000E+00  0.39147182775E+03  0.39150004077E+03  0.47000000000E+01 0. -1.
          5   -1    0    0  501    0  0.00000000000E+00 -0.00000000000E+00 -0.40707612745E+02  0.40978039673E+02  0.47000000000E+01 0. -1.
         25    2    1    2    0    0 -0.15025541111E+02 -0.68922568262E+01  0.19297816234E+03  0.23051902695E+03  0.12500072222E+03 0.  0.
         25    2    1    2    0    0  0.15025541111E+02  0.68922568262E+01  0.15778605266E+03  0.20195905349E+03  0.12497099976E+03 0.  0.
          5    1    3    3  502    0  0.24337369742E+02 -0.53336123579E+02  0.59126142060E+02  0.83396884350E+02  0.47000000000E+01 0. -1.
         -5    1    3    3    0  502 -0.39362910853E+02  0.46443866753E+02  0.13385202028E+03  0.14712214260E+03  0.47000000000E+01 0. -1.
          5    1    4    4  503    0  0.16519653857E+02  0.36969248785E+02 -0.49810443331E+00  0.40767173404E+02  0.47000000000E+01 0.  1.
         -5    1    4    4    0  503 -0.14941127463E+01 -0.30076991959E+02  0.15828415710E+03  0.16119188009E+03  0.47000000000E+01 0.  1.
<mgrwt>
<rscale>  0 0.12608169E+03</rscale>
<asrwt>0</asrwt>
<pdfrwt beam="2">  1        5 0.62856817E-02 0.12608906E+03</pdfrwt>
<pdfrwt beam="1">  1       -5 0.60249410E-01 0.12608906E+03</pdfrwt>
<totfact> 0.31836158E+02</totfact>
</mgrwt>
</event>
<event>
 8    1  0.3754098E-007  0.1292615E+03  0.7546771E-02  0.1228557E+00
         -5   -1    0    0    0  501 -0.00000000000E+00  0.00000000000E+00  0.57205295383E+02  0.57398047178E+02  0.47000000000E+01 0. -1.
          5   -1    0    0  501    0  0.00000000000E+00 -0.00000000000E+00 -0.29226529434E+03  0.29230308291E+03  0.47000000000E+01 0. -1.
         25    2    1    2    0    0  0.88852883656E+01 -0.31682948827E+02 -0.10785152197E+03  0.16834365243E+03  0.12499950770E+03 0.  0.
         25    2    1    2    0    0 -0.88852883656E+01  0.31682948827E+02 -0.12720847698E+03  0.18135747766E+03  0.12500312192E+03 0.  0.
          5    1    3    3  502    0  0.44597393963E+02  0.79324380571E+01 -0.10531639652E+03  0.11474094517E+03  0.47000000000E+01 0. -1.
         -5    1    3    3    0  502 -0.35712105598E+02 -0.39615386884E+02 -0.25351254500E+01  0.53602707256E+02  0.47000000000E+01 0. -1.
          5    1    4    4  503    0 -0.60915728657E+02  0.19509465187E+00 -0.93424261760E+02  0.11162861078E+03  0.47000000000E+01 0.  1.
         -5    1    4    4    0  503  0.52030440291E+02  0.31487854175E+02 -0.33784215224E+02  0.69728866875E+02  0.47000000000E+01 0.  1.
<mgrwt>
<rscale>  0 0.12926064E+03</rscale>
<asrwt>0</asrwt>
<pdfrwt beam="2">  1        5 0.44981625E-01 0.12926151E+03</pdfrwt>
<pdfrwt beam="1">  1       -5 0.88185487E-02 0.12926151E+03</pdfrwt>
<totfact> 0.33643665E+02</totfact>
</mgrwt>
</event>
<event>
 8    1  0.3754098E-007  0.1342072E+03  0.7546771E-02  0.1221346E+00
         -5   -1    0    0    0  501 -0.00000000000E+00  0.00000000000E+00  0.10276842426E+04  0.10276949900E+04  0.47000000000E+01 0. -1.
          5   -1    0    0  501    0  0.00000000000E+00 -0.00000000000E+00 -0.17254608430E+02  0.17883274647E+02  0.47000000000E+01 0. -1.
         25    2    1    2    0    0  0.21790357682E+02  0.43713458060E+02  0.53425593239E+03  0.55085313269E+03  0.12499634551E+03 0.  0.
         25    2    1    2    0    0 -0.21790357682E+02 -0.43713458060E+02  0.47617370179E+03  0.49472513198E+03  0.12500350328E+03 0.  0.
          5    1    4    4  502    0 -0.35800105866E+02 -0.59942753872E+02  0.46473596611E+03  0.46997488180E+03  0.47000000000E+01 0. -1.
         -5    1    4    4    0  502  0.14009748184E+02  0.16229295812E+02  0.11437735678E+02  0.24750250184E+02  0.47000000000E+01 0. -1.
          5    1    3    3  503    0  0.54816522184E+02  0.66427690657E+02  0.43912235575E+03  0.44751315345E+03  0.47000000000E+01 0. -1.
         -5    1    3    3    0  503 -0.33026164501E+02 -0.22714232597E+02  0.95133576639E+02  0.10333997923E+03  0.47000000000E+01 0. -1.
<mgrwt>
<rscale>  0 0.13420549E+03</rscale>
<asrwt>0</asrwt>
<pdfrwt beam="2">  1        5 0.27037405E-02 0.13420716E+03</pdfrwt>
<pdfrwt beam="1">  1       -5 0.15815447E+00 0.13420716E+03</pdfrwt>
<totfact> 0.12390888E+02</totfact>
</mgrwt>
</event>
<event>
 8    1  0.3754098E-007  0.1649912E+03  0.7546771E-02  0.1183175E+00
          5   -1    0    0  501    0  0.00000000000E+00  0.00000000000E+00  0.29445758277E+02  0.29818495611E+02  0.47000000000E+01 0. -1.
         -5   -1    0    0    0  501 -0.00000000000E+00 -0.00000000000E+00 -0.10657064256E+04  0.10657167896E+04  0.47000000000E+01 0. -1.
         25    2    1    2    0    0  0.10711143836E+03  0.11156255406E+02 -0.72183438003E+03  0.74045051242E+03  0.12499906759E+03 0.  0.
         25    2    1    2    0    0 -0.10711143836E+03 -0.11156255406E+02 -0.31442628733E+03  0.35508477279E+03  0.12499593369E+03 0.  0.
          5    1    4    4  502    0  0.23493314275E+02  0.16224362046E+02 -0.35138821189E+02  0.45519144258E+02  0.47000000000E+01 0.  1.
         -5    1    4    4    0  502 -0.13060475264E+03 -0.27380617451E+02 -0.27928746615E+03  0.30956562853E+03  0.47000000000E+01 0.  1.
          5    1    3    3  503    0  0.62949177070E+01 -0.33275758237E+02 -0.56500899988E+02  0.66040470733E+02  0.47000000000E+01 0.  1.
         -5    1    3    3    0  503  0.10081652066E+03  0.44432013642E+02 -0.66533348004E+03  0.67441004169E+03  0.47000000000E+01 0.  1.
<mgrwt>
<rscale>  0 0.16499059E+03</rscale>
<asrwt>0</asrwt>
<pdfrwt beam="1">  1        5 0.45595868E-02 0.16499118E+03</pdfrwt>
<pdfrwt beam="2">  1       -5 0.16398427E+00 0.16499118E+03</pdfrwt>
<totfact> 0.50710027E+01</totfact>
</mgrwt>
</event>
<event>
 8    1  0.3754098E-007  0.1349770E+03  0.7546771E-02  0.1220253E+00
         -5   -1    0    0    0  501 -0.00000000000E+00  0.00000000000E+00  0.16639805407E+03  0.16646441781E+03  0.47000000000E+01 0.  1.
          5   -1    0    0  501    0  0.00000000000E+00 -0.00000000000E+00 -0.11303947911E+03  0.11313714614E+03  0.47000000000E+01 0.  1.
         25    2    1    2    0    0 -0.38840457340E+02 -0.32942432954E+02  0.51921965258E+02  0.14461689225E+03  0.12499748010E+03 0.  0.
         25    2    1    2    0    0  0.38840457340E+02  0.32942432954E+02  0.14366097053E+01  0.13498467171E+03  0.12500005093E+03 0.  0.
          5    1    4    4  502    0  0.62894337205E+02  0.21575228396E+02  0.47314421683E+02  0.81743089201E+02  0.47000000000E+01 0. -1.
         -5    1    4    4    0  502 -0.24053879866E+02  0.11367204558E+02 -0.45877811978E+02  0.53241582507E+02  0.47000000000E+01 0. -1.
          5    1    3    3  503    0 -0.13210319197E+02  0.11621065098E+02  0.82588445805E+02  0.84572472281E+02  0.47000000000E+01 0.  1.
         -5    1    3    3    0  503 -0.25630138143E+02 -0.44563498052E+02 -0.30666480547E+02  0.60044419965E+02  0.47000000000E+01 0.  1.
<mgrwt>
<rscale>  0 0.13497643E+03</rscale>
<asrwt>0</asrwt>
<pdfrwt beam="2">  1        5 0.17403307E-01 0.13497703E+03</pdfrwt>
<pdfrwt beam="1">  1       -5 0.25612318E-01 0.13497703E+03</pdfrwt>
<totfact> 0.31406835E+02</totfact>
</mgrwt>
</event>
<event>
 8    1  0.3754098E-007  0.2088976E+03  0.7546771E-02  0.1142443E+00
          5   -1    0    0  501    0  0.00000000000E+00  0.00000000000E+00  0.57420510310E+03  0.57422433806E+03  0.47000000000E+01 0. -1.
         -5   -1    0    0    0  501 -0.00000000000E+00 -0.00000000000E+00 -0.96594817363E+02  0.96709093374E+02  0.47000000000E+01 0. -1.
         25    2    1    2    0    0  0.14947133031E+03  0.75305991023E+02  0.83659070980E+02  0.22502340609E+03  0.12499608900E+03 0.  0.
         25    2    1    2    0    0 -0.14947133031E+03 -0.75305991023E+02  0.39395121475E+03  0.44591002534E+03  0.12500208088E+03 0.  0.
          5    1    4    4  502    0  0.44987420712E+01  0.24346545227E+02  0.41060453138E+02  0.48177212005E+02  0.47000000000E+01 0. -1.
         -5    1    4    4    0  502 -0.15397007238E+03 -0.99652536250E+02  0.35289076162E+03  0.39773281334E+03  0.47000000000E+01 0. -1.
          5    1    3    3  503    0  0.45934488599E+02 -0.34623506924E+02  0.20088241620E+02  0.61109671297E+02  0.47000000000E+01 0.  1.
         -5    1    3    3    0  503  0.10353684171E+03  0.10992949795E+03  0.63570829360E+02  0.16391373480E+03  0.47000000000E+01 0.  1.
<mgrwt>
<rscale>  0 0.20889666E+03</rscale>
<asrwt>0</asrwt>
<pdfrwt beam="1">  1        5 0.88349517E-01 0.20889756E+03</pdfrwt>
<pdfrwt beam="2">  1       -5 0.14871011E-01 0.20889756E+03</pdfrwt>
<totfact> 0.34400274E+01</totfact>
</mgrwt>
</event>
<event>
 8    1  0.3754098E-007  0.1407891E+03  0.7546771E-02  0.1212289E+00
         -5   -1    0    0    0  501 -0.00000000000E+00  0.00000000000E+00  0.19687615557E+03  0.19693224883E+03  0.47000000000E+01 0. -1.
          5   -1    0    0  501    0  0.00000000000E+00 -0.00000000000E+00 -0.11090549146E+03  0.11100503609E+03  0.47000000000E+01 0. -1.
         25    2    1    2    0    0  0.61809838357E+02 -0.19316765792E+02  0.90065591597E+02  0.16708868199E+03  0.12495288432E+03 0.  0.
         25    2    1    2    0    0 -0.61809838357E+02  0.19316765792E+02 -0.40949274967E+01  0.14084860293E+03  0.12501186727E+03 0.  0.
          5    1    4    4  502    0 -0.51489496261E+02  0.35789734809E+02  0.51808469908E+02  0.81475646037E+02  0.47000000000E+01 0.  1.
         -5    1    4    4    0  502 -0.10320342096E+02 -0.16472969017E+02 -0.55903397405E+02  0.59372956896E+02  0.47000000000E+01 0.  1.
          5    1    3    3  503    0  0.40427754537E+02  0.10789839750E+02 -0.23052198564E+02  0.48003310692E+02  0.47000000000E+01 0. -1.
         -5    1    3    3    0  503  0.21382083820E+02 -0.30106605542E+02  0.11311779016E+03  0.11908537130E+03  0.47000000000E+01 0. -1.
<mgrwt>
<rscale>  0 0.14077597E+03</rscale>
<asrwt>0</asrwt>
<pdfrwt beam="2">  1        5 0.17074356E-01 0.14078906E+03</pdfrwt>
<pdfrwt beam="1">  1       -5 0.30300611E-01 0.14078906E+03</pdfrwt>
<totfact> 0.23802391E+02</totfact>
</mgrwt>
</event>
<event>
 8    1  0.3754098E-007  0.1436922E+03  0.7546771E-02  0.1208446E+00
          5   -1    0    0  501    0  0.00000000000E+00  0.00000000000E+00  0.88684663734E+02  0.88809118797E+02  0.47000000000E+01 0.  1.
         -5   -1    0    0    0  501 -0.00000000000E+00 -0.00000000000E+00 -0.28792693689E+03  0.28796529476E+03  0.47000000000E+01 0.  1.
         25    2    1    2    0    0 -0.68011948579E+02  0.19901453685E+02 -0.18225074807E+03  0.23208355735E+03  0.12500299761E+03 0.  0.
         25    2    1    2    0    0  0.68011948579E+02 -0.19901453685E+02 -0.16991525078E+02  0.14469085620E+03  0.12500015575E+03 0.  0.
          5    1    3    3  502    0 -0.96050035744E+02  0.40372791324E+02 -0.10885169512E+03  0.15075262245E+03  0.47000000000E+01 0.  1.
         -5    1    3    3    0  502  0.28038087165E+02 -0.20471337640E+02 -0.73399052958E+02  0.81330934901E+02  0.47000000000E+01 0.  1.
          5    1    4    4  503    0 -0.32757187460E+02 -0.17934274748E+02 -0.22127787204E+02  0.43662346566E+02  0.47000000000E+01 0. -1.
         -5    1    4    4    0  503  0.10076913604E+03 -0.19671789370E+01  0.51362621263E+01  0.10102850964E+03  0.47000000000E+01 0. -1.
<mgrwt>
<rscale>  0 0.14369156E+03</rscale>
<asrwt>0</asrwt>
<pdfrwt beam="1">  1        5 0.13656319E-01 0.14369218E+03</pdfrwt>
<pdfrwt beam="2">  1       -5 0.44308975E-01 0.14369218E+03</pdfrwt>
<totfact> 0.16677919E+02</totfact>
</mgrwt>
</event>
<event>
 8    1  0.3754098E-007  0.1258877E+03  0.7546771E-02  0.1233689E+00
          5   -1    0    0  501    0  0.00000000000E+00  0.00000000000E+00  0.68520444371E+03  0.68522056280E+03  0.47000000000E+01 0.  1.
         -5   -1    0    0    0  501 -0.00000000000E+00 -0.00000000000E+00 -0.23182439227E+02  0.23654079743E+02  0.47000000000E+01 0.  1.
         25    2    1    2    0    0 -0.14826116433E+02  0.15512832217E+01  0.29046272979E+03  0.31656862418E+03  0.12499950486E+03 0.  0.
         25    2    1    2    0    0  0.14826116433E+02 -0.15512832217E+01  0.37155927470E+03  0.39230601836E+03  0.12500198885E+03 0.  0.
          5    1    3    3  502    0  0.16814565784E+02  0.51053766289E+02  0.70103547495E+02  0.88463631206E+02  0.47000000000E+01 0.  1.
         -5    1    3    3    0  502 -0.31640682217E+02 -0.49502483068E+02  0.22035918229E+03  0.22810499298E+03  0.47000000000E+01 0.  1.
          5    1    4    4  503    0 -0.52506185128E+02  0.78925124382E+01  0.21585651017E+03  0.22234053660E+03  0.47000000000E+01 0.  1.
         -5    1    4    4    0  503  0.67332301561E+02 -0.94437956599E+01  0.15570276452E+03  0.16996548176E+03  0.47000000000E+01 0.  1.
<mgrwt>
<rscale>  0 0.12588710E+03</rscale>
<asrwt>0</asrwt>
<pdfrwt beam="1">  1        5 0.10545359E+00 0.12588772E+03</pdfrwt>
<pdfrwt beam="2">  1       -5 0.36040490E-02 0.12588772E+03</pdfrwt>
<totfact> 0.21878791E+02</totfact>
</mgrwt>
</event>
<event>
 8    1  0.3754098E-007  0.1865400E+03  0.7546771E-02  0.1161620E+00
         -5   -1    0    0    0  501 -0.00000000000E+00  0.00000000000E+00  0.11305897608E+03  0.11315662629E+03  0.47000000000E+01 0.  1.
          5   -1    0    0  501    0  0.00000000000E+00 -0.00000000000E+00 -0.32342631866E+03  0.32346046683E+03  0.47000000000E+01 0.  1.
         25    2    1    2    0    0 -0.11129772813E+03 -0.82373490358E+02 -0.56794004865E+02  0.19499356288E+03  0.12499741747E+03 0.  0.
         25    2    1    2    0    0  0.11129772813E+03  0.82373490358E+02 -0.15357333772E+03  0.24162353024E+03  0.12499833643E+03 0.  0.
          5    1    4    4  502    0  0.16590737561E+02 -0.16341768375E+02 -0.85521658768E+02  0.88760070329E+02  0.47000000000E+01 0.  1.
         -5    1    4    4    0  502  0.94706990569E+02  0.98715258733E+02 -0.68051678951E+02  0.15286345992E+03  0.47000000000E+01 0.  1.
          5    1    3    3  503    0  0.78349407029E+00 -0.71671019305E+02 -0.36209530521E+02  0.80439846915E+02  0.47000000000E+01 0. -1.
         -5    1    3    3    0  503 -0.11208122220E+03 -0.10702471054E+02 -0.20584474344E+02  0.11455371596E+03  0.47000000000E+01 0. -1.
<mgrwt>
<rscale>  0 0.18653982E+03</rscale>
<asrwt>0</asrwt>
<pdfrwt beam="2">  1        5 0.49768033E-01 0.18653997E+03</pdfrwt>
<pdfrwt beam="1">  1       -5 0.17403827E-01 0.18653997E+03</pdfrwt>
<totfact> 0.90957161E+01</totfact>
</mgrwt>
</event>
<event>
 8    1  0.3754098E-007  0.1634625E+03  0.7546771E-02  0.1184844E+00
          5   -1    0    0  501    0  0.00000000000E+00  0.00000000000E+00  0.65833636425E+02  0.66001194572E+02  0.47000000000E+01 0.  1.
         -5   -1    0    0    0  501 -0.00000000000E+00 -0.00000000000E+00 -0.40593844988E+03  0.40596565752E+03  0.47000000000E+01 0.  1.
         25    2    1    2    0    0  0.10529698166E+03  0.22899920651E+01 -0.15970067038E+03  0.22852149535E+03  0.12500028523E+03 0.  0.
         25    2    1    2    0    0 -0.10529698166E+03 -0.22899920651E+01 -0.18040414308E+03  0.24344535675E+03  0.12500915356E+03 0.  0.
          5    1    4    4  502    0 -0.48854870116E+02  0.48957303726E+02 -0.31606160618E+02  0.76188288543E+02  0.47000000000E+01 0.  1.
         -5    1    4    4    0  502 -0.56442111541E+02 -0.51247295791E+02 -0.14879798246E+03  0.16725706820E+03  0.47000000000E+01 0.  1.
          5    1    3    3  503    0  0.29081679958E+02 -0.41315133315E+02 -0.55379122384E+01  0.51043538494E+02  0.47000000000E+01 0. -1.
         -5    1    3    3    0  503  0.76215301699E+02  0.43605125380E+02 -0.15416275814E+03  0.17747795685E+03  0.47000000000E+01 0. -1.
<mgrwt>
<rscale>  0 0.16346080E+03</rscale>
<asrwt>0</asrwt>
<pdfrwt beam="1">  1        5 0.10143234E-01 0.16346249E+03</pdfrwt>
<pdfrwt beam="2">  1       -5 0.62467049E-01 0.16346249E+03</pdfrwt>
<totfact> 0.14103889E+02</totfact>
</mgrwt>
</event>
<event>
 8    1  0.3754098E-007  0.1349569E+03  0.7546771E-02  0.1220281E+00
          5   -1    0    0  501    0  0.00000000000E+00  0.00000000000E+00  0.80545750175E+02  0.80682760682E+02  0.47000000000E+01 0. -1.
         -5   -1    0    0    0  501 -0.00000000000E+00 -0.00000000000E+00 -0.23248679471E+03  0.23253429793E+03  0.47000000000E+01 0. -1.
         25    2    1    2    0    0 -0.50815296320E+02 -0.24188431096E+01 -0.10258529906E+03  0.16952019502E+03  0.12500123117E+03 0.  0.
         25    2    1    2    0    0  0.50815296320E+02  0.24188431096E+01 -0.49355745470E+02  0.14369686359E+03  0.12499901541E+03 0.  0.
          5    1    3    3  502    0 -0.68348618608E+02 -0.44120830752E+02 -0.91853385234E+02  0.12278972168E+03  0.47000000000E+01 0.  1.
         -5    1    3    3    0  502  0.17533322288E+02  0.41701987643E+02 -0.10731913827E+02  0.46730473336E+02  0.47000000000E+01 0.  1.
          5    1    4    4  503    0  0.30219054812E+02  0.61787408642E+02 -0.40782622611E+02  0.80101107655E+02  0.47000000000E+01 0. -1.
         -5    1    4    4    0  503  0.20596241508E+02 -0.59368565533E+02 -0.85731228585E+01  0.63595755937E+02  0.47000000000E+01 0. -1.
<mgrwt>
<rscale>  0 0.13495634E+03</rscale>
<asrwt>0</asrwt>
<pdfrwt beam="1">  1        5 0.12405847E-01 0.13495686E+03</pdfrwt>
<pdfrwt beam="2">  1       -5 0.35781392E-01 0.13495686E+03</pdfrwt>
<totfact> 0.30010851E+02</totfact>
</mgrwt>
</event>
<event>
 8    1  0.3754098E-007  0.1428250E+03  0.7546771E-02  0.1209581E+00
          5   -1    0    0  501    0  0.00000000000E+00  0.00000000000E+00  0.38387209646E+03  0.38390086799E+03  0.47000000000E+01 0.  1.
         -5   -1    0    0    0  501 -0.00000000000E+00 -0.00000000000E+00 -0.71190826382E+02  0.71345804088E+02  0.47000000000E+01 0.  1.
         25    2    1    2    0    0 -0.37174283577E+02  0.58221491369E+02  0.41449229546E+02  0.14870824530E+03  0.12499773667E+03 0.  0.
         25    2    1    2    0    0  0.37174283577E+02 -0.58221491369E+02  0.27123204053E+03  0.30653842678E+03  0.12500927111E+03 0.  0.
          5    1    4    4  502    0  0.79763385394E+02 -0.58197802064E+02  0.17068923503E+03  0.19724625921E+03  0.47000000000E+01 0. -1.
         -5    1    4    4    0  502 -0.42589101818E+02 -0.23689304808E-01  0.10054280550E+03  0.10929216757E+03  0.47000000000E+01 0. -1.
          5    1    3    3  503    0  0.41068259645E+02  0.47895125408E+02  0.24542262347E+02  0.67859838116E+02  0.47000000000E+01 0. -1.
         -5    1    3    3    0  503 -0.78242543222E+02  0.10326365962E+02  0.16906967199E+02  0.80848407181E+02  0.47000000000E+01 0. -1.
<mgrwt>
<rscale>  0 0.14282250E+03</rscale>
<asrwt>0</asrwt>
<pdfrwt beam="1">  1        5 0.59071380E-01 0.14282502E+03</pdfrwt>
<pdfrwt beam="2">  1       -5 0.10966569E-01 0.14282502E+03</pdfrwt>
<totfact> 0.13321355E+02</totfact>
</mgrwt>
</event>
<event>
 8    1  0.3754098E-007  0.1409561E+03  0.7546771E-02  0.1212049E+00
          5   -1    0    0  501    0  0.00000000000E+00  0.00000000000E+00  0.14461644640E+03  0.14469280068E+03  0.47000000000E+01 0. -1.
         -5   -1    0    0    0  501 -0.00000000000E+00 -0.00000000000E+00 -0.14653143064E+03  0.14660678759E+03  0.47000000000E+01 0. -1.
         25    2    1    2    0    0  0.63484726248E+02 -0.14622510975E+02 -0.37628889146E+02  0.14588946521E+03  0.12499469776E+03 0.  0.
         25    2    1    2    0    0 -0.63484726248E+02  0.14622510975E+02  0.35713904898E+02  0.14541012305E+03  0.12499797034E+03 0.  0.
          5    1    3    3  502    0  0.89894671149E+02 -0.23487299419E+02  0.67558311904E+01  0.93276129798E+02  0.47000000000E+01 0.  1.
         -5    1    3    3    0  502 -0.26409944901E+02  0.88647884442E+01 -0.44384720337E+02  0.52613335412E+02  0.47000000000E+01 0.  1.
          5    1    4    4  503    0 -0.96759214134E+02  0.33095346044E+02  0.22191127244E+02  0.10474819129E+03  0.47000000000E+01 0. -1.
         -5    1    4    4    0  503  0.33274487886E+02 -0.18472835069E+02  0.13522777655E+02  0.40661931767E+02  0.47000000000E+01 0. -1.
<mgrwt>
<rscale>  0 0.14095537E+03</rscale>
<asrwt>0</asrwt>
<pdfrwt beam="1">  1        5 0.22260354E-01 0.14095610E+03</pdfrwt>
<pdfrwt beam="2">  1       -5 0.22554967E-01 0.14095610E+03</pdfrwt>
<totfact> 0.25677279E+02</totfact>
</mgrwt>
</event>
<event>
 8    1  0.3754098E-007  0.1312045E+03  0.7546771E-02  0.1225683E+00
         -5   -1    0    0    0  501 -0.00000000000E+00  0.00000000000E+00  0.39077089651E+03  0.39079916013E+03  0.47000000000E+01 0.  1.
          5   -1    0    0  501    0  0.00000000000E+00 -0.00000000000E+00 -0.43979953507E+02  0.44230377688E+02  0.47000000000E+01 0.  1.
         25    2    1    2    0    0 -0.38542137307E+02  0.10191823932E+02  0.18294852342E+03  0.22513278911E+03  0.12500096355E+03 0.  0.
         25    2    1    2    0    0  0.38542137307E+02 -0.10191823932E+02  0.16384241958E+03  0.20989674871E+03  0.12499174789E+03 0.  0.
          5    1    3    3  502    0 -0.37736973691E+02  0.64322045491E+02  0.12546348470E+03  0.14602938304E+03  0.47000000000E+01 0.  1.
         -5    1    3    3    0  502 -0.80516361633E+00 -0.54130221558E+02  0.57485038721E+02  0.79103406065E+02  0.47000000000E+01 0.  1.
          5    1    4    4  503    0 -0.17296642164E+02 -0.40476754445E+02  0.13090677769E+03  0.13818905863E+03  0.47000000000E+01 0.  1.
         -5    1    4    4    0  503  0.55838779471E+02  0.30284930513E+02  0.32935641890E+02  0.71707690074E+02  0.47000000000E+01 0.  1.
<mgrwt>
<rscale>  0 0.13120227E+03</rscale>
<asrwt>0</asrwt>
<pdfrwt beam="2">  1        5 0.67875844E-02 0.13120446E+03</pdfrwt>
<pdfrwt beam="1">  1       -5 0.60140035E-01 0.13120446E+03</pdfrwt>
<totfact> 0.28483591E+02</totfact>
</mgrwt>
</event>
<event>
 8    1  0.3754098E-007  0.1380694E+03  0.7546771E-02  0.1215953E+00
         -5   -1    0    0    0  501 -0.00000000000E+00  0.00000000000E+00  0.24712158073E+03  0.24716627129E+03  0.47000000000E+01 0. -1.
          5   -1    0    0  501    0  0.00000000000E+00 -0.00000000000E+00 -0.83659937122E+02  0.83791855686E+02  0.47000000000E+01 0. -1.
         25    2    1    2    0    0 -0.44555587913E+02 -0.38120259659E+02  0.12831781700E+03  0.18848621928E+03  0.12499295215E+03 0.  0.
         25    2    1    2    0    0  0.44555587913E+02  0.38120259659E+02  0.35143826612E+02  0.14247190770E+03  0.12499920529E+03 0.  0.
          5    1    3    3  502    0 -0.82062499292E+01  0.51254595453E+01 -0.23816821152E+02  0.26133194279E+02  0.47000000000E+01 0.  1.
         -5    1    3    3    0  502 -0.36349337984E+02 -0.43245719204E+02  0.15213463815E+03  0.16235302500E+03  0.47000000000E+01 0.  1.
          5    1    4    4  503    0  0.33719682686E+00 -0.44165661571E+02  0.85447509734E+01  0.45230765336E+02  0.47000000000E+01 0. -1.
         -5    1    4    4    0  503  0.44218391086E+02  0.82285921230E+02  0.26599075639E+02  0.97241142361E+02  0.47000000000E+01 0. -1.
<mgrwt>
<rscale>  0 0.13806797E+03</rscale>
<asrwt>0</asrwt>
<pdfrwt beam="2">  1        5 0.12884345E-01 0.13806939E+03</pdfrwt>
<pdfrwt beam="1">  1       -5 0.38032290E-01 0.13806939E+03</pdfrwt>
<totfact> 0.24996511E+02</totfact>
</mgrwt>
</event>
<event>
 8    1  0.3754098E-007  0.1493400E+03  0.7546771E-02  0.1201288E+00
         -5   -1    0    0    0  501 -0.00000000000E+00  0.00000000000E+00  0.12831402254E+04  0.12831488331E+04  0.47000000000E+01 0.  1.
          5   -1    0    0  501    0  0.00000000000E+00 -0.00000000000E+00 -0.18273604946E+02  0.18868350159E+02  0.47000000000E+01 0.  1.
         25    2    1    2    0    0 -0.70600689239E+02  0.41129428745E+02  0.79780530986E+03  0.81166148042E+03  0.12499983650E+03 0.  0.
         25    2    1    2    0    0  0.70600689239E+02 -0.41129428745E+02  0.46706131058E+03  0.49035570289E+03  0.12500544100E+03 0.  0.
          5    1    4    4  502    0  0.13464408498E+02  0.43817188548E+02  0.16893973420E+03  0.17511127919E+03  0.47000000000E+01 0.  1.
         -5    1    4    4    0  502  0.57136280741E+02 -0.84946617293E+02  0.29812157638E+03  0.31524442370E+03  0.47000000000E+01 0.  1.
          5    1    3    3  503    0 -0.53392200286E+02 -0.20579564563E+02  0.61920067510E+03  0.62185674522E+03  0.47000000000E+01 0. -1.
         -5    1    3    3    0  503 -0.17208488953E+02  0.61708993308E+02  0.17860463476E+03  0.18980473521E+03  0.47000000000E+01 0. -1.
<mgrwt>
<rscale>  0 0.14933887E+03</rscale>
<asrwt>0</asrwt>
<pdfrwt beam="2">  1        5 0.28577347E-02 0.14934004E+03</pdfrwt>
<pdfrwt beam="1">  1       -5 0.19745266E+00 0.14934004E+03</pdfrwt>
<totfact> 0.61079076E+01</totfact>
</mgrwt>
</event>
<event>
 8    1  0.3754098E-007  0.1280004E+03  0.7546771E-02  0.1230454E+00
         -5   -1    0    0    0  501 -0.00000000000E+00  0.00000000000E+00  0.66935025624E+02  0.67099833496E+02  0.47000000000E+01 0.  1.
          5   -1    0    0  501    0  0.00000000000E+00 -0.00000000000E+00 -0.25220334202E+03  0.25224713225E+03  0.47000000000E+01 0.  1.
         25    2    1    2    0    0 -0.27577169119E+01  0.27397682161E+02 -0.64347560911E+02  0.14326194109E+03  0.12500054872E+03 0.  0.
         25    2    1    2    0    0  0.27577169119E+01 -0.27397682161E+02 -0.12092075549E+03  0.17608502465E+03  0.12500347518E+03 0.  0.
          5    1    4    4  502    0 -0.71312787823E+01 -0.21250237871E+02 -0.14613413005E+03  0.14791788841E+03  0.47000000000E+01 0. -1.
         -5    1    4    4    0  502  0.98889956943E+01 -0.61474442899E+01  0.25213374562E+02  0.28167136239E+02  0.47000000000E+01 0. -1.
          5    1    3    3  503    0 -0.42610180322E+02  0.26256463846E+02  0.16571955755E+02  0.52931550878E+02  0.47000000000E+01 0. -1.
         -5    1    3    3    0  503  0.39852463410E+02  0.11412183150E+01 -0.80919516666E+02  0.90330390216E+02  0.47000000000E+01 0. -1.
<mgrwt>
<rscale>  0 0.12799970E+03</rscale>
<asrwt>0</asrwt>
<pdfrwt beam="2">  1        5 0.38816560E-01 0.12800042E+03</pdfrwt>
<pdfrwt beam="1">  1       -5 0.10313742E-01 0.12800042E+03</pdfrwt>
<totfact> 0.34585003E+02</totfact>
</mgrwt>
</event>
<event>
 8    1  0.3754098E-007  0.1295128E+03  0.7546771E-02  0.1228190E+00
          5   -1    0    0  501    0  0.00000000000E+00  0.00000000000E+00  0.84777498975E+02  0.84907681233E+02  0.47000000000E+01 0. -1.
         -5   -1    0    0    0  501 -0.00000000000E+00 -0.00000000000E+00 -0.19860300931E+03  0.19865861498E+03  0.47000000000E+01 0. -1.
         25    2    1    2    0    0  0.29910731859E+02 -0.15855868943E+02 -0.67441428322E+02  0.14599800030E+03  0.12498403649E+03 0.  0.
         25    2    1    2    0    0 -0.29910731859E+02  0.15855868943E+02 -0.46384082013E+02  0.13756829592E+03  0.12500996967E+03 0.  0.
          5    1    4    4  502    0 -0.60201930331E+02  0.10002159328E+01  0.19446247048E+02  0.63446980793E+02  0.47000000000E+01 0. -1.
         -5    1    4    4    0  502  0.30291198472E+02  0.14855653010E+02 -0.65830329061E+02  0.74121315122E+02  0.47000000000E+01 0. -1.
          5    1    3    3  503    0  0.18971922496E+02  0.41706252786E+02 -0.73675409490E+02  0.86887866404E+02  0.47000000000E+01 0.  1.
         -5    1    3    3    0  503  0.10938809363E+02 -0.57562121728E+02  0.62339811686E+01  0.59110133897E+02  0.47000000000E+01 0.  1.
<mgrwt>
<rscale>  0 0.12950649E+03</rscale>
<asrwt>0</asrwt>
<pdfrwt beam="1">  1        5 0.13056984E-01 0.12951275E+03</pdfrwt>
<pdfrwt beam="2">  1       -5 0.30568600E-01 0.12951275E+03</pdfrwt>
<totfact> 0.36917816E+02</totfact>
</mgrwt>
</event>
<event>
 8    1  0.3754098E-007  0.1286799E+03  0.7546771E-02  0.1229428E+00
         -5   -1    0    0    0  501 -0.00000000000E+00  0.00000000000E+00  0.24267794060E+03  0.24272344933E+03  0.47000000000E+01 0.  1.
          5   -1    0    0  501    0  0.00000000000E+00 -0.00000000000E+00 -0.15202807265E+03  0.15210070636E+03  0.47000000000E+01 0.  1.
         25    2    1    2    0    0 -0.87694511808E+01  0.29267958481E+02  0.19192540684E+03  0.23107056189E+03  0.12499890444E+03 0.  0.
         25    2    1    2    0    0  0.87694511808E+01 -0.29267958481E+02 -0.10127553890E+03  0.16375359380E+03  0.12499995214E+03 0.  0.
          5    1    4    4  502    0  0.20537959869E+02 -0.16226392975E+02  0.24806506351E+02  0.36366968280E+02  0.47000000000E+01 0. -1.
         -5    1    4    4    0  502 -0.11768508688E+02 -0.13041565505E+02 -0.12608204525E+03  0.12738662552E+03  0.47000000000E+01 0. -1.
          5    1    3    3  503    0 -0.12744804799E+02  0.21708100165E+02  0.20945380248E+03  0.21101340487E+03  0.47000000000E+01 0. -1.
         -5    1    3    3    0  503  0.39753536178E+01  0.75598583160E+01 -0.17528395635E+02  0.20057157019E+02  0.47000000000E+01 0. -1.
<mgrwt>
<rscale>  0 0.12867960E+03</rscale>
<asrwt>0</asrwt>
<pdfrwt beam="2">  1        5 0.23398022E-01 0.12867985E+03</pdfrwt>
<pdfrwt beam="1">  1       -5 0.37344156E-01 0.12867985E+03</pdfrwt>
<totfact> 0.84585937E+01</totfact>
</mgrwt>
</event>
<event>
 8    1  0.3754098E-007  0.1753479E+03  0.7546771E-02  0.1172383E+00
         -5   -1    0    0    0  501 -0.00000000000E+00  0.00000000000E+00  0.25545909911E+03  0.25550233134E+03  0.47000000000E+01 0.  1.
          5   -1    0    0  501    0  0.00000000000E+00 -0.00000000000E+00 -0.12050899411E+03  0.12060061219E+03  0.47000000000E+01 0.  1.
         25    2    1    2    0    0 -0.43524499269E+02  0.11501275603E+03  0.58926967524E+02  0.18498415558E+03  0.12499773689E+03 0.  0.
         25    2    1    2    0    0  0.43524499269E+02 -0.11501275603E+03  0.76023137478E+02  0.19111878795E+03  0.12499823035E+03 0.  0.
          5    1    4    4  502    0  0.59130222685E+01 -0.50719310477E+02 -0.31537250946E+02  0.60200502363E+02  0.47000000000E+01 0.  1.
         -5    1    4    4    0  502  0.37611477001E+02 -0.64293445551E+02  0.10756038842E+03  0.13091828559E+03  0.47000000000E+01 0.  1.
          5    1    3    3  503    0  0.42313091580E+02  0.46446956515E+02  0.36313344062E+02  0.72721842974E+02  0.47000000000E+01 0. -1.
         -5    1    3    3    0  503 -0.85837590849E+02  0.68565799513E+02  0.22613623462E+02  0.11226231261E+03  0.47000000000E+01 0. -1.
<mgrwt>
<rscale>  0 0.17534778E+03</rscale>
<asrwt>0</asrwt>
<pdfrwt beam="2">  1        5 0.18550219E-01 0.17534786E+03</pdfrwt>
<pdfrwt beam="1">  1       -5 0.39311772E-01 0.17534786E+03</pdfrwt>
<totfact> 0.12989731E+02</totfact>
</mgrwt>
</event>
<event>
 8    1  0.3754098E-007  0.1447133E+03  0.7546771E-02  0.1207126E+00
         -5   -1    0    0    0  501 -0.00000000000E+00  0.00000000000E+00  0.27592437492E+03  0.27596440110E+03  0.47000000000E+01 0.  1.
          5   -1    0    0  501    0  0.00000000000E+00 -0.00000000000E+00 -0.10819260837E+03  0.10829464671E+03  0.47000000000E+01 0.  1.
         25    2    1    2    0    0  0.49134604925E+02  0.53876248947E+02  0.18895665671E+03  0.23800539272E+03  0.12500035699E+03 0.  0.
         25    2    1    2    0    0 -0.49134604925E+02 -0.53876248947E+02 -0.21224890158E+02  0.14625365509E+03  0.12499110393E+03 0.  0.
          5    1    3    3  502    0  0.11324997811E+02  0.23588278250E+02  0.18743303827E+03  0.18930899684E+03  0.47000000000E+01 0. -1.
         -5    1    3    3    0  502  0.37809607114E+02  0.30287970697E+02  0.15236184385E+01  0.48696395885E+02  0.47000000000E+01 0. -1.
          5    1    4    4  503    0 -0.32892999141E+02 -0.82139298995E+02  0.22591302314E+02  0.91439984537E+02  0.47000000000E+01 0. -1.
         -5    1    4    4    0  503 -0.16241605784E+02  0.28263050048E+02 -0.43816192472E+02  0.54813670550E+02  0.47000000000E+01 0. -1.
<mgrwt>
<rscale>  0 0.14471134E+03</rscale>
<asrwt>0</asrwt>
<pdfrwt beam="2">  1        5 0.16655945E-01 0.14471333E+03</pdfrwt>
<pdfrwt beam="1">  1       -5 0.42460832E-01 0.14471333E+03</pdfrwt>
<totfact> 0.12739732E+02</totfact>
</mgrwt>
</event>
<event>
 8    1  0.3754098E-007  0.1416114E+03  0.7546771E-02  0.1211178E+00
          5   -1    0    0  501    0  0.00000000000E+00  0.00000000000E+00  0.36902648724E+02  0.37200745730E+02  0.47000000000E+01 0. -1.
         -5   -1    0    0    0  501 -0.00000000000E+00 -0.00000000000E+00 -0.56358235321E+03  0.56360195071E+03  0.47000000000E+01 0. -1.
         25    2    1    2    0    0 -0.37561527447E+02 -0.54924228265E+02 -0.32357180203E+03  0.35320318292E+03  0.12500495255E+03 0.  0.
         25    2    1    2    0    0  0.37561527447E+02  0.54924228265E+02 -0.20310790245E+03  0.24759951352E+03  0.12500063945E+03 0.  0.
          5    1    4    4  502    0  0.77094120611E+02  0.15656049210E+02 -0.15479157686E+03  0.17369840982E+03  0.47000000000E+01 0.  1.
         -5    1    4    4    0  502 -0.39532593164E+02  0.39268179055E+02 -0.48316325600E+02  0.73901103699E+02  0.47000000000E+01 0.  1.
          5    1    3    3  503    0 -0.24157399213E+02 -0.73031011706E+02 -0.89943736825E+02  0.11844439371E+03  0.47000000000E+01 0. -1.
         -5    1    3    3    0  503 -0.13404128234E+02  0.18106783440E+02 -0.23362806520E+03  0.23475878921E+03  0.47000000000E+01 0. -1.
<mgrwt>
<rscale>  0 0.14161041E+03</rscale>
<asrwt>0</asrwt>
<pdfrwt beam="1">  1        5 0.57017690E-02 0.14161136E+03</pdfrwt>
<pdfrwt beam="2">  1       -5 0.86729409E-01 0.14161136E+03</pdfrwt>
<totfact> 0.17089806E+02</totfact>
</mgrwt>
</event>
<event>
 8    1  0.3754098E-007  0.1619462E+03  0.7546771E-02  0.1186518E+00
         -5   -1    0    0    0  501 -0.00000000000E+00  0.00000000000E+00  0.58313058808E+02  0.58502160879E+02  0.47000000000E+01 0. -1.
          5   -1    0    0  501    0  0.00000000000E+00 -0.00000000000E+00 -0.49620905193E+03  0.49623131020E+03  0.47000000000E+01 0. -1.
         25    2    1    2    0    0 -0.41151359762E+02 -0.94378943008E+02 -0.13324372649E+03  0.20971233159E+03  0.12499820830E+03 0.  0.
         25    2    1    2    0    0  0.41151359762E+02  0.94378943008E+02 -0.30465226663E+03  0.34502113948E+03  0.12500305529E+03 0.  0.
          5    1    4    4  502    0 -0.12415671533E+02  0.39730138017E+02 -0.24315326890E+03  0.24673515141E+03  0.47000000000E+01 0. -1.
         -5    1    4    4    0  502  0.53567031295E+02  0.54648804992E+02 -0.61498997733E+02  0.98285988070E+02  0.47000000000E+01 0. -1.
          5    1    3    3  503    0 -0.12856926063E+02  0.16893327968E+02 -0.80301730696E+02  0.83193407373E+02  0.47000000000E+01 0. -1.
         -5    1    3    3    0  503 -0.28294433700E+02 -0.11127227098E+03 -0.52941995796E+02  0.12651892422E+03  0.47000000000E+01 0. -1.
<mgrwt>
<rscale>  0 0.16194530E+03</rscale>
<asrwt>0</asrwt>
<pdfrwt beam="2">  1        5 0.76356110E-01 0.16194624E+03</pdfrwt>
<pdfrwt beam="1">  1       -5 0.89874986E-02 0.16194624E+03</pdfrwt>
<totfact> 0.11044338E+02</totfact>
</mgrwt>
</event>
<event>
 8    1  0.3754098E-007  0.1477664E+03  0.7546771E-02  0.1203247E+00
          5   -1    0    0  501    0  0.00000000000E+00  0.00000000000E+00  0.54040557599E+03  0.54042601396E+03  0.47000000000E+01 0.  1.
         -5   -1    0    0    0  501 -0.00000000000E+00 -0.00000000000E+00 -0.42536987697E+02  0.42795856368E+02  0.47000000000E+01 0.  1.
         25    2    1    2    0    0  0.75272654785E+02 -0.23316969120E+02  0.18146974249E+03  0.23402172627E+03  0.12500098928E+03 0.  0.
         25    2    1    2    0    0 -0.75272654785E+02  0.23316969120E+02  0.31639884580E+03  0.34920014405E+03  0.12499142920E+03 0.  0.
          5    1    3    3  502    0  0.38735391025E+02 -0.47711027409E+02  0.17950875018E+03  0.18979529511E+03  0.47000000000E+01 0. -1.
         -5    1    3    3    0  502  0.36537263760E+02  0.24394058289E+02  0.19609923139E+01  0.44226431166E+02  0.47000000000E+01 0. -1.
          5    1    4    4  503    0 -0.62984629853E+02  0.52855021481E+02  0.96193331706E+02  0.12663318664E+03  0.47000000000E+01 0. -1.
         -5    1    4    4    0  503 -0.12288024932E+02 -0.29538052361E+02  0.22020551409E+03  0.22256695741E+03  0.47000000000E+01 0. -1.
<mgrwt>
<rscale>  0 0.14776435E+03</rscale>
<asrwt>0</asrwt>
<pdfrwt beam="1">  1        5 0.83160803E-01 0.14776637E+03</pdfrwt>
<pdfrwt beam="2">  1       -5 0.65656372E-02 0.14776637E+03</pdfrwt>
<totfact> 0.15077491E+02</totfact>
</mgrwt>
</event>
<event>
 8    1  0.3754098E-007  0.1628736E+03  0.7546771E-02  0.1185492E+00
          5   -1    0    0  501    0  0.00000000000E+00  0.00000000000E+00  0.14753807089E+03  0.14761291394E+03  0.47000000000E+01 0. -1.
         -5   -1    0    0    0  501 -0.00000000000E+00 -0.00000000000E+00 -0.26574366788E+03  0.26578522724E+03  0.47000000000E+01 0. -1.
         25    2    1    2    0    0 -0.88044379488E+01  0.10404714894E+03 -0.17673108086E+03  0.24033660807E+03  0.12499793161E+03 0.  0.
         25    2    1    2    0    0  0.88044379488E+01 -0.10404714894E+03  0.58525483867E+02  0.17306153311E+03  0.12498693793E+03 0.  0.
          5    1    4    4  502    0  0.65514133994E+02 -0.71789300373E+02  0.38636816733E+02  0.10469335704E+03  0.47000000000E+01 0. -1.
         -5    1    4    4    0  502 -0.56709696045E+02 -0.32257848564E+02  0.19888667134E+02  0.68368176075E+02  0.47000000000E+01 0. -1.
          5    1    3    3  503    0 -0.17405101364E+02  0.12071366980E+03 -0.90446920755E+02  0.15191268250E+03  0.47000000000E+01 0. -1.
         -5    1    3    3    0  503  0.86006634157E+01 -0.16666520861E+02 -0.86284160101E+02  0.88423925570E+02  0.47000000000E+01 0. -1.
<mgrwt>
<rscale>  0 0.16287149E+03</rscale>
<asrwt>0</asrwt>
<pdfrwt beam="1">  1        5 0.22707119E-01 0.16287360E+03</pdfrwt>
<pdfrwt beam="2">  1       -5 0.40892595E-01 0.16287360E+03</pdfrwt>
<totfact> 0.80169530E+01</totfact>
</mgrwt>
</event>
<event>
 8    1  0.3754098E-007  0.1474059E+03  0.7546771E-02  0.1203699E+00
         -5   -1    0    0    0  501 -0.00000000000E+00  0.00000000000E+00  0.21005958712E+03  0.21011216086E+03  0.47000000000E+01 0.  1.
          5   -1    0    0  501    0  0.00000000000E+00 -0.00000000000E+00 -0.10491996253E+03  0.10502518049E+03  0.47000000000E+01 0.  1.
         25    2    1    2    0    0  0.74041255015E+02 -0.24900013558E+02  0.72030211178E+02  0.16405876673E+03  0.12499923800E+03 0.  0.
         25    2    1    2    0    0 -0.74041255015E+02  0.24900013558E+02  0.33109413413E+02  0.15107857462E+03  0.12500553721E+03 0.  0.
          5    1    4    4  502    0 -0.64894533261E+02 -0.31127245579E+02  0.54320879831E+02  0.90294262554E+02  0.47000000000E+01 0. -1.
         -5    1    4    4    0  502 -0.91467217541E+01  0.56027259138E+02 -0.21211466418E+02  0.60784312063E+02  0.47000000000E+01 0. -1.
          5    1    3    3  503    0  0.83433503382E+02  0.26747131171E+02  0.19986813569E+02  0.89989561779E+02  0.47000000000E+01 0. -1.
         -5    1    3    3    0  503 -0.93922483668E+01 -0.51647144729E+02  0.52043397609E+02  0.74069204956E+02  0.47000000000E+01 0. -1.
<mgrwt>
<rscale>  0 0.14740458E+03</rscale>
<asrwt>0</asrwt>
<pdfrwt beam="2">  1        5 0.16153671E-01 0.14740591E+03</pdfrwt>
<pdfrwt beam="1">  1       -5 0.32328997E-01 0.14740591E+03</pdfrwt>
<totfact> 0.23538595E+02</totfact>
</mgrwt>
</event>
<event>
 8    1  0.3754098E-007  0.1282899E+03  0.7546771E-02  0.1230019E+00
          5   -1    0    0  501    0  0.00000000000E+00  0.00000000000E+00  0.10623770425E+03  0.10634161840E+03  0.47000000000E+01 0.  1.
         -5   -1    0    0    0  501 -0.00000000000E+00 -0.00000000000E+00 -0.16557603649E+03  0.16564272957E+03  0.47000000000E+01 0.  1.
         25    2    1    2    0    0  0.27469322639E+02 -0.87819456884E+01 -0.64513825112E+02  0.14359008237E+03  0.12499756744E+03 0.  0.
         25    2    1    2    0    0 -0.27469322639E+02  0.87819456884E+01  0.51754928720E+01  0.12839426561E+03  0.12500646167E+03 0.  0.
          5    1    3    3  502    0 -0.26824605179E+01  0.47057060483E+02  0.69804740109E+01  0.47878800665E+02  0.47000000000E+01 0.  1.
         -5    1    3    3    0  502  0.30151783157E+02 -0.55839006171E+02 -0.71494299123E+02  0.95711281700E+02  0.47000000000E+01 0.  1.
          5    1    4    4  503    0  0.46145510030E+02  0.52462599404E+01 -0.19417613481E+02  0.50557541995E+02  0.47000000000E+01 0.  1.
         -5    1    4    4    0  503 -0.73614832669E+02  0.35356857480E+01  0.24593106353E+02  0.77836723612E+02  0.47000000000E+01 0.  1.
<mgrwt>
<rscale>  0 0.12828775E+03</rscale>
<asrwt>0</asrwt>
<pdfrwt beam="1">  1        5 0.16357386E-01 0.12828991E+03</pdfrwt>
<pdfrwt beam="2">  1       -5 0.25486360E-01 0.12828991E+03</pdfrwt>
<totfact> 0.34872406E+02</totfact>
</mgrwt>
</event>
<event>
 8    1  0.3754098E-007  0.1541158E+03  0.7546771E-02  0.1195507E+00
         -5   -1    0    0    0  501 -0.00000000000E+00  0.00000000000E+00  0.59477577191E+02  0.59662988431E+02  0.47000000000E+01 0. -1.
          5   -1    0    0  501    0  0.00000000000E+00 -0.00000000000E+00 -0.39929854882E+03  0.39932620886E+03  0.47000000000E+01 0. -1.
         25    2    1    2    0    0 -0.76868203600E+02  0.47080079549E+02 -0.18018052530E+03  0.23709564608E+03  0.12499627627E+03 0.  0.
         25    2    1    2    0    0  0.76868203600E+02 -0.47080079549E+02 -0.15964044633E+03  0.22189355121E+03  0.12500568527E+03 0.  0.
          5    1    4    4  502    0  0.78732533764E+02 -0.19933856682E+02 -0.17303362510E+03  0.19120380731E+03  0.47000000000E+01 0. -1.
         -5    1    4    4    0  502 -0.18643301641E+01 -0.27146222867E+02  0.13393178772E+02  0.30689743898E+02  0.47000000000E+01 0. -1.
          5    1    3    3  503    0 -0.74341065429E+02  0.69535034206E+02 -0.67860937490E+02  0.12242921150E+03  0.47000000000E+01 0.  1.
         -5    1    3    3    0  503 -0.25271381717E+01 -0.22454954658E+02 -0.11231958780E+03  0.11466643459E+03  0.47000000000E+01 0.  1.
<mgrwt>
<rscale>  0 0.15411388E+03</rscale>
<asrwt>0</asrwt>
<pdfrwt beam="2">  1        5 0.61446934E-01 0.15411579E+03</pdfrwt>
<pdfrwt beam="1">  1       -5 0.91667868E-02 0.15411579E+03</pdfrwt>
<totfact> 0.17130701E+02</totfact>
</mgrwt>
</event>
<event>
 8    1  0.3754098E-007  0.1276431E+03  0.7546771E-02  0.1231004E+00
         -5   -1    0    0    0  501 -0.00000000000E+00  0.00000000000E+00  0.43468697978E+03  0.43471238813E+03  0.47000000000E+01 0. -1.
          5   -1    0    0  501    0  0.00000000000E+00 -0.00000000000E+00 -0.38147690439E+02  0.38436132556E+02  0.47000000000E+01 0. -1.
         25    2    1    2    0    0 -0.14119332597E+02  0.21521141637E+02  0.23339374130E+03  0.26601767577E+03  0.12502099925E+03 0.  0.
         25    2    1    2    0    0  0.14119332597E+02 -0.21521141637E+02  0.16314554804E+03  0.20713084491E+03  0.12499680787E+03 0.  0.
          5    1    4    4  502    0  0.46641244480E+02 -0.27767656314E+02  0.16805953756E+02  0.57017352670E+02  0.47000000000E+01 0. -1.
         -5    1    4    4    0  502 -0.32521911883E+02  0.62465146769E+01  0.14633959428E+03  0.15011349224E+03  0.47000000000E+01 0. -1.
          5    1    3    3  503    0  0.20154196628E+02 -0.22852464380E+02  0.55456435242E+01  0.31325244326E+02  0.47000000000E+01 0.  1.
         -5    1    3    3    0  503 -0.34273529225E+02  0.44373606017E+02  0.22784809778E+03  0.23469243145E+03  0.47000000000E+01 0.  1.
<mgrwt>
<rscale>  0 0.12763719E+03</rscale>
<asrwt>0</asrwt>
<pdfrwt beam="2">  1        5 0.58930176E-02 0.12764312E+03</pdfrwt>
<pdfrwt beam="1">  1       -5 0.66899064E-01 0.12764312E+03</pdfrwt>
<totfact> 0.28283175E+02</totfact>
</mgrwt>
</event>
<event>
 8    1  0.3754098E-007  0.1542107E+03  0.7546771E-02  0.1195392E+00
          5   -1    0    0  501    0  0.00000000000E+00  0.00000000000E+00  0.35158612329E+03  0.35161753666E+03  0.47000000000E+01 0. -1.
         -5   -1    0    0    0  501 -0.00000000000E+00 -0.00000000000E+00 -0.68243762106E+02  0.68405416937E+02  0.47000000000E+01 0. -1.
         25    2    1    2    0    0  0.77619472215E+02 -0.46158008959E+02  0.12011712116E+03  0.19547140303E+03  0.12500240937E+03 0.  0.
         25    2    1    2    0    0 -0.77619472215E+02  0.46158008959E+02  0.16322524002E+03  0.22455155057E+03  0.12500230249E+03 0.  0.
          5    1    4    4  502    0  0.31192427537E+02 -0.75167714931E+01  0.40901766364E+02  0.52196876162E+02  0.47000000000E+01 0.  1.
         -5    1    4    4    0  502 -0.10881189975E+03  0.53674780453E+02  0.12232347366E+03  0.17235467441E+03  0.47000000000E+01 0.  1.
          5    1    3    3  503    0  0.87069105251E+02  0.47034126326E+01  0.11335313683E+03  0.14308799673E+03  0.47000000000E+01 0. -1.
         -5    1    3    3    0  503 -0.94496330362E+01 -0.50861421592E+02  0.67639843294E+01  0.52383406293E+02  0.47000000000E+01 0. -1.
<mgrwt>
<rscale>  0 0.15421070E+03</rscale>
<asrwt>0</asrwt>
<pdfrwt beam="1">  1        5 0.54105025E-01 0.15421072E+03</pdfrwt>
<pdfrwt beam="2">  1       -5 0.10513892E-01 0.15421072E+03</pdfrwt>
<totfact> 0.17792103E+02</totfact>
</mgrwt>
</event>
<event>
 8    1  0.3754098E-007  0.1610967E+03  0.7546771E-02  0.1187466E+00
         -5   -1    0    0    0  501 -0.00000000000E+00  0.00000000000E+00  0.31761958762E+02  0.32107818742E+02  0.47000000000E+01 0. -1.
          5   -1    0    0  501    0  0.00000000000E+00 -0.00000000000E+00 -0.93116705582E+03  0.93117891721E+03  0.47000000000E+01 0. -1.
         25    2    1    2    0    0  0.74489645674E+02  0.69122809944E+02 -0.27761835802E+03  0.32096990967E+03  0.12499223992E+03 0.  0.
         25    2    1    2    0    0 -0.74489645674E+02 -0.69122809944E+02 -0.62178673904E+03  0.64231682628E+03  0.12500194519E+03 0.  0.
          5    1    3    3  502    0  0.45637090514E+02  0.83094517236E+02 -0.27200035847E+03  0.28808632011E+03  0.47000000000E+01 0. -1.
         -5    1    3    3    0  502  0.28852555160E+02 -0.13971707292E+02 -0.56179995516E+01  0.32883589568E+02  0.47000000000E+01 0. -1.
          5    1    4    4  503    0 -0.14936063688E+02  0.34947654478E+02 -0.10454460034E+03  0.11133772053E+03  0.47000000000E+01 0.  1.
         -5    1    4    4    0  503 -0.59553581986E+02 -0.10407046442E+03 -0.51724213870E+03  0.53097910574E+03  0.47000000000E+01 0.  1.
<mgrwt>
<rscale>  0 0.16109485E+03</rscale>
<asrwt>0</asrwt>
<pdfrwt beam="2">  1        5 0.14328397E+00 0.16109673E+03</pdfrwt>
<pdfrwt beam="1">  1       -5 0.49139729E-02 0.16109673E+03</pdfrwt>
<totfact> 0.64637401E+01</totfact>
</mgrwt>
</event>
<event>
 8    1  0.3754098E-007  0.1377287E+03  0.7546771E-02  0.1216420E+00
          5   -1    0    0  501    0  0.00000000000E+00  0.00000000000E+00  0.31527587236E+03  0.31531090322E+03  0.47000000000E+01 0. -1.
         -5   -1    0    0    0  501 -0.00000000000E+00 -0.00000000000E+00 -0.60205589726E+02  0.60388765795E+02  0.47000000000E+01 0. -1.
         25    2    1    2    0    0  0.28773592882E+02 -0.50157828108E+02  0.11753784063E+03  0.18106056563E+03  0.12499622825E+03 0.  0.
         25    2    1    2    0    0 -0.28773592882E+02  0.50157828108E+02  0.13753244200E+03  0.19463910339E+03  0.12500192238E+03 0.  0.
          5    1    3    3  502    0  0.73375782011E+02 -0.59022336283E+01  0.52727528495E+02  0.90670414186E+02  0.47000000000E+01 0. -1.
         -5    1    3    3    0  502 -0.44602189129E+02 -0.44255594480E+02  0.64810312138E+02  0.90390151440E+02  0.47000000000E+01 0. -1.
          5    1    4    4  503    0  0.19601529664E+02 -0.34033875905E+02  0.50595303481E+02  0.64222265677E+02  0.47000000000E+01 0.  1.
         -5    1    4    4    0  503 -0.48375122546E+02  0.84191704013E+02  0.86937138519E+02  0.13041683772E+03  0.47000000000E+01 0.  1.
<mgrwt>
<rscale>  0 0.13772746E+03</rscale>
<asrwt>0</asrwt>
<pdfrwt beam="1">  1        5 0.48520765E-01 0.13772875E+03</pdfrwt>
<pdfrwt beam="2">  1       -5 0.92791837E-02 0.13772875E+03</pdfrwt>
<totfact> 0.26879044E+02</totfact>
</mgrwt>
</event>
<event>
 8    1  0.3754098E-007  0.1805976E+03  0.7546771E-02  0.1167227E+00
         -5   -1    0    0    0  501 -0.00000000000E+00  0.00000000000E+00  0.11098511034E+04  0.11098610552E+04  0.47000000000E+01 0.  1.
          5   -1    0    0  501    0  0.00000000000E+00 -0.00000000000E+00 -0.41009929193E+02  0.41278375603E+02  0.47000000000E+01 0.  1.
         25    2    1    2    0    0  0.12895899936E+03  0.18979674406E+02  0.84220098814E+03  0.86134662272E+03  0.12499939396E+03 0.  0.
         25    2    1    2    0    0 -0.12895899936E+03 -0.18979674406E+02  0.22664018607E+03  0.28979280803E+03  0.12499378419E+03 0.  0.
          5    1    4    4  502    0 -0.11579664459E+02  0.40625447479E+02  0.92440649304E+02  0.10174418537E+03  0.47000000000E+01 0. -1.
         -5    1    4    4    0  502 -0.11737933490E+03 -0.59605121885E+02  0.13419953677E+03  0.18804862267E+03  0.47000000000E+01 0. -1.
          5    1    3    3  503    0  0.70127712953E+02 -0.51729037772E+02  0.35983115463E+03  0.37026252756E+03  0.47000000000E+01 0. -1.
         -5    1    3    3    0  503  0.58831286410E+02  0.70708712178E+02  0.48236983351E+03  0.49108409516E+03  0.47000000000E+01 0. -1.
<mgrwt>
<rscale>  0 0.18059665E+03</rscale>
<asrwt>0</asrwt>
<pdfrwt beam="2">  1        5 0.63306351E-02 0.18059762E+03</pdfrwt>
<pdfrwt beam="1">  1       -5 0.17076774E+00 0.18059762E+03</pdfrwt>
<totfact> 0.26665171E+01</totfact>
</mgrwt>
</event>
<event>
 8    1  0.3754098E-007  0.1408369E+03  0.7546771E-02  0.1212209E+00
         -5   -1    0    0    0  501 -0.00000000000E+00  0.00000000000E+00  0.18754933604E+02  0.19334878704E+02  0.47000000000E+01 0.  1.
          5   -1    0    0  501    0  0.00000000000E+00 -0.00000000000E+00 -0.10619411574E+04  0.10619515581E+04  0.47000000000E+01 0.  1.
         25    2    1    2    0    0  0.59734542558E+02 -0.25342537678E+02 -0.44547180030E+03  0.46720463482E+03  0.12499834455E+03 0.  0.
         25    2    1    2    0    0 -0.59734542558E+02  0.25342537678E+02 -0.59771442351E+03  0.61408180202E+03  0.12499387067E+03 0.  0.
          5    1    4    4  502    0 -0.62438498369E+02  0.59660729725E+02 -0.24804802076E+03  0.26269350840E+03  0.47000000000E+01 0.  1.
         -5    1    4    4    0  502  0.27039558115E+01 -0.34318192048E+02 -0.34966640275E+03  0.35138829362E+03  0.47000000000E+01 0.  1.
          5    1    3    3  503    0  0.81710462079E+02 -0.58624613896E+02 -0.31976585056E+03  0.33523981589E+03  0.47000000000E+01 0. -1.
         -5    1    3    3    0  503 -0.21975919521E+02  0.33282076218E+02 -0.12570594974E+03  0.13196481893E+03  0.47000000000E+01 0. -1.
<mgrwt>
<rscale>  0 0.14083596E+03</rscale>
<asrwt>0</asrwt>
<pdfrwt beam="2">  1        5 0.16342093E+00 0.14083695E+03</pdfrwt>
<pdfrwt beam="1">  1       -5 0.29307864E-02 0.14083695E+03</pdfrwt>
<totfact> 0.10074775E+02</totfact>
</mgrwt>
</event>
<event>
 8    1  0.3754098E-007  0.1298767E+03  0.7546771E-02  0.1227644E+00
          5   -1    0    0  501    0  0.00000000000E+00  0.00000000000E+00  0.69529413560E+03  0.69531002078E+03  0.47000000000E+01 0. -1.
         -5   -1    0    0    0  501 -0.00000000000E+00 -0.00000000000E+00 -0.27658807248E+02  0.28055295728E+02  0.47000000000E+01 0. -1.
         25    2    1    2    0    0 -0.32596131252E+02  0.13431298287E+02  0.20356614506E+03  0.24146872063E+03  0.12500024032E+03 0.  0.
         25    2    1    2    0    0  0.32596131252E+02 -0.13431298287E+02  0.46406918329E+03  0.48189659588E+03  0.12498485787E+03 0.  0.
          5    1    4    4  502    0  0.69023330484E+01 -0.50757229471E+02  0.79840504136E+02  0.94976495228E+02  0.47000000000E+01 0.  1.
         -5    1    4    4    0  502  0.25693798204E+02  0.37325931184E+02  0.38422867916E+03  0.38692010066E+03  0.47000000000E+01 0.  1.
          5    1    3    3  503    0 -0.69990884280E+02  0.35377904080E+02  0.88110654309E+02  0.11805040187E+03  0.47000000000E+01 0.  1.
         -5    1    3    3    0  503  0.37394753028E+02 -0.21946605794E+02  0.11545549075E+03  0.12341831876E+03  0.47000000000E+01 0.  1.
<mgrwt>
<rscale>  0 0.12987304E+03</rscale>
<asrwt>0</asrwt>
<pdfrwt beam="1">  1        5 0.10700006E+00 0.12987674E+03</pdfrwt>
<pdfrwt beam="2">  1       -5 0.42869219E-02 0.12987674E+03</pdfrwt>
<totfact> 0.16065372E+02</totfact>
</mgrwt>
</event>
<event>
 8    1  0.3754098E-007  0.1380582E+03  0.7546771E-02  0.1215967E+00
         -5   -1    0    0    0  501 -0.00000000000E+00  0.00000000000E+00  0.61550688468E+03  0.61552482898E+03  0.47000000000E+01 0. -1.
          5   -1    0    0  501    0  0.00000000000E+00 -0.00000000000E+00 -0.36856608926E+02  0.37155075313E+02  0.47000000000E+01 0. -1.
         25    2    1    2    0    0 -0.51970785774E+02 -0.27093369628E+02  0.42133318054E+03  0.44337450823E+03  0.12499716904E+03 0.  0.
         25    2    1    2    0    0  0.51970785774E+02  0.27093369628E+02  0.15731709521E+03  0.20930539606E+03  0.12500026849E+03 0.  0.
          5    1    3    3  502    0 -0.30289726597E+02 -0.96859963226E+01  0.41260557444E+03  0.41385593644E+03  0.47000000000E+01 0.  1.
         -5    1    3    3    0  502 -0.21681059178E+02 -0.17407373306E+02  0.87276061008E+01  0.29518571793E+02  0.47000000000E+01 0.  1.
          5    1    4    4  503    0  0.89839398249E+02  0.22245450471E+02  0.77903193155E+02  0.12106599460E+03  0.47000000000E+01 0.  1.
         -5    1    4    4    0  503 -0.37868612475E+02  0.48479191575E+01  0.79413902058E+02  0.88239401465E+02  0.47000000000E+01 0.  1.
<mgrwt>
<rscale>  0 0.13805755E+03</rscale>
<asrwt>0</asrwt>
<pdfrwt beam="2">  1        5 0.56945871E-02 0.13805825E+03</pdfrwt>
<pdfrwt beam="1">  1       -5 0.94717702E-01 0.13805825E+03</pdfrwt>
<totfact> 0.13776360E+02</totfact>
</mgrwt>
</event>
<event>
 8    1  0.3754098E-007  0.1302908E+03  0.7546771E-02  0.1227027E+00
          5   -1    0    0  501    0  0.00000000000E+00  0.00000000000E+00  0.89944119725E+02  0.90066834479E+02  0.47000000000E+01 0.  1.
         -5   -1    0    0    0  501 -0.00000000000E+00 -0.00000000000E+00 -0.19552522286E+03  0.19558170358E+03  0.47000000000E+01 0.  1.
         25    2    1    2    0    0  0.65024929408E+01  0.36158196178E+02 -0.79951499575E+02  0.15286087775E+03  0.12499803237E+03 0.  0.
         25    2    1    2    0    0 -0.65024929408E+01 -0.36158196178E+02 -0.25629603564E+02  0.13278766031E+03  0.12500395429E+03 0.  0.
          5    1    4    4  502    0 -0.43651836203E+02  0.29158448665E+02 -0.22857088059E+02  0.57447666680E+02  0.47000000000E+01 0. -1.
         -5    1    4    4    0  502  0.37149343262E+02 -0.65316644843E+02 -0.27725155046E+01  0.75339993632E+02  0.47000000000E+01 0. -1.
          5    1    3    3  503    0 -0.24440694329E+02 -0.19549091405E+02  0.17624674854E+02  0.36224766083E+02  0.47000000000E+01 0. -1.
         -5    1    3    3    0  503  0.30943187270E+02  0.55707287582E+02 -0.97576174429E+02  0.11663611167E+03  0.47000000000E+01 0. -1.
<mgrwt>
<rscale>  0 0.13028935E+03</rscale>
<asrwt>0</asrwt>
<pdfrwt beam="1">  1        5 0.13851341E-01 0.13029078E+03</pdfrwt>
<pdfrwt beam="2">  1       -5 0.30094588E-01 0.13029078E+03</pdfrwt>
<totfact> 0.34325287E+02</totfact>
</mgrwt>
</event>
<event>
 8    1  0.3754098E-007  0.2947308E+03  0.7546771E-02  0.1087905E+00
         -5   -1    0    0    0  501 -0.00000000000E+00  0.00000000000E+00  0.81841193174E+03  0.81842542728E+03  0.47000000000E+01 0.  1.
          5   -1    0    0  501    0  0.00000000000E+00 -0.00000000000E+00 -0.10616796489E+03  0.10627194723E+03  0.47000000000E+01 0.  1.
         25    2    1    2    0    0  0.26670981605E+03 -0.10263849609E+02  0.37003934124E+03  0.47306668796E+03  0.12499401827E+03 0.  0.
         25    2    1    2    0    0 -0.26670981605E+03  0.10263849609E+02  0.34220462561E+03  0.45163068655E+03  0.12500719443E+03 0.  0.
          5    1    4    4  502    0 -0.12432405193E+03 -0.50040797918E+02  0.11442190258E+03  0.17628106289E+03  0.47000000000E+01 0. -1.
         -5    1    4    4    0  502 -0.14238576413E+03  0.60304647527E+02  0.22778272303E+03  0.27534962366E+03  0.47000000000E+01 0. -1.
          5    1    3    3  503    0  0.20528839676E+03 -0.52509153376E+02  0.31750021158E+03  0.38174469398E+03  0.47000000000E+01 0. -1.
         -5    1    3    3    0  503  0.61421419292E+02  0.42245303767E+02  0.52539129665E+02  0.91321993978E+02  0.47000000000E+01 0. -1.
<mgrwt>
<rscale>  0 0.29472945E+03</rscale>
<asrwt>0</asrwt>
<pdfrwt beam="2">  1        5 0.16342570E-01 0.29473085E+03</pdfrwt>
<pdfrwt beam="1">  1       -5 0.12591856E+00 0.29473085E+03</pdfrwt>
<totfact> 0.12863989E+01</totfact>
</mgrwt>
</event>
<event>
 8    1  0.3754098E-007  0.1449158E+03  0.7546771E-02  0.1206867E+00
         -5   -1    0    0    0  501 -0.00000000000E+00  0.00000000000E+00  0.30033575089E+03  0.30037252415E+03  0.47000000000E+01 0.  1.
          5   -1    0    0  501    0  0.00000000000E+00 -0.00000000000E+00 -0.77495943719E+02  0.77638336489E+02  0.47000000000E+01 0.  1.
         25    2    1    2    0    0  0.73286029275E+02 -0.85890305006E-01  0.17091356346E+03  0.22407276702E+03  0.12500523702E+03 0.  0.
         25    2    1    2    0    0 -0.73286029275E+02  0.85890305006E-01  0.51926243711E+02  0.15393809361E+03  0.12501900822E+03 0.  0.
          5    1    4    4  502    0 -0.54021551927E+02  0.41520778054E+02  0.75915871771E+02  0.10211568278E+03  0.47000000000E+01 0.  1.
         -5    1    4    4    0  502 -0.19264477347E+02 -0.41434887749E+02 -0.23989628060E+02  0.51822410835E+02  0.47000000000E+01 0.  1.
          5    1    3    3  503    0  0.77569342034E+02 -0.26302645629E+02  0.17815739482E+03  0.19614020322E+03  0.47000000000E+01 0. -1.
         -5    1    3    3    0  503 -0.42833127592E+01  0.26216755324E+02 -0.72438313560E+01  0.27932563804E+02  0.47000000000E+01 0. -1.
<mgrwt>
<rscale>  0 0.14491287E+03</rscale>
<asrwt>0</asrwt>
<pdfrwt beam="2">  1        5 0.11936235E-01 0.14491584E+03</pdfrwt>
<pdfrwt beam="1">  1       -5 0.46219282E-01 0.14491584E+03</pdfrwt>
<totfact> 0.19471818E+02</totfact>
</mgrwt>
</event>
<event>
 8    1  0.3754098E-007  0.1281171E+03  0.7546771E-02  0.1230277E+00
          5   -1    0    0  501    0  0.00000000000E+00  0.00000000000E+00  0.30414150327E+02  0.30775161090E+02  0.47000000000E+01 0.  1.
         -5   -1    0    0    0  501 -0.00000000000E+00 -0.00000000000E+00 -0.54885107929E+03  0.54887120278E+03  0.47000000000E+01 0.  1.
         25    2    1    2    0    0  0.27969790478E+02  0.25364452399E+01 -0.30334059069E+03  0.32928637060E+03  0.12500102869E+03 0.  0.
         25    2    1    2    0    0 -0.27969790478E+02 -0.25364452399E+01 -0.21509633828E+03  0.25035999326E+03  0.12499979501E+03 0.  0.
          5    1    3    3  502    0  0.91029796265E+01  0.39009987532E+02 -0.27777163465E+03  0.28068454603E+03  0.47000000000E+01 0. -1.
         -5    1    3    3    0  502  0.18866810852E+02 -0.36473542292E+02 -0.25568956041E+02  0.48601824575E+02  0.47000000000E+01 0. -1.
          5    1    4    4  503    0 -0.59744489563E+02  0.53413948428E+01 -0.40191758139E+02  0.72356077522E+02  0.47000000000E+01 0. -1.
         -5    1    4    4    0  503  0.31774699084E+02 -0.78778400827E+01 -0.17490458014E+03  0.17800391574E+03  0.47000000000E+01 0. -1.
<mgrwt>
<rscale>  0 0.12811683E+03</rscale>
<asrwt>0</asrwt>
<pdfrwt beam="1">  1        5 0.47084185E-02 0.12811713E+03</pdfrwt>
<pdfrwt beam="2">  1       -5 0.84467938E-01 0.12811713E+03</pdfrwt>
<totfact> 0.24169055E+02</totfact>
</mgrwt>
</event>
<event>
 8    1  0.3754098E-007  0.1317076E+03  0.7546771E-02  0.1224947E+00
         -5   -1    0    0    0  501 -0.00000000000E+00  0.00000000000E+00  0.69720147325E+03  0.69721731497E+03  0.47000000000E+01 0.  1.
          5   -1    0    0  501    0  0.00000000000E+00 -0.00000000000E+00 -0.30407801730E+02  0.30768886981E+02  0.47000000000E+01 0.  1.
         25    2    1    2    0    0  0.25966390025E+02  0.32355254332E+02  0.49084510845E+03  0.50820842383E+03  0.12500306264E+03 0.  0.
         25    2    1    2    0    0 -0.25966390025E+02 -0.32355254332E+02  0.17594856306E+03  0.21977777812E+03  0.12499303588E+03 0.  0.
          5    1    3    3  502    0  0.73380025745E+02  0.23479454708E+01  0.23526938243E+03  0.24650337388E+03  0.47000000000E+01 0.  1.
         -5    1    3    3    0  502 -0.47413635720E+02  0.30007308861E+02  0.25557572603E+03  0.26170504995E+03  0.47000000000E+01 0.  1.
          5    1    4    4  503    0 -0.63911091304E+02 -0.26724301336E+02  0.43799024673E+02  0.82092998702E+02  0.47000000000E+01 0.  1.
         -5    1    4    4    0  503  0.37944701279E+02 -0.56309529955E+01  0.13214953839E+03  0.13768477942E+03  0.47000000000E+01 0.  1.
<mgrwt>
<rscale>  0 0.13170518E+03</rscale>
<asrwt>0</asrwt>
<pdfrwt beam="2">  1        5 0.47071179E-02 0.13170756E+03</pdfrwt>
<pdfrwt beam="1">  1       -5 0.10729075E+00 0.13170756E+03</pdfrwt>
<totfact> 0.13743402E+02</totfact>
</mgrwt>
</event>
<event>
 8    1  0.3754098E-007  0.1762306E+03  0.7546771E-02  0.1171502E+00
         -5   -1    0    0    0  501 -0.00000000000E+00  0.00000000000E+00  0.41054130411E+03  0.41056820673E+03  0.47000000000E+01 0. -1.
          5   -1    0    0  501    0  0.00000000000E+00 -0.00000000000E+00 -0.10257648963E+03  0.10268410892E+03  0.47000000000E+01 0. -1.
         25    2    1    2    0    0  0.81992185422E+02 -0.93321548276E+02  0.28561900594E+03  0.33561061875E+03  0.12499856407E+03 0.  0.
         25    2    1    2    0    0 -0.81992185422E+02  0.93321548276E+02  0.22345808531E+02  0.17764169690E+03  0.12500242988E+03 0.  0.
          5    1    3    3  502    0  0.26548320232E+01 -0.79916654035E+02  0.21131843948E+03  0.22598958514E+03  0.47000000000E+01 0. -1.
         -5    1    3    3    0  502  0.79337353399E+02 -0.13404894241E+02  0.74300566460E+02  0.10962103361E+03  0.47000000000E+01 0. -1.
          5    1    4    4  503    0 -0.10694125114E+03  0.55991482614E+02 -0.11309682352E+02  0.12133209071E+03  0.47000000000E+01 0. -1.
         -5    1    4    4    0  503  0.24949065723E+02  0.37330065662E+02  0.33655490883E+02  0.56309606191E+02  0.47000000000E+01 0. -1.
<mgrwt>
<rscale>  0 0.17622995E+03</rscale>
<asrwt>0</asrwt>
<pdfrwt beam="2">  1        5 0.15791346E-01 0.17623064E+03</pdfrwt>
<pdfrwt beam="1">  1       -5 0.63170548E-01 0.17623064E+03</pdfrwt>
<totfact> 0.63717007E+01</totfact>
</mgrwt>
</event>
<event>
 8    1  0.3754098E-007  0.1340787E+03  0.7546771E-02  0.1221527E+00
          5   -1    0    0  501    0  0.00000000000E+00  0.00000000000E+00  0.83808391705E+02  0.83940076961E+02  0.47000000000E+01 0.  1.
         -5   -1    0    0    0  501 -0.00000000000E+00 -0.00000000000E+00 -0.33546361771E+03  0.33549654068E+03  0.47000000000E+01 0.  1.
         25    2    1    2    0    0  0.44804446801E+02  0.18542394863E+02 -0.25190003839E+03  0.28536068773E+03  0.12500333555E+03 0.  0.
         25    2    1    2    0    0 -0.44804446801E+02 -0.18542394863E+02  0.24481238904E+00  0.13407592991E+03  0.12500014475E+03 0.  0.
          5    1    4    4  502    0  0.34468494493E+02  0.15152083372E+02  0.23626485088E+02  0.44698585445E+02  0.47000000000E+01 0. -1.
         -5    1    4    4    0  502 -0.79272941294E+02 -0.33694478235E+02 -0.23381672699E+02  0.89377344462E+02  0.47000000000E+01 0. -1.
          5    1    3    3  503    0  0.76642439714E+02  0.45297572912E+02 -0.14093426885E+03  0.16676477990E+03  0.47000000000E+01 0. -1.
         -5    1    3    3    0  503 -0.31837992913E+02 -0.26755178049E+02 -0.11096576954E+03  0.11859590783E+03  0.47000000000E+01 0. -1.
<mgrwt>
<rscale>  0 0.13407794E+03</rscale>
<asrwt>0</asrwt>
<pdfrwt beam="1">  1        5 0.12906261E-01 0.13407868E+03</pdfrwt>
<pdfrwt beam="2">  1       -5 0.51622449E-01 0.13407868E+03</pdfrwt>
<totfact> 0.13078265E+02</totfact>
</mgrwt>
</event>
<event>
 8    1  0.3754098E-007  0.1266849E+03  0.7546771E-02  0.1232463E+00
         -5   -1    0    0    0  501 -0.00000000000E+00  0.00000000000E+00  0.20508053257E+02  0.21039730235E+02  0.47000000000E+01 0.  1.
          5   -1    0    0  501    0  0.00000000000E+00 -0.00000000000E+00 -0.84166594766E+03  0.84167907034E+03  0.47000000000E+01 0.  1.
         25    2    1    2    0    0 -0.16061987912E+02  0.12842605382E+02 -0.28649507029E+03  0.31325466617E+03  0.12500456235E+03 0.  0.
         25    2    1    2    0    0  0.16061987912E+02 -0.12842605382E+02 -0.53466282412E+03  0.54946413441E+03  0.12499431803E+03 0.  0.
          5    1    3    3  502    0 -0.59932084095E+02 -0.27286125238E+02 -0.13053668596E+03  0.14628159049E+03  0.47000000000E+01 0. -1.
         -5    1    3    3    0  502  0.43870096182E+02  0.40128730619E+02 -0.15595838432E+03  0.16697307568E+03  0.47000000000E+01 0. -1.
          5    1    4    4  503    0 -0.12642755500E+02 -0.65265559902E+02 -0.27180709870E+03  0.27985821675E+03  0.47000000000E+01 0. -1.
         -5    1    4    4    0  503  0.28704743412E+02  0.52422954520E+02 -0.26285572541E+03  0.26960591766E+03  0.47000000000E+01 0. -1.
<mgrwt>
<rscale>  0 0.12668236E+03</rscale>
<asrwt>0</asrwt>
<pdfrwt beam="2">  1        5 0.12952895E+00 0.12668489E+03</pdfrwt>
<pdfrwt beam="1">  1       -5 0.31969934E-02 0.12668489E+03</pdfrwt>
<totfact> 0.15853209E+02</totfact>
</mgrwt>
</event>
<event>
 8    1  0.3754098E-007  0.2222769E+03  0.7546771E-02  0.1132197E+00
          5   -1    0    0  501    0  0.00000000000E+00  0.00000000000E+00  0.18975878425E+03  0.18981698080E+03  0.47000000000E+01 0. -1.
         -5   -1    0    0    0  501 -0.00000000000E+00 -0.00000000000E+00 -0.26026590155E+03  0.26030833546E+03  0.47000000000E+01 0. -1.
         25    2    1    2    0    0 -0.11278438456E+03  0.14512132712E+03 -0.33298081850E+02  0.22475712501E+03  0.12500594387E+03 0.  0.
         25    2    1    2    0    0  0.11278438456E+03 -0.14512132712E+03 -0.37209035444E+02  0.22536819125E+03  0.12500316926E+03 0.  0.
          5    1    4    4  502    0  0.70363791349E+02  0.29428253640E+00 -0.16328138766E+02  0.72386793345E+02  0.47000000000E+01 0.  1.
         -5    1    4    4    0  502  0.42420593213E+02 -0.14541560965E+03 -0.20880896678E+02  0.15298139790E+03  0.47000000000E+01 0.  1.
          5    1    3    3  503    0 -0.52026228755E+02  0.10143550496E+02  0.32874010769E+02  0.62549266017E+02  0.47000000000E+01 0.  1.
         -5    1    3    3    0  503 -0.60758155806E+02  0.13497777662E+03 -0.66172092619E+02  0.16220785899E+03  0.47000000000E+01 0.  1.
<mgrwt>
<rscale>  0 0.22227647E+03</rscale>
<asrwt>0</asrwt>
<pdfrwt beam="1">  1        5 0.29201400E-01 0.22227686E+03</pdfrwt>
<pdfrwt beam="2">  1       -5 0.40048649E-01 0.22227686E+03</pdfrwt>
<totfact> 0.56023694E+01</totfact>
</mgrwt>
</event>
<event>
 8    1  0.3754098E-007  0.1290270E+03  0.7546771E-02  0.1228907E+00
         -5   -1    0    0    0  501 -0.00000000000E+00  0.00000000000E+00  0.21154269317E+03  0.21159489841E+03  0.47000000000E+01 0. -1.
          5   -1    0    0  501    0  0.00000000000E+00 -0.00000000000E+00 -0.88690149632E+02  0.88814597008E+02  0.47000000000E+01 0. -1.
         25    2    1    2    0    0 -0.25492676748E+02  0.19308759348E+02  0.11212309881E+03  0.17093719289E+03  0.12500091948E+03 0.  0.
         25    2    1    2    0    0  0.25492676748E+02 -0.19308759348E+02  0.10729444723E+02  0.12947230253E+03  0.12500100553E+03 0.  0.
          5    1    4    4  502    0 -0.26240367444E+02  0.23901977453E+02  0.41854245398E+02  0.55079299811E+02  0.47000000000E+01 0.  1.
         -5    1    4    4    0  502  0.51733044192E+02 -0.43210736801E+02 -0.31124800675E+02  0.74393002717E+02  0.47000000000E+01 0.  1.
          5    1    3    3  503    0 -0.67348284284E+02  0.43629257167E+02  0.68932004988E+02  0.10589152369E+03  0.47000000000E+01 0.  1.
         -5    1    3    3    0  503  0.41855607536E+02 -0.24320497820E+02  0.43191093826E+02  0.65045669205E+02  0.47000000000E+01 0.  1.
<mgrwt>
<rscale>  0 0.12902694E+03</rscale>
<asrwt>0</asrwt>
<pdfrwt beam="2">  1        5 0.13658227E-01 0.12902696E+03</pdfrwt>
<pdfrwt beam="1">  1       -5 0.32558618E-01 0.12902696E+03</pdfrwt>
<totfact> 0.30034519E+02</totfact>
</mgrwt>
</event>
<event>
 8    1  0.3754098E-007  0.2065169E+03  0.7546771E-02  0.1144357E+00
          5   -1    0    0  501    0  0.00000000000E+00  0.00000000000E+00  0.35782722290E+03  0.35785808842E+03  0.47000000000E+01 0.  1.
         -5   -1    0    0    0  501 -0.00000000000E+00 -0.00000000000E+00 -0.13493825298E+03  0.13502008043E+03  0.47000000000E+01 0.  1.
         25    2    1    2    0    0 -0.15596582402E+03 -0.51856791777E+02  0.27049424232E+02  0.20826903517E+03  0.12501941667E+03 0.  0.
         25    2    1    2    0    0  0.15596582402E+03  0.51856791777E+02  0.19583954569E+03  0.28460913368E+03  0.12503905871E+03 0.  0.
          5    1    4    4  502    0  0.10883512296E+03  0.91862390985E+02  0.15399763994E+03  0.20981216832E+03  0.47000000000E+01 0. -1.
         -5    1    4    4    0  502  0.47130701060E+02 -0.40005599208E+02  0.41841905745E+02  0.74796965358E+02  0.47000000000E+01 0. -1.
          5    1    3    3  503    0 -0.96833287676E+02 -0.86095254572E+02 -0.10638488784E+02  0.13009360440E+03  0.47000000000E+01 0.  1.
         -5    1    3    3    0  503 -0.59132536343E+02  0.34238462795E+02  0.37687913015E+02  0.78175430772E+02  0.47000000000E+01 0.  1.
<mgrwt>
<rscale>  0 0.20651393E+03</rscale>
<asrwt>0</asrwt>
<pdfrwt beam="1">  1        5 0.55059010E-01 0.20651690E+03</pdfrwt>
<pdfrwt beam="2">  1       -5 0.20768400E-01 0.20651690E+03</pdfrwt>
<totfact> 0.54082916E+01</totfact>
</mgrwt>
</event>
<event>
 8    1  0.3754098E-007  0.1868240E+03  0.7546771E-02  0.1161361E+00
         -5   -1    0    0    0  501 -0.00000000000E+00  0.00000000000E+00  0.83565265067E+03  0.83566586778E+03  0.47000000000E+01 0.  1.
          5   -1    0    0  501    0  0.00000000000E+00 -0.00000000000E+00 -0.47828247932E+02  0.48058623578E+02  0.47000000000E+01 0.  1.
         25    2    1    2    0    0  0.94043558277E+02  0.10214670126E+03  0.55270786515E+03  0.58342881310E+03  0.12500022531E+03 0.  0.
         25    2    1    2    0    0 -0.94043558277E+02 -0.10214670126E+03  0.23511653759E+03  0.30029567826E+03  0.12497827292E+03 0.  0.
          5    1    4    4  502    0  0.30433964773E+02 -0.29106248639E+02  0.55801071374E+02  0.70066036623E+02  0.47000000000E+01 0.  1.
         -5    1    4    4    0  502 -0.12447752305E+03 -0.73040452618E+02  0.17931546622E+03  0.23022964164E+03  0.47000000000E+01 0.  1.
          5    1    3    3  503    0 -0.14618470304E+02  0.39967003071E+02  0.28081450299E+03  0.28405974037E+03  0.47000000000E+01 0. -1.
         -5    1    3    3    0  503  0.10866202858E+03  0.62179698186E+02  0.27189336215E+03  0.29936907273E+03  0.47000000000E+01 0. -1.
<mgrwt>
<rscale>  0 0.18682030E+03</rscale>
<asrwt>0</asrwt>
<pdfrwt beam="2">  1        5 0.73769300E-02 0.18682397E+03</pdfrwt>
<pdfrwt beam="1">  1       -5 0.12858068E+00 0.18682397E+03</pdfrwt>
<totfact> 0.45181855E+01</totfact>
</mgrwt>
</event>
<event>
 8    1  0.3754098E-007  0.2066861E+03  0.7546771E-02  0.1144219E+00
         -5   -1    0    0    0  501 -0.00000000000E+00  0.00000000000E+00  0.13887564014E+03  0.13895514897E+03  0.47000000000E+01 0.  1.
          5   -1    0    0  501    0  0.00000000000E+00 -0.00000000000E+00 -0.32761664669E+03  0.32765035814E+03  0.47000000000E+01 0.  1.
         25    2    1    2    0    0  0.15005080513E+03  0.67672673518E+02 -0.36445073843E+02  0.20987469434E+03  0.12499723619E+03 0.  0.
         25    2    1    2    0    0 -0.15005080513E+03 -0.67672673518E+02 -0.15229593271E+03  0.25673081277E+03  0.12498729635E+03 0.  0.
          5    1    3    3  502    0  0.74076735714E+02  0.54246053952E+02 -0.79373984526E+02  0.12145911478E+03  0.47000000000E+01 0. -1.
         -5    1    3    3    0  502  0.75974069412E+02  0.13426619566E+02  0.42928910683E+02  0.88415579557E+02  0.47000000000E+01 0. -1.
          5    1    4    4  503    0 -0.30605888426E+02 -0.60163758968E+02 -0.63969879502E+01  0.67966239813E+02  0.47000000000E+01 0.  1.
         -5    1    4    4    0  503 -0.11944491670E+03 -0.75089145499E+01 -0.14589894476E+03  0.18876457296E+03  0.47000000000E+01 0.  1.
<mgrwt>
<rscale>  0 0.20668460E+03</rscale>
<asrwt>0</asrwt>
<pdfrwt beam="2">  1        5 0.50411270E-01 0.20668610E+03</pdfrwt>
<pdfrwt beam="1">  1       -5 0.21374192E-01 0.20668610E+03</pdfrwt>
<totfact> 0.61954341E+01</totfact>
</mgrwt>
</event>
<event>
 8    1  0.3754098E-007  0.1376022E+03  0.7546771E-02  0.1216594E+00
         -5   -1    0    0    0  501 -0.00000000000E+00  0.00000000000E+00  0.56788010885E+02  0.56982174233E+02  0.47000000000E+01 0. -1.
          5   -1    0    0  501    0  0.00000000000E+00 -0.00000000000E+00 -0.33873333686E+03  0.33876594206E+03  0.47000000000E+01 0. -1.
         25    2    1    2    0    0  0.16072080569E+02  0.55226750267E+02 -0.11442409555E+03  0.17896153015E+03  0.12500419958E+03 0.  0.
         25    2    1    2    0    0 -0.16072080569E+02 -0.55226750267E+02 -0.16752123043E+03  0.21678658615E+03  0.12499902228E+03 0.  0.
          5    1    3    3  502    0 -0.27106984541E+02  0.67281694564E+02 -0.11237986332E+03  0.13383922711E+03  0.47000000000E+01 0.  1.
         -5    1    3    3    0  502  0.43179065110E+02 -0.12054944298E+02 -0.20442322284E+01  0.45122303035E+02  0.47000000000E+01 0.  1.
          5    1    4    4  503    0 -0.11115366339E+02  0.39537838956E+02 -0.37971045905E+02  0.56130939821E+02  0.47000000000E+01 0.  1.
         -5    1    4    4    0  503 -0.49567142299E+01 -0.94764589222E+02 -0.12955018453E+03  0.16065564633E+03  0.47000000000E+01 0.  1.
<mgrwt>
<rscale>  0 0.13760099E+03</rscale>
<asrwt>0</asrwt>
<pdfrwt beam="2">  1        5 0.52130263E-01 0.13760216E+03</pdfrwt>
<pdfrwt beam="1">  1       -5 0.87540611E-02 0.13760216E+03</pdfrwt>
<totfact> 0.25523922E+02</totfact>
</mgrwt>
</event>
<event>
 8    1  0.3754098E-007  0.1863722E+03  0.7546771E-02  0.1161777E+00
          5   -1    0    0  501    0  0.00000000000E+00  0.00000000000E+00  0.10983199261E+03  0.10993250930E+03  0.47000000000E+01 0.  1.
         -5   -1    0    0    0  501 -0.00000000000E+00 -0.00000000000E+00 -0.31689953927E+03  0.31693439067E+03  0.47000000000E+01 0.  1.
         25    2    1    2    0    0  0.21848111342E+02 -0.13643964161E+03 -0.11509114725E+03  0.21904466742E+03  0.12506589614E+03 0.  0.
         25    2    1    2    0    0 -0.21848111342E+02  0.13643964161E+03 -0.91976399406E+02  0.20782223256E+03  0.12504921641E+03 0.  0.
          5    1    3    3  502    0  0.54951458940E+02 -0.12345050477E+03 -0.48940611867E+02  0.14379486589E+03  0.47000000000E+01 0.  1.
         -5    1    3    3    0  502 -0.33103347599E+02 -0.12989136843E+02 -0.66150535384E+02  0.75249801526E+02  0.47000000000E+01 0.  1.
          5    1    4    4  503    0 -0.50594387295E+02  0.19759315761E+02 -0.64514292663E+02  0.84465416253E+02  0.47000000000E+01 0.  1.
         -5    1    4    4    0  503  0.28746275953E+02  0.11668032585E+03 -0.27462106743E+02  0.12335681630E+03  0.47000000000E+01 0.  1.
<mgrwt>
<rscale>  0 0.18636939E+03</rscale>
<asrwt>0</asrwt>
<pdfrwt beam="1">  1        5 0.16907643E-01 0.18637219E+03</pdfrwt>
<pdfrwt beam="2">  1       -5 0.48764188E-01 0.18637219E+03</pdfrwt>
<totfact> 0.10016514E+02</totfact>
</mgrwt>
</event>
<event>
 8    1  0.3754098E-007  0.1477130E+03  0.7546771E-02  0.1203314E+00
         -5   -1    0    0    0  501 -0.00000000000E+00  0.00000000000E+00  0.15833771559E+03  0.15840745620E+03  0.47000000000E+01 0.  1.
          5   -1    0    0  501    0  0.00000000000E+00 -0.00000000000E+00 -0.13779777705E+03  0.13787790744E+03  0.47000000000E+01 0.  1.
         25    2    1    2    0    0 -0.34944046471E+02 -0.70520540965E+02  0.15032568670E+02  0.14847590927E+03  0.12499953773E+03 0.  0.
         25    2    1    2    0    0  0.34944046471E+02  0.70520540965E+02  0.55073698742E+01  0.14780945436E+03  0.12499228214E+03 0.  0.
          5    1    4    4  502    0 -0.25614282223E+02  0.15849841613E+02  0.47105951966E+02  0.56110334552E+02  0.47000000000E+01 0. -1.
         -5    1    4    4    0  502  0.60558328694E+02  0.54670699351E+02 -0.41598582092E+02  0.91699119809E+02  0.47000000000E+01 0. -1.
          5    1    3    3  503    0  0.38703330527E+02 -0.61508121726E+02  0.13803166911E+02  0.74120268813E+02  0.47000000000E+01 0.  1.
         -5    1    3    3    0  503 -0.73647376998E+02 -0.90124192388E+01  0.12294017588E+01  0.74355640458E+02  0.47000000000E+01 0.  1.
<mgrwt>
<rscale>  0 0.14771142E+03</rscale>
<asrwt>0</asrwt>
<pdfrwt beam="2">  1        5 0.21211187E-01 0.14771296E+03</pdfrwt>
<pdfrwt beam="1">  1       -5 0.24371177E-01 0.14771296E+03</pdfrwt>
<totfact> 0.24656352E+02</totfact>
</mgrwt>
</event>
<event>
 8    1  0.3754098E-007  0.1341645E+03  0.7546771E-02  0.1221410E+00
          5   -1    0    0  501    0  0.00000000000E+00  0.00000000000E+00  0.73978785821E+02  0.74127935028E+02  0.47000000000E+01 0. -1.
         -5   -1    0    0    0  501 -0.00000000000E+00 -0.00000000000E+00 -0.27476342668E+03  0.27480362196E+03  0.47000000000E+01 0. -1.
         25    2    1    2    0    0  0.40011892684E+02  0.27751680508E+02 -0.15980971139E+03  0.20864951220E+03  0.12499747102E+03 0.  0.
         25    2    1    2    0    0 -0.40011892684E+02 -0.27751680508E+02 -0.40974929474E+02  0.14028204478E+03  0.12501599864E+03 0.  0.
          5    1    3    3  502    0 -0.19211869422E+01  0.70828259835E+02 -0.10742471595E+03  0.12877302880E+03  0.47000000000E+01 0. -1.
         -5    1    3    3    0  502  0.41933079626E+02 -0.43076579327E+02 -0.52384995437E+02  0.79876483400E+02  0.47000000000E+01 0. -1.
          5    1    4    4  503    0 -0.67381658528E+02 -0.58865303937E+02 -0.14179473192E+02  0.90711407076E+02  0.47000000000E+01 0. -1.
         -5    1    4    4    0  503  0.27369765844E+02  0.31113623429E+02 -0.26795456281E+02  0.49570637706E+02  0.47000000000E+01 0. -1.
<mgrwt>
<rscale>  0 0.13416016E+03</rscale>
<asrwt>0</asrwt>
<pdfrwt beam="1">  1        5 0.11395917E-01 0.13416448E+03</pdfrwt>
<pdfrwt beam="2">  1       -5 0.42285861E-01 0.13416448E+03</pdfrwt>
<totfact> 0.24775602E+02</totfact>
</mgrwt>
</event>
<event>
 8    1  0.3754098E-007  0.1427508E+03  0.7546771E-02  0.1209675E+00
         -5   -1    0    0    0  501 -0.00000000000E+00  0.00000000000E+00  0.17287398860E+03  0.17293786726E+03  0.47000000000E+01 0. -1.
          5   -1    0    0  501    0  0.00000000000E+00 -0.00000000000E+00 -0.11871067143E+03  0.11880367634E+03  0.47000000000E+01 0. -1.
         25    2    1    2    0    0 -0.15111283080E+02  0.67265635615E+02  0.40242029938E+02  0.14831455041E+03  0.12499907311E+03 0.  0.
         25    2    1    2    0    0  0.15111283080E+02 -0.67265635615E+02  0.13921287226E+02  0.14342699319E+03  0.12499793409E+03 0.  0.
          5    1    3    3  502    0  0.19191405870E+02  0.72691665015E+02  0.69627677397E+02  0.10257919712E+03  0.47000000000E+01 0.  1.
         -5    1    3    3    0  502 -0.34302688950E+02 -0.54260294003E+01 -0.29385647459E+02  0.45735353293E+02  0.47000000000E+01 0.  1.
          5    1    4    4  503    0  0.63341497423E+02 -0.52744094706E+02 -0.16785330660E+02  0.84249167043E+02  0.47000000000E+01 0.  1.
         -5    1    4    4    0  503 -0.48230214343E+02 -0.14521540908E+02  0.30706617886E+02  0.59177826151E+02  0.47000000000E+01 0.  1.
<mgrwt>
<rscale>  0 0.14275053E+03</rscale>
<asrwt>0</asrwt>
<pdfrwt beam="2">  1        5 0.18275248E-01 0.14275078E+03</pdfrwt>
<pdfrwt beam="1">  1       -5 0.26608066E-01 0.14275078E+03</pdfrwt>
<totfact> 0.27182590E+02</totfact>
</mgrwt>
</event>
<event>
 8    1  0.3754098E-007  0.2204776E+03  0.7546771E-02  0.1133535E+00
          5   -1    0    0  501    0  0.00000000000E+00  0.00000000000E+00  0.28565941598E+03  0.28569807828E+03  0.47000000000E+01 0. -1.
         -5   -1    0    0    0  501 -0.00000000000E+00 -0.00000000000E+00 -0.18015787518E+03  0.18021917209E+03  0.47000000000E+01 0. -1.
         25    2    1    2    0    0  0.15474567686E+03 -0.95073016703E+02 -0.23998758494E+01  0.22049069841E+03  0.12500114268E+03 0.  0.
         25    2    1    2    0    0 -0.15474567686E+03  0.95073016703E+02  0.10790141665E+03  0.24542655196E+03  0.12492547250E+03 0.  0.
          5    1    3    3  502    0  0.21207305621E+02 -0.70405150516E+02 -0.33750281599E+02  0.81042004780E+02  0.47000000000E+01 0.  1.
         -5    1    3    3    0  502  0.13353837124E+03 -0.24667866187E+02  0.31350405749E+02  0.13944869363E+03  0.47000000000E+01 0.  1.
          5    1    4    4  503    0 -0.16028412109E+03  0.68674489591E+02  0.50137403189E+02  0.18150216030E+03  0.47000000000E+01 0. -1.
         -5    1    4    4    0  503  0.55384442314E+01  0.26398527111E+02  0.57764013458E+02  0.63924391658E+02  0.47000000000E+01 0. -1.
<mgrwt>
<rscale>  0 0.22046691E+03</rscale>
<asrwt>0</asrwt>
<pdfrwt beam="1">  1        5 0.43955291E-01 0.22047764E+03</pdfrwt>
<pdfrwt beam="2">  1       -5 0.27724285E-01 0.22047764E+03</pdfrwt>
<totfact> 0.51021235E+01</totfact>
</mgrwt>
</event>
<event>
 8    1  0.3754098E-007  0.1504130E+03  0.7546771E-02  0.1199967E+00
          5   -1    0    0  501    0  0.00000000000E+00  0.00000000000E+00  0.67549330421E+03  0.67550965503E+03  0.47000000000E+01 0. -1.
         -5   -1    0    0    0  501 -0.00000000000E+00 -0.00000000000E+00 -0.33838795349E+02  0.34163636672E+02  0.47000000000E+01 0. -1.
         25    2    1    2    0    0  0.35619143266E+02 -0.75708698775E+02  0.27669750324E+03  0.31493579569E+03  0.12499006627E+03 0.  0.
         25    2    1    2    0    0 -0.35619143266E+02  0.75708698775E+02  0.36495700562E+03  0.39473749601E+03  0.12499417735E+03 0.  0.
          5    1    3    3  502    0  0.80076296077E+02 -0.38914375384E+02  0.19880837363E+03  0.21788391687E+03  0.47000000000E+01 0.  1.
         -5    1    3    3    0  502 -0.44457152811E+02 -0.36794323392E+02  0.77889129611E+02  0.97051878814E+02  0.47000000000E+01 0.  1.
          5    1    4    4  503    0 -0.69905648918E+01  0.23805321149E+02  0.28887837700E+00  0.25253410923E+02  0.47000000000E+01 0.  1.
         -5    1    4    4    0  503 -0.28628578374E+02  0.51903377627E+02  0.36466812724E+03  0.36948408509E+03  0.47000000000E+01 0.  1.
<mgrwt>
<rscale>  0 0.15041216E+03</rscale>
<asrwt>0</asrwt>
<pdfrwt beam="1">  1        5 0.10394829E+00 0.15041301E+03</pdfrwt>
<pdfrwt beam="2">  1       -5 0.52322141E-02 0.15041301E+03</pdfrwt>
<totfact> 0.13008905E+02</totfact>
</mgrwt>
</event>
<event>
 8    1  0.3754098E-007  0.1386667E+03  0.7546771E-02  0.1215135E+00
         -5   -1    0    0    0  501 -0.00000000000E+00  0.00000000000E+00  0.24918809799E+02  0.25358175837E+02  0.47000000000E+01 0.  1.
          5   -1    0    0  501    0  0.00000000000E+00 -0.00000000000E+00 -0.77006471525E+03  0.77007905807E+03  0.47000000000E+01 0.  1.
         25    2    1    2    0    0  0.31916240884E+00  0.60031198659E+02 -0.40653582667E+03  0.42953443872E+03  0.12499843598E+03 0.  0.
         25    2    1    2    0    0 -0.31916240884E+00 -0.60031198659E+02 -0.33861007878E+03  0.36590279519E+03  0.12499689356E+03 0.  0.
          5    1    4    4  502    0 -0.60365395243E+02 -0.31753276716E+02 -0.21378276856E+03  0.22444913379E+03  0.47000000000E+01 0.  1.
         -5    1    4    4    0  502  0.60046232834E+02 -0.28277921943E+02 -0.12482731022E+03  0.14145366140E+03  0.47000000000E+01 0.  1.
          5    1    3    3  503    0  0.51018785603E+02  0.51140459555E+02 -0.32523864140E+03  0.33319742939E+03  0.47000000000E+01 0.  1.
         -5    1    3    3    0  503 -0.50699623194E+02  0.88907391039E+01 -0.81297185267E+02  0.96337009328E+02  0.47000000000E+01 0.  1.
<mgrwt>
<rscale>  0 0.13866636E+03</rscale>
<asrwt>0</asrwt>
<pdfrwt beam="2">  1        5 0.11850638E+00 0.13866671E+03</pdfrwt>
<pdfrwt beam="1">  1       -5 0.38685643E-02 0.13866671E+03</pdfrwt>
<totfact> 0.15054885E+02</totfact>
</mgrwt>
</event>
<event>
 8    1  0.3754098E-007  0.1326205E+03  0.7546771E-02  0.1223623E+00
          5   -1    0    0  501    0  0.00000000000E+00  0.00000000000E+00  0.34213790459E+03  0.34217018537E+03  0.47000000000E+01 0. -1.
         -5   -1    0    0    0  501 -0.00000000000E+00 -0.00000000000E+00 -0.52924424150E+02  0.53132708115E+02  0.47000000000E+01 0. -1.
         25    2    1    2    0    0 -0.31513359535E+02  0.31203402935E+02  0.10963664141E+03  0.17207088736E+03  0.12498581101E+03 0.  0.
         25    2    1    2    0    0  0.31513359535E+02 -0.31203402935E+02  0.17957683903E+03  0.22323200613E+03  0.12497176985E+03 0.  0.
          5    1    4    4  502    0 -0.46153530214E+02 -0.19929849861E+02  0.96117158881E+02  0.10857230539E+03  0.47000000000E+01 0.  1.
         -5    1    4    4    0  502  0.77666889749E+02 -0.11273553075E+02  0.83459680147E+02  0.11465970073E+03  0.47000000000E+01 0.  1.
          5    1    3    3  503    0 -0.13934288244E+02  0.61628660588E+02  0.73125311107E+01  0.63779458339E+02  0.47000000000E+01 0. -1.
         -5    1    3    3    0  503 -0.17579071292E+02 -0.30425257653E+02  0.10232411030E+03  0.10829142902E+03  0.47000000000E+01 0. -1.
<mgrwt>
<rscale>  0 0.13261719E+03</rscale>
<asrwt>0</asrwt>
<pdfrwt beam="1">  1        5 0.52655105E-01 0.13262050E+03</pdfrwt>
<pdfrwt beam="2">  1       -5 0.81607243E-02 0.13262050E+03</pdfrwt>
<totfact> 0.27839682E+02</totfact>
</mgrwt>
</event>
<event>
 8    1  0.3754098E-007  0.1281168E+03  0.7546771E-02  0.1230278E+00
         -5   -1    0    0    0  501 -0.00000000000E+00  0.00000000000E+00  0.41189261794E+03  0.41191943231E+03  0.47000000000E+01 0. -1.
          5   -1    0    0  501    0  0.00000000000E+00 -0.00000000000E+00 -0.40350258153E+02  0.40623064053E+02  0.47000000000E+01 0. -1.
         25    2    1    2    0    0  0.26823183241E+02  0.82646761853E+01  0.21477936148E+03  0.25008815089E+03  0.12500448417E+03 0.  0.
         25    2    1    2    0    0 -0.26823183241E+02 -0.82646761853E+01  0.15676299830E+03  0.20245434548E+03  0.12500134533E+03 0.  0.
          5    1    4    4  502    0  0.22704001352E+02 -0.34990757805E+01  0.15023334163E+03  0.15205216916E+03  0.47000000000E+01 0.  1.
         -5    1    4    4    0  502 -0.49527184593E+02 -0.47656004048E+01  0.65296566701E+01  0.50402176314E+02  0.47000000000E+01 0.  1.
          5    1    3    3  503    0  0.23878404366E+02 -0.34263412423E+02  0.13279948382E+02  0.44075011684E+02  0.47000000000E+01 0.  1.
         -5    1    3    3    0  503  0.29447788752E+01  0.42528088608E+02  0.20149941310E+03  0.20601313920E+03  0.47000000000E+01 0.  1.
<mgrwt>
<rscale>  0 0.12811601E+03</rscale>
<asrwt>0</asrwt>
<pdfrwt beam="2">  1        5 0.62307800E-02 0.12811678E+03</pdfrwt>
<pdfrwt beam="1">  1       -5 0.63391140E-01 0.12811678E+03</pdfrwt>
<totfact> 0.29064279E+02</totfact>
</mgrwt>
</event>
<event>
 8    1  0.3754098E-007  0.1766839E+03  0.7546771E-02  0.1171052E+00
          5   -1    0    0  501    0  0.00000000000E+00  0.00000000000E+00  0.53429819424E+02  0.53636140835E+02  0.47000000000E+01 0.  1.
         -5   -1    0    0    0  501 -0.00000000000E+00 -0.00000000000E+00 -0.58295601028E+03  0.58297495652E+03  0.47000000000E+01 0.  1.
         25    2    1    2    0    0 -0.12442085093E+03 -0.10669173640E+02 -0.26217978755E+03  0.31615624043E+03  0.12498859128E+03 0.  0.
         25    2    1    2    0    0  0.12442085093E+03  0.10669173640E+02 -0.26734640331E+03  0.32045485692E+03  0.12499134591E+03 0.  0.
          5    1    4    4  502    0  0.14000081017E+03 -0.18357976521E+02 -0.23402340266E+03  0.27336108930E+03  0.47000000000E+01 0. -1.
         -5    1    4    4    0  502 -0.15579959248E+02  0.29027150161E+02 -0.33323000651E+02  0.47093767624E+02  0.47000000000E+01 0. -1.
          5    1    3    3  503    0 -0.95253425436E+02 -0.29550750370E+02 -0.26275983801E+03  0.28108945974E+03  0.47000000000E+01 0. -1.
         -5    1    3    3    0  503 -0.29167425489E+02  0.18881576729E+02  0.58005045928E+00  0.35066780690E+02  0.47000000000E+01 0. -1.
<mgrwt>
<rscale>  0 0.17668346E+03</rscale>
<asrwt>0</asrwt>
<pdfrwt beam="1">  1        5 0.82373009E-02 0.17668394E+03</pdfrwt>
<pdfrwt beam="2">  1       -5 0.89702864E-01 0.17668394E+03</pdfrwt>
<totfact> 0.90343168E+01</totfact>
</mgrwt>
</event>
<event>
 8    1  0.3754098E-007  0.2102789E+03  0.7546771E-02  0.1141346E+00
          5   -1    0    0  501    0  0.00000000000E+00  0.00000000000E+00  0.31749596180E+03  0.31753074774E+03  0.47000000000E+01 0. -1.
         -5   -1    0    0    0  501 -0.00000000000E+00 -0.00000000000E+00 -0.14017498142E+03  0.14025375366E+03  0.47000000000E+01 0. -1.
         25    2    1    2    0    0  0.62349946725E+01  0.16897414696E+03  0.69435772788E+02  0.22144651307E+03  0.12500437636E+03 0.  0.
         25    2    1    2    0    0 -0.62349946725E+01 -0.16897414696E+03  0.10788520759E+03  0.23633798833E+03  0.12500115685E+03 0.  0.
          5    1    4    4  502    0 -0.24184183786E+02 -0.17671660279E+03  0.11791676306E+03  0.21386931865E+03  0.47000000000E+01 0.  1.
         -5    1    4    4    0  502  0.17949189114E+02  0.77424558325E+01 -0.10031555477E+02  0.22468669686E+02  0.47000000000E+01 0.  1.
          5    1    3    3  503    0  0.17774160760E+02 -0.94028091178E+00  0.45904824253E+02  0.49458546366E+02  0.47000000000E+01 0. -1.
         -5    1    3    3    0  503 -0.11539166088E+02  0.16991442787E+03  0.23530948534E+02  0.17198796670E+03  0.47000000000E+01 0. -1.
<mgrwt>
<rscale>  0 0.21027846E+03</rscale>
<asrwt>0</asrwt>
<pdfrwt beam="1">  1        5 0.48854268E-01 0.21027894E+03</pdfrwt>
<pdfrwt beam="2">  1       -5 0.21574117E-01 0.21027894E+03</pdfrwt>
<totfact> 0.65377215E+01</totfact>
</mgrwt>
</event>
<event>
 8    1  0.3754098E-007  0.1618003E+03  0.7546771E-02  0.1186679E+00
         -5   -1    0    0    0  501 -0.00000000000E+00  0.00000000000E+00  0.17382889634E+04  0.17382953173E+04  0.47000000000E+01 0. -1.
          5   -1    0    0  501    0  0.00000000000E+00 -0.00000000000E+00 -0.14745398858E+02  0.15476329910E+02  0.47000000000E+01 0. -1.
         25    2    1    2    0    0 -0.72024895480E+02  0.73262123496E+02  0.80796940806E+03  0.82401071782E+03  0.12499669761E+03 0.  0.
         25    2    1    2    0    0  0.72024895480E+02 -0.73262123496E+02  0.91557415645E+03  0.92976092940E+03  0.12499770223E+03 0.  0.
          5    1    3    3  502    0 -0.35729705911E+02  0.16288243341E+02  0.66110539442E+03  0.66228721209E+03  0.47000000000E+01 0. -1.
         -5    1    3    3    0  502 -0.36295189569E+02  0.56973880155E+02  0.14686401363E+03  0.16172350573E+03  0.47000000000E+01 0. -1.
          5    1    4    4  503    0  0.16451009637E+02  0.11036063866E+02  0.20133663217E+02  0.28633630896E+02  0.47000000000E+01 0. -1.
         -5    1    4    4    0  503  0.55573885843E+02 -0.84298187362E+02  0.89544049324E+03  0.90112729850E+03  0.47000000000E+01 0. -1.
<mgrwt>
<rscale>  0 0.16180015E+03</rscale>
<asrwt>0</asrwt>
<pdfrwt beam="2">  1        5 0.23252380E-02 0.16180034E+03</pdfrwt>
<pdfrwt beam="1">  1       -5 0.26748569E+00 0.16180034E+03</pdfrwt>
<totfact> 0.30509648E+01</totfact>
</mgrwt>
</event>
<event>
 8    1  0.3754098E-007  0.1579688E+03  0.7546771E-02  0.1191011E+00
          5   -1    0    0  501    0  0.00000000000E+00  0.00000000000E+00  0.92441979718E+02  0.92561382953E+02  0.47000000000E+01 0.  1.
         -5   -1    0    0    0  501 -0.00000000000E+00 -0.00000000000E+00 -0.29867631801E+03  0.29871329555E+03  0.47000000000E+01 0.  1.
         25    2    1    2    0    0 -0.96579792993E+02 -0.77517714733E+00 -0.16411789520E+03  0.22778785649E+03  0.12499746687E+03 0.  0.
         25    2    1    2    0    0  0.96579792993E+02  0.77517714733E+00 -0.42116443086E+02  0.16348682202E+03  0.12500355547E+03 0.  0.
          5    1    4    4  502    0  0.36492976304E+02 -0.59085154418E+02 -0.35889745778E+02  0.78313195849E+02  0.47000000000E+01 0. -1.
         -5    1    4    4    0  502  0.60086816689E+02  0.59860331565E+02 -0.62266973085E+01  0.85173626166E+02  0.47000000000E+01 0. -1.
          5    1    3    3  503    0  0.17927088516E+02 -0.31142949822E+02 -0.59515237401E+02  0.69680824545E+02  0.47000000000E+01 0.  1.
         -5    1    3    3    0  503 -0.11450688151E+03  0.30367772675E+02 -0.10460265780E+03  0.15810703194E+03  0.47000000000E+01 0.  1.
<mgrwt>
<rscale>  0 0.15796761E+03</rscale>
<asrwt>0</asrwt>
<pdfrwt beam="1">  1        5 0.14233872E-01 0.15796881E+03</pdfrwt>
<pdfrwt beam="2">  1       -5 0.45962232E-01 0.15796881E+03</pdfrwt>
<totfact> 0.14787197E+02</totfact>
</mgrwt>
</event>
<event>
 8    1  0.3754098E-007  0.1415614E+03  0.7546771E-02  0.1211249E+00
         -5   -1    0    0    0  501 -0.00000000000E+00  0.00000000000E+00  0.22856661801E+03  0.22861493580E+03  0.47000000000E+01 0.  1.
          5   -1    0    0  501    0  0.00000000000E+00 -0.00000000000E+00 -0.11610549243E+03  0.11620058250E+03  0.47000000000E+01 0.  1.
         25    2    1    2    0    0 -0.41023689994E+02 -0.52261118966E+02  0.14167937733E+03  0.20027021138E+03  0.12498377458E+03 0.  0.
         25    2    1    2    0    0  0.41023689994E+02  0.52261118966E+02 -0.29218251750E+02  0.14454530692E+03  0.12500188727E+03 0.  0.
          5    1    4    4  502    0  0.46812317634E+02  0.32313826107E+02 -0.74885561390E+02  0.94156857130E+02  0.47000000000E+01 0.  1.
         -5    1    4    4    0  502 -0.57886276404E+01  0.19947292859E+02  0.45667309640E+02  0.50388449789E+02  0.47000000000E+01 0.  1.
          5    1    3    3  503    0  0.99883488596E+01 -0.30250399939E+02 -0.13846145126E+02  0.35052240217E+02  0.47000000000E+01 0.  1.
         -5    1    3    3    0  503 -0.51012038854E+02 -0.22010719027E+02  0.15552552245E+03  0.16521797116E+03  0.47000000000E+01 0.  1.
<mgrwt>
<rscale>  0 0.14155744E+03</rscale>
<asrwt>0</asrwt>
<pdfrwt beam="2">  1        5 0.17873415E-01 0.14156143E+03</pdfrwt>
<pdfrwt beam="1">  1       -5 0.35175127E-01 0.14156143E+03</pdfrwt>
<totfact> 0.16300479E+02</totfact>
</mgrwt>
</event>
<event>
 8    1  0.3754098E-007  0.1746354E+03  0.7546771E-02  0.1173105E+00
         -5   -1    0    0    0  501 -0.00000000000E+00  0.00000000000E+00  0.93961108620E+02  0.94078583818E+02  0.47000000000E+01 0.  1.
          5   -1    0    0  501    0  0.00000000000E+00 -0.00000000000E+00 -0.34253625175E+03  0.34256849499E+03  0.47000000000E+01 0.  1.
         25    2    1    2    0    0  0.11045558620E+03  0.51601547255E+02 -0.73782170776E+02  0.18958197665E+03  0.12503743817E+03 0.  0.
         25    2    1    2    0    0 -0.11045558620E+03 -0.51601547255E+02 -0.17479297235E+03  0.24706510216E+03  0.12500170127E+03 0.  0.
          5    1    3    3  502    0  0.77241542307E+02 -0.31284613585E+02 -0.22271036631E+02  0.86389073254E+02  0.47000000000E+01 0.  1.
         -5    1    3    3    0  502  0.33214043893E+02  0.82886160840E+02 -0.51511134145E+02  0.10319290340E+03  0.47000000000E+01 0.  1.
          5    1    4    4  503    0 -0.11035477053E+03  0.72550543380E+01 -0.84842869119E+02  0.13946760783E+03  0.47000000000E+01 0. -1.
         -5    1    4    4    0  503 -0.10081566700E+00 -0.58856601593E+02 -0.89950103232E+02  0.10759749433E+03  0.47000000000E+01 0. -1.
<mgrwt>
<rscale>  0 0.17462899E+03</rscale>
<asrwt>0</asrwt>
<pdfrwt beam="2">  1        5 0.52709401E-01 0.17463538E+03</pdfrwt>
<pdfrwt beam="1">  1       -5 0.14467072E-01 0.17463538E+03</pdfrwt>
<totfact> 0.11066493E+02</totfact>
</mgrwt>
</event>
<event>
 8    1  0.3754098E-007  0.1287178E+03  0.7546771E-02  0.1229372E+00
          5   -1    0    0  501    0  0.00000000000E+00  0.00000000000E+00  0.97153649000E+02  0.97267268462E+02  0.47000000000E+01 0.  1.
         -5   -1    0    0    0  501 -0.00000000000E+00 -0.00000000000E+00 -0.18590713551E+03  0.18596653740E+03  0.47000000000E+01 0.  1.
         25    2    1    2    0    0  0.27214477415E+02 -0.14231092969E+02 -0.85405362873E+02  0.15447243699E+03  0.12499802397E+03 0.  0.
         25    2    1    2    0    0 -0.27214477415E+02  0.14231092969E+02 -0.33481236334E+01  0.12876136887E+03  0.12500051357E+03 0.  0.
          5    1    4    4  502    0 -0.36488546822E+02  0.35767721364E+02  0.49162203091E+02  0.71061636298E+02  0.47000000000E+01 0. -1.
         -5    1    4    4    0  502  0.92740694066E+01 -0.21536628395E+02 -0.52510326724E+02  0.57699732570E+02  0.47000000000E+01 0. -1.
          5    1    3    3  503    0 -0.22802925448E+02 -0.42114411117E+02 -0.84225607438E+02  0.97003298816E+02  0.47000000000E+01 0. -1.
         -5    1    3    3    0  503  0.50017402863E+02  0.27883318148E+02 -0.11797554348E+01  0.57469138178E+02  0.47000000000E+01 0. -1.
<mgrwt>
<rscale>  0 0.12871723E+03</rscale>
<asrwt>0</asrwt>
<pdfrwt beam="1">  1        5 0.14960025E-01 0.12871783E+03</pdfrwt>
<pdfrwt beam="2">  1       -5 0.28614407E-01 0.12871783E+03</pdfrwt>
<totfact> 0.32829071E+02</totfact>
</mgrwt>
</event>
<event>
 8    1  0.3754098E-007  0.1442522E+03  0.7546771E-02  0.1207719E+00
          5   -1    0    0  501    0  0.00000000000E+00  0.00000000000E+00  0.56120365452E+03  0.56122333509E+03  0.47000000000E+01 0.  1.
         -5   -1    0    0    0  501 -0.00000000000E+00 -0.00000000000E+00 -0.48781953254E+02  0.49007845936E+02  0.47000000000E+01 0.  1.
         25    2    1    2    0    0 -0.70365977521E+02  0.15238230157E+02  0.10611710738E+03  0.17907908176E+03  0.12499961038E+03 0.  0.
         25    2    1    2    0    0  0.70365977521E+02 -0.15238230157E+02  0.40630459389E+03  0.43115209926E+03  0.12500054093E+03 0.  0.
          5    1    4    4  502    0 -0.21946260365E+02 -0.28943281001E+02  0.21668936366E+03  0.21976287718E+03  0.47000000000E+01 0.  1.
         -5    1    4    4    0  502  0.92312237886E+02  0.13705050844E+02  0.18961523022E+03  0.21138922209E+03  0.47000000000E+01 0.  1.
          5    1    3    3  503    0 -0.47691873109E+02 -0.36761227982E+02  0.10618039926E+03  0.12215674288E+03  0.47000000000E+01 0.  1.
         -5    1    3    3    0  503 -0.22674104412E+02  0.51999458139E+02 -0.63291885980E-01  0.56922338879E+02  0.47000000000E+01 0.  1.
<mgrwt>
<rscale>  0 0.14425204E+03</rscale>
<asrwt>0</asrwt>
<pdfrwt beam="1">  1        5 0.86357922E-01 0.14425224E+03</pdfrwt>
<pdfrwt beam="2">  1       -5 0.75238055E-02 0.14425224E+03</pdfrwt>
<totfact> 0.10863693E+02</totfact>
</mgrwt>
</event>
<event>
 8    1  0.3754098E-007  0.1349127E+03  0.7546771E-02  0.1220346E+00
          5   -1    0    0  501    0  0.00000000000E+00  0.00000000000E+00  0.21702324027E+03  0.21707412747E+03  0.47000000000E+01 0.  1.
         -5   -1    0    0    0  501 -0.00000000000E+00 -0.00000000000E+00 -0.87474342565E+02  0.87600517162E+02  0.47000000000E+01 0.  1.
         25    2    1    2    0    0  0.40120067495E+02  0.31077439891E+02  0.33321200747E+02  0.13896668614E+03  0.12500404134E+03 0.  0.
         25    2    1    2    0    0 -0.40120067495E+02 -0.31077439891E+02  0.96227696959E+02  0.16570795849E+03  0.12499572297E+03 0.  0.
          5    1    3    3  502    0  0.43471094275E+02 -0.89553260470E+01  0.70885940273E+02  0.83766583018E+02  0.47000000000E+01 0.  1.
         -5    1    3    3    0  502 -0.33510267801E+01  0.40032765938E+02 -0.37564739527E+02  0.55200103123E+02  0.47000000000E+01 0.  1.
          5    1    4    4  503    0  0.11301125602E+02 -0.22818388855E+02  0.10887216754E+03  0.11190903973E+03  0.47000000000E+01 0.  1.
         -5    1    4    4    0  503 -0.51421193097E+02 -0.82590510357E+01 -0.12644470577E+02  0.53798918760E+02  0.47000000000E+01 0.  1.
<mgrwt>
<rscale>  0 0.13491078E+03</rscale>
<asrwt>0</asrwt>
<pdfrwt beam="1">  1        5 0.33401811E-01 0.13491270E+03</pdfrwt>
<pdfrwt beam="2">  1       -5 0.13471211E-01 0.13491270E+03</pdfrwt>
<totfact> 0.29729450E+02</totfact>
</mgrwt>
</event>
<event>
 8    1  0.3754098E-007  0.1499559E+03  0.7546771E-02  0.1200539E+00
         -5   -1    0    0    0  501 -0.00000000000E+00  0.00000000000E+00  0.27575146937E+03  0.27579152065E+03  0.47000000000E+01 0. -1.
          5   -1    0    0  501    0  0.00000000000E+00 -0.00000000000E+00 -0.85064910429E+02  0.85194653508E+02  0.47000000000E+01 0. -1.
         25    2    1    2    0    0 -0.48978751583E+02 -0.66794250130E+02  0.13272068642E+03  0.20025372933E+03  0.12500554207E+03 0.  0.
         25    2    1    2    0    0  0.48978751583E+02  0.66794250130E+02  0.57965872521E+02  0.16073244482E+03  0.12495793886E+03 0.  0.
          5    1    3    3  502    0 -0.20346825236E+02  0.22082886027E+02  0.94469137921E+02  0.99237871662E+02  0.47000000000E+01 0.  1.
         -5    1    3    3    0  502 -0.28631926347E+02 -0.88877136156E+02  0.38251548500E+02  0.10101585767E+03  0.47000000000E+01 0.  1.
          5    1    4    4  503    0 -0.31397593123E+02 -0.11692876475E+02 -0.84163697309E+00  0.33842732854E+02  0.47000000000E+01 0.  1.
         -5    1    4    4    0  503  0.80376344706E+02  0.78487126605E+02  0.58807509494E+02  0.12688971197E+03  0.47000000000E+01 0.  1.
<mgrwt>
<rscale>  0 0.14994599E+03</rscale>
<asrwt>0</asrwt>
<pdfrwt beam="2">  1        5 0.13099970E-01 0.14995591E+03</pdfrwt>
<pdfrwt beam="1">  1       -5 0.42436364E-01 0.14995591E+03</pdfrwt>
<totfact> 0.19929878E+02</totfact>
</mgrwt>
</event>
<event>
 8    1  0.3754098E-007  0.1703870E+03  0.7546771E-02  0.1177446E+00
         -5   -1    0    0    0  501 -0.00000000000E+00  0.00000000000E+00  0.45965829781E+02  0.46205492179E+02  0.47000000000E+01 0. -1.
          5   -1    0    0  501    0  0.00000000000E+00 -0.00000000000E+00 -0.63505421655E+03  0.63507160853E+03  0.47000000000E+01 0. -1.
         25    2    1    2    0    0  0.10069306247E+03 -0.57154521215E+02 -0.26323755275E+03  0.31356933786E+03  0.12500395330E+03 0.  0.
         25    2    1    2    0    0 -0.10069306247E+03  0.57154521215E+02 -0.32585083401E+03  0.36770776285E+03  0.12499800281E+03 0.  0.
          5    1    3    3  502    0  0.45604309128E+00 -0.59556802303E+02 -0.15417926847E+03  0.16534980346E+03  0.47000000000E+01 0.  1.
         -5    1    3    3    0  502  0.10023701938E+03  0.24022810876E+01 -0.10905828428E+03  0.14821953440E+03  0.47000000000E+01 0.  1.
          5    1    4    4  503    0  0.94254103890E+01  0.39856557883E+01  0.68735410542E+01  0.13193156548E+02  0.47000000000E+01 0.  1.
         -5    1    4    4    0  503 -0.11011847286E+03  0.53168865427E+02 -0.33272437507E+03  0.35451460630E+03  0.47000000000E+01 0.  1.
<mgrwt>
<rscale>  0 0.17038588E+03</rscale>
<asrwt>0</asrwt>
<pdfrwt beam="2">  1        5 0.97720416E-01 0.17038697E+03</pdfrwt>
<pdfrwt beam="1">  1       -5 0.70914400E-02 0.17038697E+03</pdfrwt>
<totfact> 0.94091942E+01</totfact>
</mgrwt>
</event>
<event>
 8    1  0.3754098E-007  0.1366164E+03  0.7546771E-02  0.1217956E+00
         -5   -1    0    0    0  501 -0.00000000000E+00  0.00000000000E+00  0.18530998354E+03  0.18536957679E+03  0.47000000000E+01 0.  1.
          5   -1    0    0  501    0  0.00000000000E+00 -0.00000000000E+00 -0.11190436915E+03  0.11200302600E+03  0.47000000000E+01 0.  1.
         25    2    1    2    0    0 -0.53165454041E+02 -0.14563997123E+02  0.83954417586E+02  0.16035078601E+03  0.12500141929E+03 0.  0.
         25    2    1    2    0    0  0.53165454041E+02  0.14563997123E+02 -0.10548803188E+02  0.13702181679E+03  0.12500010205E+03 0.  0.
          5    1    3    3  502    0  0.67320858028E+01  0.34308430650E+02  0.74368082805E+02  0.82310941758E+02  0.47000000000E+01 0.  1.
         -5    1    3    3    0  502 -0.59897539843E+02 -0.48872427773E+02  0.95863347809E+01  0.78039844248E+02  0.47000000000E+01 0.  1.
          5    1    4    4  503    0 -0.23220178603E+00 -0.46079529254E+02  0.20076665581E+02  0.50483060870E+02  0.47000000000E+01 0.  1.
         -5    1    4    4    0  503  0.53397655827E+02  0.60643526377E+02 -0.30625468769E+02  0.86538755922E+02  0.47000000000E+01 0.  1.
<mgrwt>
<rscale>  0 0.13661606E+03</rscale>
<asrwt>0</asrwt>
<pdfrwt beam="2">  1        5 0.17228230E-01 0.13661636E+03</pdfrwt>
<pdfrwt beam="1">  1       -5 0.28521401E-01 0.13661636E+03</pdfrwt>
<totfact> 0.26090731E+02</totfact>
</mgrwt>
</event>
<event>
 8    1  0.3754098E-007  0.1402917E+03  0.7546771E-02  0.1212946E+00
          5   -1    0    0  501    0  0.00000000000E+00  0.00000000000E+00  0.10907373117E+04  0.10907474378E+04  0.47000000000E+01 0. -1.
         -5   -1    0    0    0  501 -0.00000000000E+00 -0.00000000000E+00 -0.17841304946E+02  0.18449990845E+02  0.47000000000E+01 0. -1.
         25    2    1    2    0    0  0.63072334545E+02  0.84398356011E+01  0.49231809770E+03  0.51190984326E+03  0.12500091238E+03 0.  0.
         25    2    1    2    0    0 -0.63072334545E+02 -0.84398356011E+01  0.58057790901E+03  0.59728758537E+03  0.12502960047E+03 0.  0.
          5    1    4    4  502    0  0.30803880962E+02  0.25434307190E+02  0.15411991612E+03  0.15928220745E+03  0.47000000000E+01 0.  1.
         -5    1    4    4    0  502 -0.93876215507E+02 -0.33874142791E+02  0.42645799289E+03  0.43800537792E+03  0.47000000000E+01 0.  1.
          5    1    3    3  503    0  0.13656805927E+02 -0.50395820169E+02  0.10916471749E+03  0.12110025840E+03  0.47000000000E+01 0. -1.
         -5    1    3    3    0  503  0.49415528618E+02  0.58835655770E+02  0.38315338020E+03  0.39080958486E+03  0.47000000000E+01 0. -1.
<mgrwt>
<rscale>  0 0.14028527E+03</rscale>
<asrwt>0</asrwt>
<pdfrwt beam="1">  1        5 0.16785335E+00 0.14029166E+03</pdfrwt>
<pdfrwt beam="2">  1       -5 0.27924169E-02 0.14029166E+03</pdfrwt>
<totfact> 0.10082774E+02</totfact>
</mgrwt>
</event>
<event>
 8    1  0.3754098E-007  0.1507058E+03  0.7546771E-02  0.1199616E+00
         -5   -1    0    0    0  501 -0.00000000000E+00  0.00000000000E+00  0.25795552011E+02  0.26220230806E+02  0.47000000000E+01 0.  1.
          5   -1    0    0  501    0  0.00000000000E+00 -0.00000000000E+00 -0.89052115464E+03  0.89053355740E+03  0.47000000000E+01 0.  1.
         25    2    1    2    0    0  0.45818002190E+02  0.70579670049E+02 -0.36752393028E+03  0.39721386997E+03  0.12499696004E+03 0.  0.
         25    2    1    2    0    0 -0.45818002190E+02 -0.70579670049E+02 -0.49720167235E+03  0.51953991824E+03  0.12502577537E+03 0.  0.
          5    1    4    4  502    0  0.31072736086E+02 -0.97902348397E+01 -0.39405093513E+02  0.51344084575E+02  0.47000000000E+01 0.  1.
         -5    1    4    4    0  502 -0.76890738276E+02 -0.60789435209E+02 -0.45779657884E+03  0.46819583367E+03  0.47000000000E+01 0.  1.
          5    1    3    3  503    0  0.49674643859E+02  0.76948404858E+02 -0.37475927400E+03  0.38581761326E+03  0.47000000000E+01 0.  1.
         -5    1    3    3    0  503 -0.38566416689E+01 -0.63687348091E+01  0.72353437266E+01  0.11396256704E+02  0.47000000000E+01 0.  1.
<mgrwt>
<rscale>  0 0.15069978E+03</rscale>
<asrwt>0</asrwt>
<pdfrwt beam="2">  1        5 0.13703685E+00 0.15070575E+03</pdfrwt>
<pdfrwt beam="1">  1       -5 0.40021688E-02 0.15070575E+03</pdfrwt>
<totfact> 0.10026378E+02</totfact>
</mgrwt>
</event>
<event>
 8    1  0.3754098E-007  0.1528333E+03  0.7546771E-02  0.1197039E+00
          5   -1    0    0  501    0  0.00000000000E+00  0.00000000000E+00  0.83218987571E+01  0.95574054494E+01  0.47000000000E+01 0.  1.
         -5   -1    0    0    0  501 -0.00000000000E+00 -0.00000000000E+00 -0.26557091152E+04  0.26557132742E+04  0.47000000000E+01 0.  1.
         25    2    1    2    0    0 -0.56336269844E+02  0.67513663801E+02 -0.14959466844E+04  0.15037335191E+04  0.12500457502E+03 0.  0.
         25    2    1    2    0    0  0.56336269844E+02 -0.67513663801E+02 -0.11514405321E+04  0.11615371606E+04  0.12498562451E+03 0.  0.
          5    1    3    3  502    0 -0.14897204474E+02  0.93430593734E+02 -0.12007770695E+04  0.12045077265E+04  0.47000000000E+01 0. -1.
         -5    1    3    3    0  502 -0.41439065370E+02 -0.25916929933E+02 -0.29516961486E+03  0.29922579256E+03  0.47000000000E+01 0. -1.
          5    1    4    4  503    0  0.19425440027E+02  0.34764222528E+02 -0.20717134511E+03  0.21101648069E+03  0.47000000000E+01 0.  1.
         -5    1    4    4    0  503  0.36910829817E+02 -0.10227788633E+03 -0.94426918701E+03  0.95052067990E+03  0.47000000000E+01 0.  1.
<mgrwt>
<rscale>  0 0.15282941E+03</rscale>
<asrwt>0</asrwt>
<pdfrwt beam="1">  1        5 0.13756531E-02 0.15283329E+03</pdfrwt>
<pdfrwt beam="2">  1       -5 0.40866536E+00 0.15283329E+03</pdfrwt>
<totfact> 0.81037053E+00</totfact>
</mgrwt>
</event>
<event>
 8    1  0.3754098E-007  0.1316110E+03  0.7546771E-02  0.1225087E+00
         -5   -1    0    0    0  501 -0.00000000000E+00  0.00000000000E+00  0.16939476665E+03  0.16945995683E+03  0.47000000000E+01 0. -1.
          5   -1    0    0  501    0  0.00000000000E+00 -0.00000000000E+00 -0.10753508355E+03  0.10763774521E+03  0.47000000000E+01 0. -1.
         25    2    1    2    0    0 -0.26382237100E+02  0.31603662465E+02  0.62023349001E+02  0.14548656231E+03  0.12499852030E+03 0.  0.
         25    2    1    2    0    0  0.26382237100E+02 -0.31603662465E+02 -0.16366590366E+00  0.13161113973E+03  0.12500660542E+03 0.  0.
          5    1    3    3  502    0 -0.74405159694E+02  0.24946582274E+02  0.55744182519E+02  0.96374081790E+02  0.47000000000E+01 0. -1.
         -5    1    3    3    0  502  0.48022922594E+02  0.66570801915E+01  0.62791664817E+01  0.49112480520E+02  0.47000000000E+01 0. -1.
          5    1    4    4  503    0 -0.19605115661E+02 -0.65531777564E+02 -0.19186202885E+02  0.71196733155E+02  0.47000000000E+01 0. -1.
         -5    1    4    4    0  503  0.45987352761E+02  0.33928115099E+02  0.19022536981E+02  0.60414406571E+02  0.47000000000E+01 0. -1.
<mgrwt>
<rscale>  0 0.13160912E+03</rscale>
<asrwt>0</asrwt>
<pdfrwt beam="2">  1        5 0.16556771E-01 0.13161104E+03</pdfrwt>
<pdfrwt beam="1">  1       -5 0.26073645E-01 0.13161104E+03</pdfrwt>
<totfact> 0.32956299E+02</totfact>
</mgrwt>
</event>
<event>
 8    1  0.3754098E-007  0.1845828E+03  0.7546771E-02  0.1163442E+00
          5   -1    0    0  501    0  0.00000000000E+00  0.00000000000E+00  0.17257738064E+03  0.17264136906E+03  0.47000000000E+01 0.  1.
         -5   -1    0    0    0  501 -0.00000000000E+00 -0.00000000000E+00 -0.20100820705E+03  0.20106314754E+03  0.47000000000E+01 0.  1.
         25    2    1    2    0    0  0.12587083983E+03  0.51008433369E+02 -0.39633033414E+02  0.18878206926E+03  0.12499025458E+03 0.  0.
         25    2    1    2    0    0 -0.12587083983E+03 -0.51008433369E+02  0.11202207009E+02  0.18492244734E+03  0.12500197395E+03 0.  0.
          5    1    3    3  502    0  0.50941109629E+02 -0.79995134975E+01 -0.71352947277E+02  0.88160773315E+02  0.47000000000E+01 0. -1.
         -5    1    3    3    0  502  0.74929730206E+02  0.59007946866E+02  0.31719913863E+02  0.10062129594E+03  0.47000000000E+01 0. -1.
          5    1    4    4  503    0 -0.12168358007E+02 -0.79423690915E+01 -0.47450567867E+02  0.49847733692E+02  0.47000000000E+01 0.  1.
         -5    1    4    4    0  503 -0.11370248183E+03 -0.43066064277E+02  0.58652774876E+02  0.13507471365E+03  0.47000000000E+01 0.  1.
<mgrwt>
<rscale>  0 0.18458085E+03</rscale>
<asrwt>0</asrwt>
<pdfrwt beam="1">  1        5 0.26559515E-01 0.18458283E+03</pdfrwt>
<pdfrwt beam="2">  1       -5 0.30933488E-01 0.18458283E+03</pdfrwt>
<totfact> 0.10810911E+02</totfact>
</mgrwt>
</event>
<event>
 8    1  0.3754098E-007  0.1517972E+03  0.7546771E-02  0.1198282E+00
         -5   -1    0    0    0  501 -0.00000000000E+00  0.00000000000E+00  0.40803303621E+02  0.41073100521E+02  0.47000000000E+01 0.  1.
          5   -1    0    0  501    0  0.00000000000E+00 -0.00000000000E+00 -0.60933106756E+03  0.60934919373E+03  0.47000000000E+01 0.  1.
         25    2    1    2    0    0 -0.62674198321E+02 -0.59078704196E+02 -0.19419443206E+03  0.24648191951E+03  0.12499404297E+03 0.  0.
         25    2    1    2    0    0  0.62674198321E+02  0.59078704196E+02 -0.37433333188E+03  0.40394037474E+03  0.12499613819E+03 0.  0.
          5    1    4    4  502    0  0.66072502020E+02  0.93918120644E+02 -0.25980101870E+03  0.28408598738E+03  0.47000000000E+01 0. -1.
         -5    1    4    4    0  502 -0.33983036983E+01 -0.34839416448E+02 -0.11453231318E+03  0.11985438736E+03  0.47000000000E+01 0. -1.
          5    1    3    3  503    0  0.37565472365E+02 -0.12569207971E+02 -0.66500807043E+02  0.77547385774E+02  0.47000000000E+01 0.  1.
         -5    1    3    3    0  503 -0.10023967069E+03 -0.46509496226E+02 -0.12769362502E+03  0.16893453374E+03  0.47000000000E+01 0.  1.
<mgrwt>
<rscale>  0 0.15179675E+03</rscale>
<asrwt>0</asrwt>
<pdfrwt beam="2">  1        5 0.93765383E-01 0.15179718E+03</pdfrwt>
<pdfrwt beam="1">  1       -5 0.62995797E-02 0.15179718E+03</pdfrwt>
<totfact> 0.12276420E+02</totfact>
</mgrwt>
</event>
<event>
 8    1  0.3754098E-007  0.1316792E+03  0.7546771E-02  0.1224989E+00
         -5   -1    0    0    0  501 -0.00000000000E+00  0.00000000000E+00  0.55438639668E+02  0.55637512240E+02  0.47000000000E+01 0. -1.
          5   -1    0    0  501    0  0.00000000000E+00 -0.00000000000E+00 -0.44671649827E+03  0.44674122243E+03  0.47000000000E+01 0. -1.
         25    2    1    2    0    0  0.27417466398E+02  0.31019936378E+02 -0.57711870505E+02  0.14376240985E+03  0.12499206604E+03 0.  0.
         25    2    1    2    0    0 -0.27417466398E+02 -0.31019936378E+02 -0.33356598809E+03  0.35861632482E+03  0.12500178440E+03 0.  0.
          5    1    4    4  502    0 -0.62214980383E+02 -0.58630490301E+02 -0.19337613081E+03  0.21148204686E+03  0.47000000000E+01 0.  1.
         -5    1    4    4    0  502  0.34797513985E+02  0.27610553924E+02 -0.14018985728E+03  0.14713427796E+03  0.47000000000E+01 0.  1.
          5    1    3    3  503    0  0.28313928385E+02 -0.15724299097E+02  0.29910695641E+02  0.44335897830E+02  0.47000000000E+01 0. -1.
         -5    1    3    3    0  503 -0.89646198667E+00  0.46744235475E+02 -0.87622566146E+02  0.99426512019E+02  0.47000000000E+01 0. -1.
<mgrwt>
<rscale>  0 0.13167685E+03</rscale>
<asrwt>0</asrwt>
<pdfrwt beam="2">  1        5 0.68742813E-01 0.13167916E+03</pdfrwt>
<pdfrwt beam="1">  1       -5 0.85462215E-02 0.13167916E+03</pdfrwt>
<totfact> 0.14313472E+02</totfact>
</mgrwt>
</event>
<event>
 8    1  0.3754098E-007  0.1297733E+03  0.7546771E-02  0.1227796E+00
         -5   -1    0    0    0  501 -0.00000000000E+00  0.00000000000E+00  0.19824139362E+03  0.19829710070E+03  0.47000000000E+01 0.  1.
          5   -1    0    0  501    0  0.00000000000E+00 -0.00000000000E+00 -0.11233015948E+03  0.11242844270E+03  0.47000000000E+01 0.  1.
         25    2    1    2    0    0  0.29265499685E+01 -0.34719405350E+02  0.11979264304E+03  0.17661086305E+03  0.12500847098E+03 0.  0.
         25    2    1    2    0    0 -0.29265499685E+01  0.34719405350E+02 -0.33881408898E+02  0.13411468035E+03  0.12499918326E+03 0.  0.
          5    1    3    3  502    0  0.32985287571E+01 -0.75843197789E+02  0.38188734656E+02  0.85108991285E+02  0.47000000000E+01 0. -1.
         -5    1    3    3    0  502 -0.37197878862E+00  0.41123792439E+02  0.81603908385E+02  0.91501871765E+02  0.47000000000E+01 0. -1.
          5    1    4    4  503    0  0.36603662827E+02 -0.33616645553E+02 -0.20211397507E+02  0.53856267786E+02  0.47000000000E+01 0.  1.
         -5    1    4    4    0  503 -0.39530212796E+02  0.68336050903E+02 -0.13670011391E+02  0.80258412569E+02  0.47000000000E+01 0.  1.
<mgrwt>
<rscale>  0 0.12977110E+03</rscale>
<asrwt>0</asrwt>
<pdfrwt beam="2">  1        5 0.17293409E-01 0.12977334E+03</pdfrwt>
<pdfrwt beam="1">  1       -5 0.30510521E-01 0.12977334E+03</pdfrwt>
<totfact> 0.22305809E+02</totfact>
</mgrwt>
</event>
<event>
 8    1  0.3754098E-007  0.1545191E+03  0.7546771E-02  0.1195046E+00
          5   -1    0    0  501    0  0.00000000000E+00  0.00000000000E+00  0.10396714852E+04  0.10396821087E+04  0.47000000000E+01 0.  1.
         -5   -1    0    0    0  501 -0.00000000000E+00 -0.00000000000E+00 -0.28531185898E+02  0.28915714910E+02  0.47000000000E+01 0.  1.
         25    2    1    2    0    0  0.71991800770E+02 -0.55354505824E+02  0.26605204678E+03  0.30766842104E+03  0.12501689894E+03 0.  0.
         25    2    1    2    0    0 -0.71991800770E+02  0.55354505824E+02  0.74508825256E+03  0.76092940260E+03  0.12494042955E+03 0.  0.
          5    1    3    3  502    0  0.95258819057E+02 -0.56433233505E+02  0.13585803140E+03  0.17532383508E+03  0.47000000000E+01 0.  1.
         -5    1    3    3    0  502 -0.23267018287E+02  0.10787276804E+01  0.13019401538E+03  0.13234458596E+03  0.47000000000E+01 0.  1.
          5    1    4    4  503    0  0.35561307075E+02  0.20164354565E+02  0.19042499210E+03  0.19482036693E+03  0.47000000000E+01 0.  1.
         -5    1    4    4    0  503 -0.10755310785E+03  0.35190151259E+02  0.55466326047E+03  0.56610903567E+03  0.47000000000E+01 0.  1.
<mgrwt>
<rscale>  0 0.15450368E+03</rscale>
<asrwt>0</asrwt>
<pdfrwt beam="1">  1        5 0.15997983E+00 0.15451914E+03</pdfrwt>
<pdfrwt beam="2">  1       -5 0.44198101E-02 0.15451914E+03</pdfrwt>
<totfact> 0.56224167E+01</totfact>
</mgrwt>
</event>
<event>
 8    1  0.3754098E-007  0.1656260E+03  0.7546771E-02  0.1182488E+00
         -5   -1    0    0    0  501 -0.00000000000E+00  0.00000000000E+00  0.71286317261E+02  0.71441087818E+02  0.47000000000E+01 0.  1.
          5   -1    0    0  501    0  0.00000000000E+00 -0.00000000000E+00 -0.39369686831E+03  0.39372492189E+03  0.47000000000E+01 0.  1.
         25    2    1    2    0    0  0.10080949462E+03 -0.40552378726E+02 -0.12512540271E+03  0.20757446868E+03  0.12499497597E+03 0.  0.
         25    2    1    2    0    0 -0.10080949462E+03  0.40552378726E+02 -0.19728514835E+03  0.25759154103E+03  0.12499969051E+03 0.  0.
          5    1    4    4  502    0 -0.46305182303E+02 -0.44182111397E+02 -0.66263167743E+02  0.92244925470E+02  0.47000000000E+01 0. -1.
         -5    1    4    4    0  502 -0.54504312320E+02  0.84734490123E+02 -0.13102198060E+03  0.16534661557E+03  0.47000000000E+01 0. -1.
          5    1    3    3  503    0  0.19585735652E+02 -0.74233847054E+02 -0.67528426951E+02  0.10235449934E+03  0.47000000000E+01 0. -1.
         -5    1    3    3    0  503  0.81223758971E+02  0.33681468328E+02 -0.57596975756E+02  0.10521996933E+03  0.47000000000E+01 0. -1.
<mgrwt>
<rscale>  0 0.16562511E+03</rscale>
<asrwt>0</asrwt>
<pdfrwt beam="2">  1        5 0.60582811E-01 0.16562600E+03</pdfrwt>
<pdfrwt beam="1">  1       -5 0.10981189E-01 0.16562600E+03</pdfrwt>
<totfact> 0.13175753E+02</totfact>
</mgrwt>
</event>
<event>
 8    1  0.3754098E-007  0.1793519E+03  0.7546771E-02  0.1168438E+00
          5   -1    0    0  501    0  0.00000000000E+00  0.00000000000E+00  0.11642311721E+03  0.11651794807E+03  0.47000000000E+01 0.  1.
         -5   -1    0    0    0  501 -0.00000000000E+00 -0.00000000000E+00 -0.27682137055E+03  0.27686126705E+03  0.47000000000E+01 0.  1.
         25    2    1    2    0    0 -0.12393958060E+03 -0.34239875399E+02 -0.90729606967E+02  0.20099493676E+03  0.12503485241E+03 0.  0.
         25    2    1    2    0    0  0.12393958060E+03  0.34239875399E+02 -0.69668646370E+02  0.19238427835E+03  0.12499840624E+03 0.  0.
          5    1    3    3  502    0 -0.21270987372E+02 -0.39367309310E+02 -0.87091355760E+02  0.98026701435E+02  0.47000000000E+01 0. -1.
         -5    1    3    3    0  502 -0.10266859323E+03  0.51274339114E+01 -0.36382512070E+01  0.10296823533E+03  0.47000000000E+01 0. -1.
          5    1    4    4  503    0  0.63092437563E+02  0.80645974504E+02 -0.43831909463E+02  0.11147984198E+03  0.47000000000E+01 0.  1.
         -5    1    4    4    0  503  0.60847143042E+02 -0.46406099106E+02 -0.25836736907E+02  0.80904436371E+02  0.47000000000E+01 0.  1.
<mgrwt>
<rscale>  0 0.17934555E+03</rscale>
<asrwt>0</asrwt>
<pdfrwt beam="1">  1        5 0.17921612E-01 0.17935190E+03</pdfrwt>
<pdfrwt beam="2">  1       -5 0.42598267E-01 0.17935190E+03</pdfrwt>
<totfact> 0.11813064E+02</totfact>
</mgrwt>
</event>
<event>
 8    1  0.3754098E-007  0.1649159E+03  0.7546771E-02  0.1183259E+00
         -5   -1    0    0    0  501 -0.00000000000E+00  0.00000000000E+00  0.30950951563E+04  0.30950987248E+04  0.47000000000E+01 0. -1.
          5   -1    0    0  501    0  0.00000000000E+00 -0.00000000000E+00 -0.10326068896E+02  0.11345382270E+02  0.47000000000E+01 0. -1.
         25    2    1    2    0    0 -0.10715577135E+03 -0.95731691831E+01  0.22182536059E+04  0.22243747644E+04  0.12498010726E+03 0.  0.
         25    2    1    2    0    0  0.10715577135E+03  0.95731691831E+01  0.86651548144E+03  0.88206934272E+03  0.12499296337E+03 0.  0.
          5    1    3    3  502    0 -0.10591445630E+03 -0.23659933669E+02  0.97510558602E+03  0.98113743094E+03  0.47000000000E+01 0. -1.
         -5    1    3    3    0  502 -0.12413150492E+01  0.14086764486E+02  0.12431480199E+04  0.12432373334E+04  0.47000000000E+01 0. -1.
          5    1    4    4  503    0 -0.79474803747E+01  0.22696147620E+02  0.36292601958E+02  0.43789502372E+02  0.47000000000E+01 0. -1.
         -5    1    4    4    0  503  0.11510325172E+03 -0.13122978437E+02  0.83022287948E+03  0.83827984034E+03  0.47000000000E+01 0. -1.
<mgrwt>
<rscale>  0 0.16491344E+03</rscale>
<asrwt>0</asrwt>
<pdfrwt beam="2">  1        5 0.16673103E-02 0.16491587E+03</pdfrwt>
<pdfrwt beam="1">  1       -5 0.47624686E+00 0.16491587E+03</pdfrwt>
<totfact> 0.19032980E+00</totfact>
</mgrwt>
</event>
<event>
 8    1  0.3754098E-007  0.1431878E+03  0.7546771E-02  0.1209105E+00
          5   -1    0    0  501    0  0.00000000000E+00  0.00000000000E+00  0.23772043403E+03  0.23776689163E+03  0.47000000000E+01 0. -1.
         -5   -1    0    0    0  501 -0.00000000000E+00 -0.00000000000E+00 -0.89642619563E+02  0.89765746486E+02  0.47000000000E+01 0. -1.
         25    2    1    2    0    0  0.66757871234E+02 -0.20536032252E+02  0.41621955179E+02  0.14910732624E+03  0.12498906189E+03 0.  0.
         25    2    1    2    0    0 -0.66757871234E+02  0.20536032252E+02  0.10645585929E+03  0.17842531188E+03  0.12499759978E+03 0.  0.
          5    1    3    3  502    0  0.34009395533E+02 -0.41594978071E+02 -0.34115802149E+02  0.63818172502E+02  0.47000000000E+01 0.  1.
         -5    1    3    3    0  502  0.32748475700E+02  0.21058945820E+02  0.75737757328E+02  0.85289153735E+02  0.47000000000E+01 0.  1.
          5    1    4    4  503    0  0.33655851351E+01  0.45190882484E+02  0.91847865814E+02  0.10252640381E+03  0.47000000000E+01 0. -1.
         -5    1    4    4    0  503 -0.70123456369E+02 -0.24654850233E+02  0.14607993474E+02  0.75898908071E+02  0.47000000000E+01 0. -1.
<mgrwt>
<rscale>  0 0.14318592E+03</rscale>
<asrwt>0</asrwt>
<pdfrwt beam="1">  1        5 0.36585419E-01 0.14318779E+03</pdfrwt>
<pdfrwt beam="2">  1       -5 0.13804217E-01 0.14318779E+03</pdfrwt>
<totfact> 0.24192096E+02</totfact>
</mgrwt>
</event>
<event>
 8    1  0.3754098E-007  0.1337259E+03  0.7546771E-02  0.1222033E+00
          5   -1    0    0  501    0  0.00000000000E+00  0.00000000000E+00  0.27974517282E+03  0.27978465239E+03  0.47000000000E+01 0. -1.
         -5   -1    0    0    0  501 -0.00000000000E+00 -0.00000000000E+00 -0.63875728119E+02  0.64048408588E+02  0.47000000000E+01 0. -1.
         25    2    1    2    0    0 -0.67681919923E+00 -0.47487584584E+02  0.10163538779E+03  0.16796534437E+03  0.12500830406E+03 0.  0.
         25    2    1    2    0    0  0.67681919923E+00  0.47487584584E+02  0.11423405691E+03  0.17586771661E+03  0.12499802084E+03 0.  0.
          5    1    4    4  502    0  0.11044614987E+02  0.63661566514E+02  0.51306379551E+01  0.64986090951E+02  0.47000000000E+01 0.  1.
         -5    1    4    4    0  502 -0.10367795788E+02 -0.16173981930E+02  0.10910341896E+03  0.11088162566E+03  0.47000000000E+01 0.  1.
          5    1    3    3  503    0 -0.43187741080E+02 -0.58688582007E+02  0.20955494802E+02  0.75965475053E+02  0.47000000000E+01 0. -1.
         -5    1    3    3    0  503  0.42510921881E+02  0.11200997423E+02  0.80679892986E+02  0.91999869319E+02  0.47000000000E+01 0. -1.
<mgrwt>
<rscale>  0 0.13372345E+03</rscale>
<asrwt>0</asrwt>
<pdfrwt beam="1">  1        5 0.43054039E-01 0.13372586E+03</pdfrwt>
<pdfrwt beam="2">  1       -5 0.98433550E-02 0.13372586E+03</pdfrwt>
<totfact> 0.30822848E+02</totfact>
</mgrwt>
</event>
<event>
 8    1  0.3754098E-007  0.1393225E+03  0.7546771E-02  0.1214244E+00
         -5   -1    0    0    0  501 -0.00000000000E+00  0.00000000000E+00  0.14639361993E+02  0.15375334779E+02  0.47000000000E+01 0. -1.
          5   -1    0    0  501    0  0.00000000000E+00 -0.00000000000E+00 -0.12933023903E+04  0.12933109305E+04  0.47000000000E+01 0. -1.
         25    2    1    2    0    0  0.16793421046E+02  0.59189723273E+02 -0.62468921330E+03  0.64003700442E+03  0.12500124595E+03 0.  0.
         25    2    1    2    0    0 -0.16793421046E+02 -0.59189723273E+02 -0.65397381504E+03  0.66864926081E+03  0.12499856356E+03 0.  0.
          5    1    4    4  502    0 -0.18059843702E+02  0.90766546678E+01 -0.49665308825E+03  0.49708643482E+03  0.47000000000E+01 0.  1.
         -5    1    4    4    0  502  0.12664226559E+01 -0.68266377941E+02 -0.15732072679E+03  0.17156282599E+03  0.47000000000E+01 0.  1.
          5    1    3    3  503    0  0.66493482071E+01  0.74357131752E+02 -0.17967054684E+03  0.19461960917E+03  0.47000000000E+01 0.  1.
         -5    1    3    3    0  503  0.10144072839E+02 -0.15167408479E+02 -0.44501866646E+03  0.44541739525E+03  0.47000000000E+01 0.  1.
<mgrwt>
<rscale>  0 0.13932188E+03</rscale>
<asrwt>0</asrwt>
<pdfrwt beam="2">  1        5 0.19902678E+00 0.13932248E+03</pdfrwt>
<pdfrwt beam="1">  1       -5 0.23094808E-02 0.13932248E+03</pdfrwt>
<totfact> 0.82220139E+01</totfact>
</mgrwt>
</event>
<event>
 8    1  0.3754098E-007  0.1284104E+03  0.7546771E-02  0.1229835E+00
          5   -1    0    0  501    0  0.00000000000E+00  0.00000000000E+00  0.37475780387E+02  0.37769354186E+02  0.47000000000E+01 0. -1.
         -5   -1    0    0    0  501 -0.00000000000E+00 -0.00000000000E+00 -0.44165600735E+03  0.44168101479E+03  0.47000000000E+01 0. -1.
         25    2    1    2    0    0  0.13830920847E+02  0.25930498267E+02 -0.18015597176E+03  0.22123320593E+03  0.12499708849E+03 0.  0.
         25    2    1    2    0    0 -0.13830920847E+02 -0.25930498267E+02 -0.22402425520E+03  0.25821716305E+03  0.12500220504E+03 0.  0.
          5    1    3    3  502    0 -0.15590608612E+02  0.29963142242E+02 -0.18725938993E+03  0.19033923948E+03  0.47000000000E+01 0.  1.
         -5    1    3    3    0  502  0.29421529459E+02 -0.40326439753E+01  0.71034181643E+01  0.30893966446E+02  0.47000000000E+01 0.  1.
          5    1    4    4  503    0  0.55622468255E+02 -0.10753494023E+02 -0.90488231040E+02  0.10686302712E+03  0.47000000000E+01 0. -1.
         -5    1    4    4    0  503 -0.69453389102E+02 -0.15177004244E+02 -0.13353602416E+03  0.15135413593E+03  0.47000000000E+01 0. -1.
<mgrwt>
<rscale>  0 0.12840918E+03</rscale>
<asrwt>0</asrwt>
<pdfrwt beam="1">  1        5 0.57900112E-02 0.12841042E+03</pdfrwt>
<pdfrwt beam="2">  1       -5 0.67971580E-01 0.12841042E+03</pdfrwt>
<totfact> 0.28175565E+02</totfact>
</mgrwt>
</event>
<event>
 8    1  0.3754098E-007  0.1515458E+03  0.7546771E-02  0.1198589E+00
          5   -1    0    0  501    0  0.00000000000E+00  0.00000000000E+00  0.61284756341E+02  0.61464716381E+02  0.47000000000E+01 0.  1.
         -5   -1    0    0    0  501 -0.00000000000E+00 -0.00000000000E+00 -0.37789382034E+03  0.37792304700E+03  0.47000000000E+01 0.  1.
         25    2    1    2    0    0  0.82785061712E+02  0.22045408874E+02 -0.18065888510E+03  0.23579851720E+03  0.12499576575E+03 0.  0.
         25    2    1    2    0    0 -0.82785061712E+02 -0.22045408874E+02 -0.13595017891E+03  0.20358924618E+03  0.12500705388E+03 0.  0.
          5    1    3    3  502    0 -0.26307706303E+02 -0.58493203531E+01 -0.61153145656E+01  0.28032071486E+02  0.47000000000E+01 0. -1.
         -5    1    3    3    0  502  0.10909276802E+03  0.27894729227E+02 -0.17454357053E+03  0.20776644572E+03  0.47000000000E+01 0. -1.
          5    1    4    4  503    0 -0.85512264469E+02  0.18009896475E+02 -0.33945727602E+02  0.93867492606E+02  0.47000000000E+01 0. -1.
         -5    1    4    4    0  503  0.27272027572E+01 -0.40055305349E+02 -0.10200445130E+03  0.10972175357E+03  0.47000000000E+01 0. -1.
<mgrwt>
<rscale>  0 0.15154347E+03</rscale>
<asrwt>0</asrwt>
<pdfrwt beam="1">  1        5 0.94445156E-02 0.15154580E+03</pdfrwt>
<pdfrwt beam="2">  1       -5 0.58153601E-01 0.15154580E+03</pdfrwt>
<totfact> 0.18251561E+02</totfact>
</mgrwt>
</event>
<event>
 8    1  0.3754098E-007  0.1642493E+03  0.7546771E-02  0.1183987E+00
          5   -1    0    0  501    0  0.00000000000E+00  0.00000000000E+00  0.65741945557E+03  0.65743625589E+03  0.47000000000E+01 0.  1.
         -5   -1    0    0    0  501 -0.00000000000E+00 -0.00000000000E+00 -0.41342234644E+02  0.41608537169E+02  0.47000000000E+01 0.  1.
         25    2    1    2    0    0  0.96624493255E+02 -0.44877835101E+02  0.27113391921E+03  0.31699282059E+03  0.12498213225E+03 0.  0.
         25    2    1    2    0    0 -0.96624493255E+02  0.44877835101E+02  0.34494330172E+03  0.38205197247E+03  0.12501006155E+03 0.  0.
          5    1    3    3  502    0  0.12241109680E+03 -0.57137290305E+02  0.21857390922E+03  0.25699375548E+03  0.47000000000E+01 0.  1.
         -5    1    3    3    0  502 -0.25786603547E+02  0.12259455203E+02  0.52560009987E+02  0.59999065111E+02  0.47000000000E+01 0.  1.
          5    1    4    4  503    0 -0.41004238197E+02  0.24390760511E+02  0.30873584074E+03  0.31243585919E+03  0.47000000000E+01 0. -1.
         -5    1    4    4    0  503 -0.55620255058E+02  0.20487074590E+02  0.36207460972E+02  0.69616113279E+02  0.47000000000E+01 0. -1.
<mgrwt>
<rscale>  0 0.16424397E+03</rscale>
<asrwt>0</asrwt>
<pdfrwt beam="1">  1        5 0.10116323E+00 0.16424929E+03</pdfrwt>
<pdfrwt beam="2">  1       -5 0.63821210E-02 0.16424929E+03</pdfrwt>
<totfact> 0.10233308E+02</totfact>
</mgrwt>
</event>
<event>
 8    1  0.3754098E-007  0.1388235E+03  0.7546771E-02  0.1214921E+00
          5   -1    0    0  501    0  0.00000000000E+00  0.00000000000E+00  0.79073133558E+02  0.79212691222E+02  0.47000000000E+01 0. -1.
         -5   -1    0    0    0  501 -0.00000000000E+00 -0.00000000000E+00 -0.25496432143E+03  0.25500763754E+03  0.47000000000E+01 0. -1.
         25    2    1    2    0    0  0.93385889504E+01 -0.59667003324E+02 -0.52285037816E+02  0.14834312351E+03  0.12499838632E+03 0.  0.
         25    2    1    2    0    0 -0.93385889504E+01  0.59667003324E+02 -0.12360615006E+03  0.18587720526E+03  0.12499797827E+03 0.  0.
          5    1    3    3  502    0  0.36545066234E+02 -0.76814205828E+02 -0.70945461526E+02  0.11086619230E+03  0.47000000000E+01 0. -1.
         -5    1    3    3    0  502 -0.27206477284E+02  0.17147202504E+02  0.18660423710E+02  0.37476931210E+02  0.47000000000E+01 0. -1.
          5    1    4    4  503    0 -0.26671010631E+01 -0.24554361855E+02 -0.92288249754E+02  0.95651665730E+02  0.47000000000E+01 0.  1.
         -5    1    4    4    0  503 -0.66714878873E+01  0.84221365179E+02 -0.31317900304E+02  0.90225539525E+02  0.47000000000E+01 0.  1.
<mgrwt>
<rscale>  0 0.13882338E+03</rscale>
<asrwt>0</asrwt>
<pdfrwt beam="1">  1        5 0.12179165E-01 0.13882347E+03</pdfrwt>
<pdfrwt beam="2">  1       -5 0.39239347E-01 0.13882347E+03</pdfrwt>
<totfact> 0.25976182E+02</totfact>
</mgrwt>
</event>
<event>
 8    1  0.3754098E-007  0.1449517E+03  0.7546771E-02  0.1206819E+00
          5   -1    0    0  501    0  0.00000000000E+00  0.00000000000E+00  0.55982686504E+03  0.55984659401E+03  0.47000000000E+01 0.  1.
         -5   -1    0    0    0  501 -0.00000000000E+00 -0.00000000000E+00 -0.37558411187E+02  0.37851344109E+02  0.47000000000E+01 0.  1.
         25    2    1    2    0    0 -0.40090666440E+02  0.61455996641E+02  0.28267117744E+03  0.31766964420E+03  0.12500762871E+03 0.  0.
         25    2    1    2    0    0  0.40090666440E+02 -0.61455996641E+02  0.23959727642E+03  0.28002829391E+03  0.12499955786E+03 0.  0.
          5    1    4    4  502    0 -0.37525254403E+02 -0.47716028241E+01  0.12343628493E+03  0.12918792261E+03  0.47000000000E+01 0.  1.
         -5    1    4    4    0  502  0.77615920843E+02 -0.56684393817E+02  0.11616099149E+03  0.15084037130E+03  0.47000000000E+01 0.  1.
          5    1    3    3  503    0 -0.64802570493E+02  0.40600363141E+02  0.74209570040E+02  0.10666261255E+03  0.47000000000E+01 0. -1.
         -5    1    3    3    0  503  0.24711904053E+02  0.20855633500E+02  0.20846160740E+03  0.21100703166E+03  0.47000000000E+01 0. -1.
<mgrwt>
<rscale>  0 0.14495000E+03</rscale>
<asrwt>0</asrwt>
<pdfrwt beam="1">  1        5 0.86151254E-01 0.14495174E+03</pdfrwt>
<pdfrwt beam="2">  1       -5 0.58022685E-02 0.14495174E+03</pdfrwt>
<totfact> 0.16988074E+02</totfact>
</mgrwt>
</event>
<event>
 8    1  0.3754098E-007  0.1318111E+03  0.7546771E-02  0.1224794E+00
          5   -1    0    0  501    0  0.00000000000E+00  0.00000000000E+00  0.23602832684E+03  0.23607511743E+03  0.47000000000E+01 0. -1.
         -5   -1    0    0    0  501 -0.00000000000E+00 -0.00000000000E+00 -0.73488995059E+02  0.73639136299E+02  0.47000000000E+01 0. -1.
         25    2    1    2    0    0  0.18811295382E+02  0.37348257830E+02  0.79577956203E+02  0.15397022446E+03  0.12500168683E+03 0.  0.
         25    2    1    2    0    0 -0.18811295382E+02 -0.37348257830E+02  0.82961375574E+02  0.15574402926E+03  0.12499942247E+03 0.  0.
          5    1    4    4  502    0  0.12539546972E+02 -0.78223330333E+02  0.58078049346E+02  0.98342663491E+02  0.47000000000E+01 0. -1.
         -5    1    4    4    0  502 -0.31350842354E+02  0.40875072503E+02  0.24883326227E+02  0.57401365773E+02  0.47000000000E+01 0. -1.
          5    1    3    3  503    0 -0.39299361445E+02  0.46710008595E+02  0.88913686231E+01  0.61866074298E+02  0.47000000000E+01 0.  1.
         -5    1    3    3    0  503  0.58110656827E+02 -0.93617507657E+01  0.70686587580E+02  0.92104150167E+02  0.47000000000E+01 0.  1.
<mgrwt>
<rscale>  0 0.13181061E+03</rscale>
<asrwt>0</asrwt>
<pdfrwt beam="1">  1        5 0.36327199E-01 0.13181115E+03</pdfrwt>
<pdfrwt beam="2">  1       -5 0.11321148E-01 0.13181115E+03</pdfrwt>
<totfact> 0.33945018E+02</totfact>
</mgrwt>
</event>
<event>
 8    1  0.3754098E-007  0.1314737E+03  0.7546771E-02  0.1225290E+00
          5   -1    0    0  501    0  0.00000000000E+00  0.00000000000E+00  0.20945187308E+03  0.20950459932E+03  0.47000000000E+01 0.  1.
         -5   -1    0    0    0  501 -0.00000000000E+00 -0.00000000000E+00 -0.83641902548E+02  0.83773849511E+02  0.47000000000E+01 0.  1.
         25    2    1    2    0    0 -0.36567317042E+02  0.17966874038E+02  0.44972578034E+02  0.13894111539E+03  0.12498849361E+03 0.  0.
         25    2    1    2    0    0  0.36567317042E+02 -0.17966874038E+02  0.80837392498E+02  0.15433733344E+03  0.12500140491E+03 0.  0.
          5    1    4    4  502    0  0.61898365657E+02 -0.25595323911E+02  0.10062300529E+03  0.12096944850E+03  0.47000000000E+01 0. -1.
         -5    1    4    4    0  502 -0.25331048615E+02  0.76284498731E+01 -0.19785612794E+02  0.33367884935E+02  0.47000000000E+01 0. -1.
          5    1    3    3  503    0 -0.65328241097E+02  0.21183081997E+02  0.71608274544E+02  0.99329436880E+02  0.47000000000E+01 0.  1.
         -5    1    3    3    0  503  0.28760924055E+02 -0.32162079592E+01 -0.26635696510E+02  0.39611678514E+02  0.47000000000E+01 0.  1.
<mgrwt>
<rscale>  0 0.13147061E+03</rscale>
<asrwt>0</asrwt>
<pdfrwt beam="1">  1        5 0.32237571E-01 0.13147368E+03</pdfrwt>
<pdfrwt beam="2">  1       -5 0.12882191E-01 0.13147368E+03</pdfrwt>
<totfact> 0.34239869E+02</totfact>
</mgrwt>
</event>
<event>
 8    1  0.3754098E-007  0.1363814E+03  0.7546771E-02  0.1218286E+00
         -5   -1    0    0    0  501 -0.00000000000E+00  0.00000000000E+00  0.54219071843E+03  0.54221108910E+03  0.47000000000E+01 0. -1.
          5   -1    0    0  501    0  0.00000000000E+00 -0.00000000000E+00 -0.39546570135E+02  0.39824881788E+02  0.47000000000E+01 0. -1.
         25    2    1    2    0    0  0.53130511198E+02 -0.12320469912E+02  0.35869578323E+03  0.38374802190E+03  0.12500093683E+03 0.  0.
         25    2    1    2    0    0 -0.53130511198E+02  0.12320469912E+02  0.14394836507E+03  0.19828794899E+03  0.12498933439E+03 0.  0.
          5    1    4    4  502    0 -0.12467282314E+02 -0.54896290207E+02  0.47509099232E+02  0.73812196259E+02  0.47000000000E+01 0. -1.
         -5    1    4    4    0  502 -0.40663228884E+02  0.67216760120E+02  0.96439265833E+02  0.12447575273E+03  0.47000000000E+01 0. -1.
          5    1    3    3  503    0 -0.63089550058E+01 -0.40036348407E+02  0.35973719914E+02  0.54395869618E+02  0.47000000000E+01 0.  1.
         -5    1    3    3    0  503  0.59439466203E+02  0.27715878495E+02  0.32272206331E+03  0.32935215228E+03  0.47000000000E+01 0.  1.
<mgrwt>
<rscale>  0 0.13637872E+03</rscale>
<asrwt>0</asrwt>
<pdfrwt beam="2">  1        5 0.61070635E-02 0.13638137E+03</pdfrwt>
<pdfrwt beam="1">  1       -5 0.83436929E-01 0.13638137E+03</pdfrwt>
<totfact> 0.16470789E+02</totfact>
</mgrwt>
</event>
<event>
 8    1  0.3754098E-007  0.1695759E+03  0.7546771E-02  0.1178291E+00
         -5   -1    0    0    0  501 -0.00000000000E+00  0.00000000000E+00  0.36804307078E+03  0.36807307963E+03  0.47000000000E+01 0. -1.
          5   -1    0    0  501    0  0.00000000000E+00 -0.00000000000E+00 -0.81436965288E+02  0.81572478909E+02  0.47000000000E+01 0. -1.
         25    2    1    2    0    0  0.67104811544E+02  0.92880485468E+02  0.97352414301E+02  0.19553348471E+03  0.12500404298E+03 0.  0.
         25    2    1    2    0    0 -0.67104811544E+02 -0.92880485468E+02  0.18925369119E+03  0.25411207383E+03  0.12500458440E+03 0.  0.
          5    1    4    4  502    0 -0.12512208884E+02 -0.99934665189E+02  0.70175674476E+02  0.12284220759E+03  0.47000000000E+01 0.  1.
         -5    1    4    4    0  502 -0.54592602659E+02  0.70541797218E+01  0.11907801671E+03  0.13126986623E+03  0.47000000000E+01 0.  1.
          5    1    3    3  503    0  0.45285930891E+02  0.32443796014E+02 -0.21858161083E+02  0.60027365779E+02  0.47000000000E+01 0. -1.
         -5    1    3    3    0  503  0.21818880652E+02  0.60436689454E+02  0.11921057538E+03  0.13550611893E+03  0.47000000000E+01 0. -1.
<mgrwt>
<rscale>  0 0.16957580E+03</rscale>
<asrwt>0</asrwt>
<pdfrwt beam="2">  1        5 0.12541496E-01 0.16957590E+03</pdfrwt>
<pdfrwt beam="1">  1       -5 0.56634743E-01 0.16957590E+03</pdfrwt>
<totfact> 0.12145411E+02</totfact>
</mgrwt>
</event>
<event>
 8    1  0.3754098E-007  0.1906681E+03  0.7546771E-02  0.1157861E+00
         -5   -1    0    0    0  501 -0.00000000000E+00  0.00000000000E+00  0.42659067237E+02  0.42917199554E+02  0.47000000000E+01 0. -1.
          5   -1    0    0  501    0  0.00000000000E+00 -0.00000000000E+00 -0.10518501085E+04  0.10518606090E+04  0.47000000000E+01 0. -1.
         25    2    1    2    0    0 -0.19803186564E+02 -0.14260373761E+03 -0.26445807038E+03  0.32602517039E+03  0.12500539414E+03 0.  0.
         25    2    1    2    0    0  0.19803186564E+02  0.14260373761E+03 -0.74473297085E+03  0.76875263812E+03  0.12500171425E+03 0.  0.
          5    1    3    3  502    0  0.11271207405E+02 -0.90401502600E+02 -0.52001308566E+02  0.10500332319E+03  0.47000000000E+01 0. -1.
         -5    1    3    3    0  502 -0.31074393969E+02 -0.52202235011E+02 -0.21245676181E+03  0.22102184720E+03  0.47000000000E+01 0. -1.
          5    1    4    4  503    0  0.43956619406E+02  0.13761750938E+03 -0.71665706221E+03  0.73108836544E+03  0.47000000000E+01 0.  1.
         -5    1    4    4    0  503 -0.24153432842E+02  0.49862282328E+01 -0.28075908649E+02  0.37664272680E+02  0.47000000000E+01 0.  1.
<mgrwt>
<rscale>  0 0.19066754E+03</rscale>
<asrwt>0</asrwt>
<pdfrwt beam="2">  1        5 0.16184374E+00 0.19066814E+03</pdfrwt>
<pdfrwt beam="1">  1       -5 0.65835983E-02 0.19066814E+03</pdfrwt>
<totfact> 0.29498648E+01</totfact>
</mgrwt>
</event>
<event>
 8    1  0.3754098E-007  0.1340186E+03  0.7546771E-02  0.1221613E+00
          5   -1    0    0  501    0  0.00000000000E+00  0.00000000000E+00  0.53626929435E+02  0.53832495397E+02  0.47000000000E+01 0.  1.
         -5   -1    0    0    0  501 -0.00000000000E+00 -0.00000000000E+00 -0.34075973621E+03  0.34079214754E+03  0.47000000000E+01 0.  1.
         25    2    1    2    0    0 -0.16324427189E+02 -0.45490280349E+02 -0.17123502662E+03  0.21744522627E+03  0.12500055823E+03 0.  0.
         25    2    1    2    0    0  0.16324427189E+02  0.45490280349E+02 -0.11589778015E+03  0.17717941666E+03  0.12499759083E+03 0.  0.
          5    1    3    3  502    0 -0.69740523136E+02 -0.31593990508E+02 -0.11713121909E+03  0.14001333254E+03  0.47000000000E+01 0.  1.
         -5    1    3    3    0  502  0.53416095947E+02 -0.13896289841E+02 -0.54103807535E+02  0.77431893735E+02  0.47000000000E+01 0.  1.
          5    1    4    4  503    0 -0.10148735238E+02 -0.40249467486E+02 -0.21997809789E+02  0.47212393450E+02  0.47000000000E+01 0. -1.
         -5    1    4    4    0  503  0.26473162427E+02  0.85739747835E+02 -0.93899970366E+02  0.12996702321E+03  0.47000000000E+01 0. -1.
<mgrwt>
<rscale>  0 0.13401793E+03</rscale>
<asrwt>0</asrwt>
<pdfrwt beam="1">  1        5 0.82686030E-02 0.13401863E+03</pdfrwt>
<pdfrwt beam="2">  1       -5 0.52442879E-01 0.13401863E+03</pdfrwt>
<totfact> 0.27553443E+02</totfact>
</mgrwt>
</event>
<event>
 8    1  0.3754098E-007  0.1538594E+03  0.7546771E-02  0.1195810E+00
          5   -1    0    0  501    0  0.00000000000E+00  0.00000000000E+00  0.69943148249E+03  0.69944727371E+03  0.47000000000E+01 0. -1.
         -5   -1    0    0    0  501 -0.00000000000E+00 -0.00000000000E+00 -0.38696354053E+02  0.38980736486E+02  0.47000000000E+01 0. -1.
         25    2    1    2    0    0  0.10401255918E+02  0.89100426652E+02  0.19779748271E+03  0.25059243271E+03  0.12500260401E+03 0.  0.
         25    2    1    2    0    0 -0.10401255918E+02 -0.89100426652E+02  0.46293764573E+03  0.48783557749E+03  0.12500085870E+03 0.  0.
          5    1    3    3  502    0  0.41234040330E+02  0.10488979729E+03  0.11682192586E+03  0.16239325115E+03  0.47000000000E+01 0. -1.
         -5    1    3    3    0  502 -0.30832784413E+02 -0.15789370641E+02  0.80975556847E+02  0.88199181552E+02  0.47000000000E+01 0. -1.
          5    1    4    4  503    0 -0.18241299455E+02  0.24022472285E+02  0.42356974580E+02  0.52211373053E+02  0.47000000000E+01 0.  1.
         -5    1    4    4    0  503  0.78400435369E+01 -0.11312289894E+03  0.42058067115E+03  0.43562420444E+03  0.47000000000E+01 0.  1.
<mgrwt>
<rscale>  0 0.15385907E+03</rscale>
<asrwt>0</asrwt>
<pdfrwt beam="1">  1        5 0.10762793E+00 0.15385943E+03</pdfrwt>
<pdfrwt beam="2">  1       -5 0.59763755E-02 0.15385943E+03</pdfrwt>
<totfact> 0.96191813E+01</totfact>
</mgrwt>
</event>
<event>
 8    1  0.3754098E-007  0.1417255E+03  0.7546771E-02  0.1211027E+00
         -5   -1    0    0    0  501 -0.00000000000E+00  0.00000000000E+00  0.37952813047E+03  0.37955723128E+03  0.47000000000E+01 0. -1.
          5   -1    0    0  501    0  0.00000000000E+00 -0.00000000000E+00 -0.67072619012E+02  0.67237089624E+02  0.47000000000E+01 0. -1.
         25    2    1    2    0    0  0.24150663139E+01  0.66736411006E+02  0.25916246726E+03  0.29538330037E+03  0.12500611426E+03 0.  0.
         25    2    1    2    0    0 -0.24150663139E+01 -0.66736411006E+02  0.53293044201E+02  0.15141102054E+03  0.12500226990E+03 0.  0.
          5    1    4    4  502    0  0.37527039715E+02 -0.90366956955E+01 -0.24951680459E+02  0.46201914859E+02  0.47000000000E+01 0.  1.
         -5    1    4    4    0  502 -0.39942106029E+02 -0.57699715311E+02  0.78244724660E+02  0.10520910568E+03  0.47000000000E+01 0.  1.
          5    1    3    3  503    0 -0.39121699353E+02  0.86600543133E+02  0.16513580224E+03  0.19058353710E+03  0.47000000000E+01 0. -1.
         -5    1    3    3    0  503  0.41536765667E+02 -0.19864132127E+02  0.94026665019E+02  0.10479976327E+03  0.47000000000E+01 0. -1.
<mgrwt>
<rscale>  0 0.14172463E+03</rscale>
<asrwt>0</asrwt>
<pdfrwt beam="2">  1        5 0.10333755E-01 0.14172547E+03</pdfrwt>
<pdfrwt beam="1">  1       -5 0.58403833E-01 0.14172547E+03</pdfrwt>
<totfact> 0.15119302E+02</totfact>
</mgrwt>
</event>
<event>
 8    1  0.3754098E-007  0.2275460E+03  0.7546771E-02  0.1128379E+00
          5   -1    0    0  501    0  0.00000000000E+00  0.00000000000E+00  0.25854706568E+03  0.25858978165E+03  0.47000000000E+01 0. -1.
         -5   -1    0    0    0  501 -0.00000000000E+00 -0.00000000000E+00 -0.20216792382E+03  0.20222254924E+03  0.47000000000E+01 0. -1.
         25    2    1    2    0    0  0.26478620814E+02 -0.18828297430E+03  0.53130752076E+01  0.22760655350E+03  0.12499967464E+03 0.  0.
         25    2    1    2    0    0 -0.26478620814E+02  0.18828297430E+03  0.51066066654E+02  0.23320577739E+03  0.12500238267E+03 0.  0.
          5    1    3    3  502    0  0.13083963742E+02 -0.58081534629E+01  0.38727543837E+02  0.41555233190E+02  0.47000000000E+01 0.  1.
         -5    1    3    3    0  502  0.13394657072E+02 -0.18247482084E+03 -0.33414468629E+02  0.18605132031E+03  0.47000000000E+01 0.  1.
          5    1    4    4  503    0 -0.53541579652E+02  0.12182867425E+03 -0.16943104463E+02  0.13423146207E+03  0.47000000000E+01 0. -1.
         -5    1    4    4    0  503  0.27062958838E+02  0.66454300049E+02  0.68009171117E+02  0.98974315315E+02  0.47000000000E+01 0. -1.
<mgrwt>
<rscale>  0 0.22754565E+03</rscale>
<asrwt>0</asrwt>
<pdfrwt beam="1">  1        5 0.39783959E-01 0.22754602E+03</pdfrwt>
<pdfrwt beam="2">  1       -5 0.31110245E-01 0.22754602E+03</pdfrwt>
<totfact> 0.50400393E+01</totfact>
</mgrwt>
</event>
<event>
 8    1  0.3754098E-007  0.1323623E+03  0.7546771E-02  0.1223996E+00
          5   -1    0    0  501    0  0.00000000000E+00  0.00000000000E+00  0.41477340686E+03  0.41480003500E+03  0.47000000000E+01 0. -1.
         -5   -1    0    0    0  501 -0.00000000000E+00 -0.00000000000E+00 -0.42087190577E+02  0.42348808846E+02  0.47000000000E+01 0. -1.
         25    2    1    2    0    0 -0.40324795503E+01  0.43318273869E+02  0.18987384721E+03  0.23144962167E+03  0.12499646304E+03 0.  0.
         25    2    1    2    0    0  0.40324795503E+01 -0.43318273869E+02  0.18281236907E+03  0.22569922218E+03  0.12500817119E+03 0.  0.
          5    1    4    4  502    0 -0.38632285811E+02  0.28275392327E+01  0.14931212276E+03  0.15432643484E+03  0.47000000000E+01 0. -1.
         -5    1    4    4    0  502  0.42664765361E+02 -0.46145813102E+02  0.33500246302E+02  0.71372787339E+02  0.47000000000E+01 0. -1.
          5    1    3    3  503    0 -0.42583634100E+02  0.17878743189E+02  0.12466295296E+02  0.48067804917E+02  0.47000000000E+01 0.  1.
         -5    1    3    3    0  503  0.38551154549E+02  0.25439530680E+02  0.17740755192E+03  0.18338181675E+03  0.47000000000E+01 0.  1.
<mgrwt>
<rscale>  0 0.13235953E+03</rscale>
<asrwt>0</asrwt>
<pdfrwt beam="1">  1        5 0.63833467E-01 0.13236229E+03</pdfrwt>
<pdfrwt beam="2">  1       -5 0.64971251E-02 0.13236229E+03</pdfrwt>
<totfact> 0.26986754E+02</totfact>
</mgrwt>
</event>
<event>
 8    1  0.3754098E-007  0.1295217E+03  0.7546771E-02  0.1228169E+00
          5   -1    0    0  501    0  0.00000000000E+00  0.00000000000E+00  0.21255340907E+03  0.21260536613E+03  0.47000000000E+01 0. -1.
         -5   -1    0    0    0  501 -0.00000000000E+00 -0.00000000000E+00 -0.88630347061E+02  0.88754878290E+02  0.47000000000E+01 0. -1.
         25    2    1    2    0    0 -0.26166680899E+02  0.21567102396E+02  0.11808718085E+02  0.13005500542E+03  0.12500009406E+03 0.  0.
         25    2    1    2    0    0  0.26166680899E+02 -0.21567102396E+02  0.11211434392E+03  0.17130523900E+03  0.12500409474E+03 0.  0.
          5    1    4    4  502    0 -0.11538523532E+02  0.42922928643E+02  0.76067614389E+02  0.88226341233E+02  0.47000000000E+01 0.  1.
         -5    1    4    4    0  502  0.37705204430E+02 -0.64490031039E+02  0.36046729534E+02  0.83078897770E+02  0.47000000000E+01 0.  1.
          5    1    3    3  503    0 -0.14480927816E+02  0.43040095201E+02  0.60249006502E+02  0.75592194371E+02  0.47000000000E+01 0.  1.
         -5    1    3    3    0  503 -0.11685753083E+02 -0.21472992805E+02 -0.48440288417E+02  0.54462811046E+02  0.47000000000E+01 0.  1.
<mgrwt>
<rscale>  0 0.12952069E+03</rscale>
<asrwt>0</asrwt>
<pdfrwt beam="1">  1        5 0.32714100E-01 0.12952165E+03</pdfrwt>
<pdfrwt beam="2">  1       -5 0.13649014E-01 0.12952165E+03</pdfrwt>
<totfact> 0.29829726E+02</totfact>
</mgrwt>
</event>
<event>
 8    1  0.3754098E-007  0.1850248E+03  0.7546771E-02  0.1163028E+00
          5   -1    0    0  501    0  0.00000000000E+00  0.00000000000E+00  0.15552773824E+03  0.15559873830E+03  0.47000000000E+01 0. -1.
         -5   -1    0    0    0  501 -0.00000000000E+00 -0.00000000000E+00 -0.43741415686E+03  0.43743940680E+03  0.47000000000E+01 0. -1.
         25    2    1    2    0    0  0.12976476900E+03 -0.42050578152E+02 -0.34998686881E+03  0.39588505502E+03  0.12500808795E+03 0.  0.
         25    2    1    2    0    0 -0.12976476900E+03  0.42050578152E+02  0.68100450188E+02  0.19715309008E+03  0.12499809285E+03 0.  0.
          5    1    3    3  502    0  0.10662637287E+03  0.13730172580E+02 -0.29523574969E+03  0.31423548324E+03  0.47000000000E+01 0. -1.
         -5    1    3    3    0  502  0.23138396129E+02 -0.55780750731E+02 -0.54751119123E+02  0.81649571785E+02  0.47000000000E+01 0. -1.
          5    1    4    4  503    0 -0.41591375404E+02 -0.43243104763E+02  0.36496040765E+02  0.70383660100E+02  0.47000000000E+01 0. -1.
         -5    1    4    4    0  503 -0.88173393593E+02  0.85293682915E+02  0.31604409422E+02  0.12676942998E+03  0.47000000000E+01 0. -1.
<mgrwt>
<rscale>  0 0.18502309E+03</rscale>
<asrwt>0</asrwt>
<pdfrwt beam="1">  1        5 0.23934748E-01 0.18502478E+03</pdfrwt>
<pdfrwt beam="2">  1       -5 0.67301889E-01 0.18502478E+03</pdfrwt>
<totfact> 0.25751868E+01</totfact>
</mgrwt>
</event>
<event>
 8    1  0.3754098E-007  0.1252481E+03  0.7546771E-02  0.1234684E+00
          5   -1    0    0  501    0  0.00000000000E+00  0.00000000000E+00  0.81747793468E+02  0.81882792678E+02  0.47000000000E+01 0. -1.
         -5   -1    0    0    0  501 -0.00000000000E+00 -0.00000000000E+00 -0.21244023248E+03  0.21249221722E+03  0.47000000000E+01 0. -1.
         25    2    1    2    0    0  0.70169031130E+01 -0.33430879311E+01 -0.11146427508E+03  0.16766443228E+03  0.12500665609E+03 0.  0.
         25    2    1    2    0    0 -0.70169031130E+01  0.33430879311E+01 -0.19228163935E+02  0.12671057761E+03  0.12500174009E+03 0.  0.
          5    1    4    4  502    0  0.28480781918E+02  0.23054116078E+02 -0.59044369744E+02  0.69648939728E+02  0.47000000000E+01 0.  1.
         -5    1    4    4    0  502 -0.35497685031E+02 -0.19711028147E+02  0.39816205809E+02  0.57061637886E+02  0.47000000000E+01 0.  1.
          5    1    3    3  503    0  0.16635856014E+02 -0.62512442250E+02 -0.63219733920E+02  0.90572522866E+02  0.47000000000E+01 0.  1.
         -5    1    3    3    0  503 -0.96189529014E+01  0.59169354319E+02 -0.48244541161E+02  0.77091909416E+02  0.47000000000E+01 0.  1.
<mgrwt>
<rscale>  0 0.12524684E+03</rscale>
<asrwt>0</asrwt>
<pdfrwt beam="1">  1        5 0.12590967E-01 0.12524806E+03</pdfrwt>
<pdfrwt beam="2">  1       -5 0.32697496E-01 0.12524806E+03</pdfrwt>
<totfact> 0.34062509E+02</totfact>
</mgrwt>
</event>
<event>
 8    1  0.3754098E-007  0.1252522E+03  0.7546771E-02  0.1234682E+00
         -5   -1    0    0    0  501 -0.00000000000E+00  0.00000000000E+00  0.53647381265E+02  0.53852869158E+02  0.47000000000E+01 0. -1.
          5   -1    0    0  501    0  0.00000000000E+00 -0.00000000000E+00 -0.29258730412E+03  0.29262505110E+03  0.47000000000E+01 0. -1.
         25    2    1    2    0    0  0.27870600281E+01 -0.72463032408E+01 -0.12946515307E+03  0.18012638511E+03  0.12499604850E+03 0.  0.
         25    2    1    2    0    0 -0.27870600281E+01  0.72463032408E+01 -0.10947476979E+03  0.16635153515E+03  0.12501132513E+03 0.  0.
          5    1    3    3  502    0 -0.18550443627E+02  0.13822689234E+02 -0.14438706052E+03  0.14630413167E+03  0.47000000000E+01 0. -1.
         -5    1    3    3    0  502  0.21337503656E+02 -0.21068992475E+02  0.14921907454E+02  0.33822253447E+02  0.47000000000E+01 0. -1.
          5    1    4    4  503    0  0.30854949534E+02  0.46634584294E+02 -0.98243519517E+02  0.11314014093E+03  0.47000000000E+01 0. -1.
         -5    1    4    4    0  503 -0.33642009562E+02 -0.39388281053E+02 -0.11231250270E+02  0.53211394215E+02  0.47000000000E+01 0. -1.
<mgrwt>
<rscale>  0 0.12524837E+03</rscale>
<asrwt>0</asrwt>
<pdfrwt beam="2">  1        5 0.45032141E-01 0.12525218E+03</pdfrwt>
<pdfrwt beam="1">  1       -5 0.82721538E-02 0.12525218E+03</pdfrwt>
<totfact> 0.37038195E+02</totfact>
</mgrwt>
</event>
<event>
 8    1  0.3754098E-007  0.1506115E+03  0.7546771E-02  0.1199724E+00
         -5   -1    0    0    0  501 -0.00000000000E+00  0.00000000000E+00  0.42938839934E+02  0.43195300379E+02  0.47000000000E+01 0.  1.
          5   -1    0    0  501    0  0.00000000000E+00 -0.00000000000E+00 -0.53627424102E+03  0.53629483643E+03  0.47000000000E+01 0.  1.
         25    2    1    2    0    0 -0.43387652049E+02 -0.71947450915E+02 -0.28589052321E+03  0.32313646243E+03  0.12499943217E+03 0.  0.
         25    2    1    2    0    0  0.43387652049E+02  0.71947450915E+02 -0.20744487787E+03  0.25635367438E+03  0.12499961988E+03 0.  0.
          5    1    3    3  502    0 -0.29021390172E+02 -0.10063290855E+03 -0.14727726227E+03  0.18078137447E+03  0.47000000000E+01 0. -1.
         -5    1    3    3    0  502 -0.14366261876E+02  0.28685457636E+02 -0.13861326094E+03  0.14235508796E+03  0.47000000000E+01 0. -1.
          5    1    4    4  503    0 -0.20950837303E+02  0.71311924428E+02 -0.60783436504E+02  0.96130350580E+02  0.47000000000E+01 0.  1.
         -5    1    4    4    0  503  0.64338489352E+02  0.63552648760E+00 -0.14666144137E+03  0.16022332380E+03  0.47000000000E+01 0.  1.
<mgrwt>
<rscale>  0 0.15061148E+03</rscale>
<asrwt>0</asrwt>
<pdfrwt beam="2">  1        5 0.82525037E-01 0.15061152E+03</pdfrwt>
<pdfrwt beam="1">  1       -5 0.66272877E-02 0.15061152E+03</pdfrwt>
<totfact> 0.15201831E+02</totfact>
</mgrwt>
</event>
<event>
 8    1  0.3754098E-007  0.1351353E+03  0.7546771E-02  0.1220031E+00
          5   -1    0    0  501    0  0.00000000000E+00  0.00000000000E+00  0.59326631055E+02  0.59512512570E+02  0.47000000000E+01 0.  1.
         -5   -1    0    0    0  501 -0.00000000000E+00 -0.00000000000E+00 -0.30857243215E+03  0.30860822394E+03  0.47000000000E+01 0.  1.
         25    2    1    2    0    0  0.45820511572E+02 -0.23149395983E+02 -0.13725872047E+03  0.19261384625E+03  0.12499889442E+03 0.  0.
         25    2    1    2    0    0 -0.45820511572E+02  0.23149395983E+02 -0.11198708062E+03  0.17550689026E+03  0.12500459386E+03 0.  0.
          5    1    3    3  502    0 -0.14856616683E+02 -0.63291954568E+01 -0.12764189757E+03  0.12874518162E+03  0.47000000000E+01 0. -1.
         -5    1    3    3    0  502  0.60677128255E+02 -0.16820200526E+02 -0.96168228993E+01  0.63868664631E+02  0.47000000000E+01 0. -1.
          5    1    4    4  503    0 -0.50848766464E+02  0.57667339989E+02 -0.11687164634E+03  0.13997210747E+03  0.47000000000E+01 0. -1.
         -5    1    4    4    0  503  0.50282548921E+01 -0.34517944006E+02  0.48845657129E+01  0.35534782789E+02  0.47000000000E+01 0. -1.
<mgrwt>
<rscale>  0 0.13513403E+03</rscale>
<asrwt>0</asrwt>
<pdfrwt beam="1">  1        5 0.91442259E-02 0.13513535E+03</pdfrwt>
<pdfrwt beam="2">  1       -5 0.47489733E-01 0.13513535E+03</pdfrwt>
<totfact> 0.28659184E+02</totfact>
</mgrwt>
</event>
<event>
 8    1  0.3754098E-007  0.1830078E+03  0.7546771E-02  0.1164924E+00
         -5   -1    0    0    0  501 -0.00000000000E+00  0.00000000000E+00  0.11319074679E+03  0.11328828342E+03  0.47000000000E+01 0.  1.
          5   -1    0    0  501    0  0.00000000000E+00 -0.00000000000E+00 -0.30428401287E+03  0.30432030903E+03  0.47000000000E+01 0.  1.
         25    2    1    2    0    0  0.12817111837E+03  0.37937022432E+02 -0.60367900458E+02  0.19270647820E+03  0.12499780031E+03 0.  0.
         25    2    1    2    0    0 -0.12817111837E+03 -0.37937022432E+02 -0.13072536562E+03  0.22490211424E+03  0.12499914607E+03 0.  0.
          5    1    4    4  502    0 -0.43254115645E+02  0.57866309049E+01 -0.12107853344E+03  0.12878860539E+03  0.47000000000E+01 0. -1.
         -5    1    4    4    0  502 -0.84917002724E+02 -0.43723653337E+02 -0.96468321758E+01  0.96113508851E+02  0.47000000000E+01 0. -1.
          5    1    3    3  503    0 -0.18106122143E+02  0.20750004941E+02  0.96531753223E+01  0.29557878102E+02  0.47000000000E+01 0. -1.
         -5    1    3    3    0  503  0.14627724051E+03  0.17187017491E+02 -0.70021075781E+02  0.16314860010E+03  0.47000000000E+01 0. -1.
<mgrwt>
<rscale>  0 0.18300753E+03</rscale>
<asrwt>0</asrwt>
<pdfrwt beam="2">  1        5 0.46823220E-01 0.18300776E+03</pdfrwt>
<pdfrwt beam="1">  1       -5 0.17424256E-01 0.18300776E+03</pdfrwt>
<totfact> 0.10271375E+02</totfact>
</mgrwt>
</event>
<event>
 8    1  0.3754098E-007  0.2115404E+03  0.7546771E-02  0.1140354E+00
         -5   -1    0    0    0  501 -0.00000000000E+00  0.00000000000E+00  0.82240149145E+03  0.82241492152E+03  0.47000000000E+01 0. -1.
          5   -1    0    0  501    0  0.00000000000E+00 -0.00000000000E+00 -0.65750815278E+02  0.65918583948E+02  0.47000000000E+01 0. -1.
         25    2    1    2    0    0  0.45624740616E+02  0.16443726215E+03  0.56345494202E+03  0.60185615663E+03  0.12501252515E+03 0.  0.
         25    2    1    2    0    0 -0.45624740616E+02 -0.16443726215E+03  0.19319573416E+03  0.28647734884E+03  0.12499379811E+03 0.  0.
          5    1    3    3  502    0  0.47975379773E+02  0.13706965290E+03  0.26598632415E+03  0.30308503996E+03  0.47000000000E+01 0.  1.
         -5    1    3    3    0  502 -0.23506391569E+01  0.27367609252E+02  0.29746861787E+03  0.29877111667E+03  0.47000000000E+01 0.  1.
          5    1    4    4  503    0  0.11579896176E+02 -0.54317091969E+02  0.14128781906E+03  0.15188409493E+03  0.47000000000E+01 0. -1.
         -5    1    4    4    0  503 -0.57204636792E+02 -0.11012017018E+03  0.51907915093E+02  0.13459325392E+03  0.47000000000E+01 0. -1.
<mgrwt>
<rscale>  0 0.21153768E+03</rscale>
<asrwt>0</asrwt>
<pdfrwt beam="2">  1        5 0.10129449E-01 0.21154045E+03</pdfrwt>
<pdfrwt beam="1">  1       -5 0.12653724E+00 0.21154045E+03</pdfrwt>
<totfact> 0.28020345E+01</totfact>
</mgrwt>
</event>
<event>
 8    1  0.3754098E-007  0.1448688E+03  0.7546771E-02  0.1206925E+00
          5   -1    0    0  501    0  0.00000000000E+00  0.00000000000E+00  0.43251625430E+02  0.43506242108E+02  0.47000000000E+01 0.  1.
         -5   -1    0    0    0  501 -0.00000000000E+00 -0.00000000000E+00 -0.54732781814E+03  0.54734799763E+03  0.47000000000E+01 0.  1.
         25    2    1    2    0    0 -0.45144177246E+02 -0.57648658893E+02 -0.35287800462E+03  0.38145755445E+03  0.12500246034E+03 0.  0.
         25    2    1    2    0    0  0.45144177246E+02  0.57648658893E+02 -0.15119818809E+03  0.20939668529E+03  0.12499886046E+03 0.  0.
          5    1    4    4  502    0  0.41698493699E+02  0.17655230360E+02 -0.16141282013E+03  0.16771004752E+03  0.47000000000E+01 0.  1.
         -5    1    4    4    0  502  0.34456835471E+01  0.39993428533E+02  0.10214632039E+02  0.41686637771E+02  0.47000000000E+01 0.  1.
          5    1    3    3  503    0 -0.60555611790E+02 -0.43454464976E+02 -0.35214002188E+03  0.35997216234E+03  0.47000000000E+01 0.  1.
         -5    1    3    3    0  503  0.15411434544E+02 -0.14194193917E+02 -0.73798273296E+00  0.21485392111E+02  0.47000000000E+01 0.  1.
<mgrwt>
<rscale>  0 0.14486806E+03</rscale>
<asrwt>0</asrwt>
<pdfrwt beam="1">  1        5 0.66752347E-02 0.14486884E+03</pdfrwt>
<pdfrwt beam="2">  1       -5 0.84225413E-01 0.14486884E+03</pdfrwt>
<totfact> 0.14140636E+02</totfact>
</mgrwt>
</event>
<event>
 8    1  0.3754098E-007  0.1287064E+03  0.7546771E-02  0.1229400E+00
         -5   -1    0    0    0  501 -0.00000000000E+00  0.00000000000E+00  0.84009410219E+02  0.84140780869E+02  0.47000000000E+01 0.  1.
          5   -1    0    0  501    0  0.00000000000E+00 -0.00000000000E+00 -0.22320652795E+03  0.22325600579E+03  0.47000000000E+01 0.  1.
         25    2    1    2    0    0  0.23940114762E+02 -0.18971196405E+02 -0.16783908809E+02  0.12979608996E+03  0.12502915655E+03 0.  0.
         25    2    1    2    0    0 -0.23940114762E+02  0.18971196405E+02 -0.12241320892E+03  0.17760069670E+03  0.12499591337E+03 0.  0.
          5    1    4    4  502    0 -0.50792261798E+02  0.60249516498E+01 -0.13534852588E+03  0.14476694153E+03  0.47000000000E+01 0.  1.
         -5    1    4    4    0  502  0.26852147036E+02  0.12946244755E+02  0.12935316957E+02  0.32833755169E+02  0.47000000000E+01 0.  1.
          5    1    3    3  503    0  0.61499645542E+02 -0.50273149725E+02 -0.11372389096E+02  0.80380452965E+02  0.47000000000E+01 0.  1.
         -5    1    3    3    0  503 -0.37559530780E+02  0.31301953321E+02 -0.54115197130E+01  0.49415636996E+02  0.47000000000E+01 0.  1.
<mgrwt>
<rscale>  0 0.12869828E+03</rscale>
<asrwt>0</asrwt>
<pdfrwt beam="2">  1        5 0.34353377E-01 0.12870635E+03</pdfrwt>
<pdfrwt beam="1">  1       -5 0.12938436E-01 0.12870635E+03</pdfrwt>
<totfact> 0.29709367E+02</totfact>
</mgrwt>
</event>
<event>
 8    1  0.3754098E-007  0.1622630E+03  0.7546771E-02  0.1186166E+00
         -5   -1    0    0    0  501 -0.00000000000E+00  0.00000000000E+00  0.46603745056E+03  0.46606114977E+03  0.47000000000E+01 0. -1.
          5   -1    0    0  501    0  0.00000000000E+00 -0.00000000000E+00 -0.82984638438E+02  0.83117628796E+02  0.47000000000E+01 0. -1.
         25    2    1    2    0    0  0.10002216051E+03 -0.26448457449E+02  0.34684745724E+03  0.38292562664E+03  0.12499969379E+03 0.  0.
         25    2    1    2    0    0 -0.10002216051E+03  0.26448457449E+02  0.36205354885E+02  0.16625315193E+03  0.12500131723E+03 0.  0.
          5    1    3    3  502    0  0.58506281816E+02  0.42750467204E+02  0.22728044955E+03  0.23859815634E+03  0.47000000000E+01 0.  1.
         -5    1    3    3    0  502  0.41515878692E+02 -0.69198924652E+02  0.11956700768E+03  0.14432747030E+03  0.47000000000E+01 0.  1.
          5    1    4    4  503    0 -0.10205070101E+03 -0.23810874577E+02  0.14028618826E+01  0.10490644092E+03  0.47000000000E+01 0. -1.
         -5    1    4    4    0  503  0.20285405053E+01  0.50259332026E+02  0.34802493002E+02  0.61346711008E+02  0.47000000000E+01 0. -1.
<mgrwt>
<rscale>  0 0.16226269E+03</rscale>
<asrwt>0</asrwt>
<pdfrwt beam="2">  1        5 0.12778921E-01 0.16226301E+03</pdfrwt>
<pdfrwt beam="1">  1       -5 0.71710121E-01 0.16226301E+03</pdfrwt>
<totfact> 0.68637262E+01</totfact>
</mgrwt>
</event>
<event>
 8    1  0.3754098E-007  0.2040919E+03  0.7546771E-02  0.1146332E+00
         -5   -1    0    0    0  501 -0.00000000000E+00  0.00000000000E+00  0.76370627829E+03  0.76372074052E+03  0.47000000000E+01 0.  1.
          5   -1    0    0  501    0  0.00000000000E+00 -0.00000000000E+00 -0.73219985371E+02  0.73370677097E+02  0.47000000000E+01 0.  1.
         25    2    1    2    0    0  0.11244585485E+03  0.11569244092E+03  0.55702327104E+03  0.59323556174E+03  0.12499878428E+03 0.  0.
         25    2    1    2    0    0 -0.11244585485E+03 -0.11569244092E+03  0.13346302188E+03  0.24385585588E+03  0.12499795630E+03 0.  0.
          5    1    4    4  502    0 -0.60448812616E+02 -0.13484199903E+03  0.88222717367E+02  0.17216782948E+03  0.47000000000E+01 0. -1.
         -5    1    4    4    0  502 -0.51997042235E+02  0.19149558109E+02  0.45240304518E+02  0.71688026405E+02  0.47000000000E+01 0. -1.
          5    1    3    3  503    0  0.82679061343E+02  0.82532869080E+02  0.18722374405E+03  0.22073133443E+03  0.47000000000E+01 0.  1.
         -5    1    3    3    0  503  0.29766793507E+02  0.33159571837E+02  0.36979952699E+03  0.37250422730E+03  0.47000000000E+01 0.  1.
<mgrwt>
<rscale>  0 0.20409178E+03</rscale>
<asrwt>0</asrwt>
<pdfrwt beam="2">  1        5 0.11277317E-01 0.20409191E+03</pdfrwt>
<pdfrwt beam="1">  1       -5 0.11750598E+00 0.20409191E+03</pdfrwt>
<totfact> 0.27834953E+01</totfact>
</mgrwt>
</event>
<event>
 8    1  0.3754098E-007  0.1262166E+03  0.7546771E-02  0.1233216E+00
          5   -1    0    0  501    0  0.00000000000E+00  0.00000000000E+00  0.41261771315E+03  0.41264448040E+03  0.47000000000E+01 0. -1.
         -5   -1    0    0    0  501 -0.00000000000E+00 -0.00000000000E+00 -0.43431329641E+02  0.43684898928E+02  0.47000000000E+01 0. -1.
         25    2    1    2    0    0  0.83872423720E+01 -0.14586385419E+02  0.10720599410E+03  0.16552986475E+03  0.12499560984E+03 0.  0.
         25    2    1    2    0    0 -0.83872423720E+01  0.14586385419E+02  0.26198038941E+03  0.29079951457E+03  0.12509006662E+03 0.  0.
          5    1    4    4  502    0 -0.14398670566E+02  0.21817422933E+02  0.27374031748E+03  0.27502576801E+03  0.47000000000E+01 0.  1.
         -5    1    4    4    0  502  0.60114281940E+01 -0.72310375139E+01 -0.11759928068E+02  0.15773746563E+02  0.47000000000E+01 0.  1.
          5    1    3    3  503    0 -0.88854318912E+01 -0.54916808081E+02  0.10780245114E+03  0.12140125692E+03  0.47000000000E+01 0.  1.
         -5    1    3    3    0  503  0.17272674263E+02  0.40330422662E+02 -0.59645704244E+00  0.44128607834E+02  0.47000000000E+01 0.  1.
<mgrwt>
<rscale>  0 0.12619320E+03</rscale>
<asrwt>0</asrwt>
<pdfrwt beam="1">  1        5 0.63501208E-01 0.12621661E+03</pdfrwt>
<pdfrwt beam="2">  1       -5 0.67033078E-02 0.12621661E+03</pdfrwt>
<totfact> 0.25456774E+02</totfact>
</mgrwt>
</event>
<event>
 8    1  0.3754098E-007  0.1607862E+03  0.7546771E-02  0.1187814E+00
          5   -1    0    0  501    0  0.00000000000E+00  0.00000000000E+00  0.41717287292E+03  0.41719934792E+03  0.47000000000E+01 0. -1.
         -5   -1    0    0    0  501 -0.00000000000E+00 -0.00000000000E+00 -0.62296455323E+02  0.62473501149E+02  0.47000000000E+01 0. -1.
         25    2    1    2    0    0 -0.13271538460E+02 -0.10025699102E+03  0.15716283345E+03  0.22483397980E+03  0.12499025672E+03 0.  0.
         25    2    1    2    0    0  0.13271538460E+02  0.10025699102E+03  0.19771358415E+03  0.25483886926E+03  0.12499835979E+03 0.  0.
          5    1    3    3  502    0 -0.18380630268E+02  0.21430751840E+02  0.37045770469E+01  0.28860675400E+02  0.47000000000E+01 0.  1.
         -5    1    3    3    0  502  0.51090918079E+01 -0.12168774286E+03  0.15345825640E+03  0.19597330440E+03  0.47000000000E+01 0.  1.
          5    1    4    4  503    0 -0.38135730185E+02  0.10963475735E+01  0.16315002025E+02  0.41758893493E+02  0.47000000000E+01 0. -1.
         -5    1    4    4    0  503  0.51407268644E+02  0.99160643441E+02  0.18139858212E+03  0.21307997577E+03  0.47000000000E+01 0. -1.
<mgrwt>
<rscale>  0 0.16078458E+03</rscale>
<asrwt>0</asrwt>
<pdfrwt beam="1">  1        5 0.64196094E-01 0.16078616E+03</pdfrwt>
<pdfrwt beam="2">  1       -5 0.95997260E-02 0.16078616E+03</pdfrwt>
<totfact> 0.14544623E+02</totfact>
</mgrwt>
</event>
<event>
 8    1  0.3754098E-007  0.1318642E+03  0.7546771E-02  0.1224720E+00
         -5   -1    0    0    0  501 -0.00000000000E+00  0.00000000000E+00  0.52825317061E+02  0.53033990257E+02  0.47000000000E+01 0.  1.
          5   -1    0    0  501    0  0.00000000000E+00 -0.00000000000E+00 -0.33888899919E+03  0.33892158942E+03  0.47000000000E+01 0.  1.
         25    2    1    2    0    0  0.39122848755E+02  0.15117890963E+02 -0.10834065367E+03  0.17066302645E+03  0.12501609271E+03 0.  0.
         25    2    1    2    0    0 -0.39122848755E+02 -0.15117890963E+02 -0.17772302846E+03  0.22129255322E+03  0.12500308534E+03 0.  0.
          5    1    4    4  502    0 -0.70953500416E+02  0.27938667333E+02 -0.86480072935E+02  0.11539437321E+03  0.47000000000E+01 0.  1.
         -5    1    4    4    0  502  0.31830651661E+02 -0.43056558296E+02 -0.91242955525E+02  0.10589818001E+03  0.47000000000E+01 0.  1.
          5    1    3    3  503    0  0.64219678350E+02  0.13895809781E+02 -0.71117973170E+01  0.66256533851E+02  0.47000000000E+01 0. -1.
         -5    1    3    3    0  503 -0.25096829595E+02  0.12220811819E+01 -0.10122885635E+03  0.10440649260E+03  0.47000000000E+01 0. -1.
<mgrwt>
<rscale>  0 0.13186113E+03</rscale>
<asrwt>0</asrwt>
<pdfrwt beam="2">  1        5 0.52155327E-01 0.13186422E+03</pdfrwt>
<pdfrwt beam="1">  1       -5 0.81455308E-02 0.13186422E+03</pdfrwt>
<totfact> 0.28444734E+02</totfact>
</mgrwt>
</event>
<event>
 8    1  0.3754098E-007  0.1342038E+03  0.7546771E-02  0.1221357E+00
          5   -1    0    0  501    0  0.00000000000E+00  0.00000000000E+00  0.95199850185E+03  0.95201010369E+03  0.47000000000E+01 0.  1.
         -5   -1    0    0    0  501 -0.00000000000E+00 -0.00000000000E+00 -0.22621276810E+02  0.23104375441E+02  0.47000000000E+01 0.  1.
         25    2    1    2    0    0 -0.36457826303E+02 -0.32412107758E+02  0.26181389898E+03  0.29419492318E+03  0.12499766918E+03 0.  0.
         25    2    1    2    0    0  0.36457826303E+02  0.32412107758E+02  0.66756332606E+03  0.68091955594E+03  0.12502371590E+03 0.  0.
          5    1    4    4  502    0 -0.40896192862E+02  0.88480398892E+01  0.37479516226E+03  0.37715287359E+03  0.47000000000E+01 0.  1.
         -5    1    4    4    0  502  0.77354019165E+02  0.23564067869E+02  0.29276816380E+03  0.30376668235E+03  0.47000000000E+01 0.  1.
          5    1    3    3  503    0 -0.68647010773E+01 -0.57759793626E+02  0.24437802543E+03  0.25124893471E+03  0.47000000000E+01 0. -1.
         -5    1    3    3    0  503 -0.29593125225E+02  0.25347685867E+02  0.17435873546E+02  0.42945988471E+02  0.47000000000E+01 0. -1.
<mgrwt>
<rscale>  0 0.13419769E+03</rscale>
<asrwt>0</asrwt>
<pdfrwt beam="1">  1        5 0.14649939E+00 0.13420375E+03</pdfrwt>
<pdfrwt beam="2">  1       -5 0.35182496E-02 0.13420375E+03</pdfrwt>
<totfact> 0.99851858E+01</totfact>
</mgrwt>
</event>
<event>
 8    1  0.3754098E-007  0.1280506E+03  0.7546771E-02  0.1230384E+00
         -5   -1    0    0    0  501 -0.00000000000E+00  0.00000000000E+00  0.17744132816E+03  0.17750356317E+03  0.47000000000E+01 0.  1.
          5   -1    0    0  501    0  0.00000000000E+00 -0.00000000000E+00 -0.96156885200E+02  0.96271681046E+02  0.47000000000E+01 0.  1.
         25    2    1    2    0    0 -0.22543840817E+02 -0.16281597445E+02  0.68180751191E+02  0.14505593510E+03  0.12497717512E+03 0.  0.
         25    2    1    2    0    0  0.22543840817E+02  0.16281597445E+02  0.13103691768E+02  0.12871930912E+03  0.12499455440E+03 0.  0.
          5    1    3    3  502    0 -0.17122387371E+02 -0.57941227882E+02  0.80743915873E+02  0.10095559414E+03  0.47000000000E+01 0. -1.
         -5    1    3    3    0  502 -0.54214534463E+01  0.41659630437E+02 -0.12563164682E+02  0.44100340957E+02  0.47000000000E+01 0. -1.
          5    1    4    4  503    0  0.59293856647E+02  0.11636273035E+02  0.48229002536E+02  0.77455090032E+02  0.47000000000E+01 0.  1.
         -5    1    4    4    0  503 -0.36750015830E+02  0.46453244092E+01 -0.35125310767E+02  0.51264219090E+02  0.47000000000E+01 0.  1.
<mgrwt>
<rscale>  0 0.12804635E+03</rscale>
<asrwt>0</asrwt>
<pdfrwt beam="2">  1        5 0.14806985E-01 0.12805059E+03</pdfrwt>
<pdfrwt beam="1">  1       -5 0.27312283E-01 0.12805059E+03</pdfrwt>
<totfact> 0.36539951E+02</totfact>
</mgrwt>
</event>
<event>
 8    1  0.3754098E-007  0.1705389E+03  0.7546771E-02  0.1177288E+00
         -5   -1    0    0    0  501 -0.00000000000E+00  0.00000000000E+00  0.21842845925E+03  0.21847901916E+03  0.47000000000E+01 0.  1.
          5   -1    0    0  501    0  0.00000000000E+00 -0.00000000000E+00 -0.13403797774E+03  0.13412035444E+03  0.47000000000E+01 0.  1.
         25    2    1    2    0    0 -0.24185422346E+02 -0.11345584021E+03  0.26975357696E+02  0.17265494573E+03  0.12499959213E+03 0.  0.
         25    2    1    2    0    0  0.24185422346E+02  0.11345584021E+03  0.57415123821E+02  0.17994442787E+03  0.12500535327E+03 0.  0.
          5    1    4    4  502    0  0.81019062122E+01 -0.23062767303E+02  0.31220520888E+02  0.39929225442E+02  0.47000000000E+01 0.  1.
         -5    1    4    4    0  502  0.16083516133E+02  0.13651860751E+03  0.26194602933E+02  0.14001520243E+03  0.47000000000E+01 0.  1.
          5    1    3    3  503    0 -0.43772484609E+02 -0.11362992730E+03  0.58554543706E+02  0.13519805981E+03  0.47000000000E+01 0.  1.
         -5    1    3    3    0  503  0.19587062263E+02  0.17408709154E+00 -0.31579186010E+02  0.37456885929E+02  0.47000000000E+01 0.  1.
<mgrwt>
<rscale>  0 0.17053780E+03</rscale>
<asrwt>0</asrwt>
<pdfrwt beam="2">  1        5 0.20631453E-01 0.17053885E+03</pdfrwt>
<pdfrwt beam="1">  1       -5 0.33614604E-01 0.17053885E+03</pdfrwt>
<totfact> 0.14498143E+02</totfact>
</mgrwt>
</event>
<event>
 8    1  0.3754098E-007  0.1438083E+03  0.7546771E-02  0.1208295E+00
          5   -1    0    0  501    0  0.00000000000E+00  0.00000000000E+00  0.15279673703E+03  0.15286900552E+03  0.47000000000E+01 0. -1.
         -5   -1    0    0    0  501 -0.00000000000E+00 -0.00000000000E+00 -0.18739385401E+03  0.18745278477E+03  0.47000000000E+01 0. -1.
         25    2    1    2    0    0  0.64772204769E+02 -0.29336669386E+02 -0.10706467089E+03  0.17928653221E+03  0.12499895278E+03 0.  0.
         25    2    1    2    0    0 -0.64772204769E+02  0.29336669386E+02  0.72467553912E+02  0.16103525809E+03  0.12499891718E+03 0.  0.
          5    1    3    3  502    0  0.55032400300E+02 -0.75733034934E+02 -0.54844696157E+02  0.10860059097E+03  0.47000000000E+01 0. -1.
         -5    1    3    3    0  502  0.97398044691E+01  0.46396365548E+02 -0.52219974730E+02  0.70685941233E+02  0.47000000000E+01 0. -1.
          5    1    4    4  503    0 -0.36716140272E+02  0.35661141315E+01  0.10457670809E+03  0.11099175646E+03  0.47000000000E+01 0.  1.
         -5    1    4    4    0  503 -0.28056064496E+02  0.25770555255E+02 -0.32109154179E+02  0.50043501629E+02  0.47000000000E+01 0.  1.
<mgrwt>
<rscale>  0 0.14380826E+03</rscale>
<asrwt>0</asrwt>
<pdfrwt beam="1">  1        5 0.23517283E-01 0.14380826E+03</pdfrwt>
<pdfrwt beam="2">  1       -5 0.28839916E-01 0.14380826E+03</pdfrwt>
<totfact> 0.14519880E+02</totfact>
</mgrwt>
</event>
<event>
 8    1  0.3754098E-007  0.1653137E+03  0.7546771E-02  0.1182828E+00
          5   -1    0    0  501    0  0.00000000000E+00  0.00000000000E+00  0.42986607510E+02  0.43242784661E+02  0.47000000000E+01 0. -1.
         -5   -1    0    0    0  501 -0.00000000000E+00 -0.00000000000E+00 -0.68278944654E+03  0.68280562264E+03  0.47000000000E+01 0. -1.
         25    2    1    2    0    0 -0.10403928467E+03 -0.29591038404E+02 -0.41738508247E+03  0.44893085413E+03  0.12501520872E+03 0.  0.
         25    2    1    2    0    0  0.10403928467E+03  0.29591038404E+02 -0.22241775657E+03  0.27711755318E+03  0.12499871013E+03 0.  0.
          5    1    4    4  502    0  0.78051559326E+02  0.31511245502E+02 -0.23362070418E+03  0.24836611671E+03  0.47000000000E+01 0. -1.
         -5    1    4    4    0  502  0.25987725346E+02 -0.19202070981E+01  0.11202947612E+02  0.28751436472E+02  0.47000000000E+01 0. -1.
          5    1    3    3  503    0 -0.12562390946E+03 -0.17358586318E+02 -0.39601151725E+03  0.41584840861E+03  0.47000000000E+01 0. -1.
         -5    1    3    3    0  503  0.21584624791E+02 -0.12232452086E+02 -0.21373565220E+02  0.33082445520E+02  0.47000000000E+01 0. -1.
<mgrwt>
<rscale>  0 0.16531054E+03</rscale>
<asrwt>0</asrwt>
<pdfrwt beam="1">  1        5 0.66342750E-02 0.16531366E+03</pdfrwt>
<pdfrwt beam="2">  1       -5 0.10506547E+00 0.16531366E+03</pdfrwt>
<totfact> 0.87445039E+01</totfact>
</mgrwt>
</event>
<event>
 8    1  0.3754098E-007  0.1562929E+03  0.7546771E-02  0.1192948E+00
          5   -1    0    0  501    0  0.00000000000E+00  0.00000000000E+00  0.55875403479E+02  0.56072727006E+02  0.47000000000E+01 0.  1.
         -5   -1    0    0    0  501 -0.00000000000E+00 -0.00000000000E+00 -0.43639426063E+03  0.43641956958E+03  0.47000000000E+01 0.  1.
         25    2    1    2    0    0  0.47253586035E+02  0.81047751380E+02 -0.19562752361E+03  0.25039257031E+03  0.12499868750E+03 0.  0.
         25    2    1    2    0    0 -0.47253586035E+02 -0.81047751380E+02 -0.18489133354E+03  0.24209972627E+03  0.12500333133E+03 0.  0.
          5    1    4    4  502    0  0.31662870374E+02 -0.46040015715E+02 -0.27341167974E+02  0.62384692622E+02  0.47000000000E+01 0. -1.
         -5    1    4    4    0  502 -0.78916456409E+02 -0.35007735665E+02 -0.15755016557E+03  0.17971503365E+03  0.47000000000E+01 0. -1.
          5    1    3    3  503    0  0.85177177037E+02  0.80018845551E+02 -0.13394093935E+03  0.17782134958E+03  0.47000000000E+01 0.  1.
         -5    1    3    3    0  503 -0.37923591002E+02  0.10289058298E+01 -0.61686584259E+02  0.72571220736E+02  0.47000000000E+01 0.  1.
<mgrwt>
<rscale>  0 0.15629198E+03</rscale>
<asrwt>0</asrwt>
<pdfrwt beam="1">  1        5 0.86133418E-02 0.15629291E+03</pdfrwt>
<pdfrwt beam="2">  1       -5 0.67154702E-01 0.15629291E+03</pdfrwt>
<totfact> 0.15735730E+02</totfact>
</mgrwt>
</event>
<event>
 8    1  0.3754098E-007  0.1441219E+03  0.7546771E-02  0.1207889E+00
         -5   -1    0    0    0  501 -0.00000000000E+00  0.00000000000E+00  0.56357981211E+03  0.56359940971E+03  0.47000000000E+01 0.  1.
          5   -1    0    0  501    0  0.00000000000E+00 -0.00000000000E+00 -0.40638317115E+02  0.40909202118E+02  0.47000000000E+01 0.  1.
         25    2    1    2    0    0 -0.60618721566E+02 -0.38338193847E+02  0.35539008455E+03  0.38350046484E+03  0.12500419123E+03 0.  0.
         25    2    1    2    0    0  0.60618721566E+02  0.38338193847E+02  0.16755141045E+03  0.22100814699E+03  0.12500671734E+03 0.  0.
          5    1    4    4  502    0 -0.27717025182E+02  0.45423206254E+02  0.45917309017E+02  0.70441397053E+02  0.47000000000E+01 0. -1.
         -5    1    4    4    0  502  0.88335746749E+02 -0.70850124066E+01  0.12163410143E+03  0.15056674993E+03  0.47000000000E+01 0. -1.
          5    1    3    3  503    0 -0.51223570534E+02 -0.78156728818E+02  0.17471024093E+03  0.19818699938E+03  0.47000000000E+01 0.  1.
         -5    1    3    3    0  503 -0.93951510324E+01  0.39818534971E+02  0.18067984362E+03  0.18531346546E+03  0.47000000000E+01 0.  1.
<mgrwt>
<rscale>  0 0.14412137E+03</rscale>
<asrwt>0</asrwt>
<pdfrwt beam="2">  1        5 0.62743942E-02 0.14412191E+03</pdfrwt>
<pdfrwt beam="1">  1       -5 0.86726923E-01 0.14412191E+03</pdfrwt>
<totfact> 0.14634301E+02</totfact>
</mgrwt>
</event>
<event>
 8    1  0.3754098E-007  0.1307700E+03  0.7546771E-02  0.1226321E+00
          5   -1    0    0  501    0  0.00000000000E+00  0.00000000000E+00  0.58303018744E+02  0.58492153274E+02  0.47000000000E+01 0. -1.
         -5   -1    0    0    0  501 -0.00000000000E+00 -0.00000000000E+00 -0.29274279318E+03  0.29278052012E+03  0.47000000000E+01 0. -1.
         25    2    1    2    0    0 -0.35475202645E+02 -0.14659981447E+02 -0.11342670838E+03  0.17310810364E+03  0.12500956889E+03 0.  0.
         25    2    1    2    0    0  0.35475202645E+02  0.14659981447E+02 -0.12101306606E+03  0.17816456975E+03  0.12500018679E+03 0.  0.
          5    1    4    4  502    0 -0.42661349485E+02  0.24060223594E+02 -0.29481223927E+02  0.57359547274E+02  0.47000000000E+01 0. -1.
         -5    1    4    4    0  502  0.78136552130E+02 -0.94002421471E+01 -0.91531842128E+02  0.12080502247E+03  0.47000000000E+01 0. -1.
          5    1    3    3  503    0  0.68354059107E+01 -0.51725879014E+02 -0.10321117248E+03  0.11574508827E+03  0.47000000000E+01 0. -1.
         -5    1    3    3    0  503 -0.42310608555E+02  0.37065897567E+02 -0.10215535899E+02  0.57363015371E+02  0.47000000000E+01 0. -1.
<mgrwt>
<rscale>  0 0.13076777E+03</rscale>
<asrwt>0</asrwt>
<pdfrwt beam="1">  1        5 0.89871462E-02 0.13077002E+03</pdfrwt>
<pdfrwt beam="2">  1       -5 0.45054803E-01 0.13077002E+03</pdfrwt>
<totfact> 0.32588931E+02</totfact>
</mgrwt>
</event>
<event>
 8    1  0.3754098E-007  0.1260822E+03  0.7546771E-02  0.1233388E+00
         -5   -1    0    0    0  501 -0.00000000000E+00  0.00000000000E+00  0.12018418488E+04  0.12018510388E+04  0.47000000000E+01 0. -1.
          5   -1    0    0  501    0  0.00000000000E+00 -0.00000000000E+00 -0.14597504317E+02  0.15335486046E+02  0.47000000000E+01 0. -1.
         25    2    1    2    0    0 -0.11849306061E+02 -0.11437737466E+02  0.80159831582E+03  0.81145315105E+03  0.12500051413E+03 0.  0.
         25    2    1    2    0    0  0.11849306061E+02  0.11437737466E+02  0.38564602866E+03  0.40573337381E+03  0.12500193325E+03 0.  0.
          5    1    4    4  502    0  0.55853956233E+02 -0.30884183348E+02  0.22054463015E+03  0.22964215880E+03  0.47000000000E+01 0. -1.
         -5    1    4    4    0  502 -0.44004650171E+02  0.42321920814E+02  0.16510139850E+03  0.17609121501E+03  0.47000000000E+01 0. -1.
          5    1    3    3  503    0  0.86853914439E+01  0.16605237746E+02  0.74235175908E+03  0.74260312022E+03  0.47000000000E+01 0. -1.
         -5    1    3    3    0  503 -0.20534697505E+02 -0.28042975213E+02  0.59246556735E+02  0.68850030831E+02  0.47000000000E+01 0. -1.
<mgrwt>
<rscale>  0 0.12608181E+03</rscale>
<asrwt>0</asrwt>
<pdfrwt beam="2">  1        5 0.23032449E-02 0.12608216E+03</pdfrwt>
<pdfrwt beam="1">  1       -5 0.18495620E+00 0.12608216E+03</pdfrwt>
<totfact> 0.10007079E+02</totfact>
</mgrwt>
</event>
<event>
 8    1  0.3754098E-007  0.1344375E+03  0.7546771E-02  0.1221021E+00
         -5   -1    0    0    0  501 -0.00000000000E+00  0.00000000000E+00  0.93374729887E+02  0.93492941880E+02  0.47000000000E+01 0. -1.
          5   -1    0    0  501    0  0.00000000000E+00 -0.00000000000E+00 -0.20870855261E+03  0.20876146659E+03  0.47000000000E+01 0. -1.
         25    2    1    2    0    0 -0.30152277938E+01 -0.49373007195E+02 -0.16581632024E+02  0.13545619288E+03  0.12500657675E+03 0.  0.
         25    2    1    2    0    0  0.30152277938E+01  0.49373007195E+02 -0.98752190697E+02  0.16679821559E+03  0.12499145618E+03 0.  0.
          5    1    4    4  502    0 -0.49720676410E+02  0.20382794072E+02 -0.35315524940E+01  0.54057060777E+02  0.47000000000E+01 0. -1.
         -5    1    4    4    0  502  0.52735904203E+02  0.28990213123E+02 -0.95220638202E+02  0.11274115481E+03  0.47000000000E+01 0. -1.
          5    1    3    3  503    0 -0.24888867689E+02 -0.33875980799E+02  0.48833552261E+02  0.64605291086E+02  0.47000000000E+01 0.  1.
         -5    1    3    3    0  503  0.21873639895E+02 -0.15497026396E+02 -0.65415184285E+02  0.70850901790E+02  0.47000000000E+01 0.  1.
<mgrwt>
<rscale>  0 0.13443394E+03</rscale>
<asrwt>0</asrwt>
<pdfrwt beam="2">  1        5 0.32122172E-01 0.13443746E+03</pdfrwt>
<pdfrwt beam="1">  1       -5 0.14378507E-01 0.13443746E+03</pdfrwt>
<totfact> 0.28542041E+02</totfact>
</mgrwt>
</event>
<event>
 8    1  0.3754098E-007  0.1262645E+03  0.7546771E-02  0.1233112E+00
         -5   -1    0    0    0  501 -0.00000000000E+00  0.00000000000E+00  0.49044151634E+02  0.49268842177E+02  0.47000000000E+01 0. -1.
          5   -1    0    0  501    0  0.00000000000E+00 -0.00000000000E+00 -0.38491271194E+03  0.38494140569E+03  0.47000000000E+01 0. -1.
         25    2    1    2    0    0 -0.95034476347E+01  0.15037031028E+02 -0.81637645381E+02  0.15035768345E+03  0.12500519993E+03 0.  0.
         25    2    1    2    0    0  0.95034476347E+01 -0.15037031028E+02 -0.25423091493E+03  0.28385256442E+03  0.12498996921E+03 0.  0.
          5    1    3    3  502    0  0.48817113913E+02 -0.13055414890E+02 -0.66602145390E+02  0.83734641811E+02  0.47000000000E+01 0.  1.
         -5    1    3    3    0  502 -0.58320561548E+02  0.28092445918E+02 -0.15035499991E+02  0.66623041636E+02  0.47000000000E+01 0.  1.
          5    1    4    4  503    0 -0.21298923076E+00  0.52925378186E+01  0.13441275618E+02  0.15192570922E+02  0.47000000000E+01 0. -1.
         -5    1    4    4    0  503  0.97164368655E+01 -0.20329568847E+02 -0.26767219054E+03  0.26865999350E+03  0.47000000000E+01 0. -1.
<mgrwt>
<rscale>  0 0.12626075E+03</rscale>
<asrwt>0</asrwt>
<pdfrwt beam="2">  1        5 0.59236830E-01 0.12626452E+03</pdfrwt>
<pdfrwt beam="1">  1       -5 0.75647454E-02 0.12626452E+03</pdfrwt>
<totfact> 0.24151491E+02</totfact>
</mgrwt>
</event>
<event>
 8    1  0.3754098E-007  0.1524426E+03  0.7546771E-02  0.1197503E+00
          5   -1    0    0  501    0  0.00000000000E+00  0.00000000000E+00  0.93150992569E+03  0.93152178271E+03  0.47000000000E+01 0.  1.
         -5   -1    0    0    0  501 -0.00000000000E+00 -0.00000000000E+00 -0.28208867996E+02  0.28597731267E+02  0.47000000000E+01 0.  1.
         25    2    1    2    0    0 -0.27205769216E+02 -0.82907093976E+02  0.28394182080E+03  0.32227582217E+03  0.12500003139E+03 0.  0.
         25    2    1    2    0    0  0.27205769216E+02  0.82907093976E+02  0.61935923689E+03  0.63784369180E+03  0.12499988294E+03 0.  0.
          5    1    4    4  502    0 -0.70620850786E+01  0.80197255851E+02  0.18147163198E+03  0.19858377604E+03  0.47000000000E+01 0. -1.
         -5    1    4    4    0  502  0.34267854294E+02  0.27098381245E+01  0.43788760491E+03  0.43925991576E+03  0.47000000000E+01 0. -1.
          5    1    3    3  503    0 -0.19178313989E+01 -0.10502259777E+03  0.26084016874E+03  0.28123496893E+03  0.47000000000E+01 0. -1.
         -5    1    3    3    0  503 -0.25287937817E+02  0.22115503794E+02  0.23101652057E+02  0.41040853242E+02  0.47000000000E+01 0. -1.
<mgrwt>
<rscale>  0 0.15244258E+03</rscale>
<asrwt>0</asrwt>
<pdfrwt beam="1">  1        5 0.14334002E+00 0.15244261E+03</pdfrwt>
<pdfrwt beam="2">  1       -5 0.43706513E-02 0.15244261E+03</pdfrwt>
<totfact> 0.77150023E+01</totfact>
</mgrwt>
</event>
<event>
 8    1  0.3754098E-007  0.2267562E+03  0.7546771E-02  0.1128944E+00
         -5   -1    0    0    0  501 -0.00000000000E+00  0.00000000000E+00  0.13508826275E+04  0.13508908036E+04  0.47000000000E+01 0.  1.
          5   -1    0    0  501    0  0.00000000000E+00 -0.00000000000E+00 -0.38098642879E+02  0.38387453539E+02  0.47000000000E+01 0.  1.
         25    2    1    2    0    0  0.18661843334E+03  0.31089908725E+02  0.60760694977E+03  0.64854008751E+03  0.12500007043E+03 0.  0.
         25    2    1    2    0    0 -0.18661843334E+03 -0.31089908725E+02  0.70517703481E+03  0.74073816960E+03  0.12500145356E+03 0.  0.
          5    1    3    3  502    0  0.95171052193E+02  0.21355470336E+02  0.48756208649E+03  0.49724487275E+03  0.47000000000E+01 0. -1.
         -5    1    3    3    0  502  0.91447381151E+02  0.97344383896E+01  0.12004486328E+03  0.15129521476E+03  0.47000000000E+01 0. -1.
          5    1    4    4  503    0  0.16394780111E+02 -0.22408119087E+01  0.10700175397E+03  0.10837562182E+03  0.47000000000E+01 0. -1.
         -5    1    4    4    0  503 -0.20301321346E+03 -0.28849096817E+02  0.59817528084E+03  0.63236254778E+03  0.47000000000E+01 0. -1.
<mgrwt>
<rscale>  0 0.22675603E+03</rscale>
<asrwt>0</asrwt>
<pdfrwt beam="2">  1        5 0.58841754E-02 0.22675622E+03</pdfrwt>
<pdfrwt beam="1">  1       -5 0.20785092E+00 0.22675622E+03</pdfrwt>
<totfact> 0.17423096E+01</totfact>
</mgrwt>
</event>
<event>
 8    1  0.3754098E-007  0.1312053E+03  0.7546771E-02  0.1225680E+00
          5   -1    0    0  501    0  0.00000000000E+00  0.00000000000E+00  0.58355771634E+03  0.58357664303E+03  0.47000000000E+01 0. -1.
         -5   -1    0    0    0  501 -0.00000000000E+00 -0.00000000000E+00 -0.40808121717E+02  0.41077886972E+02  0.47000000000E+01 0. -1.
         25    2    1    2    0    0 -0.20868679947E+02 -0.33966067851E+02  0.10615082331E+03  0.16876859013E+03  0.12500257660E+03 0.  0.
         25    2    1    2    0    0  0.20868679947E+02  0.33966067851E+02  0.43659877131E+03  0.45588593988E+03  0.12499722998E+03 0.  0.
          5    1    4    4  502    0 -0.79684519560E+01 -0.36265003818E+02  0.27197499402E+03  0.27453803762E+03  0.47000000000E+01 0.  1.
         -5    1    4    4    0  502  0.28837131903E+02  0.70231071669E+02  0.16462377729E+03  0.18134790225E+03  0.47000000000E+01 0.  1.
          5    1    3    3  503    0 -0.46846321733E+02 -0.57172431506E+02  0.21516012426E+02  0.77125181199E+02  0.47000000000E+01 0. -1.
         -5    1    3    3    0  503  0.25977641786E+02  0.23206363655E+02  0.84634810885E+02  0.91643408930E+02  0.47000000000E+01 0. -1.
<mgrwt>
<rscale>  0 0.13120406E+03</rscale>
<asrwt>0</asrwt>
<pdfrwt beam="1">  1        5 0.89800313E-01 0.13120533E+03</pdfrwt>
<pdfrwt beam="2">  1       -5 0.63003799E-02 0.13120533E+03</pdfrwt>
<totfact> 0.12981776E+02</totfact>
</mgrwt>
</event>
<event>
 8    1  0.3754098E-007  0.1446199E+03  0.7546771E-02  0.1207246E+00
         -5   -1    0    0    0  501 -0.00000000000E+00  0.00000000000E+00  0.14426258938E+02  0.15172572193E+02  0.47000000000E+01 0.  1.
          5   -1    0    0  501    0  0.00000000000E+00 -0.00000000000E+00 -0.14149632224E+04  0.14149710282E+04  0.47000000000E+01 0.  1.
         25    2    1    2    0    0  0.43620852311E+02 -0.58201334241E+02 -0.67007655300E+03  0.68550528683E+03  0.12499894930E+03 0.  0.
         25    2    1    2    0    0 -0.43620852311E+02  0.58201334241E+02 -0.73046041047E+03  0.74463831361E+03  0.12499453094E+03 0.  0.
          5    1    3    3  502    0  0.42872568240E+02  0.31157844724E+02 -0.30609860862E+03  0.31068845585E+03  0.47000000000E+01 0. -1.
         -5    1    3    3    0  502  0.74828407134E+00 -0.89359178965E+02 -0.36397794438E+03  0.37481683098E+03  0.47000000000E+01 0. -1.
          5    1    4    4  503    0 -0.85199760204E+02  0.52815636346E+02 -0.56755165951E+03  0.57635533032E+03  0.47000000000E+01 0. -1.
         -5    1    4    4    0  503  0.41578907893E+02  0.53856978950E+01 -0.16290875096E+03  0.16828298329E+03  0.47000000000E+01 0. -1.
<mgrwt>
<rscale>  0 0.14461893E+03</rscale>
<asrwt>0</asrwt>
<pdfrwt beam="2">  1        5 0.21774455E+00 0.14461989E+03</pdfrwt>
<pdfrwt beam="1">  1       -5 0.22774347E-02 0.14461989E+03</pdfrwt>
<totfact> 0.63785529E+01</totfact>
</mgrwt>
</event>
<event>
 8    1  0.3754098E-007  0.2718516E+03  0.7546771E-02  0.1100225E+00
         -5   -1    0    0    0  501 -0.00000000000E+00  0.00000000000E+00  0.10837422688E+04  0.10837524603E+04  0.47000000000E+01 0.  1.
          5   -1    0    0  501    0  0.00000000000E+00 -0.00000000000E+00 -0.68919858318E+02  0.69079931026E+02  0.47000000000E+01 0.  1.
         25    2    1    2    0    0 -0.21560165388E+03  0.10859407782E+03  0.44463657160E+03  0.52115735903E+03  0.12500626054E+03 0.  0.
         25    2    1    2    0    0  0.21560165388E+03 -0.10859407782E+03  0.57018583887E+03  0.63167503228E+03  0.12499883462E+03 0.  0.
          5    1    4    4  502    0  0.20519717573E+03 -0.88163353543E+02  0.56520337889E+03  0.60774633470E+03  0.47000000000E+01 0.  1.
         -5    1    4    4    0  502  0.10404478153E+02 -0.20430724279E+02  0.49824599828E+01  0.23928697576E+02  0.47000000000E+01 0.  1.
          5    1    3    3  503    0 -0.76213578275E+02 -0.12846532384E+02  0.74787650884E+02  0.10765140795E+03  0.47000000000E+01 0. -1.
         -5    1    3    3    0  503 -0.13938807561E+03  0.12144061021E+03  0.36984892072E+03  0.41350595109E+03  0.47000000000E+01 0. -1.
<mgrwt>
<rscale>  0 0.27185078E+03</rscale>
<asrwt>0</asrwt>
<pdfrwt beam="2">  1        5 0.10616152E-01 0.27185164E+03</pdfrwt>
<pdfrwt beam="1">  1       -5 0.16674268E+00 0.27185164E+03</pdfrwt>
<totfact> 0.12755629E+01</totfact>
</mgrwt>
</event>
<event>
 8    1  0.3754098E-007  0.1389545E+03  0.7546771E-02  0.1214744E+00
         -5   -1    0    0    0  501 -0.00000000000E+00  0.00000000000E+00  0.51495745641E+02  0.51709784559E+02  0.47000000000E+01 0.  1.
          5   -1    0    0  501    0  0.00000000000E+00 -0.00000000000E+00 -0.52713491534E+03  0.52715586781E+03  0.47000000000E+01 0.  1.
         25    2    1    2    0    0  0.44160525503E+02 -0.41634369391E+02 -0.81816660224E+02  0.16124797563E+03  0.12499348394E+03 0.  0.
         25    2    1    2    0    0 -0.44160525503E+02  0.41634369391E+02 -0.39382250947E+03  0.41761767674E+03  0.12499912893E+03 0.  0.
          5    1    3    3  502    0  0.68282776522E+02 -0.66596791387E+02 -0.32743816216E+02  0.10095502807E+03  0.47000000000E+01 0.  1.
         -5    1    3    3    0  502 -0.24122251019E+02  0.24962421996E+02 -0.49072844008E+02  0.60292947557E+02  0.47000000000E+01 0.  1.
          5    1    4    4  503    0 -0.30293551090E+01  0.15757617379E+02  0.36864768540E+01  0.17121904375E+02  0.47000000000E+01 0.  1.
         -5    1    4    4    0  503 -0.41131170394E+02  0.25876752012E+02 -0.39750898633E+03  0.40049577237E+03  0.47000000000E+01 0.  1.
<mgrwt>
<rscale>  0 0.13895324E+03</rscale>
<asrwt>0</asrwt>
<pdfrwt beam="2">  1        5 0.81115752E-01 0.13895451E+03</pdfrwt>
<pdfrwt beam="1">  1       -5 0.79404990E-02 0.13895451E+03</pdfrwt>
<totfact> 0.11331420E+02</totfact>
</mgrwt>
</event>
<event>
 8    1  0.3754098E-007  0.1255500E+03  0.7546771E-02  0.1234215E+00
          5   -1    0    0  501    0  0.00000000000E+00  0.00000000000E+00  0.24902760802E+03  0.24907195658E+03  0.47000000000E+01 0.  1.
         -5   -1    0    0    0  501 -0.00000000000E+00 -0.00000000000E+00 -0.87130030902E+02  0.87256703381E+02  0.47000000000E+01 0.  1.
         25    2    1    2    0    0  0.11561277485E+02 -0.16244250019E+01 -0.71637621679E+01  0.12574720051E+03  0.12499894821E+03 0.  0.
         25    2    1    2    0    0 -0.11561277485E+02  0.16244250019E+01  0.16906133929E+03  0.21058145946E+03  0.12500605078E+03 0.  0.
          5    1    3    3  502    0  0.37672392595E+02 -0.54475541934E+02 -0.31220073103E+01  0.66472782118E+02  0.47000000000E+01 0.  1.
         -5    1    3    3    0  502 -0.26111115110E+02  0.52851116932E+02 -0.40417548576E+01  0.59274418391E+02  0.47000000000E+01 0.  1.
          5    1    4    4  503    0  0.46369356108E+02 -0.28543722540E+02  0.10802179032E+03  0.12106055702E+03  0.47000000000E+01 0. -1.
         -5    1    4    4    0  503 -0.57930633594E+02  0.30168147542E+02  0.61039548966E+02  0.89520902434E+02  0.47000000000E+01 0. -1.
<mgrwt>
<rscale>  0 0.12554828E+03</rscale>
<asrwt>0</asrwt>
<pdfrwt beam="1">  1        5 0.38325095E-01 0.12555005E+03</pdfrwt>
<pdfrwt beam="2">  1       -5 0.13417776E-01 0.12555005E+03</pdfrwt>
<totfact> 0.22139360E+02</totfact>
</mgrwt>
</event>
<event>
 8    1  0.3754098E-007  0.1834819E+03  0.7546771E-02  0.1164476E+00
          5   -1    0    0  501    0  0.00000000000E+00  0.00000000000E+00  0.33460087410E+02  0.33788569806E+02  0.47000000000E+01 0.  1.
         -5   -1    0    0    0  501 -0.00000000000E+00 -0.00000000000E+00 -0.11465017949E+04  0.11465114285E+04  0.47000000000E+01 0.  1.
         25    2    1    2    0    0 -0.10644093852E+03 -0.81920563631E+02 -0.76681080402E+03  0.78845636422E+03  0.12499590785E+03 0.  0.
         25    2    1    2    0    0  0.10644093852E+03  0.81920563631E+02 -0.34623090349E+03  0.39184363411E+03  0.12499977172E+03 0.  0.
          5    1    3    3  502    0 -0.12250297244E+03 -0.96142429849E+02 -0.58753351046E+03  0.60783884458E+03  0.47000000000E+01 0. -1.
         -5    1    3    3    0  502  0.16062033923E+02  0.14221866217E+02 -0.17927729356E+03  0.18061751963E+03  0.47000000000E+01 0. -1.
          5    1    4    4  503    0  0.69542010567E+02 -0.14159660755E+02 -0.20527898743E+03  0.21725132890E+03  0.47000000000E+01 0.  1.
         -5    1    4    4    0  503  0.36898927949E+02  0.96080224386E+02 -0.14095191605E+03  0.17459230522E+03  0.47000000000E+01 0.  1.
<mgrwt>
<rscale>  0 0.18348121E+03</rscale>
<asrwt>0</asrwt>
<pdfrwt beam="1">  1        5 0.51737156E-02 0.18348187E+03</pdfrwt>
<pdfrwt beam="2">  1       -5 0.17641087E+00 0.18348187E+03</pdfrwt>
<totfact> 0.34193482E+01</totfact>
</mgrwt>
</event>
<event>
 8    1  0.3754098E-007  0.1550579E+03  0.7546771E-02  0.1194392E+00
         -5   -1    0    0    0  501 -0.00000000000E+00  0.00000000000E+00  0.37816693226E+03  0.37819613781E+03  0.47000000000E+01 0.  1.
          5   -1    0    0  501    0  0.00000000000E+00 -0.00000000000E+00 -0.70136188284E+02  0.70293491214E+02  0.47000000000E+01 0.  1.
         25    2    1    2    0    0 -0.14387689895E+02  0.90610729432E+02  0.22311272928E+03  0.27170247848E+03  0.12500254771E+03 0.  0.
         25    2    1    2    0    0  0.14387689895E+02 -0.90610729432E+02  0.84918014695E+02  0.17678715055E+03  0.12500126987E+03 0.  0.
          5    1    3    3  502    0  0.40623365949E+02 -0.14405847607E+01  0.10181721278E+03  0.10973225580E+03  0.47000000000E+01 0.  1.
         -5    1    3    3    0  502 -0.55011055845E+02  0.92051314193E+02  0.12129551650E+03  0.16197022267E+03  0.47000000000E+01 0.  1.
          5    1    4    4  503    0 -0.33370401257E+02 -0.39052978285E+01  0.68357831096E+02  0.76313289166E+02  0.47000000000E+01 0.  1.
         -5    1    4    4    0  503  0.47758091152E+02 -0.86705431603E+02  0.16560183600E+02  0.10047386138E+03  0.47000000000E+01 0.  1.
<mgrwt>
<rscale>  0 0.15505762E+03</rscale>
<asrwt>0</asrwt>
<pdfrwt beam="2">  1        5 0.10804529E-01 0.15505788E+03</pdfrwt>
<pdfrwt beam="1">  1       -5 0.58193876E-01 0.15505788E+03</pdfrwt>
<totfact> 0.14508247E+02</totfact>
</mgrwt>
</event>
<event>
 8    1  0.3754098E-007  0.1640713E+03  0.7546771E-02  0.1184176E+00
          5   -1    0    0  501    0  0.00000000000E+00  0.00000000000E+00  0.10283151578E+03  0.10293886845E+03  0.47000000000E+01 0.  1.
         -5   -1    0    0    0  501 -0.00000000000E+00 -0.00000000000E+00 -0.29084121938E+03  0.29087919295E+03  0.47000000000E+01 0.  1.
         25    2    1    2    0    0  0.10358688247E+03  0.23757422453E+02 -0.15651927342E+03  0.22675213097E+03  0.12499435430E+03 0.  0.
         25    2    1    2    0    0 -0.10358688247E+03 -0.23757422453E+02 -0.31490430176E+02  0.16706593043E+03  0.12499888230E+03 0.  0.
          5    1    4    4  502    0 -0.11437018405E+03 -0.28527601844E+02  0.14959590862E+02  0.11891275131E+03  0.47000000000E+01 0.  1.
         -5    1    4    4    0  502  0.10783301577E+02  0.47701793914E+01 -0.46450021038E+02  0.48153179114E+02  0.47000000000E+01 0.  1.
          5    1    3    3  503    0  0.10493241559E+03 -0.13415382911E+02 -0.56682439801E+02  0.12010734083E+03  0.47000000000E+01 0. -1.
         -5    1    3    3    0  503 -0.13455331127E+01  0.37172805364E+02 -0.99836833618E+02  0.10664479014E+03  0.47000000000E+01 0. -1.
<mgrwt>
<rscale>  0 0.16407040E+03</rscale>
<asrwt>0</asrwt>
<pdfrwt beam="1">  1        5 0.15831412E-01 0.16407126E+03</pdfrwt>
<pdfrwt beam="2">  1       -5 0.44755982E-01 0.16407126E+03</pdfrwt>
<totfact> 0.13038843E+02</totfact>
</mgrwt>
</event>
<event>
 8    1  0.3754098E-007  0.1256441E+03  0.7546771E-02  0.1234070E+00
          5   -1    0    0  501    0  0.00000000000E+00  0.00000000000E+00  0.17857223617E+02  0.18465384786E+02  0.47000000000E+01 0. -1.
         -5   -1    0    0    0  501 -0.00000000000E+00 -0.00000000000E+00 -0.10770697041E+04  0.10770799588E+04  0.47000000000E+01 0. -1.
         25    2    1    2    0    0 -0.66521100147E+01 -0.10686925152E+02 -0.77053693223E+03  0.78071202366E+03  0.12500255605E+03 0.  0.
         25    2    1    2    0    0  0.66521100147E+01  0.10686925152E+02 -0.28867554828E+03  0.31483331988E+03  0.12501194421E+03 0.  0.
          5    1    3    3  502    0  0.29744468092E+01 -0.50208665242E+02 -0.67346573634E+03  0.67535764260E+03  0.47000000000E+01 0. -1.
         -5    1    3    3    0  502 -0.96265568239E+01  0.39521740090E+02 -0.97071195893E+02  0.10535438106E+03  0.47000000000E+01 0. -1.
          5    1    4    4  503    0  0.14525422480E+02  0.59596221817E+02 -0.22906585577E+03  0.23718337596E+03  0.47000000000E+01 0. -1.
         -5    1    4    4    0  503 -0.78733124656E+01 -0.48909296665E+02 -0.59609692513E+02  0.77649943921E+02  0.47000000000E+01 0. -1.
<mgrwt>
<rscale>  0 0.12564179E+03</rscale>
<asrwt>0</asrwt>
<pdfrwt beam="1">  1        5 0.27948364E-02 0.12564413E+03</pdfrwt>
<pdfrwt beam="2">  1       -5 0.16575055E+00 0.12564413E+03</pdfrwt>
<totfact> 0.10080765E+02</totfact>
</mgrwt>
</event>
<event>
 8    1  0.3754098E-007  0.1337874E+03  0.7546771E-02  0.1221943E+00
          5   -1    0    0  501    0  0.00000000000E+00  0.00000000000E+00  0.17650958781E+04  0.17651021356E+04  0.47000000000E+01 0. -1.
         -5   -1    0    0    0  501 -0.00000000000E+00 -0.00000000000E+00 -0.99348403050E+01  0.10990498255E+02  0.47000000000E+01 0. -1.
         25    2    1    2    0    0  0.21423181708E+02 -0.42610431721E+02  0.72024551282E+03  0.73256581621E+03  0.12499789894E+03 0.  0.
         25    2    1    2    0    0 -0.21423181708E+02  0.42610431721E+02  0.10349155250E+04  0.10435268176E+04  0.12499389414E+03 0.  0.
          5    1    4    4  502    0 -0.16679707422E+02  0.31382283421E+02  0.71133826610E+02  0.79656585670E+02  0.47000000000E+01 0. -1.
         -5    1    4    4    0  502 -0.47434742861E+01  0.11228148300E+02  0.96378169838E+03  0.96387023192E+03  0.47000000000E+01 0. -1.
          5    1    3    3  503    0  0.79937335029E+00  0.28491124860E+01  0.62416149727E+03  0.62418620708E+03  0.47000000000E+01 0. -1.
         -5    1    3    3    0  503  0.20623808358E+02 -0.45459544207E+02  0.96084015553E+02  0.10837960913E+03  0.47000000000E+01 0. -1.
<mgrwt>
<rscale>  0 0.13378649E+03</rscale>
<asrwt>0</asrwt>
<pdfrwt beam="1">  1        5 0.27163507E+00 0.13378743E+03</pdfrwt>
<pdfrwt beam="2">  1       -5 0.16101218E-02 0.13378743E+03</pdfrwt>
<totfact> 0.49034749E+01</totfact>
</mgrwt>
</event>
<event>
 8    1  0.3754098E-007  0.1477172E+03  0.7546771E-02  0.1203307E+00
          5   -1    0    0  501    0  0.00000000000E+00  0.00000000000E+00  0.59922080103E+02  0.60106120186E+02  0.47000000000E+01 0. -1.
         -5   -1    0    0    0  501 -0.00000000000E+00 -0.00000000000E+00 -0.36507559666E+03  0.36510584941E+03  0.47000000000E+01 0. -1.
         25    2    1    2    0    0 -0.29017925386E+02  0.73168278921E+02 -0.13810694304E+03  0.20222240477E+03  0.12499894496E+03 0.  0.
         25    2    1    2    0    0  0.29017925386E+02 -0.73168278921E+02 -0.16704657352E+03  0.22298956483E+03  0.12499660501E+03 0.  0.
          5    1    3    3  502    0 -0.67109401527E+02  0.13933497591E+02 -0.34551478236E+02  0.76900642239E+02  0.47000000000E+01 0. -1.
         -5    1    3    3    0  502  0.38091476141E+02  0.59234781329E+02 -0.10355546480E+03  0.12532176253E+03  0.47000000000E+01 0. -1.
          5    1    4    4  503    0 -0.20798258832E+02 -0.65584579488E+02 -0.15688094814E+03  0.17136985303E+03  0.47000000000E+01 0. -1.
         -5    1    4    4    0  503  0.49816184217E+02 -0.75836994329E+01 -0.10165625376E+02  0.51619711800E+02  0.47000000000E+01 0. -1.
<mgrwt>
<rscale>  0 0.14771671E+03</rscale>
<asrwt>0</asrwt>
<pdfrwt beam="1">  1        5 0.92352659E-02 0.14771721E+03</pdfrwt>
<pdfrwt beam="2">  1       -5 0.56181959E-01 0.14771721E+03</pdfrwt>
<totfact> 0.20282324E+02</totfact>
</mgrwt>
</event>
<event>
 8    1  0.3754098E-007  0.1617370E+03  0.7546771E-02  0.1186750E+00
         -5   -1    0    0    0  501 -0.00000000000E+00  0.00000000000E+00  0.74365658007E+02  0.74514032845E+02  0.47000000000E+01 0. -1.
          5   -1    0    0  501    0  0.00000000000E+00 -0.00000000000E+00 -0.35511507097E+03  0.35514617220E+03  0.47000000000E+01 0. -1.
         25    2    1    2    0    0  0.42505890530E+02 -0.93420925915E+02 -0.11794217216E+03  0.20017154987E+03  0.12499629305E+03 0.  0.
         25    2    1    2    0    0 -0.42505890530E+02  0.93420925915E+02 -0.16280724080E+03  0.22948865517E+03  0.12499850026E+03 0.  0.
          5    1    4    4  502    0 -0.18922351581E+02 -0.28146755720E+02 -0.57224501106E+02  0.66686046320E+02  0.47000000000E+01 0. -1.
         -5    1    4    4    0  502 -0.23583538950E+02  0.12156768163E+03 -0.10558273969E+03  0.16280260885E+03  0.47000000000E+01 0. -1.
          5    1    3    3  503    0 -0.11552930256E+02 -0.61553384404E+02 -0.12189070002E+03  0.13711937165E+03  0.47000000000E+01 0.  1.
         -5    1    3    3    0  503  0.54058820786E+02 -0.31867541511E+02  0.39485278621E+01  0.63052178225E+02  0.47000000000E+01 0.  1.
<mgrwt>
<rscale>  0 0.16173654E+03</rscale>
<asrwt>0</asrwt>
<pdfrwt beam="2">  1        5 0.54646893E-01 0.16173696E+03</pdfrwt>
<pdfrwt beam="1">  1       -5 0.11454676E-01 0.16173696E+03</pdfrwt>
<totfact> 0.15200752E+02</totfact>
</mgrwt>
</event>
<event>
 8    1  0.3754098E-007  0.1633295E+03  0.7546771E-02  0.1184993E+00
         -5   -1    0    0    0  501 -0.00000000000E+00  0.00000000000E+00  0.43411355167E+02  0.43665040449E+02  0.47000000000E+01 0.  1.
          5   -1    0    0  501    0  0.00000000000E+00 -0.00000000000E+00 -0.61741110749E+03  0.61742899645E+03  0.47000000000E+01 0.  1.
         25    2    1    2    0    0 -0.15237595230E+02  0.10401606032E+03 -0.25719530409E+03  0.30466511180E+03  0.12497952149E+03 0.  0.
         25    2    1    2    0    0  0.15237595230E+02 -0.10401606032E+03 -0.31680444823E+03  0.35642892509E+03  0.12499998044E+03 0.  0.
          5    1    3    3  502    0  0.27673416160E+02 -0.16185932437E+02 -0.79352853123E+02  0.85713287590E+02  0.47000000000E+01 0. -1.
         -5    1    3    3    0  502 -0.42911011389E+02  0.12020199275E+03 -0.17784245097E+03  0.21895182421E+03  0.47000000000E+01 0. -1.
          5    1    4    4  503    0  0.44698558032E+01 -0.13120399127E+03 -0.27921169268E+03  0.30857045591E+03  0.47000000000E+01 0. -1.
         -5    1    4    4    0  503  0.10767739426E+02  0.27187930952E+02 -0.37592755557E+02  0.47858469179E+02  0.47000000000E+01 0. -1.
<mgrwt>
<rscale>  0 0.16332557E+03</rscale>
<asrwt>0</asrwt>
<pdfrwt beam="2">  1        5 0.95007208E-01 0.16332948E+03</pdfrwt>
<pdfrwt beam="1">  1       -5 0.66995608E-02 0.16332948E+03</pdfrwt>
<totfact> 0.10960533E+02</totfact>
</mgrwt>
</event>
<event>
 8    1  0.3754098E-007  0.1496475E+03  0.7546771E-02  0.1200907E+00
         -5   -1    0    0    0  501 -0.00000000000E+00  0.00000000000E+00  0.35746118500E+02  0.36053779106E+02  0.47000000000E+01 0.  1.
          5   -1    0    0  501    0  0.00000000000E+00 -0.00000000000E+00 -0.63731352419E+03  0.63733085452E+03  0.47000000000E+01 0.  1.
         25    2    1    2    0    0  0.63452015787E+02 -0.52380410566E+02 -0.25119437724E+03  0.29239184625E+03  0.12499804349E+03 0.  0.
         25    2    1    2    0    0 -0.63452015787E+02  0.52380410566E+02 -0.35037302845E+03  0.38099278737E+03  0.12499751696E+03 0.  0.
          5    1    3    3  502    0 -0.35267399665E+02 -0.18576016069E+02 -0.39411525806E+02  0.56251366370E+02  0.47000000000E+01 0.  1.
         -5    1    3    3    0  502  0.98719415452E+02 -0.33804394497E+02 -0.21178285143E+03  0.23614047988E+03  0.47000000000E+01 0.  1.
          5    1    4    4  503    0  0.29287233322E+02  0.42694550254E+02 -0.17170142165E+03  0.17939909379E+03  0.47000000000E+01 0.  1.
         -5    1    4    4    0  503 -0.92739249108E+02  0.96858603123E+01 -0.17867160681E+03  0.20159369359E+03  0.47000000000E+01 0.  1.
<mgrwt>
<rscale>  0 0.14964740E+03</rscale>
<asrwt>0</asrwt>
<pdfrwt beam="2">  1        5 0.98073225E-01 0.14964751E+03</pdfrwt>
<pdfrwt beam="1">  1       -5 0.55244026E-02 0.14964751E+03</pdfrwt>
<totfact> 0.13675540E+02</totfact>
</mgrwt>
</event>
<event>
 8    1  0.3754098E-007  0.1467316E+03  0.7546771E-02  0.1204548E+00
          5   -1    0    0  501    0  0.00000000000E+00  0.00000000000E+00  0.90756113888E+02  0.90877732191E+02  0.47000000000E+01 0. -1.
         -5   -1    0    0    0  501 -0.00000000000E+00 -0.00000000000E+00 -0.23705231929E+03  0.23709890780E+03  0.47000000000E+01 0. -1.
         25    2    1    2    0    0  0.67200010498E+02 -0.37247695247E+02 -0.76958452924E+02  0.16568710292E+03  0.12500552142E+03 0.  0.
         25    2    1    2    0    0 -0.67200010498E+02  0.37247695247E+02 -0.69337752478E+02  0.16228953707E+03  0.12500775061E+03 0.  0.
          5    1    3    3  502    0  0.41237194249E+02  0.33325491709E+02  0.60657828935E+01  0.53572178501E+02  0.47000000000E+01 0. -1.
         -5    1    3    3    0  502  0.25962816249E+02 -0.70573186956E+02 -0.83024235818E+02  0.11211492442E+03  0.47000000000E+01 0. -1.
          5    1    4    4  503    0  0.15135297970E+01  0.68787664838E+02 -0.46473284732E+02  0.83161828985E+02  0.47000000000E+01 0.  1.
         -5    1    4    4    0  503 -0.68713540295E+02 -0.31539969591E+02 -0.22864467746E+02  0.79127708086E+02  0.47000000000E+01 0.  1.
<mgrwt>
<rscale>  0 0.14673115E+03</rscale>
<asrwt>0</asrwt>
<pdfrwt beam="1">  1        5 0.13975418E-01 0.14673163E+03</pdfrwt>
<pdfrwt beam="2">  1       -5 0.36482526E-01 0.14673163E+03</pdfrwt>
<totfact> 0.23992262E+02</totfact>
</mgrwt>
</event>
<event>
 8    1  0.3754098E-007  0.1573216E+03  0.7546771E-02  0.1191757E+00
         -5   -1    0    0    0  501 -0.00000000000E+00  0.00000000000E+00  0.11067106281E+02  0.12023761535E+02  0.47000000000E+01 0. -1.
          5   -1    0    0  501    0  0.00000000000E+00 -0.00000000000E+00 -0.22416624728E+04  0.22416673999E+04  0.47000000000E+01 0. -1.
         25    2    1    2    0    0  0.56651489673E+02  0.76893581900E+02 -0.87849041658E+03  0.89246454782E+03  0.12500217152E+03 0.  0.
         25    2    1    2    0    0 -0.56651489673E+02 -0.76893581900E+02 -0.13521049499E+04  0.13612266137E+04  0.12501233475E+03 0.  0.
          5    1    3    3  502    0  0.53383259237E+02  0.98888936379E+02 -0.46726594242E+03  0.48061246868E+03  0.47000000000E+01 0. -1.
         -5    1    3    3    0  502  0.32682304357E+01 -0.21995354479E+02 -0.41122447416E+03  0.41185207914E+03  0.47000000000E+01 0. -1.
          5    1    4    4  503    0 -0.79012004433E+02 -0.29754675987E+02 -0.46848046877E+03  0.47605070865E+03  0.47000000000E+01 0. -1.
         -5    1    4    4    0  503  0.22360514760E+02 -0.47138905913E+02 -0.88362448118E+03  0.88517590501E+03  0.47000000000E+01 0. -1.
<mgrwt>
<rscale>  0 0.15731962E+03</rscale>
<asrwt>0</asrwt>
<pdfrwt beam="2">  1        5 0.34494477E+00 0.15732164E+03</pdfrwt>
<pdfrwt beam="1">  1       -5 0.17766014E-02 0.15732164E+03</pdfrwt>
<totfact> 0.14844880E+01</totfact>
</mgrwt>
</event>
<event>
 8    1  0.3754098E-007  0.1332266E+03  0.7546771E-02  0.1222750E+00
          5   -1    0    0  501    0  0.00000000000E+00  0.00000000000E+00  0.36898244751E+02  0.37196377051E+02  0.47000000000E+01 0.  1.
         -5   -1    0    0    0  501 -0.00000000000E+00 -0.00000000000E+00 -0.50657548034E+03  0.50659728314E+03  0.47000000000E+01 0.  1.
         25    2    1    2    0    0  0.16037131375E+02 -0.43211451527E+02 -0.29856883572E+03  0.32694445960E+03  0.12499964349E+03 0.  0.
         25    2    1    2    0    0 -0.16037131375E+02  0.43211451527E+02 -0.17110839987E+03  0.21684920059E+03  0.12498428767E+03 0.  0.
          5    1    4    4  502    0  0.18382278472E+02 -0.16397619222E+01  0.13744945776E+02  0.23486390003E+02  0.47000000000E+01 0. -1.
         -5    1    4    4    0  502 -0.34419409847E+02  0.44851213449E+02 -0.18485334564E+03  0.19336281058E+03  0.47000000000E+01 0. -1.
          5    1    3    3  503    0  0.33655995810E+02 -0.34049754198E+02 -0.28110181611E+02  0.55717000324E+02  0.47000000000E+01 0. -1.
         -5    1    3    3    0  503 -0.17618864435E+02 -0.91616973293E+01 -0.27045865411E+03  0.27122745928E+03  0.47000000000E+01 0. -1.
<mgrwt>
<rscale>  0 0.13322301E+03</rscale>
<asrwt>0</asrwt>
<pdfrwt beam="1">  1        5 0.57012638E-02 0.13322661E+03</pdfrwt>
<pdfrwt beam="2">  1       -5 0.77959295E-01 0.13322661E+03</pdfrwt>
<totfact> 0.21466034E+02</totfact>
</mgrwt>
</event>
<event>
 8    1  0.3754098E-007  0.1356765E+03  0.7546771E-02  0.1219268E+00
         -5   -1    0    0    0  501 -0.00000000000E+00  0.00000000000E+00  0.59107207788E+02  0.59293777182E+02  0.47000000000E+01 0.  1.
          5   -1    0    0  501    0  0.00000000000E+00 -0.00000000000E+00 -0.32798017382E+03  0.32801384791E+03  0.47000000000E+01 0.  1.
         25    2    1    2    0    0  0.34200689138E+02  0.40162780144E+02 -0.90053377194E+02  0.16284256240E+03  0.12500141335E+03 0.  0.
         25    2    1    2    0    0 -0.34200689138E+02 -0.40162780144E+02 -0.17881958884E+03  0.22446506269E+03  0.12500153187E+03 0.  0.
          5    1    3    3  502    0  0.64539698346E+02  0.18135822958E+02 -0.10292721546E+03  0.12292429548E+03  0.47000000000E+01 0.  1.
         -5    1    3    3    0  502 -0.30339009208E+02  0.22026957186E+02  0.12873838262E+02  0.39918266924E+02  0.47000000000E+01 0.  1.
          5    1    4    4  503    0  0.25343120193E+02  0.11518889471E+02  0.80324413920E+00  0.28243472819E+02  0.47000000000E+01 0.  1.
         -5    1    4    4    0  503 -0.59543809331E+02 -0.51681669616E+02 -0.17962283298E+03  0.19622158987E+03  0.47000000000E+01 0.  1.
<mgrwt>
<rscale>  0 0.13567650E+03</rscale>
<asrwt>0</asrwt>
<pdfrwt beam="2">  1        5 0.50475429E-01 0.13567652E+03</pdfrwt>
<pdfrwt beam="1">  1       -5 0.91103586E-02 0.13567652E+03</pdfrwt>
<totfact> 0.25394183E+02</totfact>
</mgrwt>
</event>
<event>
 8    1  0.3754098E-007  0.1383984E+03  0.7546771E-02  0.1215502E+00
          5   -1    0    0  501    0  0.00000000000E+00  0.00000000000E+00  0.34888512939E+03  0.34891678594E+03  0.47000000000E+01 0.  1.
         -5   -1    0    0    0  501 -0.00000000000E+00 -0.00000000000E+00 -0.59749721600E+02  0.59934290947E+02  0.47000000000E+01 0.  1.
         25    2    1    2    0    0  0.28126434296E+02 -0.52326136747E+02  0.85631705456E+02  0.16274801197E+03  0.12500002211E+03 0.  0.
         25    2    1    2    0    0 -0.28126434296E+02  0.52326136747E+02  0.20350370234E+03  0.24610306492E+03  0.12499536313E+03 0.  0.
          5    1    4    4  502    0 -0.46469125498E+01  0.49033076745E+01 -0.17214993993E+02  0.19080939195E+02  0.47000000000E+01 0.  1.
         -5    1    4    4    0  502 -0.23479521747E+02  0.47422829072E+02  0.22071869633E+03  0.22702212573E+03  0.47000000000E+01 0.  1.
          5    1    3    3  503    0 -0.24569462569E+02 -0.67926961654E+02  0.16383485199E+02  0.74217512743E+02  0.47000000000E+01 0.  1.
         -5    1    3    3    0  503  0.52695896866E+02  0.15600824907E+02  0.69248220257E+02  0.88530499225E+02  0.47000000000E+01 0.  1.
<mgrwt>
<rscale>  0 0.13839738E+03</rscale>
<asrwt>0</asrwt>
<pdfrwt beam="1">  1        5 0.53691269E-01 0.13839843E+03</pdfrwt>
<pdfrwt beam="2">  1       -5 0.92088975E-02 0.13839843E+03</pdfrwt>
<totfact> 0.21994368E+02</totfact>
</mgrwt>
</event>
<event>
 8    1  0.3754098E-007  0.1573343E+03  0.7546771E-02  0.1191740E+00
         -5   -1    0    0    0  501 -0.00000000000E+00  0.00000000000E+00  0.17394252357E+03  0.17400600997E+03  0.47000000000E+01 0.  1.
          5   -1    0    0  501    0  0.00000000000E+00 -0.00000000000E+00 -0.14494715911E+03  0.14502333928E+03  0.47000000000E+01 0.  1.
         25    2    1    2    0    0 -0.53474931147E+02  0.79179074417E+02  0.36516755276E+02  0.16151640726E+03  0.12500072925E+03 0.  0.
         25    2    1    2    0    0  0.53474931147E+02 -0.79179074417E+02 -0.75213908154E+01  0.15751294199E+03  0.12499944595E+03 0.  0.
          5    1    3    3  502    0 -0.49532454120E+02 -0.90925424015E+01 -0.22289888554E+02  0.55272664765E+02  0.47000000000E+01 0.  1.
         -5    1    3    3    0  502 -0.39424770263E+01  0.88271616818E+02  0.58806643830E+02  0.10624374250E+03  0.47000000000E+01 0.  1.
          5    1    4    4  503    0  0.42722091554E+02  0.21290463570E+01  0.43191811314E+02  0.60969931193E+02  0.47000000000E+01 0. -1.
         -5    1    4    4    0  503  0.10752839592E+02 -0.81308120774E+02 -0.50713202129E+02  0.96543010795E+02  0.47000000000E+01 0. -1.
<mgrwt>
<rscale>  0 0.15733403E+03</rscale>
<asrwt>0</asrwt>
<pdfrwt beam="2">  1        5 0.22310306E-01 0.15733428E+03</pdfrwt>
<pdfrwt beam="1">  1       -5 0.26771132E-01 0.15733428E+03</pdfrwt>
<totfact> 0.19100593E+02</totfact>
</mgrwt>
</event>
<event>
 8    1  0.3754098E-007  0.1270066E+03  0.7546771E-02  0.1231966E+00
          5   -1    0    0  501    0  0.00000000000E+00  0.00000000000E+00  0.48001548298E+03  0.48003849211E+03  0.47000000000E+01 0. -1.
         -5   -1    0    0    0  501 -0.00000000000E+00 -0.00000000000E+00 -0.34735911339E+02  0.35052439809E+02  0.47000000000E+01 0. -1.
         25    2    1    2    0    0  0.40346406642E+00  0.22489638722E+02  0.17268559786E+03  0.21436180827E+03  0.12499889001E+03 0.  0.
         25    2    1    2    0    0 -0.40346406642E+00 -0.22489638722E+02  0.27259397379E+03  0.30072912364E+03  0.12499833851E+03 0.  0.
          5    1    4    4  502    0  0.57938816025E+02 -0.17775937753E+01  0.18068793265E+03  0.18981645147E+03  0.47000000000E+01 0.  1.
         -5    1    4    4    0  502 -0.58342280092E+02 -0.20712044947E+02  0.91906041135E+02  0.11091267218E+03  0.47000000000E+01 0.  1.
          5    1    3    3  503    0 -0.57015983225E+01  0.42535405661E+01  0.18870370195E+03  0.18889620949E+03  0.47000000000E+01 0.  1.
         -5    1    3    3    0  503  0.61050623889E+01  0.18236098156E+02 -0.16018104089E+02  0.25465598782E+02  0.47000000000E+01 0.  1.
<mgrwt>
<rscale>  0 0.12700644E+03</rscale>
<asrwt>0</asrwt>
<pdfrwt beam="1">  1        5 0.73874653E-01 0.12700657E+03</pdfrwt>
<pdfrwt beam="2">  1       -5 0.53701047E-02 0.12700657E+03</pdfrwt>
<totfact> 0.26376307E+02</totfact>
</mgrwt>
</event>
<event>
 8    1  0.3754098E-007  0.1270635E+03  0.7546771E-02  0.1231881E+00
          5   -1    0    0  501    0  0.00000000000E+00  0.00000000000E+00  0.56161733968E+02  0.56358054990E+02  0.47000000000E+01 0.  1.
         -5   -1    0    0    0  501 -0.00000000000E+00 -0.00000000000E+00 -0.29407814845E+03  0.29411570410E+03  0.47000000000E+01 0.  1.
         25    2    1    2    0    0 -0.19453439085E+02  0.11807363821E+02 -0.14661474762E+03  0.19401296051E+03  0.12500917764E+03 0.  0.
         25    2    1    2    0    0  0.19453439085E+02 -0.11807363821E+02 -0.91301666868E+02  0.15646079858E+03  0.12500454787E+03 0.  0.
          5    1    4    4  502    0  0.40512512073E+02 -0.32585952818E+02  0.79336425411E+01  0.52802846888E+02  0.47000000000E+01 0.  1.
         -5    1    4    4    0  502 -0.21059072988E+02  0.20778588997E+02 -0.99235309409E+02  0.10365795169E+03  0.47000000000E+01 0.  1.
          5    1    3    3  503    0 -0.35311558606E+02  0.29150910652E+02 -0.16005025751E+03  0.16653785364E+03  0.47000000000E+01 0.  1.
         -5    1    3    3    0  503  0.15858119520E+02 -0.17343546831E+02  0.13435509897E+02  0.27475106872E+02  0.47000000000E+01 0.  1.
<mgrwt>
<rscale>  0 0.12706241E+03</rscale>
<asrwt>0</asrwt>
<pdfrwt beam="1">  1        5 0.86582574E-02 0.12706355E+03</pdfrwt>
<pdfrwt beam="2">  1       -5 0.45260782E-01 0.12706355E+03</pdfrwt>
<totfact> 0.34065370E+02</totfact>
</mgrwt>
</event>
<event>
 8    1  0.3754098E-007  0.2041806E+03  0.7546771E-02  0.1146260E+00
          5   -1    0    0  501    0  0.00000000000E+00  0.00000000000E+00  0.28345324608E+03  0.28349220927E+03  0.47000000000E+01 0. -1.
         -5   -1    0    0    0  501 -0.00000000000E+00 -0.00000000000E+00 -0.19732518498E+03  0.19738115064E+03  0.47000000000E+01 0. -1.
         25    2    1    2    0    0 -0.15380366321E+03  0.49079294385E+02 -0.78340412681E+02  0.21869374383E+03  0.12500155750E+03 0.  0.
         25    2    1    2    0    0  0.15380366321E+03 -0.49079294385E+02  0.16446847378E+03  0.26217961607E+03  0.12499571296E+03 0.  0.
          5    1    4    4  502    0  0.51976477468E+02 -0.62704526309E+02  0.18553570315E+02  0.83664429724E+02  0.47000000000E+01 0.  1.
         -5    1    4    4    0  502  0.10182718575E+03  0.13625231923E+02  0.14591490347E+03  0.17851518635E+03  0.47000000000E+01 0.  1.
          5    1    3    3  503    0 -0.90527792763E+01 -0.14586827101E+01 -0.63786312235E+02  0.64613189028E+02  0.47000000000E+01 0.  1.
         -5    1    3    3    0  503 -0.14475088394E+03  0.50537977095E+02 -0.14554100446E+02  0.15408055481E+03  0.47000000000E+01 0.  1.
<mgrwt>
<rscale>  0 0.20417974E+03</rscale>
<asrwt>0</asrwt>
<pdfrwt beam="1">  1        5 0.43615494E-01 0.20418064E+03</pdfrwt>
<pdfrwt beam="2">  1       -5 0.30365023E-01 0.20418064E+03</pdfrwt>
<totfact> 0.42510932E+01</totfact>
</mgrwt>
</event>
<event>
 8    1  0.3754098E-007  0.1311530E+03  0.7546771E-02  0.1225758E+00
          5   -1    0    0  501    0  0.00000000000E+00  0.00000000000E+00  0.15679989808E+03  0.15687032236E+03  0.47000000000E+01 0.  1.
         -5   -1    0    0    0  501 -0.00000000000E+00 -0.00000000000E+00 -0.11300979714E+03  0.11310748980E+03  0.47000000000E+01 0.  1.
         25    2    1    2    0    0 -0.38974636208E+02  0.75054954047E+01 -0.17117798252E+01  0.13116412311E+03  0.12500296905E+03 0.  0.
         25    2    1    2    0    0  0.38974636208E+02 -0.75054954047E+01  0.45501880766E+02  0.13881368906E+03  0.12499385740E+03 0.  0.
          5    1    4    4  502    0  0.31981562129E+02 -0.37505143881E+02 -0.29473059595E+02  0.57621240664E+02  0.47000000000E+01 0.  1.
         -5    1    4    4    0  502  0.69930740787E+01  0.29999648477E+02  0.74974940361E+02  0.81192448392E+02  0.47000000000E+01 0.  1.
          5    1    3    3  503    0 -0.61420583693E+01 -0.55008741438E+02  0.16763941927E+02  0.58024186892E+02  0.47000000000E+01 0.  1.
         -5    1    3    3    0  503 -0.32832577838E+02  0.62514236842E+02 -0.18475721752E+02  0.73139936216E+02  0.47000000000E+01 0.  1.
<mgrwt>
<rscale>  0 0.13115078E+03</rscale>
<asrwt>0</asrwt>
<pdfrwt beam="1">  1        5 0.24135993E-01 0.13115295E+03</pdfrwt>
<pdfrwt beam="2">  1       -5 0.17399055E-01 0.13115295E+03</pdfrwt>
<totfact> 0.34845478E+02</totfact>
</mgrwt>
</event>
<event>
 8    1  0.3754098E-007  0.1379983E+03  0.7546771E-02  0.1216049E+00
          5   -1    0    0  501    0  0.00000000000E+00  0.00000000000E+00  0.49295344049E+03  0.49297584575E+03  0.47000000000E+01 0.  1.
         -5   -1    0    0    0  501 -0.00000000000E+00 -0.00000000000E+00 -0.39048759361E+02  0.39330593787E+02  0.47000000000E+01 0.  1.
         25    2    1    2    0    0  0.39309029613E+02 -0.43288407468E+02  0.25938395375E+03  0.29380873428E+03  0.12499780336E+03 0.  0.
         25    2    1    2    0    0 -0.39309029613E+02  0.43288407468E+02  0.19452072737E+03  0.23849770525E+03  0.12499502391E+03 0.  0.
          5    1    3    3  502    0 -0.61390637814E+01  0.51579771027E+01 -0.11541763229E+02  0.14818742536E+02  0.47000000000E+01 0.  1.
         -5    1    3    3    0  502  0.45448093394E+02 -0.48446384571E+02  0.27092571698E+03  0.27898999175E+03  0.47000000000E+01 0.  1.
          5    1    4    4  503    0 -0.71717113583E+02  0.14937771214E+02  0.17728228842E+03  0.19187907957E+03  0.47000000000E+01 0.  1.
         -5    1    4    4    0  503  0.32408083970E+02  0.28350636254E+02  0.17238438947E+02  0.46618625676E+02  0.47000000000E+01 0.  1.
<mgrwt>
<rscale>  0 0.13799769E+03</rscale>
<asrwt>0</asrwt>
<pdfrwt beam="1">  1        5 0.75862394E-01 0.13799832E+03</pdfrwt>
<pdfrwt beam="2">  1       -5 0.60309044E-02 0.13799832E+03</pdfrwt>
<totfact> 0.21041688E+02</totfact>
</mgrwt>
</event>
<event>
 8    1  0.3754098E-007  0.1754447E+03  0.7546771E-02  0.1172287E+00
         -5   -1    0    0    0  501 -0.00000000000E+00  0.00000000000E+00  0.44053705877E+02  0.44303713180E+02  0.47000000000E+01 0. -1.
          5   -1    0    0  501    0  0.00000000000E+00 -0.00000000000E+00 -0.70522490188E+03  0.70524056338E+03  0.47000000000E+01 0. -1.
         25    2    1    2    0    0  0.83443722610E+02 -0.90503171215E+02 -0.28880563102E+03  0.33791939646E+03  0.12500858833E+03 0.  0.
         25    2    1    2    0    0 -0.83443722610E+02  0.90503171215E+02 -0.37236556499E+03  0.41162488010E+03  0.12500099632E+03 0.  0.
          5    1    4    4  502    0  0.70412605230E+01  0.81583281727E+02 -0.14304488068E+03  0.16489190124E+03  0.47000000000E+01 0.  1.
         -5    1    4    4    0  502 -0.90484983133E+02  0.89198894878E+01 -0.22932068431E+03  0.24673297885E+03  0.47000000000E+01 0.  1.
          5    1    3    3  503    0  0.90828027560E+02 -0.30838279396E+02 -0.95542547872E+02  0.13546659559E+03  0.47000000000E+01 0.  1.
         -5    1    3    3    0  503 -0.73843049507E+01 -0.59664891819E+02 -0.19326308314E+03  0.20245280087E+03  0.47000000000E+01 0.  1.
<mgrwt>
<rscale>  0 0.17544330E+03</rscale>
<asrwt>0</asrwt>
<pdfrwt beam="2">  1        5 0.10851657E+00 0.17544465E+03</pdfrwt>
<pdfrwt beam="1">  1       -5 0.67979298E-02 0.17544465E+03</pdfrwt>
<totfact> 0.78737482E+01</totfact>
</mgrwt>
</event>
<event>
 8    1  0.3754098E-007  0.1374713E+03  0.7546771E-02  0.1216775E+00
          5   -1    0    0  501    0  0.00000000000E+00  0.00000000000E+00  0.36492109541E+03  0.36495136097E+03  0.47000000000E+01 0. -1.
         -5   -1    0    0    0  501 -0.00000000000E+00 -0.00000000000E+00 -0.53605574500E+02  0.53811222040E+02  0.47000000000E+01 0. -1.
         25    2    1    2    0    0 -0.27789694674E+02 -0.50005403960E+02  0.19560221238E+03  0.23907417780E+03  0.12499371763E+03 0.  0.
         25    2    1    2    0    0  0.27789694674E+02  0.50005403960E+02  0.11571330853E+03  0.17968840521E+03  0.12500218255E+03 0.  0.
          5    1    3    3  502    0  0.14404860885E+02 -0.74575496322E+00 -0.13367441613E+02  0.20219660305E+02  0.47000000000E+01 0. -1.
         -5    1    3    3    0  502 -0.42194555558E+02 -0.49259648997E+02  0.20896965400E+03  0.21885451750E+03  0.47000000000E+01 0. -1.
          5    1    4    4  503    0 -0.22202873535E+02 -0.32949851352E+02  0.27050037680E+02  0.48295494985E+02  0.47000000000E+01 0.  1.
         -5    1    4    4    0  503  0.49992568209E+02  0.82955255312E+02  0.88663270848E+02  0.13139291023E+03  0.47000000000E+01 0.  1.
<mgrwt>
<rscale>  0 0.13746936E+03</rscale>
<asrwt>0</asrwt>
<pdfrwt beam="1">  1        5 0.56159853E-01 0.13747128E+03</pdfrwt>
<pdfrwt beam="2">  1       -5 0.82651587E-02 0.13747128E+03</pdfrwt>
<totfact> 0.24006770E+02</totfact>
</mgrwt>
</event>
<event>
 8    1  0.3754098E-007  0.1410071E+03  0.7546771E-02  0.1211982E+00
         -5   -1    0    0    0  501 -0.00000000000E+00  0.00000000000E+00  0.31668774060E+03  0.31672261531E+03  0.47000000000E+01 0. -1.
          5   -1    0    0  501    0  0.00000000000E+00 -0.00000000000E+00 -0.72515834273E+02  0.72667986214E+02  0.47000000000E+01 0. -1.
         25    2    1    2    0    0 -0.62039321889E+02  0.20239597880E+02  0.19378341409E+03  0.23965602059E+03  0.12499791137E+03 0.  0.
         25    2    1    2    0    0  0.62039321889E+02 -0.20239597880E+02  0.50388492244E+02  0.14973458094E+03  0.12499170290E+03 0.  0.
          5    1    4    4  502    0  0.52932897436E+02 -0.66581062610E+02  0.70768389089E+01  0.85481583854E+02  0.47000000000E+01 0.  1.
         -5    1    4    4    0  502  0.91064244526E+01  0.46341464729E+02  0.43311653335E+02  0.64252997083E+02  0.47000000000E+01 0.  1.
          5    1    3    3  503    0 -0.28241701852E+02  0.43970142095E+00 -0.11322182568E+02  0.30790727158E+02  0.47000000000E+01 0.  1.
         -5    1    3    3    0  503 -0.33797620037E+02  0.19799896459E+02  0.20510559665E+03  0.20886529343E+03  0.47000000000E+01 0.  1.
<mgrwt>
<rscale>  0 0.14100570E+03</rscale>
<asrwt>0</asrwt>
<pdfrwt beam="2">  1        5 0.11170669E-01 0.14100708E+03</pdfrwt>
<pdfrwt beam="1">  1       -5 0.48735576E-01 0.14100708E+03</pdfrwt>
<totfact> 0.19406330E+02</totfact>
</mgrwt>
</event>
<event>
 8    1  0.3754098E-007  0.1811946E+03  0.7546771E-02  0.1166652E+00
         -5   -1    0    0    0  501 -0.00000000000E+00  0.00000000000E+00  0.63606186977E+02  0.63779597221E+02  0.47000000000E+01 0. -1.
          5   -1    0    0  501    0  0.00000000000E+00 -0.00000000000E+00 -0.52584562905E+03  0.52586663289E+03  0.47000000000E+01 0. -1.
         25    2    1    2    0    0  0.10631567850E+03  0.76834193747E+02 -0.18933132240E+03  0.26206453673E+03  0.12499981978E+03 0.  0.
         25    2    1    2    0    0 -0.10631567850E+03 -0.76834193747E+02 -0.27290811967E+03  0.32758169338E+03  0.12499762892E+03 0.  0.
          5    1    4    4  502    0 -0.53578198440E+02 -0.58624611072E+02 -0.25749943180E+03  0.26950976930E+03  0.47000000000E+01 0.  1.
         -5    1    4    4    0  502 -0.52737480060E+02 -0.18209582675E+02 -0.15408687863E+02  0.58071924076E+02  0.47000000000E+01 0.  1.
          5    1    3    3  503    0  0.12611362391E+03  0.88116940089E+02 -0.18040514764E+03  0.23714415144E+03  0.47000000000E+01 0. -1.
         -5    1    3    3    0  503 -0.19797945406E+02 -0.11282746342E+02 -0.89261747650E+01  0.24920385295E+02  0.47000000000E+01 0. -1.
<mgrwt>
<rscale>  0 0.18119419E+03</rscale>
<asrwt>0</asrwt>
<pdfrwt beam="2">  1        5 0.80914280E-01 0.18119457E+03</pdfrwt>
<pdfrwt beam="1">  1       -5 0.98005225E-02 0.18119457E+03</pdfrwt>
<totfact> 0.85787524E+01</totfact>
</mgrwt>
</event>
<event>
 8    1  0.3754098E-007  0.1299707E+03  0.7546771E-02  0.1227512E+00
         -5   -1    0    0    0  501 -0.00000000000E+00  0.00000000000E+00  0.11641775225E+04  0.11641870098E+04  0.47000000000E+01 0. -1.
          5   -1    0    0  501    0  0.00000000000E+00 -0.00000000000E+00 -0.14174909331E+02  0.14933789022E+02  0.47000000000E+01 0. -1.
         25    2    1    2    0    0  0.20116340639E+02  0.29387955185E+02  0.53800232445E+03  0.55347889878E+03  0.12499628481E+03 0.  0.
         25    2    1    2    0    0 -0.20116340639E+02 -0.29387955185E+02  0.61200028868E+03  0.62564190005E+03  0.12496045245E+03 0.  0.
          5    1    4    4  502    0 -0.12761669493E+02 -0.77973907725E+02  0.42029916694E+03  0.42768711721E+03  0.47000000000E+01 0.  1.
         -5    1    4    4    0  502 -0.73546711453E+01  0.48585952540E+02  0.19170112174E+03  0.19795478284E+03  0.47000000000E+01 0.  1.
          5    1    3    3  503    0  0.22834281800E+02  0.66493691065E+02  0.47471087478E+03  0.47991178358E+03  0.47000000000E+01 0. -1.
         -5    1    3    3    0  503 -0.27179411611E+01 -0.37105735880E+02  0.63291449661E+02  0.73567115205E+02  0.47000000000E+01 0. -1.
<mgrwt>
<rscale>  0 0.12996211E+03</rscale>
<asrwt>0</asrwt>
<pdfrwt beam="2">  1        5 0.22398599E-02 0.12997073E+03</pdfrwt>
<pdfrwt beam="1">  1       -5 0.17916338E+00 0.12997073E+03</pdfrwt>
<totfact> 0.11605722E+02</totfact>
</mgrwt>
</event>
<event>
 8    1  0.3754098E-007  0.1277246E+03  0.7546771E-02  0.1230876E+00
          5   -1    0    0  501    0  0.00000000000E+00  0.00000000000E+00  0.98362467363E+02  0.98474692108E+02  0.47000000000E+01 0. -1.
         -5   -1    0    0    0  501 -0.00000000000E+00 -0.00000000000E+00 -0.18887516072E+03  0.18893362945E+03  0.47000000000E+01 0. -1.
         25    2    1    2    0    0 -0.22879755226E+02 -0.12717436395E+02 -0.95681767558E+02  0.15957919183E+03  0.12500120574E+03 0.  0.
         25    2    1    2    0    0  0.22879755226E+02  0.12717436395E+02  0.51690742051E+01  0.12782912972E+03  0.12501340204E+03 0.  0.
          5    1    3    3  502    0 -0.71532981584E+02  0.88521570928E+01 -0.40675684628E+02  0.82897101634E+02  0.47000000000E+01 0. -1.
         -5    1    3    3    0  502  0.48653226357E+02 -0.21569593487E+02 -0.55006082930E+02  0.76682090200E+02  0.47000000000E+01 0. -1.
          5    1    4    4  503    0 -0.20611948652E+02 -0.34987972370E+02  0.37503507991E+02  0.55476244911E+02  0.47000000000E+01 0.  1.
         -5    1    4    4    0  503  0.43491703878E+02  0.47705408765E+02 -0.32334433786E+02  0.72352884807E+02  0.47000000000E+01 0.  1.
<mgrwt>
<rscale>  0 0.12772159E+03</rscale>
<asrwt>0</asrwt>
<pdfrwt beam="1">  1        5 0.15145818E-01 0.12772458E+03</pdfrwt>
<pdfrwt beam="2">  1       -5 0.29070847E-01 0.12772458E+03</pdfrwt>
<totfact> 0.31040779E+02</totfact>
</mgrwt>
</event>
<event>
 8    1  0.3754098E-007  0.1265993E+03  0.7546771E-02  0.1232593E+00
         -5   -1    0    0    0  501 -0.00000000000E+00  0.00000000000E+00  0.35984900648E+02  0.36290536985E+02  0.47000000000E+01 0.  1.
          5   -1    0    0  501    0  0.00000000000E+00 -0.00000000000E+00 -0.44402151189E+03  0.44404638612E+03  0.47000000000E+01 0.  1.
         25    2    1    2    0    0 -0.79161058343E+01  0.18436072906E+02 -0.19352469951E+03  0.23125571285E+03  0.12499936756E+03 0.  0.
         25    2    1    2    0    0  0.79161058343E+01 -0.18436072906E+02 -0.21451191173E+03  0.24908121025E+03  0.12499414190E+03 0.  0.
          5    1    4    4  502    0  0.11448306517E-01  0.11955338854E+02 -0.21686188242E+03  0.21724202242E+03  0.47000000000E+01 0. -1.
         -5    1    4    4    0  502  0.79046575278E+01 -0.30391411760E+02  0.23499706891E+01  0.31839187829E+02  0.47000000000E+01 0. -1.
          5    1    3    3  503    0  0.49840648939E+02 -0.18159194610E+02 -0.54186537563E+02  0.75974452868E+02  0.47000000000E+01 0.  1.
         -5    1    3    3    0  503 -0.57756754773E+02  0.36595267516E+02 -0.13933816195E+03  0.15528125998E+03  0.47000000000E+01 0.  1.
<mgrwt>
<rscale>  0 0.12659806E+03</rscale>
<asrwt>0</asrwt>
<pdfrwt beam="2">  1        5 0.68336422E-01 0.12659935E+03</pdfrwt>
<pdfrwt beam="1">  1       -5 0.55615628E-02 0.12659935E+03</pdfrwt>
<totfact> 0.29625455E+02</totfact>
</mgrwt>
</event>
<event>
 8    1  0.3754098E-007  0.1808689E+03  0.7546771E-02  0.1166965E+00
         -5   -1    0    0    0  501 -0.00000000000E+00  0.00000000000E+00  0.85754051400E+02  0.85882753399E+02  0.47000000000E+01 0. -1.
          5   -1    0    0  501    0  0.00000000000E+00 -0.00000000000E+00 -0.38112961711E+03  0.38115859566E+03  0.47000000000E+01 0. -1.
         25    2    1    2    0    0  0.13761900853E+02  0.12999592148E+03 -0.14432336133E+03  0.23139263401E+03  0.12499995573E+03 0.  0.
         25    2    1    2    0    0 -0.13761900853E+02 -0.12999592148E+03 -0.15105220439E+03  0.23564871505E+03  0.12500087574E+03 0.  0.
          5    1    4    4  502    0 -0.59581533917E+02 -0.11555007384E+03 -0.91791267784E+02  0.15921528064E+03  0.47000000000E+01 0. -1.
         -5    1    4    4    0  502  0.45819633064E+02 -0.14445847646E+02 -0.59260936602E+02  0.76433434407E+02  0.47000000000E+01 0. -1.
          5    1    3    3  503    0  0.22681150711E+02  0.14155261852E+03 -0.15614737316E+03  0.21202752310E+03  0.47000000000E+01 0.  1.
         -5    1    3    3    0  503 -0.89192498584E+01 -0.11556697040E+02  0.11824011834E+02  0.19365110905E+02  0.47000000000E+01 0.  1.
<mgrwt>
<rscale>  0 0.18086871E+03</rscale>
<asrwt>0</asrwt>
<pdfrwt beam="2">  1        5 0.58647454E-01 0.18086887E+03</pdfrwt>
<pdfrwt beam="1">  1       -5 0.13205060E-01 0.18086887E+03</pdfrwt>
<totfact> 0.10457071E+02</totfact>
</mgrwt>
</event>
<event>
 8    1  0.3754098E-007  0.1355463E+03  0.7546771E-02  0.1219452E+00
         -5   -1    0    0    0  501 -0.00000000000E+00  0.00000000000E+00  0.26592578276E+02  0.27004725871E+02  0.47000000000E+01 0.  1.
          5   -1    0    0  501    0  0.00000000000E+00 -0.00000000000E+00 -0.68804940003E+03  0.68806545247E+03  0.47000000000E+01 0.  1.
         25    2    1    2    0    0  0.32829212022E+02  0.40856237126E+02 -0.30753373023E+03  0.33608003550E+03  0.12500322299E+03 0.  0.
         25    2    1    2    0    0 -0.32829212022E+02 -0.40856237126E+02 -0.35392309152E+03  0.37899014284E+03  0.12499993754E+03 0.  0.
          5    1    4    4  502    0 -0.64617718654E+02 -0.67666047859E+02 -0.24699305404E+03  0.26416245445E+03  0.47000000000E+01 0. -1.
         -5    1    4    4    0  502  0.31788506633E+02  0.26809810733E+02 -0.10693003748E+03  0.11482768839E+03  0.47000000000E+01 0. -1.
          5    1    3    3  503    0  0.74317786374E+02 -0.86362450570E-01 -0.20409408658E+03  0.21725475140E+03  0.47000000000E+01 0. -1.
         -5    1    3    3    0  503 -0.41488574352E+02  0.40942599577E+02 -0.10343964366E+03  0.11882528410E+03  0.47000000000E+01 0. -1.
<mgrwt>
<rscale>  0 0.13554553E+03</rscale>
<asrwt>0</asrwt>
<pdfrwt beam="2">  1        5 0.10588668E+00 0.13554628E+03</pdfrwt>
<pdfrwt beam="1">  1       -5 0.41241049E-02 0.13554628E+03</pdfrwt>
<totfact> 0.17822747E+02</totfact>
</mgrwt>
</event>
<event>
 8    1  0.3754098E-007  0.1316828E+03  0.7546771E-02  0.1224981E+00
          5   -1    0    0  501    0  0.00000000000E+00  0.00000000000E+00  0.22545278493E+03  0.22550176991E+03  0.47000000000E+01 0.  1.
         -5   -1    0    0    0  501 -0.00000000000E+00 -0.00000000000E+00 -0.76993551983E+02  0.77136872162E+02  0.47000000000E+01 0.  1.
         25    2    1    2    0    0  0.36520868431E+02  0.19527189436E+02  0.82147112525E+02  0.15520172177E+03  0.12499736552E+03 0.  0.
         25    2    1    2    0    0 -0.36520868431E+02 -0.19527189436E+02  0.66312120423E+02  0.14743692030E+03  0.12500105277E+03 0.  0.
          5    1    4    4  502    0  0.21182606873E+02 -0.56226921944E+02  0.46387950443E+02  0.76053280873E+02  0.47000000000E+01 0. -1.
         -5    1    4    4    0  502 -0.57703475304E+02  0.36699732509E+02  0.19924169980E+02  0.71383639426E+02  0.47000000000E+01 0. -1.
          5    1    3    3  503    0  0.38360038288E+02  0.64552922791E+02  0.19207298121E+02  0.77650387503E+02  0.47000000000E+01 0. -1.
         -5    1    3    3    0  503 -0.18391698571E+01 -0.45025733355E+02  0.62939814404E+02  0.77551334271E+02  0.47000000000E+01 0. -1.
<mgrwt>
<rscale>  0 0.13168188E+03</rscale>
<asrwt>0</asrwt>
<pdfrwt beam="1">  1        5 0.34699836E-01 0.13168276E+03</pdfrwt>
<pdfrwt beam="2">  1       -5 0.11859955E-01 0.13168276E+03</pdfrwt>
<totfact> 0.34270716E+02</totfact>
</mgrwt>
</event>
<event>
 8    1  0.3754098E-007  0.1254031E+03  0.7546771E-02  0.1234458E+00
         -5   -1    0    0    0  501 -0.00000000000E+00  0.00000000000E+00  0.40213256454E+02  0.40486985497E+02  0.47000000000E+01 0.  1.
          5   -1    0    0  501    0  0.00000000000E+00 -0.00000000000E+00 -0.45452820036E+03  0.45455249964E+03  0.47000000000E+01 0.  1.
         25    2    1    2    0    0  0.94546622137E+01 -0.46176538888E+00 -0.11346074961E+03  0.16911321157E+03  0.12504532282E+03 0.  0.
         25    2    1    2    0    0 -0.94546622137E+01  0.46176538888E+00 -0.30085419430E+03  0.32592627357E+03  0.12500034284E+03 0.  0.
          5    1    3    3  502    0  0.33887492241E+02  0.53641438050E+02 -0.74407900862E+02  0.97899906624E+02  0.47000000000E+01 0. -1.
         -5    1    3    3    0  502 -0.24432830028E+02 -0.54103203439E+02 -0.39052848751E+02  0.71213304944E+02  0.47000000000E+01 0. -1.
          5    1    4    4  503    0 -0.66951521180E+02  0.42008854392E+01 -0.15047230988E+03  0.16481553224E+03  0.47000000000E+01 0.  1.
         -5    1    4    4    0  503  0.57496858967E+02 -0.37391200503E+01 -0.15038188442E+03  0.16111074133E+03  0.47000000000E+01 0.  1.
<mgrwt>
<rscale>  0 0.12539188E+03</rscale>
<asrwt>0</asrwt>
<pdfrwt beam="2">  1        5 0.69950337E-01 0.12540310E+03</pdfrwt>
<pdfrwt beam="1">  1       -5 0.62095804E-02 0.12540310E+03</pdfrwt>
<totfact> 0.23293928E+02</totfact>
</mgrwt>
</event>
<event>
 8    1  0.3754098E-007  0.1516120E+03  0.7546771E-02  0.1198507E+00
          5   -1    0    0  501    0  0.00000000000E+00  0.00000000000E+00  0.89180968037E+03  0.89182206522E+03  0.47000000000E+01 0.  1.
         -5   -1    0    0    0  501 -0.00000000000E+00 -0.00000000000E+00 -0.48316936290E+02  0.48544992867E+02  0.47000000000E+01 0.  1.
         25    2    1    2    0    0 -0.68048916534E+02 -0.52251486915E+02  0.10010954012E+03  0.18168133859E+03  0.12500126336E+03 0.  0.
         25    2    1    2    0    0  0.68048916534E+02  0.52251486915E+02  0.74338320397E+03  0.75868571949E+03  0.12499824039E+03 0.  0.
          5    1    4    4  502    0  0.33952042799E+02  0.15302949260E+01  0.40263482580E+02  0.52899159183E+02  0.47000000000E+01 0.  1.
         -5    1    4    4    0  502  0.34096873735E+02  0.50721191989E+02  0.70311972139E+03  0.70578656031E+03  0.47000000000E+01 0.  1.
          5    1    3    3  503    0 -0.61415459965E+01  0.29105122051E+01 -0.27895980494E+02  0.29094078371E+02  0.47000000000E+01 0.  1.
         -5    1    3    3    0  503 -0.61907370538E+02 -0.55161999120E+02  0.12800552061E+03  0.15258726022E+03  0.47000000000E+01 0.  1.
<mgrwt>
<rscale>  0 0.15161134E+03</rscale>
<asrwt>0</asrwt>
<pdfrwt beam="1">  1        5 0.13721999E+00 0.15161197E+03</pdfrwt>
<pdfrwt beam="2">  1       -5 0.74518703E-02 0.15161197E+03</pdfrwt>
<totfact> 0.35358353E+01</totfact>
</mgrwt>
</event>
<event>
 8    1  0.3754098E-007  0.2303186E+03  0.7546771E-02  0.1126417E+00
         -5   -1    0    0    0  501 -0.00000000000E+00  0.00000000000E+00  0.15693242763E+03  0.15700279246E+03  0.47000000000E+01 0.  1.
          5   -1    0    0  501    0  0.00000000000E+00 -0.00000000000E+00 -0.34485417317E+03  0.34488619972E+03  0.47000000000E+01 0.  1.
         25    2    1    2    0    0  0.15716477836E+03  0.11277722350E+03 -0.58208114744E+02  0.23756017388E+03  0.12500872728E+03 0.  0.
         25    2    1    2    0    0 -0.15716477836E+03 -0.11277722350E+03 -0.12971363080E+03  0.26432881829E+03  0.12499851386E+03 0.  0.
          5    1    4    4  502    0 -0.17407411769E+03 -0.77939018543E+02 -0.10082242054E+03  0.21578586503E+03  0.47000000000E+01 0. -1.
         -5    1    4    4    0  502  0.16909339332E+02 -0.34838204958E+02 -0.28891210261E+02  0.48542953265E+02  0.47000000000E+01 0. -1.
          5    1    3    3  503    0  0.12459256487E+03  0.28056700749E+02 -0.70321313973E+02  0.14586864940E+03  0.47000000000E+01 0.  1.
         -5    1    3    3    0  503  0.32572213488E+02  0.84720522752E+02  0.12113199229E+02  0.91691524485E+02  0.47000000000E+01 0.  1.
<mgrwt>
<rscale>  0 0.23031720E+03</rscale>
<asrwt>0</asrwt>
<pdfrwt beam="2">  1        5 0.53062364E-01 0.23031859E+03</pdfrwt>
<pdfrwt beam="1">  1       -5 0.24151327E-01 0.23031859E+03</pdfrwt>
<totfact> 0.45178616E+01</totfact>
</mgrwt>
</event>
<event>
 8    1  0.3754098E-007  0.1380371E+03  0.7546771E-02  0.1215995E+00
         -5   -1    0    0    0  501 -0.00000000000E+00  0.00000000000E+00  0.18667447228E+02  0.19250028208E+02  0.47000000000E+01 0. -1.
          5   -1    0    0  501    0  0.00000000000E+00 -0.00000000000E+00 -0.10737653789E+04  0.10737756651E+04  0.47000000000E+01 0. -1.
         25    2    1    2    0    0  0.50667411504E+02  0.29358529014E+02 -0.38873083111E+03  0.41251171227E+03  0.12500057558E+03 0.  0.
         25    2    1    2    0    0 -0.50667411504E+02 -0.29358529014E+02 -0.66636710056E+03  0.68051398101E+03  0.12500022332E+03 0.  0.
          5    1    4    4  502    0  0.31171745085E+02 -0.67848451260E+00 -0.58338642876E+02  0.66314593307E+02  0.47000000000E+01 0.  1.
         -5    1    4    4    0  502 -0.81839156589E+02 -0.28680044501E+02 -0.60802845768E+03  0.61419938770E+03  0.47000000000E+01 0.  1.
          5    1    3    3  503    0  0.66513748492E+02 -0.63911095156E+01 -0.35310970243E+03  0.35940711869E+03  0.47000000000E+01 0. -1.
         -5    1    3    3    0  503 -0.15846336988E+02  0.35749638529E+02 -0.35621128681E+02  0.53104593581E+02  0.47000000000E+01 0. -1.
<mgrwt>
<rscale>  0 0.13803707E+03</rscale>
<asrwt>0</asrwt>
<pdfrwt beam="2">  1        5 0.16524023E+00 0.13803715E+03</pdfrwt>
<pdfrwt beam="1">  1       -5 0.29175210E-02 0.13803715E+03</pdfrwt>
<totfact> 0.97761080E+01</totfact>
</mgrwt>
</event>
<event>
 8    1  0.3754098E-007  0.1489725E+03  0.7546771E-02  0.1201743E+00
          5   -1    0    0  501    0  0.00000000000E+00  0.00000000000E+00  0.13596089362E+03  0.13604210596E+03  0.47000000000E+01 0. -1.
         -5   -1    0    0    0  501 -0.00000000000E+00 -0.00000000000E+00 -0.18536096777E+03  0.18542054464E+03  0.47000000000E+01 0. -1.
         25    2    1    2    0    0 -0.64306270250E+02 -0.49297224163E+02 -0.80428101148E+02  0.16929314602E+03  0.12500390846E+03 0.  0.
         25    2    1    2    0    0  0.64306270250E+02  0.49297224163E+02  0.31028026998E+02  0.15216950458E+03  0.12500922751E+03 0.  0.
          5    1    3    3  502    0  0.32281379627E+02 -0.13777174274E+01 -0.45211786283E+02  0.55768998510E+02  0.47000000000E+01 0.  1.
         -5    1    3    3    0  502 -0.96587649877E+02 -0.47919506735E+02 -0.35216314865E+02  0.11352414751E+03  0.47000000000E+01 0.  1.
          5    1    4    4  503    0  0.80497153860E+02 -0.14150492860E+02  0.27737123004E+02  0.86437643537E+02  0.47000000000E+01 0.  1.
         -5    1    4    4    0  503 -0.16190883610E+02  0.63447717023E+02  0.32909039937E+01  0.65731861046E+02  0.47000000000E+01 0.  1.
<mgrwt>
<rscale>  0 0.14897143E+03</rscale>
<asrwt>0</asrwt>
<pdfrwt beam="1">  1        5 0.20927890E-01 0.14897255E+03</pdfrwt>
<pdfrwt beam="2">  1       -5 0.28527902E-01 0.14897255E+03</pdfrwt>
<totfact> 0.18707069E+02</totfact>
</mgrwt>
</event>
<event>
 8    1  0.3754098E-007  0.1389533E+03  0.7546771E-02  0.1214745E+00
         -5   -1    0    0    0  501 -0.00000000000E+00  0.00000000000E+00  0.23375095547E+04  0.23375142798E+04  0.47000000000E+01 0. -1.
          5   -1    0    0  501    0  0.00000000000E+00 -0.00000000000E+00 -0.76544388343E+01  0.89822287807E+01  0.47000000000E+01 0. -1.
         25    2    1    2    0    0  0.22556049068E+02  0.56332514103E+02  0.12670471171E+04  0.12746435090E+04  0.12500220235E+03 0.  0.
         25    2    1    2    0    0 -0.22556049068E+02 -0.56332514103E+02  0.10628079988E+04  0.10718529996E+04  0.12500353192E+03 0.  0.
          5    1    4    4  502    0  0.45089895499E+02 -0.34810886154E+01  0.55115767253E+03  0.55302991479E+03  0.47000000000E+01 0.  1.
         -5    1    4    4    0  502 -0.67645944567E+02 -0.52851425488E+02  0.51165032623E+03  0.51882308480E+03  0.47000000000E+01 0.  1.
          5    1    3    3  503    0  0.50052244066E+01 -0.39724584204E+02  0.43839946797E+03  0.44024910946E+03  0.47000000000E+01 0. -1.
         -5    1    3    3    0  503  0.17550824662E+02  0.96057098307E+02  0.82864764911E+03  0.83439439953E+03  0.47000000000E+01 0. -1.
<mgrwt>
<rscale>  0 0.13895297E+03</rscale>
<asrwt>0</asrwt>
<pdfrwt beam="2">  1        5 0.12801071E-02 0.13895327E+03</pdfrwt>
<pdfrwt beam="1">  1       -5 0.35971937E+00 0.13895327E+03</pdfrwt>
<totfact> 0.19305105E+01</totfact>
</mgrwt>
</event>
<event>
 8    1  0.3754098E-007  0.1308173E+03  0.7546771E-02  0.1226249E+00
          5   -1    0    0  501    0  0.00000000000E+00  0.00000000000E+00  0.19079808573E+03  0.19085596537E+03  0.47000000000E+01 0.  1.
         -5   -1    0    0    0  501 -0.00000000000E+00 -0.00000000000E+00 -0.89557443785E+02  0.89680687650E+02  0.47000000000E+01 0.  1.
         25    2    1    2    0    0  0.23367779921E+02  0.30679067105E+02  0.50862194924E+02  0.14035407158E+03  0.12500017695E+03 0.  0.
         25    2    1    2    0    0 -0.23367779921E+02 -0.30679067105E+02  0.50378447019E+02  0.14018258144E+03  0.12500363962E+03 0.  0.
          5    1    4    4  502    0  0.39796961393E+02 -0.19615773084E+02 -0.16348538196E+02  0.47517800779E+02  0.47000000000E+01 0.  1.
         -5    1    4    4    0  502 -0.63164741313E+02 -0.11063294021E+02  0.66726985215E+02  0.92664780665E+02  0.47000000000E+01 0.  1.
          5    1    3    3  503    0  0.99630128193E+01 -0.42742061881E+02  0.48437894426E+02  0.65532168396E+02  0.47000000000E+01 0. -1.
         -5    1    3    3    0  503  0.13404767102E+02  0.73421128986E+02  0.24243004981E+01  0.74821903180E+02  0.47000000000E+01 0. -1.
<mgrwt>
<rscale>  0 0.13081648E+03</rscale>
<asrwt>0</asrwt>
<pdfrwt beam="1">  1        5 0.29367484E-01 0.13081731E+03</pdfrwt>
<pdfrwt beam="2">  1       -5 0.13792001E-01 0.13081731E+03</pdfrwt>
<totfact> 0.36341242E+02</totfact>
</mgrwt>
</event>
<event>
 8    1  0.3754098E-007  0.1522849E+03  0.7546771E-02  0.1197695E+00
          5   -1    0    0  501    0  0.00000000000E+00  0.00000000000E+00  0.22313109312E+03  0.22318058768E+03  0.47000000000E+01 0.  1.
         -5   -1    0    0    0  501 -0.00000000000E+00 -0.00000000000E+00 -0.11570053176E+03  0.11579595437E+03  0.47000000000E+01 0.  1.
         25    2    1    2    0    0 -0.84160252854E+02 -0.21902402265E+02 -0.57144743823E+00  0.15228124339E+03  0.12500634844E+03 0.  0.
         25    2    1    2    0    0  0.84160252854E+02  0.21902402265E+02  0.10800200880E+03  0.18669529866E+03  0.12501214842E+03 0.  0.
          5    1    4    4  502    0  0.70690388549E+02 -0.43655424301E+02  0.74549674329E+02  0.11172587456E+03  0.47000000000E+01 0. -1.
         -5    1    4    4    0  502  0.13469864305E+02  0.65557826566E+02  0.33452334472E+02  0.74969424101E+02  0.47000000000E+01 0. -1.
          5    1    3    3  503    0  0.40036429501E+01  0.13211333341E+02  0.44709576439E+02  0.47027701526E+02  0.47000000000E+01 0.  1.
         -5    1    3    3    0  503 -0.88163895804E+02 -0.35113735606E+02 -0.45281023877E+02  0.10525354186E+03  0.47000000000E+01 0.  1.
<mgrwt>
<rscale>  0 0.15228374E+03</rscale>
<asrwt>0</asrwt>
<pdfrwt beam="1">  1        5 0.34339008E-01 0.15228493E+03</pdfrwt>
<pdfrwt beam="2">  1       -5 0.17811229E-01 0.15228493E+03</pdfrwt>
<totfact> 0.17633545E+02</totfact>
</mgrwt>
</event>
<event>
 8    1  0.3754098E-007  0.1421977E+03  0.7546771E-02  0.1210403E+00
         -5   -1    0    0    0  501 -0.00000000000E+00  0.00000000000E+00  0.11171184691E+04  0.11171283561E+04  0.47000000000E+01 0.  1.
          5   -1    0    0  501    0  0.00000000000E+00 -0.00000000000E+00 -0.23182584029E+02  0.23654221658E+02  0.47000000000E+01 0.  1.
         25    2    1    2    0    0 -0.92425339838E+01  0.67144797155E+02  0.81898433283E+03  0.83123688288E+03  0.12500227925E+03 0.  0.
         25    2    1    2    0    0  0.92425339838E+01 -0.67144797155E+02  0.27495155226E+03  0.30954569490E+03  0.12500533157E+03 0.  0.
          5    1    4    4  502    0  0.85675760261E+01 -0.92180826719E+02  0.11563170958E+03  0.14820084492E+03  0.47000000000E+01 0.  1.
         -5    1    4    4    0  502  0.67495795771E+00  0.25036029564E+02  0.15931984268E+03  0.16134484998E+03  0.47000000000E+01 0.  1.
          5    1    3    3  503    0  0.55857450191E+02  0.46454058909E+02  0.37463924538E+03  0.38164733526E+03  0.47000000000E+01 0. -1.
         -5    1    3    3    0  503 -0.65099984175E+02  0.20690738246E+02  0.44434508745E+03  0.44958954762E+03  0.47000000000E+01 0. -1.
<mgrwt>
<rscale>  0 0.14219701E+03</rscale>
<asrwt>0</asrwt>
<pdfrwt beam="2">  1        5 0.36035912E-02 0.14219768E+03</pdfrwt>
<pdfrwt beam="1">  1       -5 0.17190144E+00 0.14219768E+03</pdfrwt>
<totfact> 0.62544421E+01</totfact>
</mgrwt>
</event>
<event>
 8    1  0.3754098E-007  0.1378175E+03  0.7546771E-02  0.1216297E+00
          5   -1    0    0  501    0  0.00000000000E+00  0.00000000000E+00  0.65308495044E+03  0.65310186227E+03  0.47000000000E+01 0. -1.
         -5   -1    0    0    0  501 -0.00000000000E+00 -0.00000000000E+00 -0.31144476050E+02  0.31497117145E+02  0.47000000000E+01 0. -1.
         25    2    1    2    0    0  0.18763952226E+02 -0.54922789452E+02  0.21914033649E+03  0.25887417753E+03  0.12499901605E+03 0.  0.
         25    2    1    2    0    0 -0.18763952226E+02  0.54922789452E+02  0.40280013791E+03  0.42572480188E+03  0.12500022854E+03 0.  0.
          5    1    4    4  502    0 -0.21264298119E+02 -0.60927108319E+01  0.32919224842E+03  0.32996805591E+03  0.47000000000E+01 0. -1.
         -5    1    4    4    0  502  0.25003458920E+01  0.61015500283E+02  0.73607889481E+02  0.95756745967E+02  0.47000000000E+01 0. -1.
          5    1    3    3  503    0 -0.33993147591E+02 -0.22206223323E+02  0.12028312523E+02  0.42607754453E+02  0.47000000000E+01 0.  1.
         -5    1    3    3    0  503  0.52757099817E+02 -0.32716566128E+02  0.20711202396E+03  0.21626642308E+03  0.47000000000E+01 0.  1.
<mgrwt>
<rscale>  0 0.13781720E+03</rscale>
<asrwt>0</asrwt>
<pdfrwt beam="1">  1        5 0.10050303E+00 0.13781747E+03</pdfrwt>
<pdfrwt beam="2">  1       -5 0.48198851E-02 0.13781747E+03</pdfrwt>
<totfact> 0.15751220E+02</totfact>
</mgrwt>
</event>
<event>
 8    1  0.3754098E-007  0.1287793E+03  0.7546771E-02  0.1229280E+00
          5   -1    0    0  501    0  0.00000000000E+00  0.00000000000E+00  0.25439353334E+03  0.25443694662E+03  0.47000000000E+01 0. -1.
         -5   -1    0    0    0  501 -0.00000000000E+00 -0.00000000000E+00 -0.65128140987E+02  0.65297509512E+02  0.47000000000E+01 0. -1.
         25    2    1    2    0    0  0.30668072978E+02 -0.42290535238E+01  0.10000113625E+03  0.16304706171E+03  0.12500280592E+03 0.  0.
         25    2    1    2    0    0 -0.30668072978E+02  0.42290535238E+01  0.89264256110E+02  0.15668739443E+03  0.12499766622E+03 0.  0.
          5    1    4    4  502    0  0.93851220101E+00 -0.45539707907E+02 -0.43050802240E+01  0.45993146414E+02  0.47000000000E+01 0. -1.
         -5    1    4    4    0  502 -0.31606585179E+02  0.49768761430E+02  0.93569336334E+02  0.11069424801E+03  0.47000000000E+01 0. -1.
          5    1    3    3  503    0 -0.14861261300E+02 -0.44207036117E+02  0.89975633871E+02  0.10145355499E+03  0.47000000000E+01 0.  1.
         -5    1    3    3    0  503  0.45529334278E+02  0.39977982593E+02  0.10025502375E+02  0.61593506719E+02  0.47000000000E+01 0.  1.
<mgrwt>
<rscale>  0 0.12877809E+03</rscale>
<asrwt>0</asrwt>
<pdfrwt beam="1">  1        5 0.39153834E-01 0.12877933E+03</pdfrwt>
<pdfrwt beam="2">  1       -5 0.10036082E-01 0.12877933E+03</pdfrwt>
<totfact> 0.35719136E+02</totfact>
</mgrwt>
</event>
<event>
 8    1  0.3754098E-007  0.1266828E+03  0.7546771E-02  0.1232463E+00
          5   -1    0    0  501    0  0.00000000000E+00  0.00000000000E+00  0.31576760017E+03  0.31580257649E+03  0.47000000000E+01 0.  1.
         -5   -1    0    0    0  501 -0.00000000000E+00 -0.00000000000E+00 -0.50870255993E+02  0.51086915593E+02  0.47000000000E+01 0.  1.
         25    2    1    2    0    0  0.19888302802E+02  0.53052544644E+01  0.14373185617E+03  0.19159168778E+03  0.12499935215E+03 0.  0.
         25    2    1    2    0    0 -0.19888302802E+02 -0.53052544644E+01  0.12116548801E+03  0.17529780430E+03  0.12499821756E+03 0.  0.
          5    1    4    4  502    0 -0.57770478048E+02  0.11670563193E+02  0.11968740065E+03  0.13349454690E+03  0.47000000000E+01 0.  1.
         -5    1    4    4    0  502  0.37882175246E+02 -0.16975817658E+02  0.14780873611E+01  0.41803257395E+02  0.47000000000E+01 0.  1.
          5    1    3    3  503    0  0.16208765717E+02 -0.55939179765E+02  0.10097142130E+03  0.11665862094E+03  0.47000000000E+01 0. -1.
         -5    1    3    3    0  503  0.36795370852E+01  0.61244434229E+02  0.42760434865E+02  0.74933066847E+02  0.47000000000E+01 0. -1.
<mgrwt>
<rscale>  0 0.12668251E+03</rscale>
<asrwt>0</asrwt>
<pdfrwt beam="1">  1        5 0.48598987E-01 0.12668279E+03</pdfrwt>
<pdfrwt beam="2">  1       -5 0.78455498E-02 0.12668279E+03</pdfrwt>
<totfact> 0.34719394E+02</totfact>
</mgrwt>
</event>
<event>
 8    1  0.3754098E-007  0.1665097E+03  0.7546771E-02  0.1181538E+00
         -5   -1    0    0    0  501 -0.00000000000E+00  0.00000000000E+00  0.37813381844E+02  0.38104354692E+02  0.47000000000E+01 0. -1.
          5   -1    0    0  501    0  0.00000000000E+00 -0.00000000000E+00 -0.84900411376E+03  0.84901712302E+03  0.47000000000E+01 0. -1.
         25    2    1    2    0    0  0.23026811050E+02 -0.10756721710E+03 -0.23963027900E+03  0.29180153548E+03  0.12499810108E+03 0.  0.
         25    2    1    2    0    0 -0.23026811050E+02  0.10756721710E+03 -0.57156045291E+03  0.59531994223E+03  0.12499416810E+03 0.  0.
          5    1    3    3  502    0  0.31370420140E+02  0.20332279244E+02 -0.44699408267E+02  0.58460516064E+02  0.47000000000E+01 0. -1.
         -5    1    3    3    0  502 -0.83436090904E+01 -0.12789949634E+03 -0.19493087073E+03  0.23334101942E+03  0.47000000000E+01 0. -1.
          5    1    4    4  503    0 -0.23422650267E+02  0.40341749801E+02 -0.46782807034E+02  0.66232909920E+02  0.47000000000E+01 0. -1.
         -5    1    4    4    0  503  0.39583921738E+00  0.67225467298E+02 -0.52477764588E+03  0.52908703231E+03  0.47000000000E+01 0. -1.
<mgrwt>
<rscale>  0 0.16650892E+03</rscale>
<asrwt>0</asrwt>
<pdfrwt beam="2">  1        5 0.13063939E+00 0.16650966E+03</pdfrwt>
<pdfrwt beam="1">  1       -5 0.58408272E-02 0.16650966E+03</pdfrwt>
<totfact> 0.62452501E+01</totfact>
</mgrwt>
</event>
<event>
 8    1  0.3754098E-007  0.1426096E+03  0.7546771E-02  0.1209860E+00
         -5   -1    0    0    0  501 -0.00000000000E+00  0.00000000000E+00  0.75069835586E+03  0.75071306868E+03  0.47000000000E+01 0.  1.
          5   -1    0    0  501    0  0.00000000000E+00 -0.00000000000E+00 -0.27105861839E+02  0.27510320718E+02  0.47000000000E+01 0.  1.
         25    2    1    2    0    0  0.17886308342E+02  0.66282297905E+02  0.39764011267E+03  0.42243953012E+03  0.12499693743E+03 0.  0.
         25    2    1    2    0    0 -0.17886308342E+02 -0.66282297905E+02  0.32595238136E+03  0.35578385928E+03  0.12499574621E+03 0.  0.
          5    1    4    4  502    0 -0.11288481802E+02 -0.38284568929E+02  0.14128750781E+02  0.42601052077E+02  0.47000000000E+01 0.  1.
         -5    1    4    4    0  502 -0.65978265407E+01 -0.27997728977E+02  0.31182363058E+03  0.31318280720E+03  0.47000000000E+01 0.  1.
          5    1    3    3  503    0  0.20201573308E+02  0.14323971908E+02  0.42063385847E+01  0.25555097723E+02  0.47000000000E+01 0. -1.
         -5    1    3    3    0  503 -0.23152649654E+01  0.51958325997E+02  0.39343377408E+03  0.39688443240E+03  0.47000000000E+01 0. -1.
<mgrwt>
<rscale>  0 0.14260934E+03</rscale>
<asrwt>0</asrwt>
<pdfrwt beam="2">  1        5 0.42023764E-02 0.14260960E+03</pdfrwt>
<pdfrwt beam="1">  1       -5 0.11552430E+00 0.14260960E+03</pdfrwt>
<totfact> 0.14140379E+02</totfact>
</mgrwt>
</event>
<event>
 8    1  0.3754098E-007  0.1267007E+03  0.7546771E-02  0.1232437E+00
          5   -1    0    0  501    0  0.00000000000E+00  0.00000000000E+00  0.52684814916E+02  0.52894042412E+02  0.47000000000E+01 0.  1.
         -5   -1    0    0    0  501 -0.00000000000E+00 -0.00000000000E+00 -0.35767388041E+03  0.35770475916E+03  0.47000000000E+01 0.  1.
         25    2    1    2    0    0 -0.18268347940E+02  0.96734506658E+01 -0.23210128065E+03  0.26442868462E+03  0.12499686630E+03 0.  0.
         25    2    1    2    0    0  0.18268347940E+02 -0.96734506658E+01 -0.72887784844E+02  0.14617011696E+03  0.12500306287E+03 0.  0.
          5    1    4    4  502    0  0.26583446128E+02 -0.35959844447E+02  0.19963757500E+02  0.49197882416E+02  0.47000000000E+01 0.  1.
         -5    1    4    4    0  502 -0.83150981881E+01  0.26286393781E+02 -0.92851542345E+02  0.96972234540E+02  0.47000000000E+01 0.  1.
          5    1    3    3  503    0  0.51987658622E+02  0.18586968515E+02 -0.11099435690E+03  0.12405655690E+03  0.47000000000E+01 0.  1.
         -5    1    3    3    0  503 -0.70256006562E+02 -0.89135178497E+01 -0.12110692375E+03  0.14037212772E+03  0.47000000000E+01 0.  1.
<mgrwt>
<rscale>  0 0.12669920E+03</rscale>
<asrwt>0</asrwt>
<pdfrwt beam="1">  1        5 0.81238261E-02 0.12670073E+03</pdfrwt>
<pdfrwt beam="2">  1       -5 0.55045219E-01 0.12670073E+03</pdfrwt>
<totfact> 0.25093344E+02</totfact>
</mgrwt>
</event>
<event>
 8    1  0.3754098E-007  0.1922158E+03  0.7546771E-02  0.1156478E+00
          5   -1    0    0  501    0  0.00000000000E+00  0.00000000000E+00  0.53266178336E+03  0.53268251844E+03  0.47000000000E+01 0.  1.
         -5   -1    0    0    0  501 -0.00000000000E+00 -0.00000000000E+00 -0.74997008914E+02  0.75144137137E+02  0.47000000000E+01 0.  1.
         25    2    1    2    0    0  0.12689552809E+03 -0.72247987314E+02  0.14488040893E+03  0.24070156124E+03  0.12499864787E+03 0.  0.
         25    2    1    2    0    0 -0.12689552809E+03  0.72247987314E+02  0.31278436552E+03  0.36712509435E+03  0.12499811544E+03 0.  0.
          5    1    3    3  502    0  0.91209084830E+02 -0.82300942786E+01  0.13965832439E+03  0.16707294568E+03  0.47000000000E+01 0.  1.
         -5    1    3    3    0  502  0.35686443264E+02 -0.64017893035E+02  0.52220845383E+01  0.73628615554E+02  0.47000000000E+01 0.  1.
          5    1    4    4  503    0  0.47590228057E+01  0.51406474782E+02  0.13691453261E+03  0.14639997673E+03  0.47000000000E+01 0. -1.
         -5    1    4    4    0  503 -0.13165455090E+03  0.20841512531E+02  0.17586983291E+03  0.22072511761E+03  0.47000000000E+01 0. -1.
<mgrwt>
<rscale>  0 0.19221570E+03</rscale>
<asrwt>0</asrwt>
<pdfrwt beam="1">  1        5 0.81960876E-01 0.19221579E+03</pdfrwt>
<pdfrwt beam="2">  1       -5 0.11550914E-01 0.19221579E+03</pdfrwt>
<totfact> 0.63347072E+01</totfact>
</mgrwt>
</event>
<event>
 8    1  0.3754098E-007  0.1265124E+03  0.7546771E-02  0.1232732E+00
         -5   -1    0    0    0  501 -0.00000000000E+00  0.00000000000E+00  0.17346293320E+03  0.17352659506E+03  0.47000000000E+01 0.  1.
          5   -1    0    0  501    0  0.00000000000E+00 -0.00000000000E+00 -0.96810260914E+02  0.96924282914E+02  0.47000000000E+01 0.  1.
         25    2    1    2    0    0  0.77903645278E+00  0.19365786362E+02  0.68079727509E+02  0.14366709980E+03  0.12501898131E+03 0.  0.
         25    2    1    2    0    0 -0.77903645278E+00 -0.19365786362E+02  0.85729447747E+01  0.12678377818E+03  0.12499996179E+03 0.  0.
          5    1    4    4  502    0 -0.39302436843E+02 -0.58966716714E+02  0.35261777458E+01  0.71107518247E+02  0.47000000000E+01 0. -1.
         -5    1    4    4    0  502  0.38523400390E+02  0.39600930352E+02  0.50467670289E+01  0.55676259930E+02  0.47000000000E+01 0. -1.
          5    1    3    3  503    0  0.48151236206E+02  0.50097616483E+02  0.41592045708E+02  0.81119054430E+02  0.47000000000E+01 0. -1.
         -5    1    3    3    0  503 -0.47372199753E+02 -0.30731830121E+02  0.26487681801E+02  0.62548045367E+02  0.47000000000E+01 0. -1.
<mgrwt>
<rscale>  0 0.12650770E+03</rscale>
<asrwt>0</asrwt>
<pdfrwt beam="2">  1        5 0.14907554E-01 0.12651240E+03</pdfrwt>
<pdfrwt beam="1">  1       -5 0.26700273E-01 0.12651240E+03</pdfrwt>
<totfact> 0.37543389E+02</totfact>
</mgrwt>
</event>
<event>
 8    1  0.3754098E-007  0.1260003E+03  0.7546771E-02  0.1233517E+00
          5   -1    0    0  501    0  0.00000000000E+00  0.00000000000E+00  0.46502988792E+03  0.46505363847E+03  0.47000000000E+01 0.  1.
         -5   -1    0    0    0  501 -0.00000000000E+00 -0.00000000000E+00 -0.33953401838E+02  0.34277157064E+02  0.47000000000E+01 0.  1.
         25    2    1    2    0    0  0.89061836519E+01 -0.13019041698E+02  0.21367110344E+03  0.24805173158E+03  0.12500202215E+03 0.  0.
         25    2    1    2    0    0 -0.89061836519E+01  0.13019041698E+02  0.21740538264E+03  0.25127906396E+03  0.12500900778E+03 0.  0.
          5    1    3    3  502    0 -0.25273562824E+02  0.48072622545E+02  0.11146208851E+03  0.12407907636E+03  0.47000000000E+01 0. -1.
         -5    1    3    3    0  502  0.34179746476E+02 -0.61091664243E+02  0.10220901493E+03  0.12397265522E+03  0.47000000000E+01 0. -1.
          5    1    4    4  503    0  0.40367150569E+01  0.33845296711E+00  0.22911511853E+03  0.22919912120E+03  0.47000000000E+01 0.  1.
         -5    1    4    4    0  503 -0.12942898709E+02  0.12680588731E+02 -0.11709735889E+02  0.22079942757E+02  0.47000000000E+01 0.  1.
<mgrwt>
<rscale>  0 0.12599854E+03</rscale>
<asrwt>0</asrwt>
<pdfrwt beam="1">  1        5 0.71569785E-01 0.12600027E+03</pdfrwt>
<pdfrwt beam="2">  1       -5 0.52503319E-02 0.12600027E+03</pdfrwt>
<totfact> 0.29339812E+02</totfact>
</mgrwt>
</event>
<event>
 8    1  0.3754098E-007  0.1280642E+03  0.7546771E-02  0.1230358E+00
          5   -1    0    0  501    0  0.00000000000E+00  0.00000000000E+00  0.16264113389E+03  0.16270902997E+03  0.47000000000E+01 0.  1.
         -5   -1    0    0    0  501 -0.00000000000E+00 -0.00000000000E+00 -0.11966009465E+03  0.11975236220E+03  0.47000000000E+01 0.  1.
         25    2    1    2    0    0  0.22959858658E+02  0.15725103623E+02 -0.34699036562E+02  0.13267942990E+03  0.12500149594E+03 0.  0.
         25    2    1    2    0    0 -0.22959858658E+02 -0.15725103623E+02  0.77680075801E+02  0.14978196226E+03  0.12500403213E+03 0.  0.
          5    1    3    3  502    0  0.40972167961E+02 -0.15514078769E+02  0.33526694954E+02  0.55367268869E+02  0.47000000000E+01 0.  1.
         -5    1    3    3    0  502 -0.18012309303E+02  0.31239182392E+02 -0.68225731516E+02  0.77312161035E+02  0.47000000000E+01 0.  1.
          5    1    4    4  503    0 -0.16194588652E+02  0.55082306638E+01  0.10934634805E+03  0.11077598629E+03  0.47000000000E+01 0. -1.
         -5    1    4    4    0  503 -0.67652700058E+01 -0.21233334286E+02 -0.31666272248E+02  0.39005975968E+02  0.47000000000E+01 0. -1.
<mgrwt>
<rscale>  0 0.12806359E+03</rscale>
<asrwt>0</asrwt>
<pdfrwt beam="1">  1        5 0.25034033E-01 0.12806421E+03</pdfrwt>
<pdfrwt beam="2">  1       -5 0.18421566E-01 0.12806421E+03</pdfrwt>
<totfact> 0.28999982E+02</totfact>
</mgrwt>
</event>
<event>
 8    1  0.3754098E-007  0.1548930E+03  0.7546771E-02  0.1194587E+00
          5   -1    0    0  501    0  0.00000000000E+00  0.00000000000E+00  0.11766842034E+03  0.11776224838E+03  0.47000000000E+01 0.  1.
         -5   -1    0    0    0  501 -0.00000000000E+00 -0.00000000000E+00 -0.20944631041E+03  0.20949903805E+03  0.47000000000E+01 0.  1.
         25    2    1    2    0    0  0.54241714473E+02 -0.73651247317E+02 -0.73007434452E+02  0.17123644527E+03  0.12500065953E+03 0.  0.
         25    2    1    2    0    0 -0.54241714473E+02  0.73651247317E+02 -0.18770455620E+02  0.15602484116E+03  0.12499900494E+03 0.  0.
          5    1    4    4  502    0 -0.49771518977E+02 -0.18980469289E+02 -0.31862912822E+02  0.62247871684E+02  0.47000000000E+01 0.  1.
         -5    1    4    4    0  502 -0.44701954954E+01  0.92631716605E+02  0.13092457202E+02  0.93776969479E+02  0.47000000000E+01 0.  1.
          5    1    3    3  503    0  0.53517697858E+02  0.22639045696E+02 -0.31603903011E+02  0.66314154293E+02  0.47000000000E+01 0. -1.
         -5    1    3    3    0  503  0.72401661436E+00 -0.96290293013E+02 -0.41403531441E+02  0.10492229098E+03  0.47000000000E+01 0. -1.
<mgrwt>
<rscale>  0 0.15489264E+03</rscale>
<asrwt>0</asrwt>
<pdfrwt beam="1">  1        5 0.18114107E-01 0.15489298E+03</pdfrwt>
<pdfrwt beam="2">  1       -5 0.32233783E-01 0.15489298E+03</pdfrwt>
<totfact> 0.19499408E+02</totfact>
</mgrwt>
</event>
<event>
 8    1  0.3754098E-007  0.1687168E+03  0.7546771E-02  0.1179207E+00
          5   -1    0    0  501    0  0.00000000000E+00  0.00000000000E+00  0.66074486083E+02  0.66241435002E+02  0.47000000000E+01 0.  1.
         -5   -1    0    0    0  501 -0.00000000000E+00 -0.00000000000E+00 -0.43016654349E+03  0.43019221882E+03  0.47000000000E+01 0.  1.
         25    2    1    2    0    0 -0.10532085623E+03  0.41597877145E+02 -0.18764197900E+03  0.25230258709E+03  0.12499686807E+03 0.  0.
         25    2    1    2    0    0  0.10532085623E+03 -0.41597877145E+02 -0.17645007840E+03  0.24413106674E+03  0.12506990621E+03 0.  0.
          5    1    3    3  502    0 -0.69929298284E+02  0.77905480448E+02 -0.16742392508E+03  0.19751514203E+03  0.47000000000E+01 0. -1.
         -5    1    3    3    0  502 -0.35391557943E+02 -0.36307603304E+02 -0.20218053921E+02  0.54787445055E+02  0.47000000000E+01 0. -1.
          5    1    4    4  503    0 -0.16805245167E+02  0.21890297183E+02 -0.49271838274E+02  0.56669263475E+02  0.47000000000E+01 0. -1.
         -5    1    4    4    0  503  0.12212610139E+03 -0.63488174328E+02 -0.12717824013E+03  0.18746180326E+03  0.47000000000E+01 0. -1.
<mgrwt>
<rscale>  0 0.16870323E+03</rscale>
<asrwt>0</asrwt>
<pdfrwt beam="1">  1        5 0.10180123E-01 0.16871677E+03</pdfrwt>
<pdfrwt beam="2">  1       -5 0.66194284E-01 0.16871677E+03</pdfrwt>
<totfact> 0.12435815E+02</totfact>
</mgrwt>
</event>
<event>
 8    1  0.3754098E-007  0.1274287E+03  0.7546771E-02  0.1231352E+00
          5   -1    0    0  501    0  0.00000000000E+00  0.00000000000E+00  0.43488513362E+03  0.43491053039E+03  0.47000000000E+01 0. -1.
         -5   -1    0    0    0  501 -0.00000000000E+00 -0.00000000000E+00 -0.37153342150E+02  0.37449443693E+02  0.47000000000E+01 0. -1.
         25    2    1    2    0    0  0.21911671635E+02 -0.11548099536E+02  0.20319596670E+03  0.23984717250E+03  0.12499834125E+03 0.  0.
         25    2    1    2    0    0 -0.21911671635E+02  0.11548099536E+02  0.19453582477E+03  0.23251280158E+03  0.12491811648E+03 0.  0.
          5    1    3    3  502    0  0.35508449761E+02  0.47568150927E+02  0.61310670852E+02  0.85467346673E+02  0.47000000000E+01 0.  1.
         -5    1    3    3    0  502 -0.13596778125E+02 -0.59116250463E+02  0.14188529585E+03  0.15437982582E+03  0.47000000000E+01 0.  1.
          5    1    4    4  503    0  0.25276093724E+02 -0.42594463720E+02  0.47400913260E+02  0.68717580221E+02  0.47000000000E+01 0.  1.
         -5    1    4    4    0  503 -0.47187765360E+02  0.54142563256E+02  0.14713491151E+03  0.16379522136E+03  0.47000000000E+01 0.  1.
<mgrwt>
<rscale>  0 0.12740899E+03</rscale>
<asrwt>0</asrwt>
<pdfrwt beam="1">  1        5 0.66930136E-01 0.12742867E+03</pdfrwt>
<pdfrwt beam="2">  1       -5 0.57406294E-02 0.12742867E+03</pdfrwt>
<totfact> 0.29503066E+02</totfact>
</mgrwt>
</event>
<event>
 8    1  0.3754098E-007  0.1328446E+03  0.7546771E-02  0.1223297E+00
         -5   -1    0    0    0  501 -0.00000000000E+00  0.00000000000E+00  0.43964932364E+03  0.43967444522E+03  0.47000000000E+01 0.  1.
          5   -1    0    0  501    0  0.00000000000E+00 -0.00000000000E+00 -0.43663331741E+02  0.43915561464E+02  0.47000000000E+01 0.  1.
         25    2    1    2    0    0  0.14272601063E+02  0.42628607146E+02  0.12794540250E+03  0.18443547723E+03  0.12500205580E+03 0.  0.
         25    2    1    2    0    0 -0.14272601063E+02 -0.42628607146E+02  0.26804058941E+03  0.29915452945E+03  0.12500707834E+03 0.  0.
          5    1    4    4  502    0 -0.11272404686E+02  0.80910874967E+01 -0.91724753090E+01  0.17284591623E+02  0.47000000000E+01 0.  1.
         -5    1    4    4    0  502 -0.30001963773E+01 -0.50719694643E+02  0.27721306472E+03  0.28186993783E+03  0.47000000000E+01 0.  1.
          5    1    3    3  503    0  0.23141933261E+01  0.73793101249E+02  0.28239656814E+02  0.79185513193E+02  0.47000000000E+01 0.  1.
         -5    1    3    3    0  503  0.11958407737E+02 -0.31164494103E+02  0.99705745683E+02  0.10524996404E+03  0.47000000000E+01 0.  1.
<mgrwt>
<rscale>  0 0.13284337E+03</rscale>
<asrwt>0</asrwt>
<pdfrwt beam="2">  1        5 0.67387707E-02 0.13284455E+03</pdfrwt>
<pdfrwt beam="1">  1       -5 0.67659689E-01 0.13284455E+03</pdfrwt>
<totfact> 0.22318355E+02</totfact>
</mgrwt>
</event>
<event>
 8    1  0.3754098E-007  0.1292470E+03  0.7546771E-02  0.1228579E+00
          5   -1    0    0  501    0  0.00000000000E+00  0.00000000000E+00  0.59909231591E+03  0.59911075185E+03  0.47000000000E+01 0. -1.
         -5   -1    0    0    0  501 -0.00000000000E+00 -0.00000000000E+00 -0.28021201846E+02  0.28412633685E+02  0.47000000000E+01 0. -1.
         25    2    1    2    0    0 -0.36607280620E+01  0.32656421291E+02  0.25044029031E+03  0.28182464484E+03  0.12499979458E+03 0.  0.
         25    2    1    2    0    0  0.36607280620E+01 -0.32656421291E+02  0.32063082375E+03  0.34569874070E+03  0.12499460548E+03 0.  0.
          5    1    4    4  502    0  0.46956977683E+02  0.89530454175E+01  0.53662430189E+02  0.72019866629E+02  0.47000000000E+01 0. -1.
         -5    1    4    4    0  502 -0.43296249621E+02 -0.41609466709E+02  0.26696839356E+03  0.27367887407E+03  0.47000000000E+01 0. -1.
          5    1    3    3  503    0  0.37683404947E+02 -0.29149409731E+02  0.14513180549E+03  0.15282361748E+03  0.47000000000E+01 0. -1.
         -5    1    3    3    0  503 -0.41344133009E+02  0.61805831022E+02  0.10530848483E+03  0.12900102736E+03  0.47000000000E+01 0. -1.
<mgrwt>
<rscale>  0 0.12924576E+03</rscale>
<asrwt>0</asrwt>
<pdfrwt beam="1">  1        5 0.92199578E-01 0.12924702E+03</pdfrwt>
<pdfrwt beam="2">  1       -5 0.43424824E-02 0.12924702E+03</pdfrwt>
<totfact> 0.22535673E+02</totfact>
</mgrwt>
</event>
<event>
 8    1  0.3754098E-007  0.1424836E+03  0.7546771E-02  0.1210032E+00
          5   -1    0    0  501    0  0.00000000000E+00  0.00000000000E+00  0.11608555850E+03  0.11618066488E+03  0.47000000000E+01 0. -1.
         -5   -1    0    0    0  501 -0.00000000000E+00 -0.00000000000E+00 -0.20117347764E+03  0.20122837302E+03  0.47000000000E+01 0. -1.
         25    2    1    2    0    0  0.39692752104E+02 -0.55660225829E+02 -0.10013633078E+03  0.17415185647E+03  0.12501203567E+03 0.  0.
         25    2    1    2    0    0 -0.39692752104E+02  0.55660225829E+02  0.15048411639E+02  0.14325718143E+03  0.12499035974E+03 0.  0.
          5    1    3    3  502    0  0.36965033253E+02 -0.81002979593E+02 -0.11402454462E+03  0.14474661710E+03  0.47000000000E+01 0.  1.
         -5    1    3    3    0  502  0.27277188512E+01  0.25342753765E+02  0.13888213843E+02  0.29405239367E+02  0.47000000000E+01 0.  1.
          5    1    4    4  503    0 -0.38322280536E+02  0.87266776227E+02  0.39215474208E+02  0.10316991245E+03  0.47000000000E+01 0.  1.
         -5    1    4    4    0  503 -0.13704715679E+01 -0.31606550399E+02 -0.24167062568E+02  0.40087268972E+02  0.47000000000E+01 0.  1.
<mgrwt>
<rscale>  0 0.14247887E+03</rscale>
<asrwt>0</asrwt>
<pdfrwt beam="1">  1        5 0.17870855E-01 0.14248363E+03</pdfrwt>
<pdfrwt beam="2">  1       -5 0.30961304E-01 0.14248363E+03</pdfrwt>
<totfact> 0.21061816E+02</totfact>
</mgrwt>
</event>
<event>
 8    1  0.3754098E-007  0.1688257E+03  0.7546771E-02  0.1179078E+00
         -5   -1    0    0    0  501 -0.00000000000E+00  0.00000000000E+00  0.43243513238E+02  0.43498177400E+02  0.47000000000E+01 0.  1.
          5   -1    0    0  501    0  0.00000000000E+00 -0.00000000000E+00 -0.66595576104E+03  0.66597234602E+03  0.47000000000E+01 0.  1.
         25    2    1    2    0    0 -0.83520950595E+02  0.76813391635E+02 -0.35270080867E+03  0.39102385397E+03  0.12500299040E+03 0.  0.
         25    2    1    2    0    0  0.83520950595E+02 -0.76813391635E+02 -0.27001143913E+03  0.31844666946E+03  0.12500423074E+03 0.  0.
          5    1    4    4  502    0  0.12076793409E+02 -0.15037961728E+02  0.10476708645E+02  0.22446395167E+02  0.47000000000E+01 0. -1.
         -5    1    4    4    0  502  0.71444157187E+02 -0.61775429907E+02 -0.28048814778E+03  0.29600027429E+03  0.47000000000E+01 0. -1.
          5    1    3    3  503    0 -0.10899198409E+03  0.88421847249E+02 -0.29527673637E+03  0.32696806680E+03  0.47000000000E+01 0.  1.
         -5    1    3    3    0  503  0.25471033498E+02 -0.11608455614E+02 -0.57424072306E+02  0.64055787165E+02  0.47000000000E+01 0.  1.
<mgrwt>
<rscale>  0 0.16882543E+03</rscale>
<asrwt>0</asrwt>
<pdfrwt beam="2">  1        5 0.10247559E+00 0.16882566E+03</pdfrwt>
<pdfrwt beam="1">  1       -5 0.66737140E-02 0.16882566E+03</pdfrwt>
<totfact> 0.92635711E+01</totfact>
</mgrwt>
</event>
<event>
 8    1  0.3754098E-007  0.1525802E+03  0.7546771E-02  0.1197339E+00
          5   -1    0    0  501    0  0.00000000000E+00  0.00000000000E+00  0.52889744762E+02  0.53098164761E+02  0.47000000000E+01 0.  1.
         -5   -1    0    0    0  501 -0.00000000000E+00 -0.00000000000E+00 -0.46132651904E+03  0.46135046025E+03  0.47000000000E+01 0.  1.
         25    2    1    2    0    0  0.84149373132E+02  0.23964042641E+02 -0.26069634038E+03  0.30206229067E+03  0.12499461277E+03 0.  0.
         25    2    1    2    0    0 -0.84149373132E+02 -0.23964042641E+02 -0.14774043390E+03  0.21238633434E+03  0.12500130746E+03 0.  0.
          5    1    3    3  502    0  0.51337324187E+02  0.50895025636E+02 -0.52335753059E+02  0.89369712640E+02  0.47000000000E+01 0. -1.
         -5    1    3    3    0  502  0.32812048945E+02 -0.26930982995E+02 -0.20836058732E+03  0.21269257803E+03  0.47000000000E+01 0. -1.
          5    1    4    4  503    0 -0.10818687818E+03  0.34848969927E+01 -0.77878510904E+02  0.13343049718E+03  0.47000000000E+01 0.  1.
         -5    1    4    4    0  503  0.24037505050E+02 -0.27448939634E+02 -0.69861922997E+02  0.78955837155E+02  0.47000000000E+01 0.  1.
<mgrwt>
<rscale>  0 0.15257883E+03</rscale>
<asrwt>0</asrwt>
<pdfrwt beam="1">  1        5 0.81547581E-02 0.15258021E+03</pdfrwt>
<pdfrwt beam="2">  1       -5 0.70991182E-01 0.15258021E+03</pdfrwt>
<totfact> 0.15141311E+02</totfact>
</mgrwt>
</event>
<event>
 8    1  0.3754098E-007  0.1679044E+03  0.7546771E-02  0.1180064E+00
          5   -1    0    0  501    0  0.00000000000E+00  0.00000000000E+00  0.95338001998E+02  0.95453782664E+02  0.47000000000E+01 0. -1.
         -5   -1    0    0    0  501 -0.00000000000E+00 -0.00000000000E+00 -0.29595088607E+03  0.29598820410E+03  0.47000000000E+01 0. -1.
         25    2    1    2    0    0 -0.34637670848E+02  0.10653440818E+03 -0.10943121021E+03  0.20037657300E+03  0.12500493139E+03 0.  0.
         25    2    1    2    0    0  0.34637670848E+02 -0.10653440818E+03 -0.91181673863E+02  0.19106541376E+03  0.12507016558E+03 0.  0.
          5    1    4    4  502    0 -0.28249382717E+02 -0.44011192155E+01 -0.60641151182E+02  0.67207415446E+02  0.47000000000E+01 0.  1.
         -5    1    4    4    0  502  0.62887053565E+02 -0.10213328896E+03 -0.30540522681E+02  0.12385799831E+03  0.47000000000E+01 0.  1.
          5    1    3    3  503    0 -0.11632118025E+01 -0.22633063506E+02  0.59659865122E+01  0.23901707479E+02  0.47000000000E+01 0.  1.
         -5    1    3    3    0  503 -0.33474459045E+02  0.12916747169E+03 -0.11539719672E+03  0.17647486552E+03  0.47000000000E+01 0.  1.
<mgrwt>
<rscale>  0 0.16789227E+03</rscale>
<asrwt>0</asrwt>
<pdfrwt beam="1">  1        5 0.14679162E-01 0.16790442E+03</pdfrwt>
<pdfrwt beam="2">  1       -5 0.45542682E-01 0.16790442E+03</pdfrwt>
<totfact> 0.14525328E+02</totfact>
</mgrwt>
</event>
<event>
 8    1  0.3754098E-007  0.1269447E+03  0.7546771E-02  0.1232062E+00
          5   -1    0    0  501    0  0.00000000000E+00  0.00000000000E+00  0.79005677761E+02  0.79145354371E+02  0.47000000000E+01 0. -1.
         -5   -1    0    0    0  501 -0.00000000000E+00 -0.00000000000E+00 -0.23676048574E+03  0.23680713167E+03  0.47000000000E+01 0. -1.
         25    2    1    2    0    0  0.70702502595E+01  0.20959549435E+02 -0.13795490428E+03  0.18747299156E+03  0.12500110319E+03 0.  0.
         25    2    1    2    0    0 -0.70702502595E+01 -0.20959549435E+02 -0.19799903701E+02  0.12847949448E+03  0.12500261263E+03 0.  0.
          5    1    3    3  502    0  0.25661794327E+02  0.30934473689E+02 -0.15484226264E+03  0.16004276194E+03  0.47000000000E+01 0. -1.
         -5    1    3    3    0  502 -0.18591544067E+02 -0.99749242533E+01  0.16887358359E+02  0.27430229620E+02  0.47000000000E+01 0. -1.
          5    1    4    4  503    0 -0.44491257686E+02  0.30715131515E+02 -0.32502276035E+02  0.63256456286E+02  0.47000000000E+01 0.  1.
         -5    1    4    4    0  503  0.37421007427E+02 -0.51674680950E+02  0.12702372334E+02  0.65223038192E+02  0.47000000000E+01 0.  1.
<mgrwt>
<rscale>  0 0.12694428E+03</rscale>
<asrwt>0</asrwt>
<pdfrwt beam="1">  1        5 0.12169052E-01 0.12694465E+03</pdfrwt>
<pdfrwt beam="2">  1       -5 0.36439022E-01 0.12694465E+03</pdfrwt>
<totfact> 0.29288700E+02</totfact>
</mgrwt>
</event>
<event>
 8    1  0.3754098E-007  0.1255056E+03  0.7546771E-02  0.1234287E+00
         -5   -1    0    0    0  501 -0.00000000000E+00  0.00000000000E+00  0.11800906131E+02  0.12702416522E+02  0.47000000000E+01 0.  1.
          5   -1    0    0  501    0  0.00000000000E+00 -0.00000000000E+00 -0.15330036038E+04  0.15330108086E+04  0.47000000000E+01 0.  1.
         25    2    1    2    0    0  0.10849890860E+02 -0.28773053008E+01 -0.44963924501E+03  0.46682664542E+03  0.12500266882E+03 0.  0.
         25    2    1    2    0    0 -0.10849890860E+02  0.28773053008E+01 -0.10715634527E+04  0.10788865797E+04  0.12498807837E+03 0.  0.
          5    1    3    3  502    0  0.64935947760E+00 -0.58700817966E+02 -0.31788300396E+03  0.32329228557E+03  0.47000000000E+01 0. -1.
         -5    1    3    3    0  502  0.10200531382E+02  0.55823512665E+02 -0.13175624104E+03  0.14353435986E+03  0.47000000000E+01 0. -1.
          5    1    4    4  503    0  0.48326283309E+02  0.32734649250E+02 -0.54949059552E+03  0.55260201908E+03  0.47000000000E+01 0. -1.
         -5    1    4    4    0  503 -0.59176174168E+02 -0.29857343949E+02 -0.52207285719E+03  0.52628456066E+03  0.47000000000E+01 0. -1.
<mgrwt>
<rscale>  0 0.12550201E+03</rscale>
<asrwt>0</asrwt>
<pdfrwt beam="2">  1        5 0.23591646E+00 0.12550564E+03</pdfrwt>
<pdfrwt beam="1">  1       -5 0.18854264E-02 0.12550564E+03</pdfrwt>
<totfact> 0.63100202E+01</totfact>
</mgrwt>
</event>
<event>
 8    1  0.3754098E-007  0.1405620E+03  0.7546771E-02  0.1212601E+00
          5   -1    0    0  501    0  0.00000000000E+00  0.00000000000E+00  0.55923859558E+02  0.56121012712E+02  0.47000000000E+01 0. -1.
         -5   -1    0    0    0  501 -0.00000000000E+00 -0.00000000000E+00 -0.36412473710E+03  0.36415506884E+03  0.47000000000E+01 0. -1.
         25    2    1    2    0    0 -0.64050568875E+02  0.54890217810E+01 -0.19197134462E+03  0.23788368770E+03  0.12491215707E+03 0.  0.
         25    2    1    2    0    0  0.64050568875E+02 -0.54890217810E+01 -0.11622953291E+03  0.18239239386E+03  0.12500030513E+03 0.  0.
          5    1    3    3  502    0 -0.36925113476E+01  0.39393427357E+02 -0.71689938067E+01  0.40484086147E+02  0.47000000000E+01 0. -1.
         -5    1    3    3    0  502 -0.60358057527E+02 -0.33904405576E+02 -0.18480235082E+03  0.19739960155E+03  0.47000000000E+01 0. -1.
          5    1    4    4  503    0 -0.35704610759E+02 -0.90127401433E+01 -0.50917509932E+02  0.63013740819E+02  0.47000000000E+01 0. -1.
         -5    1    4    4    0  503  0.99755179634E+02  0.35237183624E+01 -0.65312022983E+02  0.11937865304E+03  0.47000000000E+01 0. -1.
<mgrwt>
<rscale>  0 0.14054242E+03</rscale>
<asrwt>0</asrwt>
<pdfrwt beam="1">  1        5 0.86211698E-02 0.14056202E+03</pdfrwt>
<pdfrwt beam="2">  1       -5 0.56036688E-01 0.14056202E+03</pdfrwt>
<totfact> 0.22599783E+02</totfact>
</mgrwt>
</event>
<event>
 8    1  0.3754098E-007  0.1364131E+03  0.7546771E-02  0.1218239E+00
          5   -1    0    0  501    0  0.00000000000E+00  0.00000000000E+00  0.72063184720E+02  0.72216290350E+02  0.47000000000E+01 0.  1.
         -5   -1    0    0    0  501 -0.00000000000E+00 -0.00000000000E+00 -0.26021466517E+03  0.26025710743E+03  0.47000000000E+01 0.  1.
         25    2    1    2    0    0 -0.31110251458E+02  0.44899584890E+02 -0.77984496489E+02  0.15713002373E+03  0.12499776876E+03 0.  0.
         25    2    1    2    0    0  0.31110251458E+02 -0.44899584890E+02 -0.11016698396E+03  0.17534337406E+03  0.12499885600E+03 0.  0.
          5    1    3    3  502    0 -0.49362851518E+02 -0.20305663120E+02  0.21395010569E+00  0.53583083518E+02  0.47000000000E+01 0. -1.
         -5    1    3    3    0  502  0.18252600059E+02  0.65205248009E+02 -0.78198446595E+02  0.10354694021E+03  0.47000000000E+01 0. -1.
          5    1    4    4  503    0  0.10443398233E+02 -0.71062998902E+02 -0.12029204794E+03  0.14018302742E+03  0.47000000000E+01 0.  1.
         -5    1    4    4    0  503  0.20666853225E+02  0.26163414012E+02  0.10125063976E+02  0.35160346636E+02  0.47000000000E+01 0.  1.
<mgrwt>
<rscale>  0 0.13641285E+03</rscale>
<asrwt>0</asrwt>
<pdfrwt beam="1">  1        5 0.11101686E-01 0.13641310E+03</pdfrwt>
<pdfrwt beam="2">  1       -5 0.40048067E-01 0.13641310E+03</pdfrwt>
<totfact> 0.29173861E+02</totfact>
</mgrwt>
</event>
<event>
 8    1  0.3754098E-007  0.1575011E+03  0.7546771E-02  0.1191547E+00
         -5   -1    0    0    0  501 -0.00000000000E+00  0.00000000000E+00  0.10524172962E+04  0.10524277910E+04  0.47000000000E+01 0.  1.
          5   -1    0    0  501    0  0.00000000000E+00 -0.00000000000E+00 -0.23643009105E+02  0.24105639994E+02  0.47000000000E+01 0.  1.
         25    2    1    2    0    0  0.78360646857E+02 -0.55145520303E+02  0.57609545184E+03  0.59723745625E+03  0.12500076055E+03 0.  0.
         25    2    1    2    0    0 -0.78360646857E+02  0.55145520303E+02  0.45267883523E+03  0.47929597475E+03  0.12500033664E+03 0.  0.
          5    1    3    3  502    0  0.98768159838E+02 -0.26485426312E+02  0.52583604869E+03  0.53570725897E+03  0.47000000000E+01 0. -1.
         -5    1    3    3    0  502 -0.20407512981E+02 -0.28660093991E+02  0.50259403143E+02  0.61530197285E+02  0.47000000000E+01 0. -1.
          5    1    4    4  503    0 -0.28489110032E+02  0.89557399766E+02  0.23080200350E+03  0.24924648857E+03  0.47000000000E+01 0. -1.
         -5    1    4    4    0  503 -0.49871536825E+02 -0.34411879464E+02  0.22187683173E+03  0.23004948618E+03  0.47000000000E+01 0. -1.
<mgrwt>
<rscale>  0 0.15750106E+03</rscale>
<asrwt>0</asrwt>
<pdfrwt beam="2">  1        5 0.36737798E-02 0.15750114E+03</pdfrwt>
<pdfrwt beam="1">  1       -5 0.16194677E+00 0.15750114E+03</pdfrwt>
<totfact> 0.74019743E+01</totfact>
</mgrwt>
</event>
<event>
 8    1  0.3754098E-007  0.1600499E+03  0.7546771E-02  0.1188642E+00
         -5   -1    0    0    0  501 -0.00000000000E+00  0.00000000000E+00  0.66396327453E+03  0.66397990928E+03  0.47000000000E+01 0.  1.
          5   -1    0    0  501    0  0.00000000000E+00 -0.00000000000E+00 -0.43687758441E+02  0.43939847947E+02  0.47000000000E+01 0.  1.
         25    2    1    2    0    0  0.35848789144E+02  0.93308618233E+02  0.43266490567E+03  0.46131863348E+03  0.12499730829E+03 0.  0.
         25    2    1    2    0    0 -0.35848789144E+02 -0.93308618233E+02  0.18761061042E+03  0.24660112374E+03  0.12499095635E+03 0.  0.
          5    1    3    3  502    0  0.47841780876E+01 -0.20715075687E+01  0.27041374585E+03  0.27050483073E+03  0.47000000000E+01 0. -1.
         -5    1    3    3    0  502  0.31064611057E+02  0.95380125801E+02  0.16225115983E+03  0.19081380276E+03  0.47000000000E+01 0. -1.
          5    1    4    4  503    0 -0.34898315031E+02 -0.11678562778E+03  0.10618281474E+03  0.16172091824E+03  0.47000000000E+01 0. -1.
         -5    1    4    4    0  503 -0.95047411301E+00  0.23477009548E+02  0.81427795672E+02  0.84880205504E+02  0.47000000000E+01 0. -1.
<mgrwt>
<rscale>  0 0.16004863E+03</rscale>
<asrwt>0</asrwt>
<pdfrwt beam="2">  1        5 0.67418647E-02 0.16004987E+03</pdfrwt>
<pdfrwt beam="1">  1       -5 0.10216887E+00 0.16004987E+03</pdfrwt>
<totfact> 0.90325188E+01</totfact>
</mgrwt>
</event>
<event>
 8    1  0.3754098E-007  0.1291123E+03  0.7546771E-02  0.1228780E+00
          5   -1    0    0  501    0  0.00000000000E+00  0.00000000000E+00  0.13614605262E+04  0.13614686388E+04  0.47000000000E+01 0.  1.
         -5   -1    0    0    0  501 -0.00000000000E+00 -0.00000000000E+00 -0.12117908238E+02  0.12997449753E+02  0.47000000000E+01 0.  1.
         25    2    1    2    0    0 -0.11616389836E+02  0.30164651098E+02  0.56469112197E+03  0.57926299809E+03  0.12499884413E+03 0.  0.
         25    2    1    2    0    0  0.11616389836E+02 -0.30164651098E+02  0.78465149599E+03  0.79520309045E+03  0.12500055285E+03 0.  0.
          5    1    3    3  502    0  0.51971953497E+02  0.38039917899E+02  0.26376045143E+03  0.27155070437E+03  0.47000000000E+01 0.  1.
         -5    1    3    3    0  502 -0.63588343333E+02 -0.78752668006E+01  0.30093067054E+03  0.30771229372E+03  0.47000000000E+01 0.  1.
          5    1    4    4  503    0 -0.35729655886E+02 -0.76116916613E+01  0.74553268087E+02  0.83155432427E+02  0.47000000000E+01 0. -1.
         -5    1    4    4    0  503  0.47346045722E+02 -0.22552959437E+02  0.71009822791E+03  0.71204765803E+03  0.47000000000E+01 0. -1.
<mgrwt>
<rscale>  0 0.12911188E+03</rscale>
<asrwt>0</asrwt>
<pdfrwt beam="1">  1        5 0.20952370E+00 0.12911230E+03</pdfrwt>
<pdfrwt beam="2">  1       -5 0.19325751E-02 0.12911230E+03</pdfrwt>
<totfact> 0.90748979E+01</totfact>
</mgrwt>
</event>
<event>
 8    1  0.3754098E-007  0.1523836E+03  0.7546771E-02  0.1197576E+00
         -5   -1    0    0    0  501 -0.00000000000E+00  0.00000000000E+00  0.57496372448E+02  0.57688151683E+02  0.47000000000E+01 0.  1.
          5   -1    0    0  501    0  0.00000000000E+00 -0.00000000000E+00 -0.47168220915E+03  0.47170562475E+03  0.47000000000E+01 0.  1.
         25    2    1    2    0    0  0.58132734209E+02 -0.64931922952E+02 -0.10608440438E+03  0.18566823426E+03  0.12499289162E+03 0.  0.
         25    2    1    2    0    0 -0.58132734209E+02  0.64931922952E+02 -0.30810143232E+03  0.34372554218E+03  0.12500074538E+03 0.  0.
          5    1    3    3  502    0 -0.34472031184E+02 -0.43066144241E+02 -0.52837158771E+02  0.76530183985E+02  0.47000000000E+01 0. -1.
         -5    1    3    3    0  502  0.92604765394E+02 -0.21865778710E+02 -0.53247245604E+02  0.10913805027E+03  0.47000000000E+01 0. -1.
          5    1    4    4  503    0 -0.88420177703E+02  0.22194120124E+02 -0.13621729721E+03  0.16397545198E+03  0.47000000000E+01 0.  1.
         -5    1    4    4    0  503  0.30287443494E+02  0.42737802827E+02 -0.17188413511E+03  0.17975009020E+03  0.47000000000E+01 0.  1.
<mgrwt>
<rscale>  0 0.15238197E+03</rscale>
<asrwt>0</asrwt>
<pdfrwt beam="2">  1        5 0.72583045E-01 0.15238358E+03</pdfrwt>
<pdfrwt beam="1">  1       -5 0.88621495E-02 0.15238358E+03</pdfrwt>
<totfact> 0.12468022E+02</totfact>
</mgrwt>
</event>
<event>
 8    1  0.3754098E-007  0.1254070E+03  0.7546771E-02  0.1234435E+00
          5   -1    0    0  501    0  0.00000000000E+00  0.00000000000E+00  0.28309720120E+03  0.28313621338E+03  0.47000000000E+01 0. -1.
         -5   -1    0    0    0  501 -0.00000000000E+00 -0.00000000000E+00 -0.67772883091E+02  0.67935658402E+02  0.47000000000E+01 0. -1.
         25    2    1    2    0    0 -0.89437513585E+01 -0.46238177814E+01  0.32812746578E+02  0.12962865865E+03  0.12500216969E+03 0.  0.
         25    2    1    2    0    0  0.89437513585E+01  0.46238177814E+01  0.18251157153E+03  0.22144321313E+03  0.12500101007E+03 0.  0.
          5    1    3    3  502    0 -0.56533932975E+02  0.72705288867E+01 -0.16892787718E+02  0.59635580360E+02  0.47000000000E+01 0.  1.
         -5    1    3    3    0  502  0.47590181617E+02 -0.11894346668E+02  0.49705534296E+02  0.69993078291E+02  0.47000000000E+01 0.  1.
          5    1    4    4  503    0  0.21697187582E+02 -0.32585355736E+02  0.17712999330E+03  0.18146541787E+03  0.47000000000E+01 0.  1.
         -5    1    4    4    0  503 -0.12753436224E+02  0.37209173518E+02  0.53815782304E+01  0.39977795257E+02  0.47000000000E+01 0.  1.
<mgrwt>
<rscale>  0 0.12540670E+03</rscale>
<asrwt>0</asrwt>
<pdfrwt beam="1">  1        5 0.43568937E-01 0.12540699E+03</pdfrwt>
<pdfrwt beam="2">  1       -5 0.10442120E-01 0.12540699E+03</pdfrwt>
<totfact> 0.26508231E+02</totfact>
</mgrwt>
</event>
<event>
 8    1  0.3754098E-007  0.1415131E+03  0.7546771E-02  0.1211307E+00
         -5   -1    0    0    0  501 -0.00000000000E+00  0.00000000000E+00  0.70176903297E+02  0.70334115168E+02  0.47000000000E+01 0.  1.
          5   -1    0    0  501    0  0.00000000000E+00 -0.00000000000E+00 -0.28488607133E+03  0.28492483857E+03  0.47000000000E+01 0.  1.
         25    2    1    2    0    0  0.34477058770E+02 -0.56663549203E+02 -0.10594175776E+03  0.17677560953E+03  0.12500613864E+03 0.  0.
         25    2    1    2    0    0 -0.34477058770E+02  0.56663549203E+02 -0.10876741026E+03  0.17848334421E+03  0.12500611679E+03 0.  0.
          5    1    3    3  502    0  0.49474354765E+02  0.25244355178E+02 -0.26993069062E+02  0.61933068914E+02  0.47000000000E+01 0. -1.
         -5    1    3    3    0  502 -0.14997295995E+02 -0.81907904381E+02 -0.78948688703E+02  0.11484254062E+03  0.47000000000E+01 0. -1.
          5    1    4    4  503    0  0.31113440565E+02  0.83421734201E+01 -0.88647768217E+02  0.94435982819E+02  0.47000000000E+01 0. -1.
         -5    1    4    4    0  503 -0.65590499335E+02  0.48321375783E+02 -0.20119642047E+02  0.84047361390E+02  0.47000000000E+01 0. -1.
<mgrwt>
<rscale>  0 0.14151310E+03</rscale>
<asrwt>0</asrwt>
<pdfrwt beam="2">  1        5 0.43843701E-01 0.14151311E+03</pdfrwt>
<pdfrwt beam="1">  1       -5 0.10811522E-01 0.14151311E+03</pdfrwt>
<totfact> 0.25680891E+02</totfact>
</mgrwt>
</event>
<event>
 8    1  0.3754098E-007  0.2106585E+03  0.7546771E-02  0.1141048E+00
          5   -1    0    0  501    0  0.00000000000E+00  0.00000000000E+00  0.98730305602E+03  0.98731424299E+03  0.47000000000E+01 0. -1.
         -5   -1    0    0    0  501 -0.00000000000E+00 -0.00000000000E+00 -0.46214841404E+02  0.46453219113E+02  0.47000000000E+01 0. -1.
         25    2    1    2    0    0 -0.45325240068E+02  0.16339024078E+03  0.38069364489E+03  0.43509155972E+03  0.12500506355E+03 0.  0.
         25    2    1    2    0    0  0.45325240068E+02 -0.16339024078E+03  0.56039456973E+03  0.59867590239E+03  0.12498005501E+03 0.  0.
          5    1    4    4  502    0  0.65585245360E+02 -0.94244897420E+02  0.46526809493E+03  0.47924942906E+03  0.47000000000E+01 0.  1.
         -5    1    4    4    0  502 -0.20260005292E+02 -0.69145343362E+02  0.95126474798E+02  0.11942647332E+03  0.47000000000E+01 0.  1.
          5    1    3    3  503    0 -0.58638449831E+02  0.50245988547E+02  0.70737878746E+02  0.10482873963E+03  0.47000000000E+01 0. -1.
         -5    1    3    3    0  503  0.13313209764E+02  0.11314425224E+03  0.30995576614E+03  0.33026282009E+03  0.47000000000E+01 0. -1.
<mgrwt>
<rscale>  0 0.21065481E+03</rscale>
<asrwt>0</asrwt>
<pdfrwt beam="1">  1        5 0.15191197E+00 0.21065852E+03</pdfrwt>
<pdfrwt beam="2">  1       -5 0.71291732E-02 0.21065852E+03</pdfrwt>
<totfact> 0.31499156E+01</totfact>
</mgrwt>
</event>
<event>
 8    1  0.3754098E-007  0.1430831E+03  0.7546771E-02  0.1209245E+00
          5   -1    0    0  501    0  0.00000000000E+00  0.00000000000E+00  0.43255707930E+02  0.43510300717E+02  0.47000000000E+01 0. -1.
         -5   -1    0    0    0  501 -0.00000000000E+00 -0.00000000000E+00 -0.50852490742E+03  0.50854662664E+03  0.47000000000E+01 0. -1.
         25    2    1    2    0    0  0.65215189298E+02 -0.24412568554E+02 -0.30699291959E+03  0.33869301145E+03  0.12497723356E+03 0.  0.
         25    2    1    2    0    0 -0.65215189298E+02  0.24412568554E+02 -0.15827627990E+03  0.21336391590E+03  0.12499514156E+03 0.  0.
          5    1    4    4  502    0 -0.70694352528E+02 -0.27609094547E+02 -0.13702025536E+03  0.15670543692E+03  0.47000000000E+01 0. -1.
         -5    1    4    4    0  502  0.54791632293E+01  0.52021663101E+02 -0.21256024537E+02  0.56658478983E+02  0.47000000000E+01 0. -1.
          5    1    3    3  503    0 -0.27599539619E+02 -0.18939745082E+02 -0.25894857067E+02  0.42580302412E+02  0.47000000000E+01 0. -1.
         -5    1    3    3    0  503  0.92814728918E+02 -0.54728234725E+01 -0.28109806252E+03  0.29611270904E+03  0.47000000000E+01 0. -1.
<mgrwt>
<rscale>  0 0.14307921E+03</rscale>
<asrwt>0</asrwt>
<pdfrwt beam="1">  1        5 0.66759794E-02 0.14308312E+03</pdfrwt>
<pdfrwt beam="2">  1       -5 0.78255852E-01 0.14308312E+03</pdfrwt>
<totfact> 0.16703223E+02</totfact>
</mgrwt>
</event>
<event>
 8    1  0.3754098E-007  0.1792321E+03  0.7546771E-02  0.1168549E+00
         -5   -1    0    0    0  501 -0.00000000000E+00  0.00000000000E+00  0.27896496504E+03  0.27900455501E+03  0.47000000000E+01 0.  1.
          5   -1    0    0  501    0  0.00000000000E+00 -0.00000000000E+00 -0.12216077802E+03  0.12225115822E+03  0.47000000000E+01 0.  1.
         25    2    1    2    0    0 -0.12739623555E+03  0.16382057316E+02  0.12675647122E+03  0.21952528021E+03  0.12500389202E+03 0.  0.
         25    2    1    2    0    0  0.12739623555E+03 -0.16382057316E+02  0.30047715790E+02  0.18173043303E+03  0.12499964972E+03 0.  0.
          5    1    3    3  502    0 -0.13514045151E+03  0.42578107851E+02  0.73971675773E+02  0.15990539615E+03  0.47000000000E+01 0.  1.
         -5    1    3    3    0  502  0.77442159597E+01 -0.26196050536E+02  0.52784795451E+02  0.59619884060E+02  0.47000000000E+01 0.  1.
          5    1    4    4  503    0  0.68894354755E+02  0.43898170667E+02  0.49154842179E+02  0.95455591846E+02  0.47000000000E+01 0.  1.
         -5    1    4    4    0  503  0.58501880793E+02 -0.60280227983E+02 -0.19107126389E+02  0.86274841181E+02  0.47000000000E+01 0.  1.
<mgrwt>
<rscale>  0 0.17923136E+03</rscale>
<asrwt>0</asrwt>
<pdfrwt beam="2">  1        5 0.18803964E-01 0.17923210E+03</pdfrwt>
<pdfrwt beam="1">  1       -5 0.42927684E-01 0.17923210E+03</pdfrwt>
<totfact> 0.10630918E+02</totfact>
</mgrwt>
</event>
<event>
 8    1  0.3754098E-007  0.1328034E+03  0.7546771E-02  0.1223354E+00
         -5   -1    0    0    0  501 -0.00000000000E+00  0.00000000000E+00  0.45986827806E+03  0.45989229518E+03  0.47000000000E+01 0. -1.
          5   -1    0    0  501    0  0.00000000000E+00 -0.00000000000E+00 -0.38838296638E+02  0.39121647278E+02  0.47000000000E+01 0. -1.
         25    2    1    2    0    0 -0.43111143374E+02 -0.12338831798E+02  0.24280523419E+03  0.27675102016E+03  0.12500371178E+03 0.  0.
         25    2    1    2    0    0  0.43111143374E+02  0.12338831798E+02  0.17822474723E+03  0.22226292229E+03  0.12500371454E+03 0.  0.
          5    1    3    3  502    0 -0.85973317679E+02 -0.20954978474E+02  0.15470110615E+03  0.17828360755E+03  0.47000000000E+01 0. -1.
         -5    1    3    3    0  502  0.42862174306E+02  0.86161466760E+01  0.88104128036E+02  0.98467412613E+02  0.47000000000E+01 0. -1.
          5    1    4    4  503    0 -0.84798729674E+01 -0.50398493112E+02  0.64386052628E+02  0.82338145027E+02  0.47000000000E+01 0.  1.
         -5    1    4    4    0  503  0.51591016341E+02  0.62737324910E+02  0.11383869460E+03  0.13992477727E+03  0.47000000000E+01 0.  1.
<mgrwt>
<rscale>  0 0.13280341E+03</rscale>
<asrwt>0</asrwt>
<pdfrwt beam="2">  1        5 0.59987658E-02 0.13280341E+03</pdfrwt>
<pdfrwt beam="1">  1       -5 0.70772615E-01 0.13280341E+03</pdfrwt>
<totfact> 0.24542285E+02</totfact>
</mgrwt>
</event>
<event>
 8    1  0.3754098E-007  0.1411869E+03  0.7546771E-02  0.1211742E+00
         -5   -1    0    0    0  501 -0.00000000000E+00  0.00000000000E+00  0.70206439169E+02  0.70363585048E+02  0.47000000000E+01 0.  1.
          5   -1    0    0  501    0  0.00000000000E+00 -0.00000000000E+00 -0.28483957576E+03  0.28487834934E+03  0.47000000000E+01 0.  1.
         25    2    1    2    0    0 -0.48274208571E+02 -0.44486352061E+02 -0.94809503197E+02  0.17006247378E+03  0.12499187317E+03 0.  0.
         25    2    1    2    0    0  0.48274208571E+02  0.44486352061E+02 -0.11982363340E+03  0.18517946061E+03  0.12499717908E+03 0.  0.
          5    1    3    3  502    0 -0.17677073382E+02  0.29442816321E+02  0.11862558337E+02  0.36635619915E+02  0.47000000000E+01 0.  1.
         -5    1    3    3    0  502 -0.30597135189E+02 -0.73929168382E+02 -0.10667206153E+03  0.13342685386E+03  0.47000000000E+01 0.  1.
          5    1    4    4  503    0  0.66859012871E+02  0.49965328644E+02 -0.23535081310E+02  0.86848441097E+02  0.47000000000E+01 0.  1.
         -5    1    4    4    0  503 -0.18584804301E+02 -0.54789765830E+01 -0.96288552086E+02  0.98331019511E+02  0.47000000000E+01 0.  1.
<mgrwt>
<rscale>  0 0.14118569E+03</rscale>
<asrwt>0</asrwt>
<pdfrwt beam="2">  1        5 0.43836543E-01 0.14118686E+03</pdfrwt>
<pdfrwt beam="1">  1       -5 0.10816062E-01 0.14118686E+03</pdfrwt>
<totfact> 0.25650675E+02</totfact>
</mgrwt>
</event>
<event>
 8    1  0.3754098E-007  0.1397998E+03  0.7546771E-02  0.1213599E+00
         -5   -1    0    0    0  501 -0.00000000000E+00  0.00000000000E+00  0.15538567068E+03  0.15545673563E+03  0.47000000000E+01 0.  1.
          5   -1    0    0  501    0  0.00000000000E+00 -0.00000000000E+00 -0.13505657130E+03  0.13513832710E+03  0.47000000000E+01 0.  1.
         25    2    1    2    0    0 -0.21907055163E+02  0.58642863470E+02  0.48521898847E+02  0.14798080207E+03  0.12500015444E+03 0.  0.
         25    2    1    2    0    0  0.21907055163E+02 -0.58642863470E+02 -0.28192799473E+02  0.14261426066E+03  0.12500035560E+03 0.  0.
          5    1    3    3  502    0 -0.70713657115E+02  0.17306318022E+02  0.40246064048E+02  0.83317258821E+02  0.47000000000E+01 0.  1.
         -5    1    3    3    0  502  0.48806601952E+02  0.41336545448E+02  0.82758347988E+01  0.64663543247E+02  0.47000000000E+01 0.  1.
          5    1    4    4  503    0 -0.14742235142E+02 -0.21378357142E+02 -0.70454591966E+02  0.75235012993E+02  0.47000000000E+01 0.  1.
         -5    1    4    4    0  503  0.36649290304E+02 -0.37264506327E+02  0.42261792492E+02  0.67379247668E+02  0.47000000000E+01 0.  1.
<mgrwt>
<rscale>  0 0.13979979E+03</rscale>
<asrwt>0</asrwt>
<pdfrwt beam="2">  1        5 0.20789689E-01 0.13979983E+03</pdfrwt>
<pdfrwt beam="1">  1       -5 0.23917243E-01 0.13979983E+03</pdfrwt>
<totfact> 0.26051966E+02</totfact>
</mgrwt>
</event>
<event>
 8    1  0.3754098E-007  0.1880383E+03  0.7546771E-02  0.1160245E+00
          5   -1    0    0  501    0  0.00000000000E+00  0.00000000000E+00  0.33164767209E+03  0.33168097383E+03  0.47000000000E+01 0. -1.
         -5   -1    0    0    0  501 -0.00000000000E+00 -0.00000000000E+00 -0.11524302503E+03  0.11533882615E+03  0.47000000000E+01 0. -1.
         25    2    1    2    0    0  0.10509004053E+03 -0.93219999555E+02  0.16966290936E+03  0.25325914937E+03  0.12498323483E+03 0.  0.
         25    2    1    2    0    0 -0.10509004053E+03  0.93219999555E+02  0.46741737699E+02  0.19376065061E+03  0.12499805897E+03 0.  0.
          5    1    4    4  502    0  0.22925443632E+02  0.36585663546E+01 -0.12283326087E+02  0.26682038402E+02  0.47000000000E+01 0.  1.
         -5    1    4    4    0  502 -0.12801548417E+03  0.89561433200E+02  0.59025063787E+02  0.16707861221E+03  0.47000000000E+01 0.  1.
          5    1    3    3  503    0  0.11199533808E+03 -0.22657103901E+02  0.83629420417E+02  0.14167663910E+03  0.47000000000E+01 0.  1.
         -5    1    3    3    0  503 -0.69052975442E+01 -0.70562895654E+02  0.86033488942E+02  0.11158251026E+03  0.47000000000E+01 0.  1.
<mgrwt>
<rscale>  0 0.18803583E+03</rscale>
<asrwt>0</asrwt>
<pdfrwt beam="1">  1        5 0.51032649E-01 0.18803829E+03</pdfrwt>
<pdfrwt beam="2">  1       -5 0.17739627E-01 0.18803829E+03</pdfrwt>
<totfact> 0.83409620E+01</totfact>
</mgrwt>
</event>
<event>
 8    1  0.3754098E-007  0.1334458E+03  0.7546771E-02  0.1222441E+00
         -5   -1    0    0    0  501 -0.00000000000E+00  0.00000000000E+00  0.79558370684E+02  0.79697078653E+02  0.47000000000E+01 0. -1.
          5   -1    0    0  501    0  0.00000000000E+00 -0.00000000000E+00 -0.24174446435E+03  0.24179014877E+03  0.47000000000E+01 0. -1.
         25    2    1    2    0    0  0.74848979545E+01 -0.46027837227E+02 -0.36866999316E+02  0.13844480591E+03  0.12503280828E+03 0.  0.
         25    2    1    2    0    0 -0.74848979545E+01  0.46027837227E+02 -0.12531909435E+03  0.18304242152E+03  0.12500026868E+03 0.  0.
          5    1    3    3  502    0 -0.43857974751E+02 -0.17541945584E+02  0.24469425530E+02  0.53404911664E+02  0.47000000000E+01 0.  1.
         -5    1    3    3    0  502  0.51342872705E+02 -0.28485891643E+02 -0.61336424846E+02  0.85039894245E+02  0.47000000000E+01 0.  1.
          5    1    4    4  503    0 -0.28110316708E+02  0.53546844649E+02 -0.14243354459E+03  0.15481233511E+03  0.47000000000E+01 0.  1.
         -5    1    4    4    0  503  0.20625418753E+02 -0.75190074219E+01  0.17114450243E+02  0.28230086406E+02  0.47000000000E+01 0.  1.
<mgrwt>
<rscale>  0 0.13343820E+03</rscale>
<asrwt>0</asrwt>
<pdfrwt beam="2">  1        5 0.37205640E-01 0.13344583E+03</pdfrwt>
<pdfrwt beam="1">  1       -5 0.12253933E-01 0.13344583E+03</pdfrwt>
<totfact> 0.28244241E+02</totfact>
</mgrwt>
</event>
<event>
 8    1  0.3754098E-007  0.1271129E+03  0.7546771E-02  0.1231804E+00
         -5   -1    0    0    0  501 -0.00000000000E+00  0.00000000000E+00  0.70199347313E+02  0.70356509032E+02  0.47000000000E+01 0.  1.
          5   -1    0    0  501    0  0.00000000000E+00 -0.00000000000E+00 -0.24138265924E+03  0.24142841212E+03  0.47000000000E+01 0.  1.
         25    2    1    2    0    0 -0.62830166518E+01  0.22212955419E+02 -0.51353728970E+02  0.13709448631E+03  0.12499920404E+03 0.  0.
         25    2    1    2    0    0  0.62830166518E+01 -0.22212955419E+02 -0.11982958295E+03  0.17469043485E+03  0.12499890955E+03 0.  0.
          5    1    4    4  502    0  0.63532721331E+02 -0.15979388979E+02 -0.84281516516E+02  0.10685135272E+03  0.47000000000E+01 0. -1.
         -5    1    4    4    0  502 -0.57249704679E+02 -0.62335664403E+01 -0.35548066436E+02  0.67839082126E+02  0.47000000000E+01 0. -1.
          5    1    3    3  503    0  0.45483153414E+02  0.35791992811E+02  0.61582855697E+01  0.58393479731E+02  0.47000000000E+01 0.  1.
         -5    1    3    3    0  503 -0.51766170066E+02 -0.13579037392E+02 -0.57512014540E+02  0.78701006577E+02  0.47000000000E+01 0.  1.
<mgrwt>
<rscale>  0 0.12711284E+03</rscale>
<asrwt>0</asrwt>
<pdfrwt beam="2">  1        5 0.37151402E-01 0.12711291E+03</pdfrwt>
<pdfrwt beam="1">  1       -5 0.10815509E-01 0.12711291E+03</pdfrwt>
<totfact> 0.34692410E+02</totfact>
</mgrwt>
</event>
<event>
 8    1  0.3754098E-007  0.1670357E+03  0.7546771E-02  0.1180976E+00
         -5   -1    0    0    0  501 -0.00000000000E+00  0.00000000000E+00  0.60850669287E+02  0.61031909299E+02  0.47000000000E+01 0. -1.
          5   -1    0    0  501    0  0.00000000000E+00 -0.00000000000E+00 -0.47113474306E+03  0.47115818588E+03  0.47000000000E+01 0. -1.
         25    2    1    2    0    0  0.80976721220E+02  0.75621929338E+02 -0.25018825070E+03  0.30082111024E+03  0.12499309581E+03 0.  0.
         25    2    1    2    0    0 -0.80976721220E+02 -0.75621929338E+02 -0.16009582308E+03  0.23136898494E+03  0.12500011620E+03 0.  0.
          5    1    4    4  502    0  0.15185351694E+02 -0.55840653466E+02 -0.22483556974E+02  0.62260531798E+02  0.47000000000E+01 0. -1.
         -5    1    4    4    0  502 -0.96162072914E+02 -0.19781275872E+02 -0.13761226610E+03  0.16910845314E+03  0.47000000000E+01 0. -1.
          5    1    3    3  503    0  0.65109862037E+02  0.96950250122E+02 -0.24747843853E+03  0.27369017642E+03  0.47000000000E+01 0.  1.
         -5    1    3    3    0  503  0.15866859183E+02 -0.21328320784E+02 -0.27098121729E+01  0.27130933818E+02  0.47000000000E+01 0.  1.
<mgrwt>
<rscale>  0 0.16703442E+03</rscale>
<asrwt>0</asrwt>
<pdfrwt beam="2">  1        5 0.72498010E-01 0.16703573E+03</pdfrwt>
<pdfrwt beam="1">  1       -5 0.93773866E-02 0.16703573E+03</pdfrwt>
<totfact> 0.11656471E+02</totfact>
</mgrwt>
</event>
<event>
 8    1  0.3754098E-007  0.1311996E+03  0.7546771E-02  0.1225688E+00
          5   -1    0    0  501    0  0.00000000000E+00  0.00000000000E+00  0.36082136379E+04  0.36082166989E+04  0.47000000000E+01 0. -1.
         -5   -1    0    0    0  501 -0.00000000000E+00 -0.00000000000E+00 -0.36126236273E+01  0.59279886532E+01  0.47000000000E+01 0. -1.
         25    2    1    2    0    0 -0.18375877523E+02  0.35377651200E+02  0.17575066933E+04  0.17623966548E+04  0.12499176365E+03 0.  0.
         25    2    1    2    0    0  0.18375877523E+02 -0.35377651200E+02  0.18470943210E+04  0.18517480328E+04  0.12499638075E+03 0.  0.
          5    1    4    4  502    0  0.57462994942E+02 -0.59148031907E+02  0.99958401657E+03  0.10029909180E+04  0.47000000000E+01 0. -1.
         -5    1    4    4    0  502 -0.39087117420E+02  0.23770380707E+02  0.84751030439E+03  0.84875711472E+03  0.47000000000E+01 0. -1.
          5    1    3    3  503    0 -0.76079590170E+01  0.66623021994E+02  0.50607627069E+03  0.51052109638E+03  0.47000000000E+01 0. -1.
         -5    1    3    3    0  503 -0.10767918506E+02 -0.31245370793E+02  0.12514304226E+04  0.12518755585E+04  0.47000000000E+01 0. -1.
<mgrwt>
<rscale>  0 0.13119854E+03</rscale>
<asrwt>0</asrwt>
<pdfrwt beam="1">  1        5 0.55529039E+00 0.13119964E+03</pdfrwt>
<pdfrwt beam="2">  1       -5 0.73412574E-03 0.13119964E+03</pdfrwt>
<totfact> 0.14853912E+00</totfact>
</mgrwt>
</event>
<event>
 8    1  0.3754098E-007  0.1347375E+03  0.7546771E-02  0.1220595E+00
         -5   -1    0    0    0  501 -0.00000000000E+00  0.00000000000E+00  0.44793353564E+03  0.44795819264E+03  0.47000000000E+01 0.  1.
          5   -1    0    0  501    0  0.00000000000E+00 -0.00000000000E+00 -0.46555723061E+02  0.46792364225E+02  0.47000000000E+01 0.  1.
         25    2    1    2    0    0 -0.29650963659E+01  0.50159650222E+02  0.29064906569E+03  0.32036083513E+03  0.12501761072E+03 0.  0.
         25    2    1    2    0    0  0.29650963659E+01 -0.50159650222E+02  0.11072874689E+03  0.17438972174E+03  0.12500454933E+03 0.  0.
          5    1    3    3  502    0 -0.40504204431E+02  0.77773518684E+02  0.18407801271E+03  0.20395125778E+03  0.47000000000E+01 0.  1.
         -5    1    3    3    0  502  0.37539108065E+02 -0.27613868461E+02  0.10657105298E+03  0.11640957735E+03  0.47000000000E+01 0.  1.
          5    1    4    4  503    0  0.18163021843E+02 -0.12968237781E+02  0.12828265458E+03  0.13029428237E+03  0.47000000000E+01 0. -1.
         -5    1    4    4    0  503 -0.15197925477E+02 -0.37191412441E+02 -0.17553907683E+02  0.44095439369E+02  0.47000000000E+01 0. -1.
<mgrwt>
<rscale>  0 0.13473444E+03</rscale>
<asrwt>0</asrwt>
<pdfrwt beam="2">  1        5 0.71825190E-02 0.13473747E+03</pdfrwt>
<pdfrwt beam="1">  1       -5 0.68932949E-01 0.13473747E+03</pdfrwt>
<totfact> 0.19301408E+02</totfact>
</mgrwt>
</event>
<event>
 8    1  0.3754098E-007  0.1933186E+03  0.7546771E-02  0.1155508E+00
          5   -1    0    0  501    0  0.00000000000E+00  0.00000000000E+00  0.17017641396E+03  0.17024130482E+03  0.47000000000E+01 0. -1.
         -5   -1    0    0    0  501 -0.00000000000E+00 -0.00000000000E+00 -0.24438985666E+03  0.24443504666E+03  0.47000000000E+01 0. -1.
         25    2    1    2    0    0 -0.12281281018E+03 -0.81575147775E+02 -0.10333696487E+03  0.21920445780E+03  0.12503829387E+03 0.  0.
         25    2    1    2    0    0  0.12281281018E+03  0.81575147775E+02  0.29123522164E+02  0.19547189368E+03  0.12499436226E+03 0.  0.
          5    1    3    3  502    0 -0.14440736448E+03 -0.46643598298E+02 -0.84796904989E+02  0.17390145851E+03  0.47000000000E+01 0.  1.
         -5    1    3    3    0  502  0.21594554296E+02 -0.34931549477E+02 -0.18540059878E+02  0.45302999287E+02  0.47000000000E+01 0.  1.
          5    1    4    4  503    0  0.92433856648E+02  0.65960232074E+02  0.76409906978E+02  0.13695011484E+03  0.47000000000E+01 0.  1.
         -5    1    4    4    0  503  0.30378953534E+02  0.15614915701E+02 -0.47286384814E+02  0.58521778843E+02  0.47000000000E+01 0.  1.
<mgrwt>
<rscale>  0 0.19331146E+03</rscale>
<asrwt>0</asrwt>
<pdfrwt beam="1">  1        5 0.26189455E-01 0.19331856E+03</pdfrwt>
<pdfrwt beam="2">  1       -5 0.37606907E-01 0.19331856E+03</pdfrwt>
<totfact> 0.76029301E+01</totfact>
</mgrwt>
</event>
<event>
 8    1  0.3754098E-007  0.1305931E+03  0.7546771E-02  0.1226579E+00
          5   -1    0    0  501    0  0.00000000000E+00  0.00000000000E+00  0.15691395015E+02  0.16380167201E+02  0.47000000000E+01 0.  1.
         -5   -1    0    0    0  501 -0.00000000000E+00 -0.00000000000E+00 -0.10868895029E+04  0.10868996648E+04  0.47000000000E+01 0.  1.
         25    2    1    2    0    0  0.73525385521E+00  0.37808274040E+02 -0.61767179115E+03  0.63132637777E+03  0.12499818996E+03 0.  0.
         25    2    1    2    0    0 -0.73525385521E+00 -0.37808274040E+02 -0.45352631670E+03  0.47195345428E+03  0.12499574746E+03 0.  0.
          5    1    3    3  502    0 -0.44816077204E+02  0.52465751617E+02 -0.49080414002E+03  0.49565303361E+03  0.47000000000E+01 0.  1.
         -5    1    3    3    0  502  0.45551331059E+02 -0.14657477577E+02 -0.12686765114E+03  0.13567334416E+03  0.47000000000E+01 0.  1.
          5    1    4    4  503    0 -0.39938444568E+02 -0.62975942864E+02 -0.35616154532E+03  0.36391507951E+03  0.47000000000E+01 0.  1.
         -5    1    4    4    0  503  0.39203190713E+02  0.25167668824E+02 -0.97364771383E+02  0.10803837477E+03  0.47000000000E+01 0.  1.
<mgrwt>
<rscale>  0 0.13059250E+03</rscale>
<asrwt>0</asrwt>
<pdfrwt beam="1">  1        5 0.24678258E-02 0.13059308E+03</pdfrwt>
<pdfrwt beam="2">  1       -5 0.16726748E+00 0.13059308E+03</pdfrwt>
<totfact> 0.12143802E+02</totfact>
</mgrwt>
</event>
<event>
 8    1  0.3754098E-007  0.1622439E+03  0.7546771E-02  0.1186191E+00
          5   -1    0    0  501    0  0.00000000000E+00  0.00000000000E+00  0.36751589811E+03  0.36754595000E+03  0.47000000000E+01 0.  1.
         -5   -1    0    0    0  501 -0.00000000000E+00 -0.00000000000E+00 -0.16708186904E+03  0.16714796129E+03  0.47000000000E+01 0.  1.
         25    2    1    2    0    0  0.10302550478E+03 -0.89795492281E+01 -0.10190112820E+03  0.19157641027E+03  0.12499117610E+03 0.  0.
         25    2    1    2    0    0 -0.10302550478E+03  0.89795492281E+01  0.30233515727E+03  0.34311750102E+03  0.12501274031E+03 0.  0.
          5    1    3    3  502    0  0.47909219097E+02 -0.66582990932E+02 -0.56450586357E+02  0.99686241057E+02  0.47000000000E+01 0.  1.
         -5    1    3    3    0  502  0.55116285687E+02  0.57603441704E+02 -0.45450541847E+02  0.91890169214E+02  0.47000000000E+01 0.  1.
          5    1    4    4  503    0 -0.63965989065E+02  0.61731574839E+02  0.22255977507E+03  0.23970268786E+03  0.47000000000E+01 0.  1.
         -5    1    4    4    0  503 -0.39059515720E+02 -0.52752025611E+02  0.79775382204E+02  0.10341481316E+03  0.47000000000E+01 0.  1.
<mgrwt>
<rscale>  0 0.16223971E+03</rscale>
<asrwt>0</asrwt>
<pdfrwt beam="1">  1        5 0.56548303E-01 0.16224387E+03</pdfrwt>
<pdfrwt beam="2">  1       -5 0.25712299E-01 0.16224387E+03</pdfrwt>
<totfact> 0.31820522E+01</totfact>
</mgrwt>
</event>
<event>
 8    1  0.3754098E-007  0.1677007E+03  0.7546771E-02  0.1180267E+00
          5   -1    0    0  501    0  0.00000000000E+00  0.00000000000E+00  0.33403954247E+03  0.33407260578E+03  0.47000000000E+01 0. -1.
         -5   -1    0    0    0  501 -0.00000000000E+00 -0.00000000000E+00 -0.84138768843E+02  0.84269937833E+02  0.47000000000E+01 0. -1.
         25    2    1    2    0    0 -0.11020921166E+03 -0.18808216192E+02  0.11988643140E+03  0.20614624693E+03  0.12499479733E+03 0.  0.
         25    2    1    2    0    0  0.11020921166E+03  0.18808216192E+02  0.13001434222E+03  0.21219629668E+03  0.12499487913E+03 0.  0.
          5    1    4    4  502    0  0.10435279275E+03  0.62938073069E+02  0.84572777080E+02  0.14840940341E+03  0.47000000000E+01 0.  1.
         -5    1    4    4    0  502  0.58564189093E+01 -0.44129856877E+02  0.45441565141E+02  0.63786893269E+02  0.47000000000E+01 0.  1.
          5    1    3    3  503    0  0.21640504373E+02  0.70072629498E+01 -0.37191669613E+01  0.23523081568E+02  0.47000000000E+01 0.  1.
         -5    1    3    3    0  503 -0.13184971603E+03 -0.25815479142E+02  0.12360559836E+03  0.18262316537E+03  0.47000000000E+01 0.  1.
<mgrwt>
<rscale>  0 0.16770073E+03</rscale>
<asrwt>0</asrwt>
<pdfrwt beam="1">  1        5 0.51403331E-01 0.16770074E+03</pdfrwt>
<pdfrwt beam="2">  1       -5 0.12957059E-01 0.16770074E+03</pdfrwt>
<totfact> 0.14073001E+02</totfact>
</mgrwt>
</event>
<event>
 8    1  0.3754098E-007  0.1406919E+03  0.7546771E-02  0.1212401E+00
         -5   -1    0    0    0  501 -0.00000000000E+00  0.00000000000E+00  0.10851210890E+03  0.10861384709E+03  0.47000000000E+01 0.  1.
          5   -1    0    0  501    0  0.00000000000E+00 -0.00000000000E+00 -0.19683382452E+03  0.19688992985E+03  0.47000000000E+01 0.  1.
         25    2    1    2    0    0  0.57428131266E+02  0.29525828743E+02 -0.25216147090E+01  0.14071339275E+03  0.12499654209E+03 0.  0.
         25    2    1    2    0    0 -0.57428131266E+02 -0.29525828743E+02 -0.85800100909E+02  0.16479038418E+03  0.12499779430E+03 0.  0.
          5    1    3    3  502    0 -0.32377623493E+02 -0.13557955835E+02 -0.18124859604E+02  0.39783529320E+02  0.47000000000E+01 0. -1.
         -5    1    3    3    0  502  0.89805754759E+02  0.43083784577E+02  0.15603244895E+02  0.10092986343E+03  0.47000000000E+01 0. -1.
          5    1    4    4  503    0 -0.87729195549E+02 -0.13107684522E+02 -0.93710542742E+02  0.12912001768E+03  0.47000000000E+01 0.  1.
         -5    1    4    4    0  503  0.30301064283E+02 -0.16418144220E+02  0.79104418323E+01  0.35670366501E+02  0.47000000000E+01 0.  1.
<mgrwt>
<rscale>  0 0.14069163E+03</rscale>
<asrwt>0</asrwt>
<pdfrwt beam="2">  1        5 0.30294269E-01 0.14069191E+03</pdfrwt>
<pdfrwt beam="1">  1       -5 0.16706312E-01 0.14069191E+03</pdfrwt>
<totfact> 0.24776670E+02</totfact>
</mgrwt>
</event>
<event>
 8    1  0.3754098E-007  0.1977577E+03  0.7546771E-02  0.1151649E+00
         -5   -1    0    0    0  501 -0.00000000000E+00  0.00000000000E+00  0.24705920272E+03  0.24710390456E+03  0.47000000000E+01 0. -1.
          5   -1    0    0  501    0  0.00000000000E+00 -0.00000000000E+00 -0.16197923582E+03  0.16204740922E+03  0.47000000000E+01 0. -1.
         25    2    1    2    0    0  0.15322115851E+03 -0.59289111621E-01  0.73837005086E+02  0.21109244855E+03  0.12502556372E+03 0.  0.
         25    2    1    2    0    0 -0.15322115851E+03  0.59289111621E-01  0.11242961816E+02  0.19805886523E+03  0.12499673186E+03 0.  0.
          5    1    4    4  502    0  0.10600593798E+02  0.28994315054E+02  0.39422092196E+01  0.31474972722E+02  0.47000000000E+01 0. -1.
         -5    1    4    4    0  502 -0.16382175231E+03 -0.28935025942E+02  0.73007525964E+01  0.16658389251E+03  0.47000000000E+01 0. -1.
          5    1    3    3  503    0  0.11378851595E+03 -0.23106123918E+02  0.10417098822E+03  0.15606218027E+03  0.47000000000E+01 0. -1.
         -5    1    3    3    0  503  0.39432642557E+02  0.23046834806E+02 -0.30333983134E+02  0.55030268275E+02  0.47000000000E+01 0. -1.
<mgrwt>
<rscale>  0 0.19775317E+03</rscale>
<asrwt>0</asrwt>
<pdfrwt beam="2">  1        5 0.24928565E-01 0.19775773E+03</pdfrwt>
<pdfrwt beam="1">  1       -5 0.38017791E-01 0.19775773E+03</pdfrwt>
<totfact> 0.82303108E+01</totfact>
</mgrwt>
</event>
<event>
 8    1  0.3754098E-007  0.1490304E+03  0.7546771E-02  0.1201671E+00
          5   -1    0    0  501    0  0.00000000000E+00  0.00000000000E+00  0.16374471477E+03  0.16381215345E+03  0.47000000000E+01 0.  1.
         -5   -1    0    0    0  501 -0.00000000000E+00 -0.00000000000E+00 -0.15669478823E+03  0.15676525973E+03  0.47000000000E+01 0.  1.
         25    2    1    2    0    0  0.57425210977E+02 -0.57333085647E+02 -0.55403193547E+02  0.15899551942E+03  0.12500129509E+03 0.  0.
         25    2    1    2    0    0 -0.57425210977E+02  0.57333085647E+02  0.62453120096E+02  0.16158189376E+03  0.12499431433E+03 0.  0.
          5    1    3    3  502    0 -0.32747663699E+02 -0.35252406979E+02  0.42718448815E+01  0.48533290990E+02  0.47000000000E+01 0.  1.
         -5    1    3    3    0  502  0.90172874676E+02 -0.22080678667E+02 -0.59675038428E+02  0.11046222843E+03  0.47000000000E+01 0.  1.
          5    1    4    4  503    0  0.74702655699E+01  0.98866916818E+01  0.78381658089E+02  0.79494187617E+02  0.47000000000E+01 0. -1.
         -5    1    4    4    0  503 -0.64895476547E+02  0.47446393965E+02 -0.15928537993E+02  0.82087706138E+02  0.47000000000E+01 0. -1.
<mgrwt>
<rscale>  0 0.14902894E+03</rscale>
<asrwt>0</asrwt>
<pdfrwt beam="1">  1        5 0.25202103E-01 0.14903040E+03</pdfrwt>
<pdfrwt beam="2">  1       -5 0.24117499E-01 0.14903040E+03</pdfrwt>
<totfact> 0.18179594E+02</totfact>
</mgrwt>
</event>
<event>
 8    1  0.3754098E-007  0.1617693E+03  0.7546771E-02  0.1186714E+00
         -5   -1    0    0    0  501 -0.00000000000E+00  0.00000000000E+00  0.12110411498E+03  0.12119528318E+03  0.47000000000E+01 0. -1.
          5   -1    0    0  501    0  0.00000000000E+00 -0.00000000000E+00 -0.22864526221E+03  0.22869356338E+03  0.47000000000E+01 0. -1.
         25    2    1    2    0    0  0.10029962504E+03 -0.22005436114E+02 -0.12464886936E+02  0.16224880456E+03  0.12500018869E+03 0.  0.
         25    2    1    2    0    0 -0.10029962504E+03  0.22005436114E+02 -0.95076260291E+02  0.18764004200E+03  0.12500014436E+03 0.  0.
          5    1    4    4  502    0 -0.28864327328E+02  0.39325559593E+02 -0.10249840695E+03  0.11361189399E+03  0.47000000000E+01 0.  1.
         -5    1    4    4    0  502 -0.71435297712E+02 -0.17320123479E+02  0.74221466590E+01  0.74028148009E+02  0.47000000000E+01 0.  1.
          5    1    3    3  503    0 -0.11680009017E+02 -0.38304647148E+02 -0.26314714378E+02  0.48147926191E+02  0.47000000000E+01 0.  1.
         -5    1    3    3    0  503  0.11197963406E+03  0.16299211034E+02  0.13849827442E+02  0.11410087837E+03  0.47000000000E+01 0.  1.
<mgrwt>
<rscale>  0 0.16176928E+03</rscale>
<asrwt>0</asrwt>
<pdfrwt beam="2">  1        5 0.35186923E-01 0.16176928E+03</pdfrwt>
<pdfrwt beam="1">  1       -5 0.18642131E-01 0.16176928E+03</pdfrwt>
<totfact> 0.15733633E+02</totfact>
</mgrwt>
</event>
<event>
 8    1  0.3754098E-007  0.1304706E+03  0.7546771E-02  0.1226764E+00
         -5   -1    0    0    0  501 -0.00000000000E+00  0.00000000000E+00  0.92861803006E+02  0.92980667117E+02  0.47000000000E+01 0. -1.
          5   -1    0    0  501    0  0.00000000000E+00 -0.00000000000E+00 -0.45043117389E+03  0.45045569418E+03  0.47000000000E+01 0. -1.
         25    2    1    2    0    0  0.55349395286E+01 -0.36926542713E+02  0.30540148482E+02  0.13398359182E+03  0.12499878838E+03 0.  0.
         25    2    1    2    0    0 -0.55349395286E+01  0.36926542713E+02 -0.38810951937E+03  0.40945276947E+03  0.12501346444E+03 0.  0.
          5    1    3    3  502    0  0.62480376896E+02 -0.29906575766E+01  0.24164117371E+02  0.67221544895E+02  0.47000000000E+01 0.  1.
         -5    1    3    3    0  502 -0.56945437367E+02 -0.33935885137E+02  0.63760311107E+01  0.66762046926E+02  0.47000000000E+01 0.  1.
          5    1    4    4  503    0  0.81674646389E+01  0.52850384489E+02 -0.38375240367E+03  0.38748918429E+03  0.47000000000E+01 0.  1.
         -5    1    4    4    0  503 -0.13702404168E+02 -0.15923841776E+02 -0.43571157007E+01  0.21963585183E+02  0.47000000000E+01 0.  1.
<mgrwt>
<rscale>  0 0.13046706E+03</rscale>
<asrwt>0</asrwt>
<pdfrwt beam="2">  1        5 0.69308132E-01 0.13047058E+03</pdfrwt>
<pdfrwt beam="1">  1       -5 0.14297461E-01 0.13047058E+03</pdfrwt>
<totfact> 0.56656974E+01</totfact>
</mgrwt>
</event>
<event>
 8    1  0.3754098E-007  0.1423364E+03  0.7546771E-02  0.1210220E+00
          5   -1    0    0  501    0  0.00000000000E+00  0.00000000000E+00  0.86053839506E+02  0.86182093811E+02  0.47000000000E+01 0. -1.
         -5   -1    0    0    0  501 -0.00000000000E+00 -0.00000000000E+00 -0.25193228151E+03  0.25197611884E+03  0.47000000000E+01 0. -1.
         25    2    1    2    0    0  0.95698743043E+01 -0.67446624425E+02 -0.12662850108E+03  0.19050931360E+03  0.12497356377E+03 0.  0.
         25    2    1    2    0    0 -0.95698743043E+01  0.67446624425E+02 -0.39249940922E+02  0.14764889905E+03  0.12497603726E+03 0.  0.
          5    1    3    3  502    0 -0.36329847757E+02 -0.42334387891E+02 -0.12610778382E+03  0.13797579996E+03  0.47000000000E+01 0. -1.
         -5    1    3    3    0  502  0.45899722061E+02 -0.25112236534E+02 -0.52071726732E+00  0.52533513642E+02  0.47000000000E+01 0. -1.
          5    1    4    4  503    0  0.49266462224E+02  0.62573210653E+02 -0.66770850431E+01  0.80057881911E+02  0.47000000000E+01 0. -1.
         -5    1    4    4    0  503 -0.58836336528E+02  0.48734137722E+01 -0.32572855878E+02  0.67591017139E+02  0.47000000000E+01 0. -1.
<mgrwt>
<rscale>  0 0.14233582E+03</rscale>
<asrwt>0</asrwt>
<pdfrwt beam="1">  1        5 0.13252290E-01 0.14233636E+03</pdfrwt>
<pdfrwt beam="2">  1       -5 0.38772050E-01 0.14233636E+03</pdfrwt>
<totfact> 0.23092481E+02</totfact>
</mgrwt>
</event>
<event>
 8    1  0.3754098E-007  0.1442970E+03  0.7546771E-02  0.1207662E+00
         -5   -1    0    0    0  501 -0.00000000000E+00  0.00000000000E+00  0.11479799263E+03  0.11489416483E+03  0.47000000000E+01 0. -1.
          5   -1    0    0  501    0  0.00000000000E+00 -0.00000000000E+00 -0.19472603397E+03  0.19478274642E+03  0.47000000000E+01 0. -1.
         25    2    1    2    0    0  0.50294763968E+02 -0.51643736399E+02  0.87195114079E+00  0.14429961625E+03  0.12499992064E+03 0.  0.
         25    2    1    2    0    0 -0.50294763968E+02  0.51643736399E+02 -0.80799992480E+02  0.16537729500E+03  0.12499748847E+03 0.  0.
          5    1    3    3  502    0  0.29571605043E+02 -0.11994159100E+02  0.61120553200E+02  0.69109707717E+02  0.47000000000E+01 0.  1.
         -5    1    3    3    0  502  0.20723158924E+02 -0.39649577300E+02 -0.60248602059E+02  0.75189908538E+02  0.47000000000E+01 0.  1.
          5    1    4    4  503    0 -0.28194929984E+02  0.60953179767E+02  0.12896355307E+02  0.68546700728E+02  0.47000000000E+01 0.  1.
         -5    1    4    4    0  503 -0.22099833984E+02 -0.93094433674E+01 -0.93696347787E+02  0.96830594269E+02  0.47000000000E+01 0.  1.
<mgrwt>
<rscale>  0 0.14429646E+03</rscale>
<asrwt>0</asrwt>
<pdfrwt beam="2">  1        5 0.29969612E-01 0.14429698E+03</pdfrwt>
<pdfrwt beam="1">  1       -5 0.17672990E-01 0.14429698E+03</pdfrwt>
<totfact> 0.23017908E+02</totfact>
</mgrwt>
</event>
<event>
 8    1  0.3754098E-007  0.1646436E+03  0.7546771E-02  0.1183555E+00
          5   -1    0    0  501    0  0.00000000000E+00  0.00000000000E+00  0.69454441191E+02  0.69613284660E+02  0.47000000000E+01 0. -1.
         -5   -1    0    0    0  501 -0.00000000000E+00 -0.00000000000E+00 -0.39067664881E+03  0.39070491925E+03  0.47000000000E+01 0. -1.
         25    2    1    2    0    0 -0.35997062764E+02  0.10091053421E+03 -0.17242374457E+03  0.23839817091E+03  0.12500006305E+03 0.  0.
         25    2    1    2    0    0  0.35997062764E+02 -0.10091053421E+03 -0.14879846305E+03  0.22192003299E+03  0.12501517506E+03 0.  0.
          5    1    3    3  502    0  0.51545512512E+01  0.57657508175E+02 -0.16867610263E+03  0.17839471754E+03  0.47000000000E+01 0. -1.
         -5    1    3    3    0  502 -0.41151614015E+02  0.43253026032E+02 -0.37476419369E+01  0.60003453376E+02  0.47000000000E+01 0. -1.
          5    1    4    4  503    0  0.57325181754E+02 -0.50664996680E+02 -0.16052691443E+02  0.78312816667E+02  0.47000000000E+01 0. -1.
         -5    1    4    4    0  503 -0.21328118990E+02 -0.50245537528E+02 -0.13274577161E+03  0.14360721632E+03  0.47000000000E+01 0. -1.
<mgrwt>
<rscale>  0 0.16464074E+03</rscale>
<asrwt>0</asrwt>
<pdfrwt beam="1">  1        5 0.10699692E-01 0.16464361E+03</pdfrwt>
<pdfrwt beam="2">  1       -5 0.60118492E-01 0.16464361E+03</pdfrwt>
<totfact> 0.14003171E+02</totfact>
</mgrwt>
</event>
<event>
 8    1  0.3754098E-007  0.1275312E+03  0.7546771E-02  0.1231170E+00
         -5   -1    0    0    0  501 -0.00000000000E+00  0.00000000000E+00  0.97241478786E+02  0.97354995745E+02  0.47000000000E+01 0.  1.
          5   -1    0    0  501    0  0.00000000000E+00 -0.00000000000E+00 -0.17622315080E+03  0.17628581587E+03  0.47000000000E+01 0.  1.
         25    2    1    2    0    0  0.19723294421E+02  0.15724817882E+02 -0.82015561291E+01  0.12778463711E+03  0.12500147887E+03 0.  0.
         25    2    1    2    0    0 -0.19723294421E+02 -0.15724817882E+02 -0.70780115884E+02  0.14585617450E+03  0.12501168184E+03 0.  0.
          5    1    3    3  502    0  0.19966275352E+01  0.64334966741E+02  0.21395220517E+02  0.67991322447E+02  0.47000000000E+01 0.  1.
         -5    1    3    3    0  502  0.17726666886E+02 -0.48610148859E+02 -0.29596776646E+02  0.59793314667E+02  0.47000000000E+01 0.  1.
          5    1    4    4  503    0 -0.10132199263E+02  0.27110703228E+02 -0.92226636687E+02  0.96775483497E+02  0.47000000000E+01 0.  1.
         -5    1    4    4    0  503 -0.95910951574E+01 -0.42835521110E+02  0.21446520803E+02  0.49080691006E+02  0.47000000000E+01 0.  1.
<mgrwt>
<rscale>  0 0.12752867E+03</rscale>
<asrwt>0</asrwt>
<pdfrwt beam="2">  1        5 0.27124806E-01 0.12753117E+03</pdfrwt>
<pdfrwt beam="1">  1       -5 0.14973780E-01 0.12753117E+03</pdfrwt>
<totfact> 0.36233855E+02</totfact>
</mgrwt>
</event>
<event>
 8    1  0.3754098E-007  0.1683013E+03  0.7546771E-02  0.1179632E+00
         -5   -1    0    0    0  501 -0.00000000000E+00  0.00000000000E+00  0.17886153703E+02  0.18493363520E+02  0.47000000000E+01 0.  1.
          5   -1    0    0  501    0  0.00000000000E+00 -0.00000000000E+00 -0.15666693232E+04  0.15666763732E+04  0.47000000000E+01 0.  1.
         25    2    1    2    0    0 -0.91443476994E+02  0.65848409335E+02 -0.83806728702E+03  0.85479945075E+03  0.12500960341E+03 0.  0.
         25    2    1    2    0    0  0.91443476994E+02 -0.65848409335E+02 -0.71071588251E+03  0.73037028597E+03  0.12500306587E+03 0.  0.
          5    1    4    4  502    0 -0.16966089842E+02 -0.51856769220E+02 -0.31878457778E+03  0.32345427768E+03  0.47000000000E+01 0. -1.
         -5    1    4    4    0  502  0.10840956684E+03 -0.13991640114E+02 -0.39193130473E+03  0.40691600829E+03  0.47000000000E+01 0. -1.
          5    1    3    3  503    0 -0.29059229702E+01  0.31397868217E+02 -0.56012007807E+03  0.56102661468E+03  0.47000000000E+01 0. -1.
         -5    1    3    3    0  503 -0.88537554024E+02  0.34450541117E+02 -0.27794720894E+03  0.29377283607E+03  0.47000000000E+01 0. -1.
<mgrwt>
<rscale>  0 0.16830007E+03</rscale>
<asrwt>0</asrwt>
<pdfrwt beam="2">  1        5 0.24107319E+00 0.16830129E+03</pdfrwt>
<pdfrwt beam="1">  1       -5 0.27989680E-02 0.16830129E+03</pdfrwt>
<totfact> 0.33654455E+01</totfact>
</mgrwt>
</event>
<event>
 8    1  0.3754098E-007  0.1467776E+03  0.7546771E-02  0.1204492E+00
          5   -1    0    0  501    0  0.00000000000E+00  0.00000000000E+00  0.10016756734E+03  0.10027777195E+03  0.47000000000E+01 0. -1.
         -5   -1    0    0    0  501 -0.00000000000E+00 -0.00000000000E+00 -0.25899834366E+03  0.25904098521E+03  0.47000000000E+01 0. -1.
         25    2    1    2    0    0 -0.70239309127E+02 -0.31372709719E+02 -0.15359977733E+03  0.21244798634E+03  0.12499379121E+03 0.  0.
         25    2    1    2    0    0  0.70239309127E+02  0.31372709719E+02 -0.52309989856E+01  0.14687077083E+03  0.12500341000E+03 0.  0.
          5    1    4    4  502    0 -0.28001083815E+02  0.29076009545E+01 -0.30125442586E+02  0.41498760574E+02  0.47000000000E+01 0. -1.
         -5    1    4    4    0  502  0.98240392943E+02  0.28465108764E+02  0.24894443601E+02  0.10537201025E+03  0.47000000000E+01 0. -1.
          5    1    3    3  503    0  0.11542421509E+01 -0.56590362796E+02 -0.22722274897E+02  0.61173468210E+02  0.47000000000E+01 0. -1.
         -5    1    3    3    0  503 -0.71393551278E+02  0.25217653078E+02 -0.13087750243E+03  0.15127451813E+03  0.47000000000E+01 0. -1.
<mgrwt>
<rscale>  0 0.14677554E+03</rscale>
<asrwt>0</asrwt>
<pdfrwt beam="1">  1        5 0.15422152E-01 0.14677759E+03</pdfrwt>
<pdfrwt beam="2">  1       -5 0.39857656E-01 0.14677759E+03</pdfrwt>
<totfact> 0.16774004E+02</totfact>
</mgrwt>
</event>
<event>
 8    1  0.3754098E-007  0.1261523E+03  0.7546771E-02  0.1233292E+00
          5   -1    0    0  501    0  0.00000000000E+00  0.00000000000E+00  0.32060451997E+03  0.32063896866E+03  0.47000000000E+01 0. -1.
         -5   -1    0    0    0  501 -0.00000000000E+00 -0.00000000000E+00 -0.57032085582E+02  0.57225420801E+02  0.47000000000E+01 0. -1.
         25    2    1    2    0    0 -0.25607322915E+01 -0.16601515044E+02  0.63184149885E+02  0.14109086858E+03  0.12502891165E+03 0.  0.
         25    2    1    2    0    0  0.25607322915E+01  0.16601515044E+02  0.20038828450E+03  0.23677352088E+03  0.12499627184E+03 0.  0.
          5    1    4    4  502    0  0.69349771396E+01  0.27538468572E+02 -0.64897770742E+01  0.29507090092E+02  0.47000000000E+01 0. -1.
         -5    1    4    4    0  502 -0.43742448481E+01 -0.10936953528E+02  0.20687806158E+03  0.20726643079E+03  0.47000000000E+01 0. -1.
          5    1    3    3  503    0 -0.55735675712E+02 -0.37424304352E+02  0.23062140282E+02  0.71140680470E+02  0.47000000000E+01 0.  1.
         -5    1    3    3    0  503  0.53174943421E+02  0.20822789308E+02  0.40122009603E+02  0.69950188112E+02  0.47000000000E+01 0.  1.
<mgrwt>
<rscale>  0 0.12614419E+03</rscale>
<asrwt>0</asrwt>
<pdfrwt beam="1">  1        5 0.49341294E-01 0.12615227E+03</pdfrwt>
<pdfrwt beam="2">  1       -5 0.87916889E-02 0.12615227E+03</pdfrwt>
<totfact> 0.27614105E+02</totfact>
</mgrwt>
</event>
<event>
 8    1  0.3754098E-007  0.1380351E+03  0.7546771E-02  0.1216003E+00
          5   -1    0    0  501    0  0.00000000000E+00  0.00000000000E+00  0.80984928590E+03  0.80986292412E+03  0.47000000000E+01 0.  1.
         -5   -1    0    0    0  501 -0.00000000000E+00 -0.00000000000E+00 -0.23687786765E+02  0.24149559868E+02  0.47000000000E+01 0.  1.
         25    2    1    2    0    0 -0.58085107094E+02 -0.74281117765E+01  0.33864482915E+03  0.36569115985E+03  0.12498258908E+03 0.  0.
         25    2    1    2    0    0  0.58085107094E+02  0.74281117765E+01  0.44751666998E+03  0.46832132414E+03  0.12499854488E+03 0.  0.
          5    1    3    3  502    0 -0.11333986452E+02  0.55055721742E+02  0.18330823177E+03  0.19179048355E+03  0.47000000000E+01 0.  1.
         -5    1    3    3    0  502 -0.46751120642E+02 -0.62483833518E+02  0.15533659738E+03  0.17390067630E+03  0.47000000000E+01 0.  1.
          5    1    4    4  503    0  0.46078179480E+02  0.53913487128E+02  0.37187181448E+03  0.37860348535E+03  0.47000000000E+01 0. -1.
         -5    1    4    4    0  503  0.12006927613E+02 -0.46485375352E+02  0.75644855509E+02  0.89717838791E+02  0.47000000000E+01 0. -1.
<mgrwt>
<rscale>  0 0.13803150E+03</rscale>
<asrwt>0</asrwt>
<pdfrwt beam="1">  1        5 0.12462879E+00 0.13803511E+03</pdfrwt>
<pdfrwt beam="2">  1       -5 0.36808445E-02 0.13803511E+03</pdfrwt>
<totfact> 0.14331933E+02</totfact>
</mgrwt>
</event>
<event>
 8    1  0.3754098E-007  0.1855066E+03  0.7546771E-02  0.1162579E+00
          5   -1    0    0  501    0  0.00000000000E+00  0.00000000000E+00  0.19394948042E+04  0.19395004989E+04  0.47000000000E+01 0. -1.
         -5   -1    0    0    0  501 -0.00000000000E+00 -0.00000000000E+00 -0.17425623284E+02  0.18048333630E+02  0.47000000000E+01 0. -1.
         25    2    1    2    0    0 -0.13351969339E+03  0.30955237184E+02  0.95786420365E+03  0.97566087891E+03  0.12499833110E+03 0.  0.
         25    2    1    2    0    0  0.13351969339E+03 -0.30955237184E+02  0.96420497724E+03  0.98188795366E+03  0.12500792047E+03 0.  0.
          5    1    4    4  502    0  0.64234261864E+02 -0.77658768481E+02  0.47777937312E+03  0.48831561934E+03  0.47000000000E+01 0.  1.
         -5    1    4    4    0  502  0.69285431530E+02  0.46703531297E+02  0.48642560412E+03  0.49357233432E+03  0.47000000000E+01 0.  1.
          5    1    3    3  503    0 -0.64523575801E+02 -0.20724430824E+02  0.16984750715E+03  0.18292911073E+03  0.47000000000E+01 0.  1.
         -5    1    3    3    0  503 -0.68996117593E+02  0.51679668008E+02  0.78801669649E+03  0.79273176818E+03  0.47000000000E+01 0.  1.
<mgrwt>
<rscale>  0 0.18550503E+03</rscale>
<asrwt>0</asrwt>
<pdfrwt beam="1">  1        5 0.29843223E+00 0.18550665E+03</pdfrwt>
<pdfrwt beam="2">  1       -5 0.27292033E-02 0.18550665E+03</pdfrwt>
<totfact> 0.15447587E+01</totfact>
</mgrwt>
</event>
<event>
 8    1  0.3754098E-007  0.1336548E+03  0.7546771E-02  0.1222133E+00
          5   -1    0    0  501    0  0.00000000000E+00  0.00000000000E+00  0.15092137011E+04  0.15092210195E+04  0.47000000000E+01 0. -1.
         -5   -1    0    0    0  501 -0.00000000000E+00 -0.00000000000E+00 -0.11746529257E+02  0.12651914858E+02  0.47000000000E+01 0. -1.
         25    2    1    2    0    0 -0.11875317790E+02 -0.45802259136E+02  0.61615646918E+03  0.63048584643E+03  0.12499895171E+03 0.  0.
         25    2    1    2    0    0  0.11875317790E+02  0.45802259136E+02  0.88131070267E+03  0.89138708789E+03  0.12499406268E+03 0.  0.
          5    1    3    3  502    0  0.33660404915E+02 -0.72774609835E+02  0.35367665849E+03  0.36268227894E+03  0.47000000000E+01 0.  1.
         -5    1    3    3    0  502 -0.45535722705E+02  0.26972350699E+02  0.26247981068E+03  0.26780356749E+03  0.47000000000E+01 0.  1.
          5    1    4    4  503    0  0.10311621433E+02  0.71727555522E+02  0.83445479252E+03  0.83760853775E+03  0.47000000000E+01 0. -1.
         -5    1    4    4    0  503  0.15636963570E+01 -0.25925296386E+02  0.46855910152E+02  0.53778550140E+02  0.47000000000E+01 0. -1.
<mgrwt>
<rscale>  0 0.13365367E+03</rscale>
<asrwt>0</asrwt>
<pdfrwt beam="1">  1        5 0.23225676E+00 0.13365481E+03</pdfrwt>
<pdfrwt beam="2">  1       -5 0.18773677E-02 0.13365481E+03</pdfrwt>
<totfact> 0.68296760E+01</totfact>
</mgrwt>
</event>
<event>
 8    1  0.3754098E-007  0.1286599E+03  0.7546771E-02  0.1229459E+00
          5   -1    0    0  501    0  0.00000000000E+00  0.00000000000E+00  0.12790720558E+03  0.12799352811E+03  0.47000000000E+01 0.  1.
         -5   -1    0    0    0  501 -0.00000000000E+00 -0.00000000000E+00 -0.16602841678E+03  0.16609492822E+03  0.47000000000E+01 0.  1.
         25    2    1    2    0    0  0.28906292513E+02 -0.95958443114E+01 -0.88242081263E+02  0.15601067009E+03  0.12500004121E+03 0.  0.
         25    2    1    2    0    0 -0.28906292513E+02  0.95958443114E+01  0.50120870057E+02  0.13807778623E+03  0.12500287781E+03 0.  0.
          5    1    3    3  502    0 -0.26176835526E+02 -0.34996681242E+02 -0.84266148817E+02  0.95041402834E+02  0.47000000000E+01 0.  1.
         -5    1    3    3    0  502  0.55083128040E+02  0.25400836930E+02 -0.39759324455E+01  0.60969267260E+02  0.47000000000E+01 0.  1.
          5    1    4    4  503    0 -0.78133684746E+02  0.30964375911E+01  0.36193569571E+02  0.86293250582E+02  0.47000000000E+01 0.  1.
         -5    1    4    4    0  503  0.49227392232E+02  0.64994067203E+01  0.13927300485E+02  0.51784535650E+02  0.47000000000E+01 0.  1.
<mgrwt>
<rscale>  0 0.12865922E+03</rscale>
<asrwt>0</asrwt>
<pdfrwt beam="1">  1        5 0.19689788E-01 0.12865991E+03</pdfrwt>
<pdfrwt beam="2">  1       -5 0.25554590E-01 0.12865991E+03</pdfrwt>
<totfact> 0.24683226E+02</totfact>
</mgrwt>
</event>
<event>
 8    1  0.3754098E-007  0.1284798E+03  0.7546771E-02  0.1229732E+00
         -5   -1    0    0    0  501 -0.00000000000E+00  0.00000000000E+00  0.70133065226E+02  0.70290375144E+02  0.47000000000E+01 0. -1.
          5   -1    0    0  501    0  0.00000000000E+00 -0.00000000000E+00 -0.23523815170E+03  0.23528509943E+03  0.47000000000E+01 0. -1.
         25    2    1    2    0    0 -0.25678905092E+02 -0.14930968000E+02 -0.76843021834E+02  0.14969970154E+03  0.12499124235E+03 0.  0.
         25    2    1    2    0    0  0.25678905092E+02  0.14930968000E+02 -0.88262064640E+02  0.15587577304E+03  0.12499889837E+03 0.  0.
          5    1    4    4  502    0 -0.33094871955E+02  0.49793131912E+02 -0.40216330536E+02  0.72208515959E+02  0.47000000000E+01 0. -1.
         -5    1    4    4    0  502  0.58773777048E+02 -0.34862163912E+02 -0.48045734104E+02  0.83667257076E+02  0.47000000000E+01 0. -1.
          5    1    3    3  503    0  0.47246813053E+02 -0.26657526502E+02 -0.31702325839E+02  0.63008035412E+02  0.47000000000E+01 0. -1.
         -5    1    3    3    0  503 -0.72925718145E+02  0.11726558502E+02 -0.45140695995E+02  0.86691666129E+02  0.47000000000E+01 0. -1.
<mgrwt>
<rscale>  0 0.12847796E+03</rscale>
<asrwt>0</asrwt>
<pdfrwt beam="2">  1        5 0.36206197E-01 0.12847982E+03</pdfrwt>
<pdfrwt beam="1">  1       -5 0.10805415E-01 0.12847982E+03</pdfrwt>
<totfact> 0.36746393E+02</totfact>
</mgrwt>
</event>
<event>
 8    1  0.3754098E-007  0.1305131E+03  0.7546771E-02  0.1226711E+00
         -5   -1    0    0    0  501 -0.00000000000E+00  0.00000000000E+00  0.16953122533E+02  0.17592565578E+02  0.47000000000E+01 0.  1.
          5   -1    0    0  501    0  0.00000000000E+00 -0.00000000000E+00 -0.10272016520E+04  0.10272124044E+04  0.47000000000E+01 0.  1.
         25    2    1    2    0    0  0.14661974868E+02 -0.34402438814E+02 -0.39947119702E+03  0.42023902822E+03  0.12500040915E+03 0.  0.
         25    2    1    2    0    0 -0.14661974868E+02  0.34402438814E+02 -0.61077733242E+03  0.62456594179E+03  0.12504065156E+03 0.  0.
          5    1    3    3  502    0  0.41025659549E+02 -0.66928378201E+02 -0.17514339118E+03  0.19198908830E+03  0.47000000000E+01 0.  1.
         -5    1    3    3    0  502 -0.26363684681E+02  0.32525939387E+02 -0.22432780584E+03  0.22824993992E+03  0.47000000000E+01 0.  1.
          5    1    4    4  503    0 -0.91165233263E+01  0.59474357808E+02 -0.58421290836E+03  0.58732199221E+03  0.47000000000E+01 0. -1.
         -5    1    4    4    0  503 -0.55454515417E+01 -0.25071918994E+02 -0.26564424057E+02  0.37243949580E+02  0.47000000000E+01 0. -1.
<mgrwt>
<rscale>  0 0.13050345E+03</rscale>
<asrwt>0</asrwt>
<pdfrwt beam="2">  1        5 0.15808099E+00 0.13051309E+03</pdfrwt>
<pdfrwt beam="1">  1       -5 0.26581885E-02 0.13051309E+03</pdfrwt>
<totfact> 0.12636066E+02</totfact>
</mgrwt>
</event>
<event>
 8    1  0.3754098E-007  0.1384169E+03  0.7546771E-02  0.1215476E+00
         -5   -1    0    0    0  501 -0.00000000000E+00  0.00000000000E+00  0.14093803647E+04  0.14093882014E+04  0.47000000000E+01 0.  1.
          5   -1    0    0  501    0  0.00000000000E+00 -0.00000000000E+00 -0.16635850050E+02  0.17287032912E+02  0.47000000000E+01 0.  1.
         25    2    1    2    0    0  0.16550415535E+01  0.59421264433E+02  0.10145186046E+04  0.10239171383E+04  0.12499872441E+03 0.  0.
         25    2    1    2    0    0 -0.16550415535E+01 -0.59421264433E+02  0.37822591002E+03  0.40275809608E+03  0.12500247645E+03 0.  0.
          5    1    3    3  502    0 -0.10854524070E+02 -0.21176561384E+02  0.46401258089E+02  0.52358706984E+02  0.47000000000E+01 0. -1.
         -5    1    3    3    0  502  0.12509565623E+02  0.80597825818E+02  0.96811734651E+03  0.97155843127E+03  0.47000000000E+01 0. -1.
          5    1    4    4  503    0  0.21497845544E+02 -0.90969152508E+02  0.20893758541E+03  0.22894223872E+03  0.47000000000E+01 0. -1.
         -5    1    4    4    0  503 -0.23152887098E+02  0.31547888074E+02  0.16928832461E+03  0.17381585737E+03  0.47000000000E+01 0. -1.
<mgrwt>
<rscale>  0 0.13841608E+03</rscale>
<asrwt>0</asrwt>
<pdfrwt beam="2">  1        5 0.26100548E-02 0.13841692E+03</pdfrwt>
<pdfrwt beam="1">  1       -5 0.21687849E+00 0.13841692E+03</pdfrwt>
<totfact> 0.51334084E+01</totfact>
</mgrwt>
</event>
<event>
 8    1  0.3754098E-007  0.1345754E+03  0.7546771E-02  0.1220825E+00
         -5   -1    0    0    0  501 -0.00000000000E+00  0.00000000000E+00  0.14850377741E+03  0.14857813401E+03  0.47000000000E+01 0.  1.
          5   -1    0    0  501    0  0.00000000000E+00 -0.00000000000E+00 -0.19770236395E+03  0.19775822287E+03  0.47000000000E+01 0.  1.
         25    2    1    2    0    0  0.38697119223E+02  0.31397308688E+02  0.82663948411E+02  0.15793630017E+03  0.12500915373E+03 0.  0.
         25    2    1    2    0    0 -0.38697119223E+02 -0.31397308688E+02 -0.13186253495E+03  0.18840005671E+03  0.12499438073E+03 0.  0.
          5    1    4    4  502    0  0.45414698082E+02 -0.41005798133E+01 -0.40597781317E+02  0.61233809326E+02  0.47000000000E+01 0. -1.
         -5    1    4    4    0  502 -0.84111817305E+02 -0.27296728874E+02 -0.91264753632E+02  0.12716624738E+03  0.47000000000E+01 0. -1.
          5    1    3    3  503    0 -0.29149813491E+02  0.54568054577E+02  0.46260825353E+02  0.77392106634E+02  0.47000000000E+01 0. -1.
         -5    1    3    3    0  503  0.67846932714E+02 -0.23170745890E+02  0.36403123059E+02  0.80544193535E+02  0.47000000000E+01 0. -1.
<mgrwt>
<rscale>  0 0.13457200E+03</rscale>
<asrwt>0</asrwt>
<pdfrwt beam="2">  1        5 0.30425765E-01 0.13457543E+03</pdfrwt>
<pdfrwt beam="1">  1       -5 0.22856751E-01 0.13457543E+03</pdfrwt>
<totfact> 0.13503977E+02</totfact>
</mgrwt>
</event>
<event>
 8    1  0.3754098E-007  0.1273199E+03  0.7546771E-02  0.1231488E+00
          5   -1    0    0  501    0  0.00000000000E+00  0.00000000000E+00  0.89647301981E+02  0.89770422482E+02  0.47000000000E+01 0. -1.
         -5   -1    0    0    0  501 -0.00000000000E+00 -0.00000000000E+00 -0.18227932468E+03  0.18233990843E+03  0.47000000000E+01 0. -1.
         25    2    1    2    0    0 -0.11908922117E+02 -0.21064584951E+02 -0.59581125529E+02  0.14057118508E+03  0.12499923356E+03 0.  0.
         25    2    1    2    0    0  0.11908922117E+02  0.21064584951E+02 -0.33050897167E+02  0.13153914583E+03  0.12499858366E+03 0.  0.
          5    1    3    3  502    0  0.11327458004E+01 -0.62343065744E+02  0.49467487335E+01  0.62725603086E+02  0.47000000000E+01 0.  1.
         -5    1    3    3    0  502 -0.13041667918E+02  0.41278480794E+02 -0.64527874262E+02  0.77845581991E+02  0.47000000000E+01 0.  1.
          5    1    4    4  503    0  0.55688032826E+02  0.71780385465E+01 -0.56468395607E+02  0.79771241308E+02  0.47000000000E+01 0.  1.
         -5    1    4    4    0  503 -0.43779110709E+02  0.13886546404E+02  0.23417498440E+02  0.51767904523E+02  0.47000000000E+01 0.  1.
<mgrwt>
<rscale>  0 0.12731970E+03</rscale>
<asrwt>0</asrwt>
<pdfrwt beam="1">  1        5 0.13806024E-01 0.12731986E+03</pdfrwt>
<pdfrwt beam="2">  1       -5 0.28057104E-01 0.12731986E+03</pdfrwt>
<totfact> 0.39254829E+02</totfact>
</mgrwt>
</event>
<event>
 8    1  0.3754098E-007  0.1299357E+03  0.7546771E-02  0.1227553E+00
         -5   -1    0    0    0  501 -0.00000000000E+00  0.00000000000E+00  0.31754835295E+03  0.31758313315E+03  0.47000000000E+01 0. -1.
          5   -1    0    0  501    0  0.00000000000E+00 -0.00000000000E+00 -0.64040359930E+02  0.64212597673E+02  0.47000000000E+01 0. -1.
         25    2    1    2    0    0 -0.31498991256E+02  0.16272320822E+02  0.20578984851E+03  0.24337499216E+03  0.12499980074E+03 0.  0.
         25    2    1    2    0    0  0.31498991256E+02 -0.16272320822E+02  0.47718144511E+02  0.13842073866E+03  0.12500521870E+03 0.  0.
          5    1    3    3  502    0 -0.36352269785E+01 -0.43107324646E+02  0.23219035149E+02  0.49322103631E+02  0.47000000000E+01 0.  1.
         -5    1    3    3    0  502 -0.27863764277E+02  0.59379645468E+02  0.18257081336E+03  0.19405288853E+03  0.47000000000E+01 0.  1.
          5    1    4    4  503    0  0.48551579630E+02 -0.15867233425E+02 -0.29519800136E+02  0.59182206626E+02  0.47000000000E+01 0. -1.
         -5    1    4    4    0  503 -0.17052588374E+02 -0.40508739732E+00  0.77237944647E+02  0.79238532037E+02  0.47000000000E+01 0. -1.
<mgrwt>
<rscale>  0 0.12993437E+03</rscale>
<asrwt>0</asrwt>
<pdfrwt beam="2">  1        5 0.98682876E-02 0.12993567E+03</pdfrwt>
<pdfrwt beam="1">  1       -5 0.48869517E-01 0.12993567E+03</pdfrwt>
<totfact> 0.23314804E+02</totfact>
</mgrwt>
</event>
<event>
 8    1  0.3754098E-007  0.1724849E+03  0.7546771E-02  0.1175282E+00
          5   -1    0    0  501    0  0.00000000000E+00  0.00000000000E+00  0.40096424802E+02  0.40370946012E+02  0.47000000000E+01 0.  1.
         -5   -1    0    0    0  501 -0.00000000000E+00 -0.00000000000E+00 -0.13057060226E+04  0.13057144816E+04  0.47000000000E+01 0.  1.
         25    2    1    2    0    0  0.70097758281E+02 -0.95983820343E+02 -0.10760993622E+04  0.10898352530E+04  0.12499780781E+03 0.  0.
         25    2    1    2    0    0 -0.70097758281E+02  0.95983820343E+02 -0.18951023569E+03  0.25625017466E+03  0.12499373224E+03 0.  0.
          5    1    3    3  502    0  0.61381007316E+02 -0.25815239421E+01 -0.21579990005E+03  0.22442366004E+03  0.47000000000E+01 0. -1.
         -5    1    3    3    0  502  0.87167509653E+01 -0.93402296401E+02 -0.86029946210E+03  0.86541159295E+03  0.47000000000E+01 0. -1.
          5    1    4    4  503    0 -0.61117081157E+02  0.12270012786E+03 -0.12450130209E+03  0.18523844960E+03  0.47000000000E+01 0. -1.
         -5    1    4    4    0  503 -0.89806771242E+01 -0.26716307519E+02 -0.65008933593E+02  0.71011725059E+02  0.47000000000E+01 0. -1.
<mgrwt>
<rscale>  0 0.17248416E+03</rscale>
<asrwt>0</asrwt>
<pdfrwt beam="1">  1        5 0.61904494E-02 0.17248490E+03</pdfrwt>
<pdfrwt beam="2">  1       -5 0.20089958E+00 0.17248490E+03</pdfrwt>
<totfact> 0.16779263E+01</totfact>
</mgrwt>
</event>
<event>
 8    1  0.3754098E-007  0.1961959E+03  0.7546771E-02  0.1152989E+00
         -5   -1    0    0    0  501 -0.00000000000E+00  0.00000000000E+00  0.64036680589E+02  0.64208928202E+02  0.47000000000E+01 0.  1.
          5   -1    0    0  501    0  0.00000000000E+00 -0.00000000000E+00 -0.71498315028E+03  0.71499859803E+03  0.47000000000E+01 0.  1.
         25    2    1    2    0    0 -0.14377201135E+03 -0.46859397640E+02 -0.16932909346E+03  0.25916244607E+03  0.12500654849E+03 0.  0.
         25    2    1    2    0    0  0.14377201135E+03  0.46859397640E+02 -0.48161737624E+03  0.52004508017E+03  0.12500157566E+03 0.  0.
          5    1    3    3  502    0 -0.14252579785E+03 -0.75389021301E+00 -0.15503680086E+03  0.21064821629E+03  0.47000000000E+01 0. -1.
         -5    1    3    3    0  502 -0.12462134998E+01 -0.46105507427E+02 -0.14292292593E+02  0.48514229776E+02  0.47000000000E+01 0. -1.
          5    1    4    4  503    0  0.11666578196E+03  0.84025682239E+02 -0.30108187044E+03  0.33368188842E+03  0.47000000000E+01 0. -1.
         -5    1    4    4    0  503  0.27106229393E+02 -0.37166284599E+02 -0.18053550580E+03  0.18636319175E+03  0.47000000000E+01 0. -1.
<mgrwt>
<rscale>  0 0.19619511E+03</rscale>
<asrwt>0</asrwt>
<pdfrwt beam="2">  1        5 0.11001184E+00 0.19619590E+03</pdfrwt>
<pdfrwt beam="1">  1       -5 0.98662356E-02 0.19619590E+03</pdfrwt>
<totfact> 0.41217227E+01</totfact>
</mgrwt>
</event>
<event>
 8    1  0.3754098E-007  0.1349460E+03  0.7546771E-02  0.1220300E+00
         -5   -1    0    0    0  501 -0.00000000000E+00  0.00000000000E+00  0.96481488852E+02  0.96595898935E+02  0.47000000000E+01 0. -1.
          5   -1    0    0  501    0  0.00000000000E+00 -0.00000000000E+00 -0.21839585573E+03  0.21844642318E+03  0.47000000000E+01 0. -1.
         25    2    1    2    0    0  0.33118617689E+01 -0.50750734724E+02 -0.26764213970E+01  0.13497253838E+03  0.12499526944E+03 0.  0.
         25    2    1    2    0    0 -0.33118617689E+01  0.50750734724E+02 -0.11923794548E+03  0.18006978373E+03  0.12498333437E+03 0.  0.
          5    1    3    3  502    0 -0.25286526867E+02 -0.19770639684E+02  0.54711850777E+02  0.63606314544E+02  0.47000000000E+01 0.  1.
         -5    1    3    3    0  502  0.28598388636E+02 -0.30980095039E+02 -0.57388272174E+02  0.71366223834E+02  0.47000000000E+01 0.  1.
          5    1    4    4  503    0  0.10914071616E+02  0.81155379865E+01  0.25039843124E+02  0.28880143000E+02  0.47000000000E+01 0.  1.
         -5    1    4    4    0  503 -0.14225933385E+02  0.42635196737E+02 -0.14427778860E+03  0.15118964073E+03  0.47000000000E+01 0.  1.
<mgrwt>
<rscale>  0 0.13494324E+03</rscale>
<asrwt>0</asrwt>
<pdfrwt beam="2">  1        5 0.33612053E-01 0.13494600E+03</pdfrwt>
<pdfrwt beam="1">  1       -5 0.14855997E-01 0.13494600E+03</pdfrwt>
<totfact> 0.24622281E+02</totfact>
</mgrwt>
</event>
<event>
 8    1  0.3754098E-007  0.1547495E+03  0.7546771E-02  0.1194757E+00
         -5   -1    0    0    0  501 -0.00000000000E+00  0.00000000000E+00  0.21309411614E+02  0.21821572430E+02  0.47000000000E+01 0. -1.
          5   -1    0    0  501    0  0.00000000000E+00 -0.00000000000E+00 -0.11276363240E+04  0.11276461188E+04  0.47000000000E+01 0. -1.
         25    2    1    2    0    0 -0.71956243713E+02 -0.56058524235E+02 -0.48107607527E+03  0.50535123125E+03  0.12500167030E+03 0.  0.
         25    2    1    2    0    0  0.71956243713E+02  0.56058524235E+02 -0.62525083715E+03  0.64411646000E+03  0.12500858184E+03 0.  0.
          5    1    4    4  502    0 -0.29598224592E+02  0.39590711512E+02 -0.15663130326E+03  0.16431352500E+03  0.47000000000E+01 0. -1.
         -5    1    4    4    0  502  0.10155446831E+03  0.16467812723E+02 -0.46861953390E+03  0.47980293500E+03  0.47000000000E+01 0. -1.
          5    1    3    3  503    0 -0.81300389333E+02  0.28594899295E+01 -0.37317614248E+03  0.38196917847E+03  0.47000000000E+01 0.  1.
         -5    1    3    3    0  503  0.93441456200E+01 -0.58918014165E+02 -0.10789993279E+03  0.12338205277E+03  0.47000000000E+01 0.  1.
<mgrwt>
<rscale>  0 0.15474809E+03</rscale>
<asrwt>0</asrwt>
<pdfrwt beam="2">  1        5 0.17352262E+00 0.15474949E+03</pdfrwt>
<pdfrwt beam="1">  1       -5 0.33185223E-02 0.15474949E+03</pdfrwt>
<totfact> 0.71343764E+01</totfact>
</mgrwt>
</event>
<event>
 8    1  0.3754098E-007  0.1667350E+03  0.7546771E-02  0.1181297E+00
          5   -1    0    0  501    0  0.00000000000E+00  0.00000000000E+00  0.35441711349E+02  0.35751991600E+02  0.47000000000E+01 0. -1.
         -5   -1    0    0    0  501 -0.00000000000E+00 -0.00000000000E+00 -0.79786567233E+03  0.79787951539E+03  0.47000000000E+01 0. -1.
         25    2    1    2    0    0 -0.54267401966E+02  0.96066196938E+02 -0.44244248939E+03  0.47281700495E+03  0.12500759436E+03 0.  0.
         25    2    1    2    0    0  0.54267401966E+02 -0.96066196938E+02 -0.31998147159E+03  0.36081450204E+03  0.12500119043E+03 0.  0.
          5    1    3    3  502    0 -0.23900958701E+02 -0.20732185099E+02 -0.19348877286E+03  0.19611495239E+03  0.47000000000E+01 0. -1.
         -5    1    3    3    0  502 -0.30366443264E+02  0.11679838204E+03 -0.24895371653E+03  0.27670205257E+03  0.47000000000E+01 0. -1.
          5    1    4    4  503    0  0.35060290557E+02 -0.35204780161E+02 -0.19478547356E+02  0.53573354638E+02  0.47000000000E+01 0.  1.
         -5    1    4    4    0  503  0.19207111409E+02 -0.60861416777E+02 -0.30050292424E+03  0.30724114740E+03  0.47000000000E+01 0.  1.
<mgrwt>
<rscale>  0 0.16673381E+03</rscale>
<asrwt>0</asrwt>
<pdfrwt beam="1">  1        5 0.54775041E-02 0.16673501E+03</pdfrwt>
<pdfrwt beam="2">  1       -5 0.12277348E+00 0.16673501E+03</pdfrwt>
<totfact> 0.81782263E+01</totfact>
</mgrwt>
</event>
<event>
 8    1  0.3754098E-007  0.1305224E+03  0.7546771E-02  0.1226684E+00
         -5   -1    0    0    0  501 -0.00000000000E+00  0.00000000000E+00  0.25796022608E+03  0.25800303920E+03  0.47000000000E+01 0.  1.
          5   -1    0    0  501    0  0.00000000000E+00 -0.00000000000E+00 -0.94600920579E+02  0.94717602242E+02  0.47000000000E+01 0.  1.
         25    2    1    2    0    0 -0.32921978288E+02 -0.18065075859E+02  0.17871182444E+03  0.22130071143E+03  0.12500354021E+03 0.  0.
         25    2    1    2    0    0  0.32921978288E+02  0.18065075859E+02 -0.15352518946E+02  0.13141993001E+03  0.12500117818E+03 0.  0.
          5    1    3    3  502    0 -0.35724559261E+02 -0.68342667923E+02  0.12911778079E+03  0.15046745731E+03  0.47000000000E+01 0. -1.
         -5    1    3    3    0  502  0.28025809732E+01  0.50277592064E+02  0.49594043651E+02  0.70833254122E+02  0.47000000000E+01 0. -1.
          5    1    4    4  503    0 -0.17860312333E+02  0.61033163496E+02 -0.96040614847E+01  0.64485392144E+02  0.47000000000E+01 0. -1.
         -5    1    4    4    0  503  0.50782290621E+02 -0.42968087637E+02 -0.57484574615E+01  0.66934537864E+02  0.47000000000E+01 0. -1.
<mgrwt>
<rscale>  0 0.13052180E+03</rscale>
<asrwt>0</asrwt>
<pdfrwt beam="2">  1        5 0.14566257E-01 0.13052237E+03</pdfrwt>
<pdfrwt beam="1">  1       -5 0.39698457E-01 0.13052237E+03</pdfrwt>
<totfact> 0.18032076E+02</totfact>
</mgrwt>
</event>
<event>
 8    1  0.3754098E-007  0.1749171E+03  0.7546771E-02  0.1172817E+00
          5   -1    0    0  501    0  0.00000000000E+00  0.00000000000E+00  0.63113697552E+02  0.63288457231E+02  0.47000000000E+01 0. -1.
         -5   -1    0    0    0  501 -0.00000000000E+00 -0.00000000000E+00 -0.48533018972E+03  0.48535294689E+03  0.47000000000E+01 0. -1.
         25    2    1    2    0    0  0.25923850087E+02 -0.11957751822E+03 -0.22599464201E+03  0.28577886928E+03  0.12500062019E+03 0.  0.
         25    2    1    2    0    0 -0.25923850087E+02  0.11957751822E+03 -0.19622185017E+03  0.26286253484E+03  0.12499147520E+03 0.  0.
          5    1    3    3  502    0 -0.34452695290E+02 -0.10623449792E+03 -0.16045252555E+03  0.19555014630E+03  0.47000000000E+01 0.  1.
         -5    1    3    3    0  502  0.60376545377E+02 -0.13343020296E+02 -0.65542116454E+02  0.90228722985E+02  0.47000000000E+01 0.  1.
          5    1    4    4  503    0  0.48385724846E+02  0.45469107855E+02 -0.52162182132E+02  0.84567141271E+02  0.47000000000E+01 0.  1.
         -5    1    4    4    0  503 -0.74309574933E+02  0.74108410363E+02 -0.14405966803E+03  0.17829539357E+03  0.47000000000E+01 0.  1.
<mgrwt>
<rscale>  0 0.17491544E+03</rscale>
<asrwt>0</asrwt>
<pdfrwt beam="1">  1        5 0.97249935E-02 0.17491708E+03</pdfrwt>
<pdfrwt beam="2">  1       -5 0.74681374E-01 0.17491708E+03</pdfrwt>
<totfact> 0.10360902E+02</totfact>
</mgrwt>
</event>
<event>
 8    1  0.3754098E-007  0.1488424E+03  0.7546771E-02  0.1201904E+00
          5   -1    0    0  501    0  0.00000000000E+00  0.00000000000E+00  0.82405846821E+03  0.82407187127E+03  0.47000000000E+01 0. -1.
         -5   -1    0    0    0  501 -0.00000000000E+00 -0.00000000000E+00 -0.27650285720E+02  0.28046894666E+02  0.47000000000E+01 0. -1.
         25    2    1    2    0    0  0.76482714644E+02 -0.26048440470E+02  0.31832958244E+03  0.35140605193E+03  0.12499745354E+03 0.  0.
         25    2    1    2    0    0 -0.76482714644E+02  0.26048440470E+02  0.47807860005E+03  0.50071271401E+03  0.12500378894E+03 0.  0.
          5    1    4    4  502    0 -0.89252782276E+02  0.49814598935E+02  0.23781081990E+03  0.25888922239E+03  0.47000000000E+01 0.  1.
         -5    1    4    4    0  502  0.12770067632E+02 -0.23766158465E+02  0.24026778016E+03  0.24182349161E+03  0.47000000000E+01 0.  1.
          5    1    3    3  503    0  0.89128526677E+02  0.26114317063E+02  0.22788943359E+03  0.24613316673E+03  0.47000000000E+01 0. -1.
         -5    1    3    3    0  503 -0.12645812033E+02 -0.52162757533E+02  0.90440148850E+02  0.10527288521E+03  0.47000000000E+01 0. -1.
<mgrwt>
<rscale>  0 0.14884112E+03</rscale>
<asrwt>0</asrwt>
<pdfrwt beam="1">  1        5 0.12680978E+00 0.14884245E+03</pdfrwt>
<pdfrwt beam="2">  1       -5 0.42854289E-02 0.14884245E+03</pdfrwt>
<totfact> 0.10934241E+02</totfact>
</mgrwt>
</event>
<event>
 8    1  0.3754098E-007  0.1355751E+03  0.7546771E-02  0.1219414E+00
          5   -1    0    0  501    0  0.00000000000E+00  0.00000000000E+00  0.55547575234E+02  0.55746059182E+02  0.47000000000E+01 0.  1.
         -5   -1    0    0    0  501 -0.00000000000E+00 -0.00000000000E+00 -0.33520843261E+03  0.33524138064E+03  0.47000000000E+01 0.  1.
         25    2    1    2    0    0  0.47701677792E+02  0.21881348115E+02 -0.16403194756E+03  0.21280760624E+03  0.12500541585E+03 0.  0.
         25    2    1    2    0    0 -0.47701677792E+02 -0.21881348115E+02 -0.11562890982E+03  0.17817983359E+03  0.12499505931E+03 0.  0.
          5    1    4    4  502    0  0.30126839887E+02 -0.43447838428E+02 -0.32782554672E+02  0.62386913985E+02  0.47000000000E+01 0. -1.
         -5    1    4    4    0  502 -0.77828517679E+02  0.21566490313E+02 -0.82846355148E+02  0.11579291960E+03  0.47000000000E+01 0. -1.
          5    1    3    3  503    0  0.15820559844E+02  0.59845269065E+02 -0.28293051164E+02  0.68222672825E+02  0.47000000000E+01 0.  1.
         -5    1    3    3    0  503  0.31881117948E+02 -0.37963920950E+02 -0.13573889639E+03  0.14458493341E+03  0.47000000000E+01 0.  1.
<mgrwt>
<rscale>  0 0.13557267E+03</rscale>
<asrwt>0</asrwt>
<pdfrwt beam="1">  1        5 0.85635834E-02 0.13557506E+03</pdfrwt>
<pdfrwt beam="2">  1       -5 0.51588329E-01 0.13557506E+03</pdfrwt>
<totfact> 0.26971994E+02</totfact>
</mgrwt>
</event>
<event>
 8    1  0.3754098E-007  0.1705114E+03  0.7546771E-02  0.1177316E+00
          5   -1    0    0  501    0  0.00000000000E+00  0.00000000000E+00  0.62870047092E+02  0.63045482165E+02  0.47000000000E+01 0. -1.
         -5   -1    0    0    0  501 -0.00000000000E+00 -0.00000000000E+00 -0.57470047935E+03  0.57471969774E+03  0.47000000000E+01 0. -1.
         25    2    1    2    0    0  0.11360099164E+03 -0.23356206288E+02 -0.39734706570E+03  0.43238603940E+03  0.12498919461E+03 0.  0.
         25    2    1    2    0    0 -0.11360099164E+03  0.23356206288E+02 -0.11448336655E+03  0.20537914050E+03  0.12499380969E+03 0.  0.
          5    1    4    4  502    0 -0.34892816005E+02 -0.32691392731E+02  0.86212271005E+01  0.48812409531E+02  0.47000000000E+01 0.  1.
         -5    1    4    4    0  502 -0.78708175636E+02  0.56047599019E+02 -0.12310459365E+03  0.15656673097E+03  0.47000000000E+01 0.  1.
          5    1    3    3  503    0  0.10141996676E+03  0.35029746376E+02 -0.21252686083E+03  0.23812360102E+03  0.47000000000E+01 0.  1.
         -5    1    3    3    0  503  0.12181024883E+02 -0.58385952664E+02 -0.18482020487E+03  0.19426243838E+03  0.47000000000E+01 0.  1.
<mgrwt>
<rscale>  0 0.17051059E+03</rscale>
<asrwt>0</asrwt>
<pdfrwt beam="1">  1        5 0.96872887E-02 0.17051144E+03</pdfrwt>
<pdfrwt beam="2">  1       -5 0.88430428E-01 0.17051144E+03</pdfrwt>
<totfact> 0.69820668E+01</totfact>
</mgrwt>
</event>
<event>
 8    1  0.3754098E-007  0.1349419E+03  0.7546771E-02  0.1220310E+00
          5   -1    0    0  501    0  0.00000000000E+00  0.00000000000E+00  0.16000176823E+03  0.16007078383E+03  0.47000000000E+01 0. -1.
         -5   -1    0    0    0  501 -0.00000000000E+00 -0.00000000000E+00 -0.14122500358E+03  0.14130319047E+03  0.47000000000E+01 0. -1.
         25    2    1    2    0    0 -0.27437692829E+02  0.42715329454E+02 -0.57165641835E+02  0.14653032558E+03  0.12500319736E+03 0.  0.
         25    2    1    2    0    0  0.27437692829E+02 -0.42715329454E+02  0.75942406481E+02  0.15484364872E+03  0.12502751732E+03 0.  0.
          5    1    3    3  502    0 -0.24092075078E+01  0.11576002081E+01  0.38652237797E+02  0.39028576784E+02  0.47000000000E+01 0. -1.
         -5    1    3    3    0  502 -0.25028485321E+02  0.41557729245E+02 -0.95817879632E+02  0.10750174880E+03  0.47000000000E+01 0. -1.
          5    1    4    4  503    0  0.13550167892E+02  0.11980643611E+02 -0.29637101956E+02  0.35036990219E+02  0.47000000000E+01 0.  1.
         -5    1    4    4    0  503  0.13887524937E+02 -0.54695973065E+02  0.10557950844E+03  0.11980665850E+03  0.47000000000E+01 0.  1.
<mgrwt>
<rscale>  0 0.13493623E+03</rscale>
<asrwt>0</asrwt>
<pdfrwt beam="1">  1        5 0.24626980E-01 0.13494186E+03</pdfrwt>
<pdfrwt beam="2">  1       -5 0.21738247E-01 0.13494186E+03</pdfrwt>
<totfact> 0.22386186E+02</totfact>
</mgrwt>
</event>
<event>
 8    1  0.3754098E-007  0.1797804E+03  0.7546771E-02  0.1168016E+00
          5   -1    0    0  501    0  0.00000000000E+00  0.00000000000E+00  0.25577325397E+03  0.25581643310E+03  0.47000000000E+01 0.  1.
         -5   -1    0    0    0  501 -0.00000000000E+00 -0.00000000000E+00 -0.12635542094E+03  0.12644280289E+03  0.47000000000E+01 0.  1.
         25    2    1    2    0    0  0.30430212451E+02 -0.12557637672E+03  0.69779099715E+02  0.19284742276E+03  0.12500232593E+03 0.  0.
         25    2    1    2    0    0 -0.30430212451E+02  0.12557637672E+03  0.59638733313E+02  0.18941181323E+03  0.12499852902E+03 0.  0.
          5    1    4    4  502    0 -0.15294711826E+02  0.12878421010E+03  0.22556195060E+01  0.12979398599E+03  0.47000000000E+01 0. -1.
         -5    1    4    4    0  502 -0.15135500624E+02 -0.32078333725E+01  0.57383113807E+02  0.59617827236E+02  0.47000000000E+01 0. -1.
          5    1    3    3  503    0  0.61306851877E+02 -0.10631221191E+03  0.10671369149E+02  0.12327523924E+03  0.47000000000E+01 0.  1.
         -5    1    3    3    0  503 -0.30876639427E+02 -0.19264164809E+02  0.59107730566E+02  0.69572183527E+02  0.47000000000E+01 0.  1.
<mgrwt>
<rscale>  0 0.17977978E+03</rscale>
<asrwt>0</asrwt>
<pdfrwt beam="1">  1        5 0.39359774E-01 0.17978044E+03</pdfrwt>
<pdfrwt beam="2">  1       -5 0.19449339E-01 0.17978044E+03</pdfrwt>
<totfact> 0.11950840E+02</totfact>
</mgrwt>
</event>
<event>
 8    1  0.3754098E-007  0.1262486E+03  0.7546771E-02  0.1233132E+00
          5   -1    0    0  501    0  0.00000000000E+00  0.00000000000E+00  0.14432538512E+03  0.14440189331E+03  0.47000000000E+01 0. -1.
         -5   -1    0    0    0  501 -0.00000000000E+00 -0.00000000000E+00 -0.12557624106E+03  0.12566416482E+03  0.47000000000E+01 0. -1.
         25    2    1    2    0    0 -0.48574037774E+01  0.17027596296E+02 -0.37724148820E+02  0.13176429548E+03  0.12500073901E+03 0.  0.
         25    2    1    2    0    0  0.48574037774E+01 -0.17027596296E+02  0.56473292879E+02  0.13830176264E+03  0.12499844532E+03 0.  0.
          5    1    3    3  502    0  0.13266657246E+02 -0.23351685812E+02  0.36294061843E+02  0.45394430824E+02  0.47000000000E+01 0. -1.
         -5    1    3    3    0  502 -0.18124061023E+02  0.40379282107E+02 -0.74018210664E+02  0.86369864659E+02  0.47000000000E+01 0. -1.
          5    1    4    4  503    0 -0.18334792422E+02 -0.90063347918E+01 -0.36466681742E+02  0.42061711292E+02  0.47000000000E+01 0. -1.
         -5    1    4    4    0  503  0.23192196199E+02 -0.80212615039E+01  0.92939974621E+02  0.96240051347E+02  0.47000000000E+01 0. -1.
<mgrwt>
<rscale>  0 0.12624807E+03</rscale>
<asrwt>0</asrwt>
<pdfrwt beam="1">  1        5 0.22216554E-01 0.12624864E+03</pdfrwt>
<pdfrwt beam="2">  1       -5 0.19332070E-01 0.12624864E+03</pdfrwt>
<totfact> 0.33100933E+02</totfact>
</mgrwt>
</event>
<event>
 8    1  0.3754098E-007  0.1454662E+03  0.7546771E-02  0.1206158E+00
         -5   -1    0    0    0  501 -0.00000000000E+00  0.00000000000E+00  0.35907463060E+02  0.36213752959E+02  0.47000000000E+01 0.  1.
          5   -1    0    0  501    0  0.00000000000E+00 -0.00000000000E+00 -0.69313911462E+03  0.69315504919E+03  0.47000000000E+01 0.  1.
         25    2    1    2    0    0  0.69775712812E+02  0.25803325677E+02 -0.18559228284E+03  0.23580690801E+03  0.12500376276E+03 0.  0.
         25    2    1    2    0    0 -0.69775712812E+02 -0.25803325677E+02 -0.47163936872E+03  0.49356189414E+03  0.12500074999E+03 0.  0.
          5    1    3    3  502    0 -0.25839800714E+02 -0.19958304762E+02 -0.18355830334E+02  0.37749910426E+02  0.47000000000E+01 0. -1.
         -5    1    3    3    0  502  0.95615513526E+02  0.45761630439E+02 -0.16723645251E+03  0.19805699759E+03  0.47000000000E+01 0. -1.
          5    1    4    4  503    0 -0.14794925469E+01 -0.40012799270E+02 -0.35710609777E+03  0.35937455122E+03  0.47000000000E+01 0.  1.
         -5    1    4    4    0  503 -0.68296220265E+02  0.14209473592E+02 -0.11453327095E+03  0.13418734291E+03  0.47000000000E+01 0.  1.
<mgrwt>
<rscale>  0 0.14546551E+03</rscale>
<asrwt>0</asrwt>
<pdfrwt beam="2">  1        5 0.10666156E+00 0.14546616E+03</pdfrwt>
<pdfrwt beam="1">  1       -5 0.55490121E-02 0.14546616E+03</pdfrwt>
<totfact> 0.10948461E+02</totfact>
</mgrwt>
</event>
<event>
 8    1  0.3754098E-007  0.1616208E+03  0.7546771E-02  0.1186880E+00
         -5   -1    0    0    0  501 -0.00000000000E+00  0.00000000000E+00  0.24571406204E+02  0.25016874362E+02  0.47000000000E+01 0. -1.
          5   -1    0    0  501    0  0.00000000000E+00 -0.00000000000E+00 -0.10774557859E+04  0.10774660369E+04  0.47000000000E+01 0. -1.
         25    2    1    2    0    0  0.51570037440E+02  0.88524774582E+02 -0.44350869735E+03  0.47203860708E+03  0.12499750986E+03 0.  0.
         25    2    1    2    0    0 -0.51570037440E+02 -0.88524774582E+02 -0.60937568235E+03  0.63044430414E+03  0.12500077563E+03 0.  0.
          5    1    4    4  502    0 -0.86418458599E+02 -0.77905044962E+02 -0.35963970412E+03  0.37802136553E+03  0.47000000000E+01 0.  1.
         -5    1    4    4    0  502  0.34848421159E+02 -0.10619729620E+02 -0.24973597824E+03  0.25242293862E+03  0.47000000000E+01 0.  1.
          5    1    3    3  503    0 -0.39284118862E+02  0.43443978341E+02 -0.13445169896E+03  0.14673094630E+03  0.47000000000E+01 0.  1.
         -5    1    3    3    0  503  0.90854156302E+02  0.45080796241E+02 -0.30905699839E+03  0.32530766078E+03  0.47000000000E+01 0.  1.
<mgrwt>
<rscale>  0 0.16162022E+03</rscale>
<asrwt>0</asrwt>
<pdfrwt beam="2">  1        5 0.16579745E+00 0.16162085E+03</pdfrwt>
<pdfrwt beam="1">  1       -5 0.38152725E-02 0.16162085E+03</pdfrwt>
<totfact> 0.65563876E+01</totfact>
</mgrwt>
</event>
<event>
 8    1  0.3754098E-007  0.1432651E+03  0.7546771E-02  0.1209024E+00
         -5   -1    0    0    0  501 -0.00000000000E+00  0.00000000000E+00  0.22754589917E+03  0.22759443366E+03  0.47000000000E+01 0. -1.
          5   -1    0    0  501    0  0.00000000000E+00 -0.00000000000E+00 -0.91736606831E+02  0.91856926973E+02  0.47000000000E+01 0. -1.
         25    2    1    2    0    0 -0.65166165716E+02 -0.25175481710E+02  0.89625171152E+02  0.16898980009E+03  0.12507776460E+03 0.  0.
         25    2    1    2    0    0  0.65166165716E+02  0.25175481710E+02  0.46184121191E+02  0.15046156054E+03  0.12500109646E+03 0.  0.
          5    1    3    3  502    0 -0.75722489813E+02 -0.66108381596E+02  0.65898222945E+02  0.12028665499E+03  0.47000000000E+01 0. -1.
         -5    1    3    3    0  502  0.10556324097E+02  0.40932899886E+02  0.23726948207E+02  0.48703145101E+02  0.47000000000E+01 0. -1.
          5    1    4    4  503    0  0.14978254343E+02  0.64856459307E+02  0.53991139960E+02  0.85836132317E+02  0.47000000000E+01 0.  1.
         -5    1    4    4    0  503  0.50187911373E+02 -0.39680977596E+02 -0.78070187689E+01  0.64625428223E+02  0.47000000000E+01 0.  1.
<mgrwt>
<rscale>  0 0.14324834E+03</rscale>
<asrwt>0</asrwt>
<pdfrwt beam="2">  1        5 0.14126313E-01 0.14326507E+03</pdfrwt>
<pdfrwt beam="1">  1       -5 0.35020050E-01 0.14326507E+03</pdfrwt>
<totfact> 0.25348621E+02</totfact>
</mgrwt>
</event>
<event>
 8    1  0.3754098E-007  0.1333242E+03  0.7546771E-02  0.1222626E+00
         -5   -1    0    0    0  501 -0.00000000000E+00  0.00000000000E+00  0.39420314728E+02  0.39699511499E+02  0.47000000000E+01 0.  1.
          5   -1    0    0  501    0  0.00000000000E+00 -0.00000000000E+00 -0.62941259032E+03  0.62943013819E+03  0.47000000000E+01 0.  1.
         25    2    1    2    0    0 -0.83422840341E+01  0.45465457956E+02 -0.11578853737E+03  0.17654004577E+03  0.12499080288E+03 0.  0.
         25    2    1    2    0    0  0.83422840341E+01 -0.45465457956E+02 -0.47420373822E+03  0.49258960391E+03  0.12505451198E+03 0.  0.
          5    1    4    4  502    0 -0.11180556956E+02  0.36500550977E+02 -0.25166430846E+03  0.25458654565E+03  0.47000000000E+01 0.  1.
         -5    1    4    4    0  502  0.19522840990E+02 -0.81966008933E+02 -0.22253942977E+03  0.23800305826E+03  0.47000000000E+01 0.  1.
          5    1    3    3  503    0 -0.61727419965E+02  0.24131629379E+02 -0.29383278707E+02  0.72650374944E+02  0.47000000000E+01 0.  1.
         -5    1    3    3    0  503  0.53385135931E+02  0.21333828577E+02 -0.86405258664E+02  0.10388967083E+03  0.47000000000E+01 0.  1.
<mgrwt>
<rscale>  0 0.13330922E+03</rscale>
<asrwt>0</asrwt>
<pdfrwt beam="2">  1        5 0.96855525E-01 0.13332416E+03</pdfrwt>
<pdfrwt beam="1">  1       -5 0.60874908E-02 0.13332416E+03</pdfrwt>
<totfact> 0.11543243E+02</totfact>
</mgrwt>
</event>
<event>
 8    1  0.3754098E-007  0.1308313E+03  0.7546771E-02  0.1226241E+00
          5   -1    0    0  501    0  0.00000000000E+00  0.00000000000E+00  0.82671188525E+02  0.82804682308E+02  0.47000000000E+01 0.  1.
         -5   -1    0    0    0  501 -0.00000000000E+00 -0.00000000000E+00 -0.21786855379E+03  0.21791924360E+03  0.47000000000E+01 0.  1.
         25    2    1    2    0    0  0.24526790640E+02  0.29702126406E+02 -0.10167813658E+03  0.16566700362E+03  0.12499333125E+03 0.  0.
         25    2    1    2    0    0 -0.24526790640E+02 -0.29702126406E+02 -0.33519228682E+02  0.13505692229E+03  0.12503221102E+03 0.  0.
          5    1    4    4  502    0 -0.63606531633E+02 -0.20188539683E+02  0.18238246798E+02  0.69340404146E+02  0.47000000000E+01 0. -1.
         -5    1    4    4    0  502  0.39079740993E+02 -0.95135867233E+01 -0.51757475480E+02  0.65716518140E+02  0.47000000000E+01 0. -1.
          5    1    3    3  503    0 -0.14177817045E+02  0.60238875366E+01  0.25721188476E+02  0.30347442294E+02  0.47000000000E+01 0. -1.
         -5    1    3    3    0  503  0.38704607685E+02  0.23678238870E+02 -0.12739932506E+03  0.13531956133E+03  0.47000000000E+01 0. -1.
<mgrwt>
<rscale>  0 0.13082203E+03</rscale>
<asrwt>0</asrwt>
<pdfrwt beam="1">  1        5 0.12732812E-01 0.13083132E+03</pdfrwt>
<pdfrwt beam="2">  1       -5 0.33532407E-01 0.13083132E+03</pdfrwt>
<totfact> 0.32271873E+02</totfact>
</mgrwt>
</event>
<event>
 8    1  0.3754098E-007  0.1497707E+03  0.7546771E-02  0.1200755E+00
          5   -1    0    0  501    0  0.00000000000E+00  0.00000000000E+00  0.32050988844E+02  0.32393763070E+02  0.47000000000E+01 0.  1.
         -5   -1    0    0    0  501 -0.00000000000E+00 -0.00000000000E+00 -0.72789451738E+03  0.72790969113E+03  0.47000000000E+01 0.  1.
         25    2    1    2    0    0  0.81579398958E+02 -0.12296621019E+02 -0.42774222976E+03  0.45320484129E+03  0.12499923130E+03 0.  0.
         25    2    1    2    0    0 -0.81579398958E+02  0.12296621019E+02 -0.26810129878E+03  0.30709861291E+03  0.12499938568E+03 0.  0.
          5    1    3    3  502    0  0.71225481673E+02 -0.62228093017E+02 -0.32330464543E+03  0.33688779817E+03  0.47000000000E+01 0.  1.
         -5    1    3    3    0  502  0.10353917285E+02  0.49931471999E+02 -0.10443758433E+03  0.11631704311E+03  0.47000000000E+01 0.  1.
          5    1    4    4  503    0 -0.35358820024E+02  0.25678520933E+02 -0.25249900998E+03  0.25629567423E+03  0.47000000000E+01 0. -1.
         -5    1    4    4    0  503 -0.46220578934E+02 -0.13381899915E+02 -0.15602288806E+02  0.50802938678E+02  0.47000000000E+01 0. -1.
<mgrwt>
<rscale>  0 0.14977063E+03</rscale>
<asrwt>0</asrwt>
<pdfrwt beam="1">  1        5 0.49584564E-02 0.14977066E+03</pdfrwt>
<pdfrwt beam="2">  1       -5 0.11201129E+00 0.14977066E+03</pdfrwt>
<totfact> 0.11801584E+02</totfact>
</mgrwt>
</event>
<event>
 8    1  0.3754098E-007  0.1330334E+03  0.7546771E-02  0.1223023E+00
         -5   -1    0    0    0  501 -0.00000000000E+00  0.00000000000E+00  0.26991113806E+03  0.26995205584E+03  0.47000000000E+01 0.  1.
          5   -1    0    0  501    0  0.00000000000E+00 -0.00000000000E+00 -0.67207020786E+02  0.67371163289E+02  0.47000000000E+01 0.  1.
         25    2    1    2    0    0  0.64372820706E+01 -0.45068771544E+02  0.74034419150E+02  0.15224643889E+03  0.12500100066E+03 0.  0.
         25    2    1    2    0    0 -0.64372820706E+01  0.45068771544E+02  0.12866969813E+03  0.18507678024E+03  0.12499956239E+03 0.  0.
          5    1    4    4  502    0  0.27022214684E+02 -0.77210785630E+01 -0.12121151597E+02  0.30964939152E+02  0.47000000000E+01 0.  1.
         -5    1    4    4    0  502 -0.33459496755E+02  0.52789850107E+02  0.14079084973E+03  0.15411184109E+03  0.47000000000E+01 0.  1.
          5    1    3    3  503    0  0.19789122940E+02  0.36283532660E+02  0.52366461498E+02  0.66876306858E+02  0.47000000000E+01 0. -1.
         -5    1    3    3    0  503 -0.13351840870E+02 -0.81352304204E+02  0.21667957652E+02  0.85370132029E+02  0.47000000000E+01 0. -1.
<mgrwt>
<rscale>  0 0.13303305E+03</rscale>
<asrwt>0</asrwt>
<pdfrwt beam="2">  1        5 0.10355316E-01 0.13303339E+03</pdfrwt>
<pdfrwt beam="1">  1       -5 0.41540564E-01 0.13303339E+03</pdfrwt>
<totfact> 0.30318069E+02</totfact>
</mgrwt>
</event>
<event>
 8    1  0.3754098E-007  0.1421166E+03  0.7546771E-02  0.1210515E+00
         -5   -1    0    0    0  501 -0.00000000000E+00  0.00000000000E+00  0.13657501656E+03  0.13665586394E+03  0.47000000000E+01 0.  1.
          5   -1    0    0  501    0  0.00000000000E+00 -0.00000000000E+00 -0.14929118553E+03  0.14936515014E+03  0.47000000000E+01 0.  1.
         25    2    1    2    0    0  0.33340587229E+02  0.58784626536E+02  0.83883982001E+01  0.14234588847E+03  0.12499903866E+03 0.  0.
         25    2    1    2    0    0 -0.33340587229E+02 -0.58784626536E+02 -0.21104567162E+02  0.14367512561E+03  0.12501964601E+03 0.  0.
          5    1    3    3  502    0 -0.35571236330E+02 -0.14734100167E+02 -0.94074790343E+01  0.39912369305E+02  0.47000000000E+01 0.  1.
         -5    1    3    3    0  502  0.68911823560E+02  0.73518726703E+02  0.17795877234E+02  0.10243351917E+03  0.47000000000E+01 0.  1.
          5    1    4    4  503    0 -0.43666071302E+02 -0.45148849589E+02 -0.68507638188E+02  0.93061973395E+02  0.47000000000E+01 0.  1.
         -5    1    4    4    0  503  0.10325484073E+02 -0.13635776947E+02  0.47403071025E+02  0.50613152213E+02  0.47000000000E+01 0.  1.
<mgrwt>
<rscale>  0 0.14211211E+03</rscale>
<asrwt>0</asrwt>
<pdfrwt beam="2">  1        5 0.22979783E-01 0.14211664E+03</pdfrwt>
<pdfrwt beam="1">  1       -5 0.21023450E-01 0.14211664E+03</pdfrwt>
<totfact> 0.27680548E+02</totfact>
</mgrwt>
</event>
<event>
 8    1  0.3754098E-007  0.2168345E+03  0.7546771E-02  0.1136267E+00
         -5   -1    0    0    0  501 -0.00000000000E+00  0.00000000000E+00  0.37917539857E+03  0.37920452645E+03  0.47000000000E+01 0. -1.
          5   -1    0    0  501    0  0.00000000000E+00 -0.00000000000E+00 -0.15043967003E+03  0.15051307026E+03  0.47000000000E+01 0. -1.
         25    2    1    2    0    0 -0.12670820960E+03 -0.12384042131E+03  0.22554248957E+03  0.31286834502E+03  0.12500306548E+03 0.  0.
         25    2    1    2    0    0  0.12670820960E+03  0.12384042131E+03  0.31932389651E+01  0.21684925170E+03  0.12498792283E+03 0.  0.
          5    1    4    4  502    0 -0.20178699121E+02  0.25850041575E+02 -0.20000697672E+02  0.38697835276E+02  0.47000000000E+01 0.  1.
         -5    1    4    4    0  502  0.14688690873E+03  0.97990379739E+02  0.23193936637E+02  0.17815141642E+03  0.47000000000E+01 0.  1.
          5    1    3    3  503    0 -0.20278471124E+02 -0.49733926573E+01 -0.13593168475E+02  0.25353801585E+02  0.47000000000E+01 0.  1.
         -5    1    3    3    0  503 -0.10642973848E+03 -0.11886702866E+03  0.23913565805E+03  0.28751454343E+03  0.47000000000E+01 0.  1.
<mgrwt>
<rscale>  0 0.21683229E+03</rscale>
<asrwt>0</asrwt>
<pdfrwt beam="2">  1        5 0.23152452E-01 0.21683447E+03</pdfrwt>
<pdfrwt beam="1">  1       -5 0.58342563E-01 0.21683447E+03</pdfrwt>
<totfact> 0.39247496E+01</totfact>
</mgrwt>
</event>
<event>
 8    1  0.3754098E-007  0.1263825E+03  0.7546771E-02  0.1232925E+00
         -5   -1    0    0    0  501 -0.00000000000E+00  0.00000000000E+00  0.19020508764E+03  0.19026314768E+03  0.47000000000E+01 0. -1.
          5   -1    0    0  501    0  0.00000000000E+00 -0.00000000000E+00 -0.10218675498E+03  0.10229478429E+03  0.47000000000E+01 0. -1.
         25    2    1    2    0    0 -0.27535685637E+01 -0.18429630353E+02  0.10594057419E+03  0.16491189955E+03  0.12500118375E+03 0.  0.
         25    2    1    2    0    0  0.27535685637E+01  0.18429630353E+02 -0.17922241521E+02  0.12764603242E+03  0.12500027775E+03 0.  0.
          5    1    3    3  502    0 -0.14306653013E+02  0.29868073739E+02  0.10989530876E+03  0.11487319547E+03  0.47000000000E+01 0. -1.
         -5    1    3    3    0  502  0.11553084449E+02 -0.48297704091E+02 -0.39547345750E+01  0.50038704083E+02  0.47000000000E+01 0. -1.
          5    1    4    4  503    0 -0.29941683692E+02 -0.44482901439E+02  0.19523736834E+01  0.53862182519E+02  0.47000000000E+01 0. -1.
         -5    1    4    4    0  503  0.32695252255E+02  0.62912531792E+02 -0.19874615204E+02  0.73783849900E+02  0.47000000000E+01 0. -1.
<mgrwt>
<rscale>  0 0.12638225E+03</rscale>
<asrwt>0</asrwt>
<pdfrwt beam="2">  1        5 0.15733816E-01 0.12638247E+03</pdfrwt>
<pdfrwt beam="1">  1       -5 0.29275097E-01 0.12638247E+03</pdfrwt>
<totfact> 0.28466456E+02</totfact>
</mgrwt>
</event>
<event>
 8    1  0.3754098E-007  0.1255525E+03  0.7546771E-02  0.1234209E+00
         -5   -1    0    0    0  501 -0.00000000000E+00  0.00000000000E+00  0.36324575992E+03  0.36327616506E+03  0.47000000000E+01 0.  1.
          5   -1    0    0  501    0  0.00000000000E+00 -0.00000000000E+00 -0.43317532879E+02  0.43571764421E+02  0.47000000000E+01 0.  1.
         25    2    1    2    0    0 -0.48360960363E+01  0.10700161900E+02  0.16876819337E+03  0.21034658229E+03  0.12500040118E+03 0.  0.
         25    2    1    2    0    0  0.48360960363E+01 -0.10700161900E+02  0.15116003367E+03  0.19650134719E+03  0.12500216950E+03 0.  0.
          5    1    3    3  502    0 -0.55881356107E+02  0.22389095291E+02  0.43287310173E+02  0.74295886631E+02  0.47000000000E+01 0. -1.
         -5    1    3    3    0  502  0.51045260070E+02 -0.11688933391E+02  0.12548088320E+03  0.13605069566E+03  0.47000000000E+01 0. -1.
          5    1    4    4  503    0 -0.42191700923E+02  0.32574591844E+02  0.35312879793E+02  0.64111879865E+02  0.47000000000E+01 0.  1.
         -5    1    4    4    0  503  0.47027796960E+02 -0.43274753744E+02  0.11584715388E+03  0.13238946733E+03  0.47000000000E+01 0.  1.
<mgrwt>
<rscale>  0 0.12555203E+03</rscale>
<asrwt>0</asrwt>
<pdfrwt beam="2">  1        5 0.66861308E-02 0.12555247E+03</pdfrwt>
<pdfrwt beam="1">  1       -5 0.55905859E-01 0.12555247E+03</pdfrwt>
<totfact> 0.33694595E+02</totfact>
</mgrwt>
</event>
<event>
 8    1  0.3754098E-007  0.1354351E+03  0.7546771E-02  0.1219608E+00
          5   -1    0    0  501    0  0.00000000000E+00  0.00000000000E+00  0.11100781614E+03  0.11110726909E+03  0.47000000000E+01 0.  1.
         -5   -1    0    0    0  501 -0.00000000000E+00 -0.00000000000E+00 -0.16972742461E+03  0.16979248707E+03  0.47000000000E+01 0.  1.
         25    2    1    2    0    0  0.41417340398E+02 -0.31656566177E+02 -0.52725557568E+02  0.14533632675E+03  0.12500051674E+03 0.  0.
         25    2    1    2    0    0 -0.41417340398E+02  0.31656566177E+02 -0.59940509007E+01  0.13556342941E+03  0.12499592185E+03 0.  0.
          5    1    3    3  502    0 -0.29460685935E+02  0.77436815064E+00  0.22139652375E+02  0.37158927179E+02  0.47000000000E+01 0.  1.
         -5    1    3    3    0  502  0.70878026333E+02 -0.32430934328E+02 -0.74865209943E+02  0.10817739957E+03  0.47000000000E+01 0.  1.
          5    1    4    4  503    0  0.44424283711E+02  0.10236043697E+02 -0.98675484227E+01  0.46880188627E+02  0.47000000000E+01 0. -1.
         -5    1    4    4    0  503 -0.85841624109E+02  0.21420522480E+02  0.38734975220E+01  0.88683240785E+02  0.47000000000E+01 0. -1.
<mgrwt>
<rscale>  0 0.13543403E+03</rscale>
<asrwt>0</asrwt>
<pdfrwt beam="1">  1        5 0.17090781E-01 0.13543509E+03</pdfrwt>
<pdfrwt beam="2">  1       -5 0.26124567E-01 0.13543509E+03</pdfrwt>
<totfact> 0.31291974E+02</totfact>
</mgrwt>
</event>
<event>
 8    1  0.3754098E-007  0.1791575E+03  0.7546771E-02  0.1168622E+00
          5   -1    0    0  501    0  0.00000000000E+00  0.00000000000E+00  0.72998639569E+02  0.73149787279E+02  0.47000000000E+01 0. -1.
         -5   -1    0    0    0  501 -0.00000000000E+00 -0.00000000000E+00 -0.48269300513E+03  0.48271588663E+03  0.47000000000E+01 0. -1.
         25    2    1    2    0    0 -0.69630492853E+02 -0.10781313681E+03 -0.28838444489E+03  0.33950402318E+03  0.12500126278E+03 0.  0.
         25    2    1    2    0    0  0.69630492853E+02  0.10781313681E+03 -0.12130992067E+03  0.21636165073E+03  0.12499675616E+03 0.  0.
          5    1    3    3  502    0  0.27029456092E+02 -0.68704193617E+02 -0.13562921876E+03  0.15449347138E+03  0.47000000000E+01 0.  1.
         -5    1    3    3    0  502 -0.96659948945E+02 -0.39108943189E+02 -0.15275522613E+03  0.18501055180E+03  0.47000000000E+01 0.  1.
          5    1    4    4  503    0 -0.45365792479E+01  0.82076285370E+02 -0.10924114174E+03  0.13679478871E+03  0.47000000000E+01 0.  1.
         -5    1    4    4    0  503  0.74167072101E+02  0.25736851436E+02 -0.12068778938E+02  0.79566862015E+02  0.47000000000E+01 0.  1.
<mgrwt>
<rscale>  0 0.17915667E+03</rscale>
<asrwt>0</asrwt>
<pdfrwt beam="1">  1        5 0.11243947E-01 0.17915746E+03</pdfrwt>
<pdfrwt beam="2">  1       -5 0.74273847E-01 0.17915746E+03</pdfrwt>
<totfact> 0.81836164E+01</totfact>
</mgrwt>
</event>
<event>
 8    1  0.3754098E-007  0.1340917E+03  0.7546771E-02  0.1221511E+00
          5   -1    0    0  501    0  0.00000000000E+00  0.00000000000E+00  0.24165536328E+03  0.24170106454E+03  0.47000000000E+01 0. -1.
         -5   -1    0    0    0  501 -0.00000000000E+00 -0.00000000000E+00 -0.14089935925E+03  0.14097772675E+03  0.47000000000E+01 0. -1.
         25    2    1    2    0    0 -0.42742742702E+02  0.22992031727E+02 -0.81121096636E+02  0.15672022259E+03  0.12500008109E+03 0.  0.
         25    2    1    2    0    0  0.42742742702E+02 -0.22992031727E+02  0.18187710066E+03  0.22595856870E+03  0.12498967737E+03 0.  0.
          5    1    3    3  502    0 -0.18852534901E+02 -0.20041224049E+02 -0.99978796834E+02  0.10380230513E+03  0.47000000000E+01 0. -1.
         -5    1    3    3    0  502 -0.23890207801E+02  0.43033255776E+02  0.18857700199E+02  0.52917917459E+02  0.47000000000E+01 0. -1.
          5    1    4    4  503    0  0.61452380349E+02 -0.63688583091E+02  0.11198054279E+03  0.14280883246E+03  0.47000000000E+01 0.  1.
         -5    1    4    4    0  503 -0.18709637648E+02  0.40696551364E+02  0.69896557870E+02  0.83149736235E+02  0.47000000000E+01 0.  1.
<mgrwt>
<rscale>  0 0.13408932E+03</rscale>
<asrwt>0</asrwt>
<pdfrwt beam="1">  1        5 0.37187292E-01 0.13409174E+03</pdfrwt>
<pdfrwt beam="2">  1       -5 0.21686368E-01 0.13409174E+03</pdfrwt>
<totfact> 0.99858705E+01</totfact>
</mgrwt>
</event>
<event>
 8    1  0.3754098E-007  0.1313483E+03  0.7546771E-02  0.1225473E+00
          5   -1    0    0  501    0  0.00000000000E+00  0.00000000000E+00  0.47164079052E+03  0.47166420818E+03  0.47000000000E+01 0.  1.
         -5   -1    0    0    0  501 -0.00000000000E+00 -0.00000000000E+00 -0.46110328926E+02  0.46349244154E+02  0.47000000000E+01 0.  1.
         25    2    1    2    0    0 -0.63435203925E+01  0.39823236165E+02  0.94296444940E+02  0.16169163841E+03  0.12500494396E+03 0.  0.
         25    2    1    2    0    0  0.63435203925E+01 -0.39823236165E+02  0.33123401665E+03  0.35632181392E+03  0.12499252338E+03 0.  0.
          5    1    3    3  502    0 -0.33758498340E+02  0.76657234684E+02  0.71422717641E+02  0.11017832107E+03  0.47000000000E+01 0. -1.
         -5    1    3    3    0  502  0.27414977947E+02 -0.36833998519E+02  0.22873727299E+02  0.51513317339E+02  0.47000000000E+01 0. -1.
          5    1    4    4  503    0 -0.54417554246E+02 -0.31393720380E+02  0.22402046492E+03  0.23271032335E+03  0.47000000000E+01 0. -1.
         -5    1    4    4    0  503  0.60761074638E+02 -0.84295157850E+01  0.10721355173E+03  0.12361149057E+03  0.47000000000E+01 0. -1.
<mgrwt>
<rscale>  0 0.13134531E+03</rscale>
<asrwt>0</asrwt>
<pdfrwt beam="1">  1        5 0.72580300E-01 0.13134826E+03</pdfrwt>
<pdfrwt beam="2">  1       -5 0.71140763E-02 0.13134826E+03</pdfrwt>
<totfact> 0.17313776E+02</totfact>
</mgrwt>
</event>
<event>
 8    1  0.3754098E-007  0.1288062E+03  0.7546771E-02  0.1229238E+00
          5   -1    0    0  501    0  0.00000000000E+00  0.00000000000E+00  0.39775543281E+02  0.40052263898E+02  0.47000000000E+01 0.  1.
         -5   -1    0    0    0  501 -0.00000000000E+00 -0.00000000000E+00 -0.41944502022E+03  0.41947135180E+03  0.47000000000E+01 0.  1.
         25    2    1    2    0    0  0.13220824073E+02 -0.28134478889E+02 -0.16721485552E+03  0.21107241053E+03  0.12499766193E+03 0.  0.
         25    2    1    2    0    0 -0.13220824073E+02  0.28134478889E+02 -0.21245462142E+03  0.24845120518E+03  0.12499878439E+03 0.  0.
          5    1    3    3  502    0 -0.20581382099E+02  0.38813189340E+02 -0.10355817702E+03  0.11258971082E+03  0.47000000000E+01 0.  1.
         -5    1    3    3    0  502  0.33802206172E+02 -0.66947668229E+02 -0.63656678497E+02  0.98482699703E+02  0.47000000000E+01 0.  1.
          5    1    4    4  503    0  0.53278381167E+02  0.18510079291E+02 -0.13134628624E+03  0.14302148735E+03  0.47000000000E+01 0. -1.
         -5    1    4    4    0  503 -0.66499205240E+02  0.96243995974E+01 -0.81108335184E+02  0.10542971783E+03  0.47000000000E+01 0. -1.
<mgrwt>
<rscale>  0 0.12880592E+03</rscale>
<asrwt>0</asrwt>
<pdfrwt beam="1">  1        5 0.61426264E-02 0.12880619E+03</pdfrwt>
<pdfrwt beam="2">  1       -5 0.64553312E-01 0.12880619E+03</pdfrwt>
<totfact> 0.28652681E+02</totfact>
</mgrwt>
</event>
<event>
 8    1  0.3754098E-007  0.1803260E+03  0.7546771E-02  0.1167490E+00
          5   -1    0    0  501    0  0.00000000000E+00  0.00000000000E+00  0.53212524840E+03  0.53214600438E+03  0.47000000000E+01 0. -1.
         -5   -1    0    0    0  501 -0.00000000000E+00 -0.00000000000E+00 -0.76330857574E+02  0.76475419698E+02  0.47000000000E+01 0. -1.
         25    2    1    2    0    0  0.87331789811E+02 -0.96259009976E+02  0.91655874774E+02  0.20228267174E+03  0.12499936556E+03 0.  0.
         25    2    1    2    0    0 -0.87331789811E+02  0.96259009976E+02  0.36413851605E+03  0.40633875234E+03  0.12498673639E+03 0.  0.
          5    1    4    4  502    0  0.76617750587E+01  0.10322001664E+01  0.16926203350E+03  0.16950367023E+03  0.47000000000E+01 0. -1.
         -5    1    4    4    0  502 -0.94993564869E+02  0.95226809810E+02  0.19487648254E+03  0.23683508212E+03  0.47000000000E+01 0. -1.
          5    1    3    3  503    0  0.31018504206E+02 -0.92348706636E+02  0.36216396692E+01  0.97599372408E+02  0.47000000000E+01 0. -1.
         -5    1    3    3    0  503  0.56313285605E+02 -0.39103033403E+01  0.88034235105E+02  0.10468329933E+03  0.47000000000E+01 0. -1.
<mgrwt>
<rscale>  0 0.18032385E+03</rscale>
<asrwt>0</asrwt>
<pdfrwt beam="1">  1        5 0.81878140E-01 0.18032604E+03</pdfrwt>
<pdfrwt beam="2">  1       -5 0.11755926E-01 0.18032604E+03</pdfrwt>
<totfact> 0.60459172E+01</totfact>
</mgrwt>
</event>
<event>
 8    1  0.3754098E-007  0.1621876E+03  0.7546771E-02  0.1186251E+00
         -5   -1    0    0    0  501 -0.00000000000E+00  0.00000000000E+00  0.52031156477E+02  0.52243001870E+02  0.47000000000E+01 0.  1.
          5   -1    0    0  501    0  0.00000000000E+00 -0.00000000000E+00 -0.50669282603E+03  0.50671462378E+03  0.47000000000E+01 0.  1.
         25    2    1    2    0    0 -0.93257822326E+02 -0.44531596144E+02 -0.20806633097E+03  0.26380667867E+03  0.12498912412E+03 0.  0.
         25    2    1    2    0    0  0.93257822326E+02  0.44531596144E+02 -0.24659533859E+03  0.29515094698E+03  0.12499894404E+03 0.  0.
          5    1    4    4  502    0  0.11290377474E+03  0.62250439129E+02 -0.22957916828E+03  0.26334590186E+03  0.47000000000E+01 0.  1.
         -5    1    4    4    0  502 -0.19645952410E+02 -0.17718842986E+02 -0.17016170309E+02  0.31805045116E+02  0.47000000000E+01 0.  1.
          5    1    3    3  503    0 -0.79953648729E+02  0.27964163361E+02 -0.83765924095E+02  0.11921996652E+03  0.47000000000E+01 0.  1.
         -5    1    3    3    0  503 -0.13304173598E+02 -0.72495759505E+02 -0.12430040687E+03  0.14458671215E+03  0.47000000000E+01 0.  1.
<mgrwt>
<rscale>  0 0.16218572E+03</rscale>
<asrwt>0</asrwt>
<pdfrwt beam="2">  1        5 0.77970712E-01 0.16218761E+03</pdfrwt>
<pdfrwt beam="1">  1       -5 0.80227662E-02 0.16218761E+03</pdfrwt>
<totfact> 0.12810592E+02</totfact>
</mgrwt>
</event>
<event>
 8    1  0.3754098E-007  0.1587837E+03  0.7546771E-02  0.1190077E+00
         -5   -1    0    0    0  501 -0.00000000000E+00  0.00000000000E+00  0.14340606731E+03  0.14348306570E+03  0.47000000000E+01 0.  1.
          5   -1    0    0  501    0  0.00000000000E+00 -0.00000000000E+00 -0.17740092011E+03  0.17746316929E+03  0.47000000000E+01 0.  1.
         25    2    1    2    0    0  0.24576101778E+02 -0.94781408886E+02 -0.10773474263E+01  0.15878638655E+03  0.12499782248E+03 0.  0.
         25    2    1    2    0    0 -0.24576101778E+02  0.94781408886E+02 -0.32917505368E+02  0.16215984844E+03  0.12499901615E+03 0.  0.
          5    1    4    4  502    0 -0.41854528954E+02  0.66635369013E+02  0.35185071340E+02  0.86325855007E+02  0.47000000000E+01 0.  1.
         -5    1    4    4    0  502  0.17278427175E+02  0.28146039874E+02 -0.68102576709E+02  0.75833993437E+02  0.47000000000E+01 0.  1.
          5    1    3    3  503    0  0.34497303159E+02 -0.10478456930E+03  0.38165493943E+02  0.11682707228E+03  0.47000000000E+01 0.  1.
         -5    1    3    3    0  503 -0.99212013801E+01  0.10003160416E+02 -0.39242841369E+02  0.41959314268E+02  0.47000000000E+01 0.  1.
<mgrwt>
<rscale>  0 0.15878344E+03</rscale>
<asrwt>0</asrwt>
<pdfrwt beam="2">  1        5 0.27303161E-01 0.15878367E+03</pdfrwt>
<pdfrwt beam="1">  1       -5 0.22073183E-01 0.15878367E+03</pdfrwt>
<totfact> 0.18817037E+02</totfact>
</mgrwt>
</event>
<event>
 8    1  0.3754098E-007  0.2399564E+03  0.7546771E-02  0.1119823E+00
          5   -1    0    0  501    0  0.00000000000E+00  0.00000000000E+00  0.69960592174E+02  0.70118289036E+02  0.47000000000E+01 0.  1.
         -5   -1    0    0    0  501 -0.00000000000E+00 -0.00000000000E+00 -0.85096034907E+03  0.85097332842E+03  0.47000000000E+01 0.  1.
         25    2    1    2    0    0  0.16132849493E+03  0.12619994557E+03 -0.47558467046E+03  0.53269115601E+03  0.12500311746E+03 0.  0.
         25    2    1    2    0    0 -0.16132849493E+03 -0.12619994557E+03 -0.30541508643E+03  0.38840046145E+03  0.12499293538E+03 0.  0.
          5    1    4    4  502    0 -0.11249247736E+03 -0.57888177919E+02 -0.85010221133E+02  0.15249402055E+03  0.47000000000E+01 0. -1.
         -5    1    4    4    0  502 -0.48836017568E+02 -0.68311767651E+02 -0.22040486530E+03  0.23590644090E+03  0.47000000000E+01 0. -1.
          5    1    3    3  503    0  0.11294882651E+03  0.52018177625E+02 -0.39027050293E+03  0.40962969091E+03  0.47000000000E+01 0.  1.
         -5    1    3    3    0  503  0.48379668419E+02  0.74181767944E+02 -0.85314167524E+02  0.12306146510E+03  0.47000000000E+01 0.  1.
<mgrwt>
<rscale>  0 0.23995511E+03</rscale>
<asrwt>0</asrwt>
<pdfrwt beam="1">  1        5 0.10776298E-01 0.23995643E+03</pdfrwt>
<pdfrwt beam="2">  1       -5 0.13093010E+00 0.23995643E+03</pdfrwt>
<totfact> 0.23639213E+01</totfact>
</mgrwt>
</event>
<event>
 8    1  0.3754098E-007  0.1329229E+03  0.7546771E-02  0.1223197E+00
          5   -1    0    0  501    0  0.00000000000E+00  0.00000000000E+00  0.22168537037E+02  0.22661289335E+02  0.47000000000E+01 0. -1.
         -5   -1    0    0    0  501 -0.00000000000E+00 -0.00000000000E+00 -0.79009999547E+03  0.79011397459E+03  0.47000000000E+01 0. -1.
         25    2    1    2    0    0  0.29753338087E+02 -0.33833693603E+02 -0.36070803109E+03  0.38442004274E+03  0.12505401079E+03 0.  0.
         25    2    1    2    0    0 -0.29753338087E+02  0.33833693603E+02 -0.40722342735E+03  0.42835522119E+03  0.12500918283E+03 0.  0.
          5    1    3    3  502    0 -0.12864955783E+02 -0.61594545072E+02 -0.96353113197E+02  0.11517555076E+03  0.47000000000E+01 0. -1.
         -5    1    3    3    0  502  0.42618293870E+02  0.27760851470E+02 -0.26435491789E+03  0.26924449198E+03  0.47000000000E+01 0. -1.
          5    1    4    4  503    0 -0.13820605782E+02 -0.30355278499E+02 -0.30275122830E+03  0.30461918573E+03  0.47000000000E+01 0.  1.
         -5    1    4    4    0  503 -0.15932732305E+02  0.64188972102E+02 -0.10447219905E+03  0.12373603547E+03  0.47000000000E+01 0.  1.
<mgrwt>
<rscale>  0 0.13291231E+03</rscale>
<asrwt>0</asrwt>
<pdfrwt beam="1">  1        5 0.34495241E-02 0.13292286E+03</pdfrwt>
<pdfrwt beam="2">  1       -5 0.12159280E+00 0.13292286E+03</pdfrwt>
<totfact> 0.16766869E+02</totfact>
</mgrwt>
</event>
<event>
 8    1  0.3754098E-007  0.1255716E+03  0.7546771E-02  0.1234196E+00
         -5   -1    0    0    0  501 -0.00000000000E+00  0.00000000000E+00  0.34299418459E+03  0.34302638479E+03  0.47000000000E+01 0.  1.
          5   -1    0    0  501    0  0.00000000000E+00 -0.00000000000E+00 -0.45886278956E+02  0.46126354684E+02  0.47000000000E+01 0.  1.
         25    2    1    2    0    0 -0.96903751864E+01 -0.71008186397E+01  0.14019743288E+03  0.18818228360E+03  0.12495169738E+03 0.  0.
         25    2    1    2    0    0  0.96903751864E+01  0.71008186397E+01  0.15691047276E+03  0.20097045588E+03  0.12499561064E+03 0.  0.
          5    1    4    4  502    0  0.88271007493E+01 -0.28790962137E+02  0.16160944938E+03  0.16445832705E+03  0.47000000000E+01 0. -1.
         -5    1    4    4    0  502  0.86327443707E+00  0.35891780777E+02 -0.46989766224E+01  0.36512128826E+02  0.47000000000E+01 0. -1.
          5    1    3    3  503    0 -0.23199390948E+02 -0.31452884981E+02  0.15241101237E+03  0.15741252302E+03  0.47000000000E+01 0. -1.
         -5    1    3    3    0  503  0.13509015762E+02  0.24352066342E+02 -0.12213579486E+02  0.30769760575E+02  0.47000000000E+01 0. -1.
<mgrwt>
<rscale>  0 0.12556067E+03</rscale>
<asrwt>0</asrwt>
<pdfrwt beam="2">  1        5 0.70803717E-02 0.12557160E+03</pdfrwt>
<pdfrwt beam="1">  1       -5 0.52789281E-01 0.12557160E+03</pdfrwt>
<totfact> 0.34586277E+02</totfact>
</mgrwt>
</event>
<event>
 8    1  0.3754098E-007  0.1285197E+03  0.7546771E-02  0.1229672E+00
         -5   -1    0    0    0  501 -0.00000000000E+00  0.00000000000E+00  0.46324795562E+02  0.46562610364E+02  0.47000000000E+01 0.  1.
          5   -1    0    0  501    0  0.00000000000E+00 -0.00000000000E+00 -0.39527208338E+03  0.39530002517E+03  0.47000000000E+01 0.  1.
         25    2    1    2    0    0 -0.57329321433E+00  0.29883612986E+02 -0.10429089238E+03  0.16550406524E+03  0.12498658483E+03 0.  0.
         25    2    1    2    0    0  0.57329321433E+00 -0.29883612986E+02 -0.24465639543E+03  0.27635857029E+03  0.12499579415E+03 0.  0.
          5    1    4    4  502    0  0.68516748020E+01 -0.75319222614E+02 -0.19175321600E+03  0.20618272622E+03  0.47000000000E+01 0.  1.
         -5    1    4    4    0  502 -0.62783815877E+01  0.45435609628E+02 -0.52903179429E+02  0.70175844073E+02  0.47000000000E+01 0.  1.
          5    1    3    3  503    0  0.14696126772E+02 -0.32722788746E+02 -0.93161865692E+02  0.99939883253E+02  0.47000000000E+01 0.  1.
         -5    1    3    3    0  503 -0.15269419986E+02  0.62606401732E+02 -0.11129026689E+02  0.65564181987E+02  0.47000000000E+01 0.  1.
<mgrwt>
<rscale>  0 0.12851744E+03</rscale>
<asrwt>0</asrwt>
<pdfrwt beam="2">  1        5 0.60831530E-01 0.12851968E+03</pdfrwt>
<pdfrwt beam="1">  1       -5 0.71473347E-02 0.12851968E+03</pdfrwt>
<totfact> 0.25261153E+02</totfact>
</mgrwt>
</event>
<event>
 8    1  0.3754098E-007  0.1366688E+03  0.7546771E-02  0.1217894E+00
          5   -1    0    0  501    0  0.00000000000E+00  0.00000000000E+00  0.51641810048E+02  0.51855246071E+02  0.47000000000E+01 0.  1.
         -5   -1    0    0    0  501 -0.00000000000E+00 -0.00000000000E+00 -0.43431922059E+03  0.43434465045E+03  0.47000000000E+01 0.  1.
         25    2    1    2    0    0 -0.52109482756E+02  0.18393365413E+02 -0.29142596484E+03  0.32186733810E+03  0.12496309963E+03 0.  0.
         25    2    1    2    0    0  0.52109482756E+02 -0.18393365413E+02 -0.91251445703E+02  0.16433255842E+03  0.12499859731E+03 0.  0.
          5    1    3    3  502    0  0.34055062359E+02 -0.92671144755E+01 -0.35109057110E+02  0.50003625610E+02  0.47000000000E+01 0. -1.
         -5    1    3    3    0  502 -0.86164545114E+02  0.27660479888E+02 -0.25631690773E+03  0.27186371249E+03  0.47000000000E+01 0. -1.
          5    1    4    4  503    0 -0.22989155078E+02 -0.71312409196E+01 -0.84457527434E+02  0.87946118666E+02  0.47000000000E+01 0.  1.
         -5    1    4    4    0  503  0.75098637834E+02 -0.11262124493E+02 -0.67939182695E+01  0.76386439752E+02  0.47000000000E+01 0.  1.
<mgrwt>
<rscale>  0 0.13666069E+03</rscale>
<asrwt>0</asrwt>
<pdfrwt beam="1">  1        5 0.79632684E-02 0.13666881E+03</pdfrwt>
<pdfrwt beam="2">  1       -5 0.66836713E-01 0.13666881E+03</pdfrwt>
<totfact> 0.17424503E+02</totfact>
</mgrwt>
</event>
<event>
 8    1  0.3754098E-007  0.1354660E+03  0.7546771E-02  0.1219564E+00
         -5   -1    0    0    0  501 -0.00000000000E+00  0.00000000000E+00  0.21615327438E+03  0.21620436635E+03  0.47000000000E+01 0. -1.
          5   -1    0    0  501    0  0.00000000000E+00 -0.00000000000E+00 -0.86184968831E+02  0.86313028289E+02  0.47000000000E+01 0. -1.
         25    2    1    2    0    0  0.52067981797E+02 -0.38484852532E+01  0.84334027338E+02  0.15957152936E+03  0.12499983700E+03 0.  0.
         25    2    1    2    0    0 -0.52067981797E+02  0.38484852532E+01  0.45634278215E+02  0.14294586527E+03  0.12500058993E+03 0.  0.
          5    1    3    3  502    0 -0.43734046487E+01 -0.78669194836E+01  0.10012413725E+03  0.10063770641E+03  0.47000000000E+01 0. -1.
         -5    1    3    3    0  502  0.56441386445E+02  0.40184342305E+01 -0.15790109912E+02  0.58933822959E+02  0.47000000000E+01 0. -1.
          5    1    4    4  503    0 -0.21037582282E+01 -0.46710438267E+02  0.53578331570E+02  0.71267232693E+02  0.47000000000E+01 0. -1.
         -5    1    4    4    0  503 -0.49964223568E+02  0.50558923521E+02 -0.79440533558E+01  0.71678632577E+02  0.47000000000E+01 0. -1.
<mgrwt>
<rscale>  0 0.13546581E+03</rscale>
<asrwt>0</asrwt>
<pdfrwt beam="2">  1        5 0.13273007E-01 0.13546598E+03</pdfrwt>
<pdfrwt beam="1">  1       -5 0.33268131E-01 0.13546598E+03</pdfrwt>
<totfact> 0.30816715E+02</totfact>
</mgrwt>
</event>
<event>
 8    1  0.3754098E-007  0.1534222E+03  0.7546771E-02  0.1196333E+00
          5   -1    0    0  501    0  0.00000000000E+00  0.00000000000E+00  0.19014392608E+03  0.19020200479E+03  0.47000000000E+01 0. -1.
         -5   -1    0    0    0  501 -0.00000000000E+00 -0.00000000000E+00 -0.12822220100E+03  0.12830831162E+03  0.47000000000E+01 0. -1.
         25    2    1    2    0    0  0.46358181254E+02 -0.75900894802E+02  0.94309714455E+00  0.15341408149E+03  0.12499985666E+03 0.  0.
         25    2    1    2    0    0 -0.46358181254E+02  0.75900894802E+02  0.60978627932E+02  0.16509623492E+03  0.12501338696E+03 0.  0.
          5    1    3    3  502    0 -0.27786076409E+02 -0.51123456933E+02  0.34944231939E+02  0.68035749697E+02  0.47000000000E+01 0.  1.
         -5    1    3    3    0  502  0.74144257663E+02 -0.24777437869E+02 -0.34001134795E+02  0.85378331789E+02  0.47000000000E+01 0.  1.
          5    1    4    4  503    0  0.65029814713E+01  0.29376918460E+02 -0.34723458355E+02  0.46185502772E+02  0.47000000000E+01 0. -1.
         -5    1    4    4    0  503 -0.52861162725E+02  0.46523976343E+02  0.95702086287E+02  0.11891073214E+03  0.47000000000E+01 0. -1.
<mgrwt>
<rscale>  0 0.15341945E+03</rscale>
<asrwt>0</asrwt>
<pdfrwt beam="1">  1        5 0.29264003E-01 0.15342221E+03</pdfrwt>
<pdfrwt beam="2">  1       -5 0.19737584E-01 0.15342221E+03</pdfrwt>
<totfact> 0.20053932E+02</totfact>
</mgrwt>
</event>
<event>
 8    1  0.3754098E-007  0.1388418E+03  0.7546771E-02  0.1214899E+00
         -5   -1    0    0    0  501 -0.00000000000E+00  0.00000000000E+00  0.74515545847E+03  0.74517028073E+03  0.47000000000E+01 0. -1.
          5   -1    0    0  501    0  0.00000000000E+00 -0.00000000000E+00 -0.26130284874E+02  0.26549609933E+02  0.47000000000E+01 0. -1.
         25    2    1    2    0    0 -0.73905009023E+01 -0.59958586214E+02  0.41193519347E+03  0.43470163433E+03  0.12500102282E+03 0.  0.
         25    2    1    2    0    0  0.73905009023E+01  0.59958586214E+02  0.30708998013E+03  0.33701825633E+03  0.12500959021E+03 0.  0.
          5    1    4    4  502    0 -0.37107113107E+02  0.13388785287E+02  0.23479027161E+02  0.46147070666E+02  0.47000000000E+01 0. -1.
         -5    1    4    4    0  502  0.44497614009E+02  0.46569800927E+02  0.28361095296E+03  0.29087118567E+03  0.47000000000E+01 0. -1.
          5    1    3    3  503    0  0.74792841964E+01 -0.20340877473E+02  0.16763387011E+01  0.22239404217E+02  0.47000000000E+01 0. -1.
         -5    1    3    3    0  503 -0.14869785099E+02 -0.39617708741E+02  0.41025885477E+03  0.41246223012E+03  0.47000000000E+01 0. -1.
<mgrwt>
<rscale>  0 0.13883989E+03</rscale>
<asrwt>0</asrwt>
<pdfrwt beam="2">  1        5 0.40534397E-02 0.13884181E+03</pdfrwt>
<pdfrwt beam="1">  1       -5 0.11467270E+00 0.13884181E+03</pdfrwt>
<totfact> 0.15154848E+02</totfact>
</mgrwt>
</event>
<event>
 8    1  0.3754098E-007  0.1282439E+03  0.7546771E-02  0.1230089E+00
          5   -1    0    0  501    0  0.00000000000E+00  0.00000000000E+00  0.99357987118E+02  0.99469088686E+02  0.47000000000E+01 0. -1.
         -5   -1    0    0    0  501 -0.00000000000E+00 -0.00000000000E+00 -0.16666967339E+03  0.16673592903E+03  0.47000000000E+01 0. -1.
         25    2    1    2    0    0 -0.24737685423E+02  0.14414396689E+02 -0.45810013597E+02  0.13617114844E+03  0.12499718561E+03 0.  0.
         25    2    1    2    0    0  0.24737685423E+02 -0.14414396689E+02 -0.21501672680E+02  0.13003386927E+03  0.12500702908E+03 0.  0.
          5    1    4    4  502    0 -0.50716245106E+02 -0.22600472755E+01 -0.20211958651E+01  0.51023725502E+02  0.47000000000E+01 0.  1.
         -5    1    4    4    0  502  0.75453930529E+02 -0.12154349413E+02 -0.19480476815E+02  0.79010143772E+02  0.47000000000E+01 0.  1.
          5    1    3    3  503    0 -0.47861252266E+01 -0.55221431973E+02 -0.20972007234E+02  0.59449378729E+02  0.47000000000E+01 0.  1.
         -5    1    3    3    0  503 -0.19951560196E+02  0.69635828662E+02 -0.24838006363E+02  0.76721769713E+02  0.47000000000E+01 0.  1.
<mgrwt>
<rscale>  0 0.12824145E+03</rscale>
<asrwt>0</asrwt>
<pdfrwt beam="1">  1        5 0.15299487E-01 0.12824385E+03</pdfrwt>
<pdfrwt beam="2">  1       -5 0.25655131E-01 0.12824385E+03</pdfrwt>
<totfact> 0.38877631E+02</totfact>
</mgrwt>
</event>
<event>
 8    1  0.3754098E-007  0.1452710E+03  0.7546771E-02  0.1206409E+00
          5   -1    0    0  501    0  0.00000000000E+00  0.00000000000E+00  0.24745009371E+02  0.25187407345E+02  0.47000000000E+01 0.  1.
         -5   -1    0    0    0  501 -0.00000000000E+00 -0.00000000000E+00 -0.87677626086E+03  0.87678885806E+03  0.47000000000E+01 0.  1.
         25    2    1    2    0    0 -0.69211132283E+02 -0.26234178572E+02 -0.51211762479E+03  0.53232331682E+03  0.12500095621E+03 0.  0.
         25    2    1    2    0    0  0.69211132283E+02  0.26234178572E+02 -0.33991362670E+03  0.36965294858E+03  0.12499446315E+03 0.  0.
          5    1    4    4  502    0  0.39460676612E+02  0.59801666270E+02 -0.87249452289E+02  0.11299531500E+03  0.47000000000E+01 0.  1.
         -5    1    4    4    0  502  0.29750455672E+02 -0.33567487698E+02 -0.25266417441E+03  0.25665763358E+03  0.47000000000E+01 0.  1.
          5    1    3    3  503    0  0.30972507400E+02 -0.20436744626E+02 -0.22616046461E+03  0.22923263838E+03  0.47000000000E+01 0. -1.
         -5    1    3    3    0  503 -0.10018363968E+03 -0.57974339457E+01 -0.28595716018E+03  0.30309067844E+03  0.47000000000E+01 0. -1.
<mgrwt>
<rscale>  0 0.14526956E+03</rscale>
<asrwt>0</asrwt>
<pdfrwt beam="1">  1        5 0.38419248E-02 0.14527096E+03</pdfrwt>
<pdfrwt beam="2">  1       -5 0.13492363E+00 0.14527096E+03</pdfrwt>
<totfact> 0.11044772E+02</totfact>
</mgrwt>
</event>
<event>
 8    1  0.3754098E-007  0.1397593E+03  0.7546771E-02  0.1213662E+00
          5   -1    0    0  501    0  0.00000000000E+00  0.00000000000E+00  0.85819783345E+02  0.85948386916E+02  0.47000000000E+01 0.  1.
         -5   -1    0    0    0  501 -0.00000000000E+00 -0.00000000000E+00 -0.22889010576E+03  0.22893835527E+03  0.47000000000E+01 0.  1.
         25    2    1    2    0    0  0.61833452594E+02 -0.92795479383E+01 -0.58161608235E+02  0.15137848489E+03  0.12499274838E+03 0.  0.
         25    2    1    2    0    0 -0.61833452594E+02  0.92795479383E+01 -0.84908714181E+02  0.16350825730E+03  0.12496389315E+03 0.  0.
          5    1    4    4  502    0 -0.93523061463E+02 -0.95704445055E+01 -0.84258862483E+02  0.12633211128E+03  0.47000000000E+01 0. -1.
         -5    1    4    4    0  502  0.31689608869E+02  0.18849992444E+02 -0.64985169815E+00  0.37176146016E+02  0.47000000000E+01 0. -1.
          5    1    3    3  503    0  0.91948389797E+02 -0.29986703882E+02 -0.21069434350E+02  0.99094499644E+02  0.47000000000E+01 0.  1.
         -5    1    3    3    0  503 -0.30114937203E+02  0.20707155943E+02 -0.37092173885E+02  0.52283985249E+02  0.47000000000E+01 0.  1.
<mgrwt>
<rscale>  0 0.13975289E+03</rscale>
<asrwt>0</asrwt>
<pdfrwt beam="1">  1        5 0.13216648E-01 0.13975934E+03</pdfrwt>
<pdfrwt beam="2">  1       -5 0.35227466E-01 0.13975934E+03</pdfrwt>
<totfact> 0.27993605E+02</totfact>
</mgrwt>
</event>
<event>
 8    1  0.3754098E-007  0.1554893E+03  0.7546771E-02  0.1193887E+00
          5   -1    0    0  501    0  0.00000000000E+00  0.00000000000E+00  0.17072956058E+03  0.17079424129E+03  0.47000000000E+01 0. -1.
         -5   -1    0    0    0  501 -0.00000000000E+00 -0.00000000000E+00 -0.14941432036E+03  0.14948822404E+03  0.47000000000E+01 0. -1.
         25    2    1    2    0    0  0.20901195939E+02  0.90080807654E+02 -0.26245174867E+02  0.15768196403E+03  0.12499352254E+03 0.  0.
         25    2    1    2    0    0 -0.20901195939E+02 -0.90080807654E+02  0.47560415093E+02  0.16260050130E+03  0.12500207214E+03 0.  0.
          5    1    3    3  502    0  0.72942657817E+01 -0.30866705162E+02  0.36366559004E+01  0.32268794012E+02  0.47000000000E+01 0. -1.
         -5    1    3    3    0  502  0.13606930157E+02  0.12094751282E+03 -0.29881830767E+02  0.12541317002E+03  0.47000000000E+01 0. -1.
          5    1    4    4  503    0 -0.69403319934E+02 -0.79377720813E+02  0.34279897429E+02  0.11097227017E+03  0.47000000000E+01 0.  1.
         -5    1    4    4    0  503  0.48502123996E+02 -0.10703086841E+02  0.13280517664E+02  0.51628231128E+02  0.47000000000E+01 0.  1.
<mgrwt>
<rscale>  0 0.15548761E+03</rscale>
<asrwt>0</asrwt>
<pdfrwt beam="1">  1        5 0.26276747E-01 0.15548932E+03</pdfrwt>
<pdfrwt beam="2">  1       -5 0.22997479E-01 0.15548932E+03</pdfrwt>
<totfact> 0.18622400E+02</totfact>
</mgrwt>
</event>
<event>
 8    1  0.3754098E-007  0.1601332E+03  0.7546771E-02  0.1188548E+00
         -5   -1    0    0    0  501 -0.00000000000E+00  0.00000000000E+00  0.88355763666E+02  0.88480681355E+02  0.47000000000E+01 0.  1.
          5   -1    0    0  501    0  0.00000000000E+00 -0.00000000000E+00 -0.42790955884E+03  0.42793536959E+03  0.47000000000E+01 0.  1.
         25    2    1    2    0    0 -0.25731071018E+02  0.96715075453E+02 -0.23144929511E+02  0.16179340597E+03  0.12500209846E+03 0.  0.
         25    2    1    2    0    0  0.25731071018E+02 -0.96715075453E+02 -0.31640886566E+03  0.35462264497E+03  0.12500702469E+03 0.  0.
          5    1    3    3  502    0 -0.10566296908E+02  0.11313755193E+03  0.17601622421E+02  0.11508109922E+03  0.47000000000E+01 0. -1.
         -5    1    3    3    0  502 -0.15164774110E+02 -0.16422476475E+02 -0.40746551933E+02  0.46712306749E+02  0.47000000000E+01 0. -1.
          5    1    4    4  503    0  0.22433894445E+02 -0.12488751155E+03 -0.28520427916E+03  0.31219183367E+03  0.47000000000E+01 0.  1.
         -5    1    4    4    0  503  0.32971765732E+01  0.28172436095E+02 -0.31204586509E+02  0.42430811306E+02  0.47000000000E+01 0.  1.
<mgrwt>
<rscale>  0 0.16013226E+03</rscale>
<asrwt>0</asrwt>
<pdfrwt beam="2">  1        5 0.65843833E-01 0.16013323E+03</pdfrwt>
<pdfrwt beam="1">  1       -5 0.13604789E-01 0.16013323E+03</pdfrwt>
<totfact> 0.74063105E+01</totfact>
</mgrwt>
</event>
<event>
 8    1  0.3754098E-007  0.1415507E+03  0.7546771E-02  0.1211258E+00
         -5   -1    0    0    0  501 -0.00000000000E+00  0.00000000000E+00  0.31146548858E+02  0.31499166748E+02  0.47000000000E+01 0. -1.
          5   -1    0    0  501    0  0.00000000000E+00 -0.00000000000E+00 -0.81511618998E+03  0.81512974008E+03  0.47000000000E+01 0. -1.
         25    2    1    2    0    0 -0.64140424463E+02  0.17310273928E+02 -0.19543885477E+03  0.24131505044E+03  0.12499187166E+03 0.  0.
         25    2    1    2    0    0  0.64140424463E+02 -0.17310273928E+02 -0.58853078635E+03  0.60531385639E+03  0.12499095416E+03 0.  0.
          5    1    4    4  502    0  0.41221875630E+02 -0.43914812318E+02 -0.54866315487E+03  0.55197925802E+03  0.47000000000E+01 0. -1.
         -5    1    4    4    0  502  0.22918548833E+02  0.26604538390E+02 -0.39867631478E+02  0.53334598370E+02  0.47000000000E+01 0. -1.
          5    1    3    3  503    0 -0.10170481734E+03  0.14297288389E+02 -0.13112778483E+03  0.16662793367E+03  0.47000000000E+01 0. -1.
         -5    1    3    3    0  503  0.37564392876E+02  0.30129855388E+01 -0.64311069939E+02  0.74687116766E+02  0.47000000000E+01 0. -1.
<mgrwt>
<rscale>  0 0.14155052E+03</rscale>
<asrwt>0</asrwt>
<pdfrwt beam="2">  1        5 0.12543064E+00 0.14155072E+03</pdfrwt>
<pdfrwt beam="1">  1       -5 0.48199441E-02 0.14155072E+03</pdfrwt>
<totfact> 0.91187807E+01</totfact>
</mgrwt>
</event>
<event>
 8    1  0.3754098E-007  0.1535992E+03  0.7546771E-02  0.1196120E+00
          5   -1    0    0  501    0  0.00000000000E+00  0.00000000000E+00  0.14024238473E+03  0.14032111913E+03  0.47000000000E+01 0.  1.
         -5   -1    0    0    0  501 -0.00000000000E+00 -0.00000000000E+00 -0.19443459555E+03  0.19449139299E+03  0.47000000000E+01 0.  1.
         25    2    1    2    0    0  0.56869803965E+02  0.68791952397E+02 -0.88723931912E+02  0.17738274383E+03  0.12500477749E+03 0.  0.
         25    2    1    2    0    0 -0.56869803965E+02 -0.68791952397E+02  0.34531721093E+02  0.15742976830E+03  0.12500073946E+03 0.  0.
          5    1    4    4  502    0 -0.94189275158E+01 -0.18220302507E+02 -0.46279572752E+02  0.50838808730E+02  0.47000000000E+01 0. -1.
         -5    1    4    4    0  502 -0.47450876449E+02 -0.50571649890E+02  0.80811293845E+02  0.10659095957E+03  0.47000000000E+01 0. -1.
          5    1    3    3  503    0  0.92307562885E+02  0.22797644249E+02 -0.58813239946E+02  0.11189953504E+03  0.47000000000E+01 0. -1.
         -5    1    3    3    0  503 -0.35437758920E+02  0.45994308148E+02 -0.29910691965E+02  0.65483208788E+02  0.47000000000E+01 0. -1.
<mgrwt>
<rscale>  0 0.15359834E+03</rscale>
<asrwt>0</asrwt>
<pdfrwt beam="1">  1        5 0.21586177E-01 0.15359916E+03</pdfrwt>
<pdfrwt beam="2">  1       -5 0.29923440E-01 0.15359916E+03</pdfrwt>
<totfact> 0.16232817E+02</totfact>
</mgrwt>
</event>
<event>
 8    1  0.3754098E-007  0.1271131E+03  0.7546771E-02  0.1231804E+00
          5   -1    0    0  501    0  0.00000000000E+00  0.00000000000E+00  0.28140072814E+03  0.28143997548E+03  0.47000000000E+01 0. -1.
         -5   -1    0    0    0  501 -0.00000000000E+00 -0.00000000000E+00 -0.73493470833E+02  0.73643602948E+02  0.47000000000E+01 0. -1.
         25    2    1    2    0    0  0.20261822035E+02 -0.11060132236E+02  0.20680891882E+02  0.12878443681E+03  0.12499945567E+03 0.  0.
         25    2    1    2    0    0 -0.20261822035E+02  0.11060132236E+02  0.18722636542E+03  0.22629914161E+03  0.12499888651E+03 0.  0.
          5    1    4    4  502    0  0.25054373553E+02 -0.46905116880E+02  0.79155638703E+02  0.95475215433E+02  0.47000000000E+01 0.  1.
         -5    1    4    4    0  502 -0.45316195588E+02  0.57965249116E+02  0.10807072672E+03  0.13082392618E+03  0.47000000000E+01 0.  1.
          5    1    3    3  503    0  0.56473353799E+02 -0.12374148812E+02 -0.30784820843E+02  0.65666996600E+02  0.47000000000E+01 0. -1.
         -5    1    3    3    0  503 -0.36211531764E+02  0.13140165754E+01  0.51465712725E+02  0.63117440209E+02  0.47000000000E+01 0. -1.
<mgrwt>
<rscale>  0 0.12711293E+03</rscale>
<asrwt>0</asrwt>
<pdfrwt beam="1">  1        5 0.43306988E-01 0.12711307E+03</pdfrwt>
<pdfrwt beam="2">  1       -5 0.11321255E-01 0.12711307E+03</pdfrwt>
<totfact> 0.23405984E+02</totfact>
</mgrwt>
</event>
<event>
 8    1  0.3754098E-007  0.1425734E+03  0.7546771E-02  0.1209913E+00
         -5   -1    0    0    0  501 -0.00000000000E+00  0.00000000000E+00  0.26893747914E+03  0.26897854503E+03  0.47000000000E+01 0.  1.
          5   -1    0    0  501    0  0.00000000000E+00 -0.00000000000E+00 -0.11006131330E+03  0.11016162074E+03  0.47000000000E+01 0.  1.
         25    2    1    2    0    0 -0.57784131828E+02  0.36872455679E+02  0.18565494981E+03  0.23407371779E+03  0.12499664431E+03 0.  0.
         25    2    1    2    0    0  0.57784131828E+02 -0.36872455679E+02 -0.26778783966E+02  0.14506644799E+03  0.12501434791E+03 0.  0.
          5    1    3    3  502    0 -0.96461630498E+02  0.19965147218E+02  0.14440642963E+03  0.17486783632E+03  0.47000000000E+01 0.  1.
         -5    1    3    3    0  502  0.38677498670E+02  0.16907308461E+02  0.41248520185E+02  0.59205881467E+02  0.47000000000E+01 0.  1.
          5    1    4    4  503    0  0.22687656029E+02  0.44274131381E+02  0.66891722690E+01  0.50415904944E+02  0.47000000000E+01 0. -1.
         -5    1    4    4    0  503  0.35096475798E+02 -0.81146587060E+02 -0.33467956235E+02  0.94650543049E+02  0.47000000000E+01 0. -1.
<mgrwt>
<rscale>  0 0.14256951E+03</rscale>
<asrwt>0</asrwt>
<pdfrwt beam="2">  1        5 0.16943385E-01 0.14257339E+03</pdfrwt>
<pdfrwt beam="1">  1       -5 0.41385871E-01 0.14257339E+03</pdfrwt>
<totfact> 0.12954162E+02</totfact>
</mgrwt>
</event>
<event>
 8    1  0.3754098E-007  0.1505860E+03  0.7546771E-02  0.1199756E+00
         -5   -1    0    0    0  501 -0.00000000000E+00  0.00000000000E+00  0.72229585668E+01  0.86174898003E+01  0.47000000000E+01 0.  1.
          5   -1    0    0  501    0  0.00000000000E+00 -0.00000000000E+00 -0.30182682880E+04  0.30182719474E+04  0.47000000000E+01 0.  1.
         25    2    1    2    0    0 -0.35112181481E+02 -0.76285359567E+02 -0.11608036503E+04  0.11705303279E+04  0.12499525003E+03 0.  0.
         25    2    1    2    0    0  0.35112181481E+02  0.76285359567E+02 -0.18502416791E+04  0.18563591093E+04  0.12499020028E+03 0.  0.
          5    1    4    4  502    0  0.64778798268E+02  0.94991872192E+02 -0.13824530796E+04  0.13872340667E+04  0.47000000000E+01 0.  1.
         -5    1    4    4    0  502 -0.29666616787E+02 -0.18706512626E+02 -0.46778859954E+03  0.46912504263E+03  0.47000000000E+01 0.  1.
          5    1    3    3  503    0  0.36485278403E+02 -0.48196266324E+02 -0.28692390469E+03  0.29326007691E+03  0.47000000000E+01 0. -1.
         -5    1    3    3    0  503 -0.71597459884E+02 -0.28089093243E+02 -0.87387974565E+03  0.87727025099E+03  0.47000000000E+01 0. -1.
<mgrwt>
<rscale>  0 0.15058492E+03</rscale>
<asrwt>0</asrwt>
<pdfrwt beam="2">  1        5 0.46445560E+00 0.15058597E+03</pdfrwt>
<pdfrwt beam="1">  1       -5 0.12187799E-02 0.15058597E+03</pdfrwt>
<totfact> 0.37827752E+00</totfact>
</mgrwt>
</event>
<event>
 8    1  0.3754098E-007  0.1317718E+03  0.7546771E-02  0.1224858E+00
          5   -1    0    0  501    0  0.00000000000E+00  0.00000000000E+00  0.36654160056E+02  0.36954261587E+02  0.47000000000E+01 0. -1.
         -5   -1    0    0    0  501 -0.00000000000E+00 -0.00000000000E+00 -0.48017951951E+03  0.48020252077E+03  0.47000000000E+01 0. -1.
         25    2    1    2    0    0  0.24312056675E+02  0.33886021005E+02 -0.25673502248E+03  0.28857699477E+03  0.12499788649E+03 0.  0.
         25    2    1    2    0    0 -0.24312056675E+02 -0.33886021005E+02 -0.18679033698E+03  0.22857978759E+03  0.12497500065E+03 0.  0.
          5    1    3    3  502    0 -0.25704307927E+02  0.51278634319E+02 -0.21016143745E+03  0.21789935652E+03  0.47000000000E+01 0. -1.
         -5    1    3    3    0  502  0.50016364602E+02 -0.17392613314E+02 -0.46573585032E+02  0.70677638250E+02  0.47000000000E+01 0. -1.
          5    1    4    4  503    0 -0.61131578640E+02 -0.16888520701E+02 -0.17483220584E+03  0.18603946419E+03  0.47000000000E+01 0.  1.
         -5    1    4    4    0  503  0.36819521965E+02 -0.16997500304E+02 -0.11958131139E+02  0.42540323396E+02  0.47000000000E+01 0.  1.
<mgrwt>
<rscale>  0 0.13176638E+03</rscale>
<asrwt>0</asrwt>
<pdfrwt beam="1">  1        5 0.56639560E-02 0.13177181E+03</pdfrwt>
<pdfrwt beam="2">  1       -5 0.73898622E-01 0.13177181E+03</pdfrwt>
<totfact> 0.24434413E+02</totfact>
</mgrwt>
</event>
<event>
 8    1  0.3754098E-007  0.1634346E+03  0.7546771E-02  0.1184875E+00
         -5   -1    0    0    0  501 -0.00000000000E+00  0.00000000000E+00  0.36223191279E+02  0.36526833786E+02  0.47000000000E+01 0.  1.
          5   -1    0    0  501    0  0.00000000000E+00 -0.00000000000E+00 -0.78226369304E+03  0.78227781219E+03  0.47000000000E+01 0.  1.
         25    2    1    2    0    0  0.93971197822E+02  0.47502718281E+02 -0.27131637498E+03  0.31673507144E+03  0.12498574270E+03 0.  0.
         25    2    1    2    0    0 -0.93971197822E+02 -0.47502718281E+02 -0.47472412678E+03  0.50206957454E+03  0.12499506740E+03 0.  0.
          5    1    4    4  502    0 -0.11667196012E+03 -0.60639620170E+02 -0.33665665416E+03  0.36145442673E+03  0.47000000000E+01 0. -1.
         -5    1    4    4    0  502  0.22700762298E+02  0.13136901888E+02 -0.13806747261E+03  0.14061514781E+03  0.47000000000E+01 0. -1.
          5    1    3    3  503    0  0.80460058761E+02  0.48636575295E+02 -0.76252351970E+02  0.12114391728E+03  0.47000000000E+01 0. -1.
         -5    1    3    3    0  503  0.13511139061E+02 -0.11338570138E+01 -0.19506402302E+03  0.19559115416E+03  0.47000000000E+01 0. -1.
<mgrwt>
<rscale>  0 0.16343279E+03</rscale>
<asrwt>0</asrwt>
<pdfrwt beam="2">  1        5 0.12037269E+00 0.16343458E+03</pdfrwt>
<pdfrwt beam="1">  1       -5 0.55972425E-02 0.16343458E+03</pdfrwt>
<totfact> 0.82514262E+01</totfact>
</mgrwt>
</event>
<event>
 8    1  0.3754098E-007  0.1340457E+03  0.7546771E-02  0.1221582E+00
          5   -1    0    0  501    0  0.00000000000E+00  0.00000000000E+00  0.11035381140E+03  0.11045385322E+03  0.47000000000E+01 0.  1.
         -5   -1    0    0    0  501 -0.00000000000E+00 -0.00000000000E+00 -0.16805682587E+03  0.16812253484E+03  0.47000000000E+01 0.  1.
         25    2    1    2    0    0  0.31389176419E+02 -0.36821237917E+02 -0.53965838682E+02  0.14447863196E+03  0.12498271636E+03 0.  0.
         25    2    1    2    0    0 -0.31389176419E+02  0.36821237917E+02 -0.37371757910E+01  0.13409775611E+03  0.12500863071E+03 0.  0.
          5    1    4    4  502    0 -0.31328201030E+02 -0.22497752719E+02  0.43351176169E+02  0.58215286072E+02  0.47000000000E+01 0.  1.
         -5    1    4    4    0  502 -0.60975388566E-01  0.59318990636E+02 -0.47088351960E+02  0.75882470033E+02  0.47000000000E+01 0.  1.
          5    1    3    3  503    0  0.14490120875E+01 -0.28990185969E+02 -0.91206896108E+02  0.95829632245E+02  0.47000000000E+01 0.  1.
         -5    1    3    3    0  503  0.29940164331E+02 -0.78310519485E+01  0.37241057426E+02  0.48648999712E+02  0.47000000000E+01 0.  1.
<mgrwt>
<rscale>  0 0.13403963E+03</rscale>
<asrwt>0</asrwt>
<pdfrwt beam="1">  1        5 0.16990259E-01 0.13404567E+03</pdfrwt>
<pdfrwt beam="2">  1       -5 0.25867646E-01 0.13404567E+03</pdfrwt>
<totfact> 0.32125101E+02</totfact>
</mgrwt>
</event>
<event>
 8    1  0.3754098E-007  0.1400532E+03  0.7546771E-02  0.1213259E+00
          5   -1    0    0  501    0  0.00000000000E+00  0.00000000000E+00  0.10193028888E+03  0.10203858972E+03  0.47000000000E+01 0. -1.
         -5   -1    0    0    0  501 -0.00000000000E+00 -0.00000000000E+00 -0.21734165928E+03  0.21739247194E+03  0.47000000000E+01 0. -1.
         25    2    1    2    0    0 -0.45109139324E+02 -0.44201349693E+02 -0.11202019986E+03  0.17934162038E+03  0.12500519132E+03 0.  0.
         25    2    1    2    0    0  0.45109139324E+02  0.44201349693E+02 -0.33911705330E+01  0.14008944128E+03  0.12499983103E+03 0.  0.
          5    1    3    3  502    0 -0.74216590014E+02 -0.62722394021E+02 -0.10622820833E+03  0.14404417097E+03  0.47000000000E+01 0. -1.
         -5    1    3    3    0  502  0.29107450691E+02  0.18521044328E+02 -0.57919915286E+01  0.35297449406E+02  0.47000000000E+01 0. -1.
          5    1    4    4  503    0 -0.40584416132E+02 -0.48570925365E+01  0.71762313989E+00  0.41149619241E+02  0.47000000000E+01 0.  1.
         -5    1    4    4    0  503  0.85693555456E+02  0.49058442230E+02 -0.41087936729E+01  0.98939822044E+02  0.47000000000E+01 0.  1.
<mgrwt>
<rscale>  0 0.14005198E+03</rscale>
<asrwt>0</asrwt>
<pdfrwt beam="1">  1        5 0.15693822E-01 0.14005317E+03</pdfrwt>
<pdfrwt beam="2">  1       -5 0.33449418E-01 0.14005317E+03</pdfrwt>
<totfact> 0.22791386E+02</totfact>
</mgrwt>
</event>
<event>
 8    1  0.3754098E-007  0.1788280E+03  0.7546771E-02  0.1168948E+00
          5   -1    0    0  501    0  0.00000000000E+00  0.00000000000E+00  0.11022790444E+03  0.11032806043E+03  0.47000000000E+01 0. -1.
         -5   -1    0    0    0  501 -0.00000000000E+00 -0.00000000000E+00 -0.34651427758E+03  0.34654615071E+03  0.47000000000E+01 0. -1.
         25    2    1    2    0    0  0.12730397818E+03 -0.11874075364E+02 -0.21050891294E+03  0.27619788104E+03  0.12499588207E+03 0.  0.
         25    2    1    2    0    0 -0.12730397818E+03  0.11874075364E+02 -0.25777460196E+02  0.18067633010E+03  0.12502864583E+03 0.  0.
          5    1    4    4  502    0  0.21517659497E+02  0.19933902596E+02 -0.36482675419E+01  0.29929416950E+02  0.47000000000E+01 0. -1.
         -5    1    4    4    0  502 -0.14882163768E+03 -0.80598272316E+01 -0.22129192654E+02  0.15074691315E+03  0.47000000000E+01 0. -1.
          5    1    3    3  503    0  0.46762928023E+02  0.10441803055E+01  0.34821580761E+01  0.47138913593E+02  0.47000000000E+01 0. -1.
         -5    1    3    3    0  503  0.80541050158E+02 -0.12918255669E+02 -0.21399107102E+03  0.22905896744E+03  0.47000000000E+01 0. -1.
<mgrwt>
<rscale>  0 0.17882229E+03</rscale>
<asrwt>0</asrwt>
<pdfrwt beam="1">  1        5 0.16968295E-01 0.17882801E+03</pdfrwt>
<pdfrwt beam="2">  1       -5 0.53320044E-01 0.17882801E+03</pdfrwt>
<totfact> 0.81237055E+01</totfact>
</mgrwt>
</event>
<event>
 8    1  0.3754098E-007  0.1692778E+03  0.7546771E-02  0.1178604E+00
         -5   -1    0    0    0  501 -0.00000000000E+00  0.00000000000E+00  0.31400360466E+03  0.31403877744E+03  0.47000000000E+01 0. -1.
          5   -1    0    0  501    0  0.00000000000E+00 -0.00000000000E+00 -0.12595753988E+03  0.12604519766E+03  0.47000000000E+01 0. -1.
         25    2    1    2    0    0  0.66663061096E+02 -0.92658407114E+02  0.20962378567E+03  0.26943643009E+03  0.12499725684E+03 0.  0.
         25    2    1    2    0    0 -0.66663061096E+02  0.92658407114E+02 -0.21577720892E+02  0.17064754502E+03  0.12500176982E+03 0.  0.
          5    1    4    4  502    0 -0.38290822599E+02  0.78057406302E+01 -0.61135007089E+02  0.72709667678E+02  0.47000000000E+01 0. -1.
         -5    1    4    4    0  502 -0.28372238497E+02  0.84852666484E+02  0.39557286196E+02  0.97937877340E+02  0.47000000000E+01 0. -1.
          5    1    3    3  503    0  0.61890627275E+02 -0.12303779556E+03  0.17753802466E+03  0.22474560970E+03  0.47000000000E+01 0.  1.
         -5    1    3    3    0  503  0.47724338212E+01  0.30379388449E+02  0.32085761008E+02  0.44690820384E+02  0.47000000000E+01 0.  1.
<mgrwt>
<rscale>  0 0.16927701E+03</rscale>
<asrwt>0</asrwt>
<pdfrwt beam="2">  1        5 0.19387532E-01 0.16927784E+03</pdfrwt>
<pdfrwt beam="1">  1       -5 0.48317695E-01 0.16927784E+03</pdfrwt>
<totfact> 0.77073996E+01</totfact>
</mgrwt>
</event>
<event>
 8    1  0.3754098E-007  0.1402403E+03  0.7546771E-02  0.1213006E+00
          5   -1    0    0  501    0  0.00000000000E+00  0.00000000000E+00  0.73388387937E+02  0.73538734582E+02  0.47000000000E+01 0.  1.
         -5   -1    0    0    0  501 -0.00000000000E+00 -0.00000000000E+00 -0.27660383225E+03  0.27664376012E+03  0.47000000000E+01 0.  1.
         25    2    1    2    0    0 -0.18050890915E+02  0.60962548855E+02 -0.13328588315E+03  0.19347418496E+03  0.12499946628E+03 0.  0.
         25    2    1    2    0    0  0.18050890915E+02 -0.60962548855E+02 -0.69929561155E+02  0.15670830974E+03  0.12500033518E+03 0.  0.
          5    1    3    3  502    0 -0.45840697506E+02  0.62213732098E+02 -0.14384018212E+03  0.16335239822E+03  0.47000000000E+01 0.  1.
         -5    1    3    3    0  502  0.27789806590E+02 -0.12511832426E+01  0.10554298969E+02  0.30121786743E+02  0.47000000000E+01 0.  1.
          5    1    4    4  503    0 -0.36775422446E+02 -0.44611982211E+00  0.13889538039E+02  0.39593433621E+02  0.47000000000E+01 0.  1.
         -5    1    4    4    0  503  0.54826313361E+02 -0.60516429033E+02 -0.83819099194E+02  0.11711487612E+03  0.47000000000E+01 0.  1.
<mgrwt>
<rscale>  0 0.14024014E+03</rscale>
<asrwt>0</asrwt>
<pdfrwt beam="1">  1        5 0.11305158E-01 0.14024033E+03</pdfrwt>
<pdfrwt beam="2">  1       -5 0.42569072E-01 0.14024033E+03</pdfrwt>
<totfact> 0.25158383E+02</totfact>
</mgrwt>
</event>
<event>
 8    1  0.3754098E-007  0.1279120E+03  0.7546771E-02  0.1230600E+00
          5   -1    0    0  501    0  0.00000000000E+00  0.00000000000E+00  0.28683711964E+03  0.28687562323E+03  0.47000000000E+01 0.  1.
         -5   -1    0    0    0  501 -0.00000000000E+00 -0.00000000000E+00 -0.12929748969E+03  0.12938288465E+03  0.47000000000E+01 0.  1.
         25    2    1    2    0    0  0.21948003393E+02  0.16096468751E+02 -0.76872721485E+02  0.14923437718E+03  0.12498269027E+03 0.  0.
         25    2    1    2    0    0 -0.21948003393E+02 -0.16096468751E+02  0.23441235143E+03  0.26702413069E+03  0.12494768788E+03 0.  0.
          5    1    3    3  502    0 -0.40357718896E+01  0.13941366693E+02 -0.10759235016E+03  0.10866854638E+03  0.47000000000E+01 0.  1.
         -5    1    3    3    0  502  0.25983775283E+02  0.21551020585E+01  0.30719628674E+02  0.40565830803E+02  0.47000000000E+01 0.  1.
          5    1    4    4  503    0 -0.45281858867E+02 -0.59981271371E+02  0.16649569237E+03  0.18273233221E+03  0.47000000000E+01 0.  1.
         -5    1    4    4    0  503  0.23333855473E+02  0.43884802620E+02  0.67916659063E+02  0.84291798477E+02  0.47000000000E+01 0.  1.
<mgrwt>
<rscale>  0 0.12790347E+03</rscale>
<asrwt>0</asrwt>
<pdfrwt beam="1">  1        5 0.44138318E-01 0.12791202E+03</pdfrwt>
<pdfrwt beam="2">  1       -5 0.19901452E-01 0.12791202E+03</pdfrwt>
<totfact> 0.81277982E+01</totfact>
</mgrwt>
</event>
<event>
 8    1  0.3754098E-007  0.1441686E+03  0.7546771E-02  0.1207828E+00
          5   -1    0    0  501    0  0.00000000000E+00  0.00000000000E+00  0.58331002428E+01  0.74909984944E+01  0.47000000000E+01 0. -1.
         -5   -1    0    0    0  501 -0.00000000000E+00 -0.00000000000E+00 -0.31615204860E+04  0.31615239796E+04  0.47000000000E+01 0. -1.
         25    2    1    2    0    0 -0.71825965669E+02  0.74290381989E+00 -0.13922554608E+04  0.13996999109E+04  0.12500020467E+03 0.  0.
         25    2    1    2    0    0  0.71825965669E+02 -0.74290381989E+00 -0.17634319250E+04  0.17693150672E+04  0.12499652685E+03 0.  0.
          5    1    4    4  502    0  0.86245120371E+02 -0.44924197843E+02 -0.11610306326E+04  0.11651054133E+04  0.47000000000E+01 0. -1.
         -5    1    4    4    0  502 -0.14419154702E+02  0.44181294023E+02 -0.60240129239E+03  0.60420965388E+03  0.47000000000E+01 0. -1.
          5    1    3    3  503    0  0.16413151014E+02  0.34510334391E+02 -0.69381727241E+03  0.69488477620E+03  0.47000000000E+01 0.  1.
         -5    1    3    3    0  503 -0.88239116683E+02 -0.33767430571E+02 -0.69843818843E+03  0.70481513472E+03  0.47000000000E+01 0.  1.
<mgrwt>
<rscale>  0 0.14416776E+03</rscale>
<asrwt>0</asrwt>
<pdfrwt beam="1">  1        5 0.10252019E-02 0.14416856E+03</pdfrwt>
<pdfrwt beam="2">  1       -5 0.48651437E+00 0.14416856E+03</pdfrwt>
<totfact> 0.33102299E+00</totfact>
</mgrwt>
</event>
<event>
 8    1  0.3754098E-007  0.1583659E+03  0.7546771E-02  0.1190559E+00
         -5   -1    0    0    0  501 -0.00000000000E+00  0.00000000000E+00  0.17509882144E+03  0.17516188874E+03  0.47000000000E+01 0.  1.
          5   -1    0    0  501    0  0.00000000000E+00 -0.00000000000E+00 -0.14330698196E+03  0.14338403356E+03  0.47000000000E+01 0.  1.
         25    2    1    2    0    0  0.95037609350E+02  0.20554249057E+02  0.22086468509E+02  0.15989858494E+03  0.12500048412E+03 0.  0.
         25    2    1    2    0    0 -0.95037609350E+02 -0.20554249057E+02  0.97053709658E+01  0.15864733736E+03  0.12498063482E+03 0.  0.
          5    1    3    3  502    0 -0.19514991301E+02  0.36494564823E+02  0.13689178428E+02  0.43842579225E+02  0.47000000000E+01 0.  1.
         -5    1    3    3    0  502  0.11455260065E+03 -0.15940315766E+02  0.83972900817E+01  0.11605600572E+03  0.47000000000E+01 0.  1.
          5    1    4    4  503    0  0.12122156395E+02 -0.57334525214E+01  0.43060594261E+02  0.45344502771E+02  0.47000000000E+01 0. -1.
         -5    1    4    4    0  503 -0.10715976575E+03 -0.14820796536E+02 -0.33355223295E+02  0.11330283459E+03  0.47000000000E+01 0. -1.
<mgrwt>
<rscale>  0 0.15836194E+03</rscale>
<asrwt>0</asrwt>
<pdfrwt beam="2">  1        5 0.22058006E-01 0.15836586E+03</pdfrwt>
<pdfrwt beam="1">  1       -5 0.26949059E-01 0.15836586E+03</pdfrwt>
<totfact> 0.19308485E+02</totfact>
</mgrwt>
</event>
<event>
 8    1  0.3754098E-007  0.1298428E+03  0.7546771E-02  0.1227701E+00
          5   -1    0    0  501    0  0.00000000000E+00  0.00000000000E+00  0.58236736808E+03  0.58238633347E+03  0.47000000000E+01 0. -1.
         -5   -1    0    0    0  501 -0.00000000000E+00 -0.00000000000E+00 -0.29223369865E+02  0.29598907856E+02  0.47000000000E+01 0. -1.
         25    2    1    2    0    0 -0.33068714475E+02  0.11845391089E+02  0.31600894454E+03  0.34164427806E+03  0.12500122613E+03 0.  0.
         25    2    1    2    0    0  0.33068714475E+02 -0.11845391089E+02  0.23713505368E+03  0.27034096327E+03  0.12496939452E+03 0.  0.
          5    1    3    3  502    0  0.23828265990E+02  0.90238856952E+01  0.26110287863E+03  0.26238525111E+03  0.47000000000E+01 0.  1.
         -5    1    3    3    0  502 -0.56896980465E+02  0.28215053940E+01  0.54906065909E+02  0.79259026946E+02  0.47000000000E+01 0.  1.
          5    1    4    4  503    0 -0.11546553973E+02  0.21809051585E+02  0.20329243430E+03  0.20483862302E+03  0.47000000000E+01 0. -1.
         -5    1    4    4    0  503  0.44615268448E+02 -0.33654442674E+02  0.33842619386E+02  0.65502340243E+02  0.47000000000E+01 0. -1.
<mgrwt>
<rscale>  0 0.12983517E+03</rscale>
<asrwt>0</asrwt>
<pdfrwt beam="1">  1        5 0.89625326E-01 0.12984283E+03</pdfrwt>
<pdfrwt beam="2">  1       -5 0.45262495E-02 0.12984283E+03</pdfrwt>
<totfact> 0.22548266E+02</totfact>
</mgrwt>
</event>
<event>
 8    1  0.3754098E-007  0.1586502E+03  0.7546771E-02  0.1190230E+00
          5   -1    0    0  501    0  0.00000000000E+00  0.00000000000E+00  0.19533881900E+02  0.20091354909E+02  0.47000000000E+01 0.  1.
         -5   -1    0    0    0  501 -0.00000000000E+00 -0.00000000000E+00 -0.13359568938E+04  0.13359651612E+04  0.47000000000E+01 0.  1.
         25    2    1    2    0    0 -0.35965262715E+02 -0.90840066604E+02 -0.80905490314E+03  0.82446329649E+03  0.12499789254E+03 0.  0.
         25    2    1    2    0    0  0.35965262715E+02  0.90840066604E+02 -0.50736810873E+03  0.53159321965E+03  0.12499414225E+03 0.  0.
          5    1    3    3  502    0 -0.68941257204E+02 -0.72067416481E+02 -0.35416978725E+03  0.36797409917E+03  0.47000000000E+01 0. -1.
         -5    1    3    3    0  502  0.32975994488E+02 -0.18772650123E+02 -0.45488511590E+03  0.45648919732E+03  0.47000000000E+01 0. -1.
          5    1    4    4  503    0  0.33134480682E+02  0.69222443760E+01 -0.36232741185E+03  0.36393550892E+03  0.47000000000E+01 0.  1.
         -5    1    4    4    0  503  0.28307820335E+01  0.83917822228E+02 -0.14504069689E+03  0.16765771073E+03  0.47000000000E+01 0.  1.
<mgrwt>
<rscale>  0 0.15864948E+03</rscale>
<asrwt>0</asrwt>
<pdfrwt beam="1">  1        5 0.30487321E-02 0.15865022E+03</pdfrwt>
<pdfrwt beam="2">  1       -5 0.20557528E+00 0.15865022E+03</pdfrwt>
<totfact> 0.49295680E+01</totfact>
</mgrwt>
</event>
<event>
 8    1  0.3754098E-007  0.1327821E+03  0.7546771E-02  0.1223386E+00
          5   -1    0    0  501    0  0.00000000000E+00  0.00000000000E+00  0.88391916861E+02  0.88516783529E+02  0.47000000000E+01 0.  1.
         -5   -1    0    0    0  501 -0.00000000000E+00 -0.00000000000E+00 -0.20147701807E+03  0.20153183076E+03  0.47000000000E+01 0.  1.
         25    2    1    2    0    0  0.88946030243E+01  0.43867865415E+02 -0.72068591833E+02  0.15107582575E+03  0.12500607832E+03 0.  0.
         25    2    1    2    0    0 -0.88946030243E+01 -0.43867865415E+02 -0.41016509374E+02  0.13897278854E+03  0.12501031291E+03 0.  0.
          5    1    3    3  502    0  0.30554507051E+02  0.15128094762E+02 -0.99692081375E+02  0.10546581551E+03  0.47000000000E+01 0.  1.
         -5    1    3    3    0  502 -0.21659904027E+02  0.28739770653E+02  0.27623489542E+02  0.45610010240E+02  0.47000000000E+01 0.  1.
          5    1    4    4  503    0  0.60980557920E+01  0.41090161710E+02 -0.30896585414E+02  0.51983426821E+02  0.47000000000E+01 0. -1.
         -5    1    4    4    0  503 -0.14992658816E+02 -0.84958027125E+02 -0.10119923960E+02  0.86989361719E+02  0.47000000000E+01 0. -1.
<mgrwt>
<rscale>  0 0.13278109E+03</rscale>
<asrwt>0</asrwt>
<pdfrwt beam="1">  1        5 0.13612578E-01 0.13278208E+03</pdfrwt>
<pdfrwt beam="2">  1       -5 0.31010286E-01 0.13278208E+03</pdfrwt>
<totfact> 0.33617628E+02</totfact>
</mgrwt>
</event>
<event>
 8    1  0.3754098E-007  0.2308542E+03  0.7546771E-02  0.1126048E+00
         -5   -1    0    0    0  501 -0.00000000000E+00  0.00000000000E+00  0.51885247003E+03  0.51887375695E+03  0.47000000000E+01 0. -1.
          5   -1    0    0  501    0  0.00000000000E+00 -0.00000000000E+00 -0.10857786470E+03  0.10867954133E+03  0.47000000000E+01 0. -1.
         25    2    1    2    0    0 -0.16837427247E+03  0.96423274802E+02  0.27859723876E+03  0.36178539868E+03  0.12499963879E+03 0.  0.
         25    2    1    2    0    0  0.16837427247E+03 -0.96423274802E+02  0.13167736656E+03  0.26576789960E+03  0.12508518712E+03 0.  0.
          5    1    3    3  502    0 -0.68048936357E+02  0.49339067099E+02  0.22164654868E+03  0.23709551624E+03  0.47000000000E+01 0. -1.
         -5    1    3    3    0  502 -0.10032533612E+03  0.47084207703E+02  0.56950690087E+02  0.12468988244E+03  0.47000000000E+01 0. -1.
          5    1    4    4  503    0  0.16226186045E+03 -0.59156222670E+02  0.14488792865E+03  0.22548386174E+03  0.47000000000E+01 0. -1.
         -5    1    4    4    0  503  0.61124120219E+01 -0.37267052132E+02 -0.13210562084E+02  0.40284037855E+02  0.47000000000E+01 0. -1.
<mgrwt>
<rscale>  0 0.23084258E+03</rscale>
<asrwt>0</asrwt>
<pdfrwt beam="2">  1        5 0.16713746E-01 0.23085417E+03</pdfrwt>
<pdfrwt beam="1">  1       -5 0.79832915E-01 0.23085417E+03</pdfrwt>
<totfact> 0.36149150E+01</totfact>
</mgrwt>
</event>
<event>
 8    1  0.3754098E-007  0.1281257E+03  0.7546771E-02  0.1230265E+00
          5   -1    0    0  501    0  0.00000000000E+00  0.00000000000E+00  0.39293433484E+03  0.39296244286E+03  0.47000000000E+01 0. -1.
         -5   -1    0    0    0  501 -0.00000000000E+00 -0.00000000000E+00 -0.78088231545E+02  0.78229546246E+02  0.47000000000E+01 0. -1.
         25    2    1    2    0    0 -0.28092092040E+02 -0.14194386700E+01 -0.33528410839E+01  0.12816608931E+03  0.12499649780E+03 0.  0.
         25    2    1    2    0    0  0.28092092040E+02  0.14194386700E+01  0.31819894438E+03  0.34302589980E+03  0.12500007715E+03 0.  0.
          5    1    4    4  502    0  0.70509896568E+02 -0.24583665142E+02  0.15103716153E+03  0.16855360058E+03  0.47000000000E+01 0.  1.
         -5    1    4    4    0  502 -0.42417804528E+02  0.26003103812E+02  0.16716178285E+03  0.17447229921E+03  0.47000000000E+01 0.  1.
          5    1    3    3  503    0 -0.58980778788E+02 -0.18161794956E+02 -0.42710505116E+02  0.75198805242E+02  0.47000000000E+01 0. -1.
         -5    1    3    3    0  503  0.30888686748E+02  0.16742356286E+02  0.39357664032E+02  0.52967284064E+02  0.47000000000E+01 0. -1.
<mgrwt>
<rscale>  0 0.12812485E+03</rscale>
<asrwt>0</asrwt>
<pdfrwt beam="1">  1        5 0.60464469E-01 0.12812572E+03</pdfrwt>
<pdfrwt beam="2">  1       -5 0.12026607E-01 0.12812572E+03</pdfrwt>
<totfact> 0.10377515E+02</totfact>
</mgrwt>
</event>
<event>
 8    1  0.3754098E-007  0.1294930E+03  0.7546771E-02  0.1228211E+00
         -5   -1    0    0    0  501 -0.00000000000E+00  0.00000000000E+00  0.62625595462E+03  0.62627359093E+03  0.47000000000E+01 0. -1.
          5   -1    0    0  501    0  0.00000000000E+00 -0.00000000000E+00 -0.28077574778E+02  0.28468231512E+02  0.47000000000E+01 0. -1.
         25    2    1    2    0    0  0.10773702126E+02  0.32047779605E+02  0.37487360799E+03  0.39660895709E+03  0.12500124017E+03 0.  0.
         25    2    1    2    0    0 -0.10773702126E+02 -0.32047779605E+02  0.22330477185E+03  0.25813286535E+03  0.12499768881E+03 0.  0.
          5    1    3    3  502    0  0.14931821545E+02  0.15478765987E+02  0.37798049613E+03  0.37862104662E+03  0.47000000000E+01 0. -1.
         -5    1    3    3    0  502 -0.41581194184E+01  0.16569013617E+02 -0.31068881350E+01  0.17987910474E+02  0.47000000000E+01 0. -1.
          5    1    4    4  503    0 -0.43863823646E+02 -0.24348078967E+02  0.23844130987E+02  0.55744924045E+02  0.47000000000E+01 0.  1.
         -5    1    4    4    0  503  0.33090121520E+02 -0.76997006375E+01  0.19946064086E+03  0.20238794131E+03  0.47000000000E+01 0.  1.
<mgrwt>
<rscale>  0 0.12949217E+03</rscale>
<asrwt>0</asrwt>
<pdfrwt beam="2">  1        5 0.43510340E-02 0.12949302E+03</pdfrwt>
<pdfrwt beam="1">  1       -5 0.96378478E-01 0.12949302E+03</pdfrwt>
<totfact> 0.20215435E+02</totfact>
</mgrwt>
</event>
<event>
 8    1  0.3754098E-007  0.1346839E+03  0.7546771E-02  0.1220669E+00
          5   -1    0    0  501    0  0.00000000000E+00  0.00000000000E+00  0.62289237444E+01  0.78031718560E+01  0.47000000000E+01 0. -1.
         -5   -1    0    0    0  501 -0.00000000000E+00 -0.00000000000E+00 -0.28818462224E+04  0.28818500550E+04  0.47000000000E+01 0. -1.
         25    2    1    2    0    0 -0.20119408732E+02 -0.45935778588E+02 -0.19023192041E+04  0.19070806137E+04  0.12499290550E+03 0.  0.
         25    2    1    2    0    0  0.20119408732E+02  0.45935778588E+02 -0.97329809460E+03  0.98257261323E+03  0.12499949182E+03 0.  0.
          5    1    4    4  502    0  0.38071236275E+02 -0.33414755921E+02 -0.46632831232E+03  0.46909503282E+03  0.47000000000E+01 0.  1.
         -5    1    4    4    0  502 -0.17951827543E+02  0.79350534509E+02 -0.50696978228E+03  0.51347758041E+03  0.47000000000E+01 0.  1.
          5    1    3    3  503    0 -0.49622277860E+02  0.28148222608E+01 -0.33312936366E+03  0.33684945690E+03  0.47000000000E+01 0.  1.
         -5    1    3    3    0  503  0.29502869127E+02 -0.48750600849E+02 -0.15691898404E+04  0.15702311568E+04  0.47000000000E+01 0.  1.
<mgrwt>
<rscale>  0 0.13468240E+03</rscale>
<asrwt>0</asrwt>
<pdfrwt beam="1">  1        5 0.10796891E-02 0.13468392E+03</pdfrwt>
<pdfrwt beam="2">  1       -5 0.44348140E+00 0.13468392E+03</pdfrwt>
<totfact> 0.64449392E+00</totfact>
</mgrwt>
</event>
<event>
 8    1  0.3754098E-007  0.1295853E+03  0.7546771E-02  0.1228077E+00
         -5   -1    0    0    0  501 -0.00000000000E+00  0.00000000000E+00  0.84953139404E+01  0.97087774177E+01  0.47000000000E+01 0. -1.
          5   -1    0    0  501    0  0.00000000000E+00 -0.00000000000E+00 -0.25187725077E+04  0.25187768927E+04  0.47000000000E+01 0. -1.
         25    2    1    2    0    0 -0.16031067378E+02 -0.30158457075E+02 -0.60074563337E+03  0.61456298648E+03  0.12500328269E+03 0.  0.
         25    2    1    2    0    0  0.16031067378E+02  0.30158457075E+02 -0.19095315604E+04  0.19139226837E+04  0.12499092537E+03 0.  0.
          5    1    3    3  502    0 -0.20855845155E+02 -0.69110796028E+02 -0.21600935213E+03  0.22780122610E+03  0.47000000000E+01 0.  1.
         -5    1    3    3    0  502  0.48247777762E+01  0.38952338953E+02 -0.38473628124E+03  0.38676176038E+03  0.47000000000E+01 0.  1.
          5    1    4    4  503    0  0.63410930422E+02  0.46826937298E+02 -0.11182178651E+04  0.11210026726E+04  0.47000000000E+01 0. -1.
         -5    1    4    4    0  503 -0.47379863044E+02 -0.16668480223E+02 -0.79131369530E+03  0.79292001112E+03  0.47000000000E+01 0. -1.
<mgrwt>
<rscale>  0 0.12958231E+03</rscale>
<asrwt>0</asrwt>
<pdfrwt beam="2">  1        5 0.38759659E+00 0.12958529E+03</pdfrwt>
<pdfrwt beam="1">  1       -5 0.14006540E-02 0.12958529E+03</pdfrwt>
<totfact> 0.10705748E+01</totfact>
</mgrwt>
</event>
<event>
 8    1  0.3754098E-007  0.1364151E+03  0.7546771E-02  0.1218237E+00
         -5   -1    0    0    0  501 -0.00000000000E+00  0.00000000000E+00  0.11836029848E+03  0.11845357849E+03  0.47000000000E+01 0. -1.
          5   -1    0    0  501    0  0.00000000000E+00 -0.00000000000E+00 -0.16136959213E+03  0.16143802298E+03  0.47000000000E+01 0. -1.
         25    2    1    2    0    0  0.13610285149E+02  0.52896584386E+02  0.14330901993E+01  0.13641959792E+03  0.12499985779E+03 0.  0.
         25    2    1    2    0    0 -0.13610285149E+02 -0.52896584386E+02 -0.44442383845E+02  0.14347200355E+03  0.12500320724E+03 0.  0.
          5    1    3    3  502    0 -0.13347326911E+02  0.38306160028E+02 -0.57087786510E+02  0.70189873916E+02  0.47000000000E+01 0.  1.
         -5    1    3    3    0  502  0.26957612060E+02  0.14590424359E+02  0.58520876710E+02  0.66229724005E+02  0.47000000000E+01 0.  1.
          5    1    4    4  503    0 -0.10638584180E+02 -0.85132069469E+02  0.28484729142E+01  0.85970067601E+02  0.47000000000E+01 0. -1.
         -5    1    4    4    0  503 -0.29717009692E+01  0.32235485082E+02 -0.47290856759E+02  0.57501935951E+02  0.47000000000E+01 0. -1.
<mgrwt>
<rscale>  0 0.13641437E+03</rscale>
<asrwt>0</asrwt>
<pdfrwt beam="2">  1        5 0.24838530E-01 0.13641514E+03</pdfrwt>
<pdfrwt beam="1">  1       -5 0.18221716E-01 0.13641514E+03</pdfrwt>
<totfact> 0.30718515E+02</totfact>
</mgrwt>
</event>
<event>
 8    1  0.3754098E-007  0.1292288E+03  0.7546771E-02  0.1228611E+00
          5   -1    0    0  501    0  0.00000000000E+00  0.00000000000E+00  0.86327858067E+02  0.86455705876E+02  0.47000000000E+01 0.  1.
         -5   -1    0    0    0  501 -0.00000000000E+00 -0.00000000000E+00 -0.25144331145E+03  0.25148723402E+03  0.47000000000E+01 0.  1.
         25    2    1    2    0    0 -0.19795219967E+02 -0.26114954967E+02 -0.16390134863E+03  0.20870845547E+03  0.12498690210E+03 0.  0.
         25    2    1    2    0    0  0.19795219967E+02  0.26114954967E+02 -0.12141047541E+01  0.12923448442E+03  0.12500494513E+03 0.  0.
          5    1    3    3  502    0 -0.49066748153E+01  0.48450694488E+02 -0.39707613444E+02  0.63010553240E+02  0.47000000000E+01 0.  1.
         -5    1    3    3    0  502 -0.14888545151E+02 -0.74565649456E+02 -0.12419373519E+03  0.14569790223E+03  0.47000000000E+01 0.  1.
          5    1    4    4  503    0 -0.38777778309E+02 -0.12828177930E+02  0.31232178620E+02  0.51631552572E+02  0.47000000000E+01 0.  1.
         -5    1    4    4    0  503  0.58572998276E+02  0.38943132897E+02 -0.32446283374E+02  0.77602931850E+02  0.47000000000E+01 0.  1.
<mgrwt>
<rscale>  0 0.12922442E+03</rscale>
<asrwt>0</asrwt>
<pdfrwt beam="1">  1        5 0.13294422E-01 0.12922878E+03</pdfrwt>
<pdfrwt beam="2">  1       -5 0.38696799E-01 0.12922878E+03</pdfrwt>
<totfact> 0.22301830E+02</totfact>
</mgrwt>
</event>
<event>
 8    1  0.3754098E-007  0.1395907E+03  0.7546771E-02  0.1213883E+00
          5   -1    0    0  501    0  0.00000000000E+00  0.00000000000E+00  0.47814016828E+03  0.47816326764E+03  0.47000000000E+01 0. -1.
         -5   -1    0    0    0  501 -0.00000000000E+00 -0.00000000000E+00 -0.47712874827E+02  0.47943804858E+02  0.47000000000E+01 0. -1.
         25    2    1    2    0    0  0.62042505659E+02 -0.22187924479E+01  0.11387380936E+03  0.18014222075E+03  0.12501911729E+03 0.  0.
         25    2    1    2    0    0 -0.62042505659E+02  0.22187924479E+01  0.31655348409E+03  0.34596485176E+03  0.12502549665E+03 0.  0.
          5    1    4    4  502    0  0.25548725095E+02  0.24402012584E+02  0.33919978183E+02  0.49202139100E+02  0.47000000000E+01 0.  1.
         -5    1    4    4    0  502 -0.87591230754E+02 -0.22183220136E+02  0.28263350591E+03  0.29676271266E+03  0.47000000000E+01 0.  1.
          5    1    3    3  503    0  0.70096201266E+02  0.39844788058E+02  0.30573356266E+02  0.86359160954E+02  0.47000000000E+01 0.  1.
         -5    1    3    3    0  503 -0.80536956067E+01 -0.42063580506E+02  0.83300453096E+02  0.93783059792E+02  0.47000000000E+01 0.  1.
<mgrwt>
<rscale>  0 0.13958930E+03</rscale>
<asrwt>0</asrwt>
<pdfrwt beam="1">  1        5 0.73579566E-01 0.13959072E+03</pdfrwt>
<pdfrwt beam="2">  1       -5 0.73599831E-02 0.13959072E+03</pdfrwt>
<totfact> 0.16165567E+02</totfact>
</mgrwt>
</event>
<event>
 8    1  0.3754098E-007  0.1316777E+03  0.7546771E-02  0.1224991E+00
         -5   -1    0    0    0  501 -0.00000000000E+00  0.00000000000E+00  0.72030415564E+03  0.72031948927E+03  0.47000000000E+01 0. -1.
          5   -1    0    0  501    0  0.00000000000E+00 -0.00000000000E+00 -0.26463205916E+02  0.26877337431E+02  0.47000000000E+01 0. -1.
         25    2    1    2    0    0  0.41336390620E+02 -0.15337131148E+01  0.46387524791E+03  0.48220015722E+03  0.12500278608E+03 0.  0.
         25    2    1    2    0    0 -0.41336390620E+02  0.15337131148E+01  0.22996570181E+03  0.26499666949E+03  0.12501184490E+03 0.  0.
          5    1    4    4  502    0 -0.17733949128E+02 -0.39783836845E+02  0.20766618389E+03  0.21223708573E+03  0.47000000000E+01 0. -1.
         -5    1    4    4    0  502 -0.23602441493E+02  0.41317549960E+02  0.22299517913E+02  0.52759583757E+02  0.47000000000E+01 0. -1.
          5    1    3    3  503    0  0.32000626386E+02 -0.53233017295E+02  0.36362027560E+03  0.36891677794E+03  0.47000000000E+01 0. -1.
         -5    1    3    3    0  503  0.93357642340E+01  0.51699304180E+02  0.10025497231E+03  0.11328337928E+03  0.47000000000E+01 0. -1.
<mgrwt>
<rscale>  0 0.13167553E+03</rscale>
<asrwt>0</asrwt>
<pdfrwt beam="2">  1        5 0.41042980E-02 0.13167768E+03</pdfrwt>
<pdfrwt beam="1">  1       -5 0.11084907E+00 0.13167768E+03</pdfrwt>
<totfact> 0.15883433E+02</totfact>
</mgrwt>
</event>
<event>
 8    1  0.3754098E-007  0.1266136E+03  0.7546771E-02  0.1232576E+00
         -5   -1    0    0    0  501 -0.00000000000E+00  0.00000000000E+00  0.13595049537E+03  0.13603171392E+03  0.47000000000E+01 0. -1.
          5   -1    0    0  501    0  0.00000000000E+00 -0.00000000000E+00 -0.12008684928E+03  0.12017878919E+03  0.47000000000E+01 0. -1.
         25    2    1    2    0    0 -0.15272424305E+02  0.12949767636E+02  0.25834757400E+02  0.12920485039E+03  0.12500206097E+03 0.  0.
         25    2    1    2    0    0  0.15272424305E+02 -0.12949767636E+02 -0.99711113142E+01  0.12700565272E+03  0.12502027570E+03 0.  0.
          5    1    4    4  502    0 -0.40388290195E+02 -0.20356184785E+02 -0.42247344075E+02  0.62068642045E+02  0.47000000000E+01 0.  1.
         -5    1    4    4    0  502  0.55660714500E+02  0.74064171492E+01  0.32276232761E+02  0.64937010671E+02  0.47000000000E+01 0.  1.
          5    1    3    3  503    0 -0.82800572001E+01 -0.54497467435E+02 -0.29233824765E+01  0.55400085462E+02  0.47000000000E+01 0.  1.
         -5    1    3    3    0  503 -0.69923671047E+01  0.67447235071E+02  0.28758139877E+02  0.73804764925E+02  0.47000000000E+01 0.  1.
<mgrwt>
<rscale>  0 0.12660914E+03</rscale>
<asrwt>0</asrwt>
<pdfrwt beam="2">  1        5 0.18488220E-01 0.12661364E+03</pdfrwt>
<pdfrwt beam="1">  1       -5 0.20928781E-01 0.12661364E+03</pdfrwt>
<totfact> 0.40265860E+02</totfact>
</mgrwt>
</event>
<event>
 8    1  0.3754098E-007  0.2082314E+03  0.7546771E-02  0.1142975E+00
          5   -1    0    0  501    0  0.00000000000E+00  0.00000000000E+00  0.26343157746E+02  0.26759147222E+02  0.47000000000E+01 0.  1.
         -5   -1    0    0    0  501 -0.00000000000E+00 -0.00000000000E+00 -0.16364111466E+04  0.16364178961E+04  0.47000000000E+01 0.  1.
         25    2    1    2    0    0  0.14348990743E+02  0.16591693521E+03 -0.84491735691E+03  0.87019864179E+03  0.12500405292E+03 0.  0.
         25    2    1    2    0    0 -0.14348990743E+02 -0.16591693521E+03 -0.76515063193E+03  0.79297840153E+03  0.12499973129E+03 0.  0.
          5    1    4    4  502    0 -0.30213189904E+02 -0.16644087071E+03 -0.51106137191E+03  0.53835045848E+03  0.47000000000E+01 0. -1.
         -5    1    4    4    0  502  0.15864199161E+02  0.52393550051E+00 -0.25408926002E+03  0.25462794305E+03  0.47000000000E+01 0. -1.
          5    1    3    3  503    0 -0.32701280604E+02  0.34684589612E+02 -0.84849312977E+02  0.97436596935E+02  0.47000000000E+01 0. -1.
         -5    1    3    3    0  503  0.47050271347E+02  0.13123234559E+03 -0.76006804393E+03  0.77276204486E+03  0.47000000000E+01 0. -1.
<mgrwt>
<rscale>  0 0.20823080E+03</rscale>
<asrwt>0</asrwt>
<pdfrwt beam="1">  1        5 0.40853132E-02 0.20823145E+03</pdfrwt>
<pdfrwt beam="2">  1       -5 0.25178800E+00 0.20823145E+03</pdfrwt>
<totfact> 0.16228131E+01</totfact>
</mgrwt>
</event>
<event>
 8    1  0.3754098E-007  0.2035251E+03  0.7546771E-02  0.1146799E+00
         -5   -1    0    0    0  501 -0.00000000000E+00  0.00000000000E+00  0.35919285405E+03  0.35922360223E+03  0.47000000000E+01 0.  1.
          5   -1    0    0  501    0  0.00000000000E+00 -0.00000000000E+00 -0.11527267157E+03  0.11536844808E+03  0.47000000000E+01 0.  1.
         25    2    1    2    0    0  0.16007494309E+03 -0.13182873016E+02  0.11774753784E+03  0.23513015791E+03  0.12499573171E+03 0.  0.
         25    2    1    2    0    0 -0.16007494309E+03  0.13182873016E+02  0.12617264463E+03  0.23946189239E+03  0.12499874443E+03 0.  0.
          5    1    3    3  502    0  0.33609799643E+02 -0.43124601695E+02  0.84745779166E+02  0.10096180956E+03  0.47000000000E+01 0.  1.
         -5    1    3    3    0  502  0.12646514345E+03  0.29941728679E+02  0.33001758678E+02  0.13416834835E+03  0.47000000000E+01 0.  1.
          5    1    4    4  503    0 -0.80792276655E+02  0.17797626669E+02  0.13604723517E+03  0.15929559843E+03  0.47000000000E+01 0.  1.
         -5    1    4    4    0  503 -0.79282666436E+02 -0.46147536530E+01 -0.98745905437E+01  0.80166293958E+02  0.47000000000E+01 0.  1.
<mgrwt>
<rscale>  0 0.20352463E+03</rscale>
<asrwt>0</asrwt>
<pdfrwt beam="2">  1        5 0.17743990E-01 0.20352509E+03</pdfrwt>
<pdfrwt beam="1">  1       -5 0.55270172E-01 0.20352509E+03</pdfrwt>
<totfact> 0.71726074E+01</totfact>
</mgrwt>
</event>
<event>
 8    1  0.3754098E-007  0.1470501E+03  0.7546771E-02  0.1204149E+00
          5   -1    0    0  501    0  0.00000000000E+00  0.00000000000E+00  0.13324234378E+04  0.13324317272E+04  0.47000000000E+01 0.  1.
         -5   -1    0    0    0  501 -0.00000000000E+00 -0.00000000000E+00 -0.22706807491E+02  0.23188124255E+02  0.47000000000E+01 0.  1.
         25    2    1    2    0    0  0.74477857151E+02  0.21203428316E+02  0.28788678430E+03  0.32326333840E+03  0.12499539511E+03 0.  0.
         25    2    1    2    0    0 -0.74477857151E+02 -0.21203428316E+02  0.10218298460E+04  0.10323565130E+04  0.12500879664E+03 0.  0.
          5    1    4    4  502    0 -0.11375593746E+02 -0.66463470652E+02  0.39873018876E+03  0.40441890471E+03  0.47000000000E+01 0.  1.
         -5    1    4    4    0  502 -0.63102263405E+02  0.45260042336E+02  0.62309965723E+03  0.62793760831E+03  0.47000000000E+01 0.  1.
          5    1    3    3  503    0 -0.30634525878E+02  0.15709942523E+02  0.12108844225E+03  0.12597530439E+03  0.47000000000E+01 0.  1.
         -5    1    3    3    0  503  0.10511238303E+03  0.54934857931E+01  0.16679834205E+03  0.19728803401E+03  0.47000000000E+01 0.  1.
<mgrwt>
<rscale>  0 0.14704727E+03</rscale>
<asrwt>0</asrwt>
<pdfrwt beam="1">  1        5 0.20502597E+00 0.14705011E+03</pdfrwt>
<pdfrwt beam="2">  1       -5 0.35310155E-02 0.14705011E+03</pdfrwt>
<totfact> 0.38359105E+01</totfact>
</mgrwt>
</event>
<event>
 8    1  0.3754098E-007  0.1385100E+03  0.7546771E-02  0.1215351E+00
          5   -1    0    0  501    0  0.00000000000E+00  0.00000000000E+00  0.16952041913E+04  0.16952107067E+04  0.47000000000E+01 0. -1.
         -5   -1    0    0    0  501 -0.00000000000E+00 -0.00000000000E+00 -0.11234230340E+02  0.12177763807E+02  0.47000000000E+01 0. -1.
         25    2    1    2    0    0  0.34519798685E+02  0.48658846315E+02  0.68500191107E+03  0.69886371458E+03  0.12499429410E+03 0.  0.
         25    2    1    2    0    0 -0.34519798685E+02 -0.48658846315E+02  0.99896804987E+03  0.10085247559E+04  0.12500287537E+03 0.  0.
          5    1    4    4  502    0 -0.53531218394E+02 -0.43988081840E+02  0.25507734642E+03  0.26436165634E+03  0.47000000000E+01 0. -1.
         -5    1    4    4    0  502  0.19011419709E+02 -0.46707644749E+01  0.74389070346E+03  0.74416309960E+03  0.47000000000E+01 0. -1.
          5    1    3    3  503    0 -0.71784720195E+01 -0.35161218670E+02  0.31909138616E+03  0.32113742305E+03  0.47000000000E+01 0.  1.
         -5    1    3    3    0  503  0.41698270704E+02  0.83820064986E+02  0.36591052490E+03  0.37772629153E+03  0.47000000000E+01 0.  1.
<mgrwt>
<rscale>  0 0.13850806E+03</rscale>
<asrwt>0</asrwt>
<pdfrwt beam="1">  1        5 0.26087362E+00 0.13850999E+03</pdfrwt>
<pdfrwt beam="2">  1       -5 0.18014245E-02 0.13850999E+03</pdfrwt>
<totfact> 0.48457376E+01</totfact>
</mgrwt>
</event>
<event>
 8    1  0.3754098E-007  0.1300021E+03  0.7546771E-02  0.1227453E+00
          5   -1    0    0  501    0  0.00000000000E+00  0.00000000000E+00  0.19835892286E+03  0.19841459694E+03  0.47000000000E+01 0.  1.
         -5   -1    0    0    0  501 -0.00000000000E+00 -0.00000000000E+00 -0.13178255553E+03  0.13186634120E+03  0.47000000000E+01 0.  1.
         25    2    1    2    0    0 -0.12559652353E+02  0.33441341334E+02 -0.64972310886E+02  0.14533335165E+03  0.12499725494E+03 0.  0.
         25    2    1    2    0    0  0.12559652353E+02 -0.33441341334E+02  0.13154867822E+03  0.18494758649E+03  0.12499794730E+03 0.  0.
          5    1    4    4  502    0  0.53108716619E+02  0.11600851637E+02  0.10557921063E+03  0.11884517347E+03  0.47000000000E+01 0.  1.
         -5    1    4    4    0  502 -0.40549064267E+02 -0.45042192971E+02  0.25969467590E+02  0.66102413023E+02  0.47000000000E+01 0.  1.
          5    1    3    3  503    0 -0.52040587436E+02 -0.67572365032E+01 -0.71065305228E+02  0.88466098552E+02  0.47000000000E+01 0.  1.
         -5    1    3    3    0  503  0.39480935083E+02  0.40198577837E+02  0.60929943422E+01  0.56867253101E+02  0.47000000000E+01 0.  1.
<mgrwt>
<rscale>  0 0.13000197E+03</rscale>
<asrwt>0</asrwt>
<pdfrwt beam="1">  1        5 0.30527485E-01 0.13000213E+03</pdfrwt>
<pdfrwt beam="2">  1       -5 0.20284967E-01 0.13000213E+03</pdfrwt>
<totfact> 0.16594897E+02</totfact>
</mgrwt>
</event>
<event>
 8    1  0.3754098E-007  0.2567380E+03  0.7546771E-02  0.1109119E+00
          5   -1    0    0  501    0  0.00000000000E+00  0.00000000000E+00  0.10020896788E+04  0.10021007007E+04  0.47000000000E+01 0. -1.
         -5   -1    0    0    0  501 -0.00000000000E+00 -0.00000000000E+00 -0.77629852874E+02  0.77772000471E+02  0.47000000000E+01 0. -1.
         25    2    1    2    0    0 -0.37673904358E+02 -0.22106486325E+03  0.25062802645E+03  0.35878799699E+03  0.12500168924E+03 0.  0.
         25    2    1    2    0    0  0.37673904358E+02  0.22106486325E+03  0.67383179952E+03  0.72108470423E+03  0.12499943916E+03 0.  0.
          5    1    4    4  502    0  0.22806296983E+02  0.17583048204E+02  0.18115313710E+02  0.34344509853E+02  0.47000000000E+01 0.  1.
         -5    1    4    4    0  502  0.14867607375E+02  0.20348181505E+03  0.65571648581E+03  0.68674019437E+03  0.47000000000E+01 0.  1.
          5    1    3    3  503    0  0.25157744457E+02 -0.17747143647E+03  0.18835164010E+03  0.26005278925E+03  0.47000000000E+01 0. -1.
         -5    1    3    3    0  503 -0.62831648815E+02 -0.43593426776E+02  0.62276386350E+02  0.98735207741E+02  0.47000000000E+01 0. -1.
<mgrwt>
<rscale>  0 0.25673776E+03</rscale>
<asrwt>0</asrwt>
<pdfrwt beam="1">  1        5 0.15417943E+00 0.25673804E+03</pdfrwt>
<pdfrwt beam="2">  1       -5 0.11954836E-01 0.25673804E+03</pdfrwt>
<totfact> 0.12767577E+01</totfact>
</mgrwt>
</event>
<event>
 8    1  0.3754098E-007  0.1280899E+03  0.7546771E-02  0.1230329E+00
         -5   -1    0    0    0  501 -0.00000000000E+00  0.00000000000E+00  0.82439777720E+02  0.82573645617E+02  0.47000000000E+01 0.  1.
          5   -1    0    0  501    0  0.00000000000E+00 -0.00000000000E+00 -0.19876869777E+03  0.19882425711E+03  0.47000000000E+01 0.  1.
         25    2    1    2    0    0  0.32202754334E+01 -0.27782413390E+02 -0.61598634933E+02  0.14213166536E+03  0.12499914321E+03 0.  0.
         25    2    1    2    0    0 -0.32202754334E+01  0.27782413390E+02 -0.54730285121E+02  0.13926623737E+03  0.12496978872E+03 0.  0.
          5    1    3    3  502    0 -0.23213106172E+01 -0.55549476568E+02 -0.87297787477E+02  0.10360562981E+03  0.47000000000E+01 0.  1.
         -5    1    3    3    0  502  0.55415860506E+01  0.27767063178E+02  0.25699152544E+02  0.38526035547E+02  0.47000000000E+01 0.  1.
          5    1    4    4  503    0  0.37725411216E+02  0.30242956853E+01 -0.77267680923E+02  0.86166916685E+02  0.47000000000E+01 0. -1.
         -5    1    4    4    0  503 -0.40945686649E+02  0.24758117705E+02  0.22537395802E+02  0.53099320683E+02  0.47000000000E+01 0. -1.
<mgrwt>
<rscale>  0 0.12808272E+03</rscale>
<asrwt>0</asrwt>
<pdfrwt beam="2">  1        5 0.30594371E-01 0.12808988E+03</pdfrwt>
<pdfrwt beam="1">  1       -5 0.12697614E-01 0.12808988E+03</pdfrwt>
<totfact> 0.38578224E+02</totfact>
</mgrwt>
</event>
<event>
 8    1  0.3754098E-007  0.1364083E+03  0.7546771E-02  0.1218248E+00
         -5   -1    0    0    0  501 -0.00000000000E+00  0.00000000000E+00  0.33056932938E+03  0.33060273975E+03  0.47000000000E+01 0. -1.
          5   -1    0    0  501    0  0.00000000000E+00 -0.00000000000E+00 -0.56426356093E+02  0.56621759615E+02  0.47000000000E+01 0. -1.
         25    2    1    2    0    0 -0.54084915922E+01  0.54334144564E+02  0.15056300036E+03  0.20316138974E+03  0.12499552855E+03 0.  0.
         25    2    1    2    0    0  0.54084915922E+01 -0.54334144564E+02  0.12357997293E+03  0.18406310962E+03  0.12500307023E+03 0.  0.
          5    1    3    3  502    0  0.54608762057E+02  0.14835794240E+02  0.10061109847E+03  0.11552878784E+03  0.47000000000E+01 0.  1.
         -5    1    3    3    0  502 -0.60017253649E+02  0.39498350323E+02  0.49951901887E+02  0.87632601901E+02  0.47000000000E+01 0.  1.
          5    1    4    4  503    0  0.35928955374E+02 -0.87973620277E+00 -0.94067437419E+01  0.37446503146E+02  0.47000000000E+01 0.  1.
         -5    1    4    4    0  503 -0.30520463782E+02 -0.53454408361E+02  0.13298671668E+03  0.14661660648E+03  0.47000000000E+01 0.  1.
<mgrwt>
<rscale>  0 0.13640655E+03</rscale>
<asrwt>0</asrwt>
<pdfrwt beam="2">  1        5 0.86985789E-02 0.13640828E+03</pdfrwt>
<pdfrwt beam="1">  1       -5 0.50874421E-01 0.13640828E+03</pdfrwt>
<totfact> 0.27100954E+02</totfact>
</mgrwt>
</event>
<event>
 8    1  0.3754098E-007  0.1473830E+03  0.7546771E-02  0.1203727E+00
          5   -1    0    0  501    0  0.00000000000E+00  0.00000000000E+00  0.39259839522E+03  0.39262652729E+03  0.47000000000E+01 0. -1.
         -5   -1    0    0    0  501 -0.00000000000E+00 -0.00000000000E+00 -0.10000499687E+03  0.10011538043E+03  0.47000000000E+01 0. -1.
         25    2    1    2    0    0  0.76204091877E+02 -0.17009377810E+02 -0.18466319662E+02  0.14853280485E+03  0.12499842640E+03 0.  0.
         25    2    1    2    0    0 -0.76204091877E+02  0.17009377810E+02  0.31105971802E+03  0.34420910287E+03  0.12500150310E+03 0.  0.
          5    1    3    3  502    0  0.70959233503E+02  0.45505755252E+02 -0.88287666173E+01  0.84888301316E+02  0.47000000000E+01 0.  1.
         -5    1    3    3    0  502  0.52448583742E+01 -0.62515133062E+02 -0.96375530451E+01  0.63644503532E+02  0.47000000000E+01 0.  1.
          5    1    4    4  503    0  0.18812778154E+02 -0.25990962810E+02  0.14083392924E+03  0.14451898282E+03  0.47000000000E+01 0. -1.
         -5    1    4    4    0  503 -0.95016870031E+02  0.43000340620E+02  0.17022578877E+03  0.19969012006E+03  0.47000000000E+01 0. -1.
<mgrwt>
<rscale>  0 0.14738238E+03</rscale>
<asrwt>0</asrwt>
<pdfrwt beam="1">  1        5 0.60410409E-01 0.14738303E+03</pdfrwt>
<pdfrwt beam="2">  1       -5 0.15396039E-01 0.14738303E+03</pdfrwt>
<totfact> 0.69852651E+01</totfact>
</mgrwt>
</event>
<event>
 8    1  0.3754098E-007  0.1329852E+03  0.7546771E-02  0.1223105E+00
          5   -1    0    0  501    0  0.00000000000E+00  0.00000000000E+00  0.42821044990E+03  0.42823624252E+03  0.47000000000E+01 0.  1.
         -5   -1    0    0    0  501 -0.00000000000E+00 -0.00000000000E+00 -0.41786275312E+02  0.42049765807E+02  0.47000000000E+01 0.  1.
         25    2    1    2    0    0 -0.44193727794E+02 -0.97861131520E+01  0.16377830277E+03  0.21094793054E+03  0.12500737320E+03 0.  0.
         25    2    1    2    0    0  0.44193727794E+02  0.97861131520E+01  0.22264587182E+03  0.25933807778E+03  0.12504479503E+03 0.  0.
          5    1    4    4  502    0  0.34115425702E+02 -0.36931321507E+02  0.19994002340E+03  0.20621805871E+03  0.47000000000E+01 0.  1.
         -5    1    4    4    0  502  0.10078302092E+02  0.46717434659E+02  0.22705848416E+02  0.53120019075E+02  0.47000000000E+01 0.  1.
          5    1    3    3  503    0  0.56544113952E+01 -0.55009700346E+02  0.11500388976E+03  0.12769504360E+03  0.47000000000E+01 0.  1.
         -5    1    3    3    0  503 -0.49848139189E+02  0.45223587194E+02  0.48774413015E+02  0.83252886943E+02  0.47000000000E+01 0.  1.
<mgrwt>
<rscale>  0 0.13297637E+03</rscale>
<asrwt>0</asrwt>
<pdfrwt beam="1">  1        5 0.65900783E-01 0.13298517E+03</pdfrwt>
<pdfrwt beam="2">  1       -5 0.64509103E-02 0.13298517E+03</pdfrwt>
<totfact> 0.25490720E+02</totfact>
</mgrwt>
</event>
<event>
 8    1  0.3754098E-007  0.1250142E+03  0.7546771E-02  0.1235056E+00
         -5   -1    0    0    0  501 -0.00000000000E+00  0.00000000000E+00  0.89049098741E+02  0.89173045180E+02  0.47000000000E+01 0.  1.
          5   -1    0    0  501    0  0.00000000000E+00 -0.00000000000E+00 -0.22262976965E+03  0.22267937564E+03  0.47000000000E+01 0.  1.
         25    2    1    2    0    0  0.19123341684E+01  0.41751744576E+00  0.51590618966E+01  0.12509783469E+03  0.12497608163E+03 0.  0.
         25    2    1    2    0    0 -0.19123341684E+01 -0.41751744576E+00 -0.13873973281E+03  0.18675458613E+03  0.12499892255E+03 0.  0.
          5    1    4    4  502    0  0.57392347226E+02  0.19648511725E+02 -0.54439951861E+02  0.81644007077E+02  0.47000000000E+01 0.  1.
         -5    1    4    4    0  502 -0.59304681394E+02 -0.20066029170E+02 -0.84299780946E+02  0.10511057906E+03  0.47000000000E+01 0.  1.
          5    1    3    3  503    0  0.46008501946E+02  0.19159351350E+02 -0.36079710991E+02  0.61706551846E+02  0.47000000000E+01 0.  1.
         -5    1    3    3    0  503 -0.44096167778E+02 -0.18741833904E+02  0.41238772888E+02  0.63391282840E+02  0.47000000000E+01 0.  1.
<mgrwt>
<rscale>  0 0.12500854E+03</rscale>
<asrwt>0</asrwt>
<pdfrwt beam="2">  1        5 0.34264084E-01 0.12501425E+03</pdfrwt>
<pdfrwt beam="1">  1       -5 0.13713212E-01 0.12501425E+03</pdfrwt>
<totfact> 0.26631746E+02</totfact>
</mgrwt>
</event>
<event>
 8    1  0.3754098E-007  0.1429125E+03  0.7546771E-02  0.1209463E+00
         -5   -1    0    0    0  501 -0.00000000000E+00  0.00000000000E+00  0.18705660916E+03  0.18711564615E+03  0.47000000000E+01 0. -1.
          5   -1    0    0  501    0  0.00000000000E+00 -0.00000000000E+00 -0.11229376907E+03  0.11239208412E+03  0.47000000000E+01 0. -1.
         25    2    1    2    0    0 -0.69002438536E+02  0.61479142538E+01  0.62780469339E+02  0.15609411737E+03  0.12499941109E+03 0.  0.
         25    2    1    2    0    0  0.69002438536E+02 -0.61479142538E+01  0.11982370753E+02  0.14341361290E+03  0.12499901512E+03 0.  0.
          5    1    4    4  502    0  0.69936961767E+02 -0.56189311917E+02  0.21204005134E+02  0.92304481086E+02  0.47000000000E+01 0. -1.
         -5    1    4    4    0  502 -0.93452323075E+00  0.50041397663E+02 -0.92216343809E+01  0.51109131810E+02  0.47000000000E+01 0. -1.
          5    1    3    3  503    0 -0.37322320821E+02 -0.59071691377E+02  0.35156076616E+02  0.78361087771E+02  0.47000000000E+01 0.  1.
         -5    1    3    3    0  503 -0.31680117715E+02  0.65219605631E+02  0.27624392723E+02  0.77733029598E+02  0.47000000000E+01 0.  1.
<mgrwt>
<rscale>  0 0.14291243E+03</rscale>
<asrwt>0</asrwt>
<pdfrwt beam="2">  1        5 0.17288069E-01 0.14291251E+03</pdfrwt>
<pdfrwt beam="1">  1       -5 0.28790043E-01 0.14291251E+03</pdfrwt>
<totfact> 0.25846869E+02</totfact>
</mgrwt>
</event>
<event>
 8    1  0.3754098E-007  0.1302307E+03  0.7546771E-02  0.1227116E+00
         -5   -1    0    0    0  501 -0.00000000000E+00  0.00000000000E+00  0.23794670050E+02  0.24254408317E+02  0.47000000000E+01 0. -1.
          5   -1    0    0  501    0  0.00000000000E+00 -0.00000000000E+00 -0.92608099130E+03  0.92609291783E+03  0.47000000000E+01 0. -1.
         25    2    1    2    0    0  0.87525029806E+01 -0.35454806892E+02 -0.21926150941E+03  0.25501795638E+03  0.12499959571E+03 0.  0.
         25    2    1    2    0    0 -0.87525029806E+01  0.35454806892E+02 -0.68302481184E+03  0.69532936976E+03  0.12500555679E+03 0.  0.
          5    1    3    3  502    0  0.62548212092E+02  0.40756664053E+01 -0.11674469669E+03  0.13259073911E+03  0.47000000000E+01 0. -1.
         -5    1    3    3    0  502 -0.53795709111E+02 -0.39530473297E+02 -0.10251681273E+03  0.12242721727E+03  0.47000000000E+01 0. -1.
          5    1    4    4  503    0  0.49258471592E+02  0.20598858892E+02 -0.15723028237E+03  0.16611490513E+03  0.47000000000E+01 0.  1.
         -5    1    4    4    0  503 -0.58010974572E+02  0.14855948000E+02 -0.52579452947E+03  0.52921446463E+03  0.47000000000E+01 0.  1.
<mgrwt>
<rscale>  0 0.13022928E+03</rscale>
<asrwt>0</asrwt>
<pdfrwt beam="2">  1        5 0.14251025E+00 0.13023071E+03</pdfrwt>
<pdfrwt beam="1">  1       -5 0.36970011E-02 0.13023071E+03</pdfrwt>
<totfact> 0.98262237E+01</totfact>
</mgrwt>
</event>
<event>
 8    1  0.3754098E-007  0.1472387E+03  0.7546771E-02  0.1203924E+00
         -5   -1    0    0    0  501 -0.00000000000E+00  0.00000000000E+00  0.13795036850E+04  0.13795116915E+04  0.47000000000E+01 0.  1.
          5   -1    0    0  501    0  0.00000000000E+00 -0.00000000000E+00 -0.24395949353E+02  0.24844563687E+02  0.47000000000E+01 0.  1.
         25    2    1    2    0    0 -0.69873044671E+02 -0.34025910956E+02  0.11001809672E+04  0.11099898238E+04  0.12505696067E+03 0.  0.
         25    2    1    2    0    0  0.69873044671E+02  0.34025910956E+02  0.25492676850E+03  0.29436643139E+03  0.12499573452E+03 0.  0.
          5    1    4    4  502    0 -0.30304750456E+02 -0.16107346173E+02  0.70077939719E+02  0.78171811647E+02  0.47000000000E+01 0. -1.
         -5    1    4    4    0  502  0.10017779513E+03  0.50133257129E+02  0.18484882878E+03  0.21619461975E+03  0.47000000000E+01 0. -1.
          5    1    3    3  503    0 -0.99101528134E+02 -0.11463219072E+02  0.95122544063E+03  0.95645410093E+03  0.47000000000E+01 0.  1.
         -5    1    3    3    0  503  0.29228483463E+02 -0.22562691884E+02  0.14895552655E+03  0.15353572288E+03  0.47000000000E+01 0. -1.
<mgrwt>
<rscale>  0 0.14722574E+03</rscale>
<asrwt>0</asrwt>
<pdfrwt beam="2">  1        5 0.37883479E-02 0.14723875E+03</pdfrwt>
<pdfrwt beam="1">  1       -5 0.21226645E+00 0.14723875E+03</pdfrwt>
<totfact> 0.30615791E+01</totfact>
</mgrwt>
</event>
<event>
 8    1  0.3754098E-007  0.1363418E+03  0.7546771E-02  0.1218338E+00
          5   -1    0    0  501    0  0.00000000000E+00  0.00000000000E+00  0.12675490816E+03  0.12684201490E+03  0.47000000000E+01 0.  1.
         -5   -1    0    0    0  501 -0.00000000000E+00 -0.00000000000E+00 -0.16421310353E+03  0.16428034992E+03  0.47000000000E+01 0.  1.
         25    2    1    2    0    0 -0.35497197496E+02  0.41291564214E+02 -0.66544221441E+02  0.15171424899E+03  0.12499614248E+03 0.  0.
         25    2    1    2    0    0  0.35497197496E+02 -0.41291564214E+02  0.29086026075E+02  0.13940811582E+03  0.12499432603E+03 0.  0.
          5    1    4    4  502    0 -0.16678534227E+02  0.29905906115E+02  0.37034632130E+02  0.50657582863E+02  0.47000000000E+01 0.  1.
         -5    1    4    4    0  502  0.52175731723E+02 -0.71197470328E+02 -0.79486060554E+01  0.88750532957E+02  0.47000000000E+01 0.  1.
          5    1    3    3  503    0 -0.53734782016E+02  0.73190073538E+02 -0.21559542121E+02  0.93440449053E+02  0.47000000000E+01 0. -1.
         -5    1    3    3    0  503  0.18237584519E+02 -0.31898509324E+02 -0.44984679320E+02  0.58273799942E+02  0.47000000000E+01 0. -1.
<mgrwt>
<rscale>  0 0.13634136E+03</rscale>
<asrwt>0</asrwt>
<pdfrwt beam="1">  1        5 0.19512628E-01 0.13634178E+03</pdfrwt>
<pdfrwt beam="2">  1       -5 0.25275428E-01 0.13634178E+03</pdfrwt>
<totfact> 0.26164133E+02</totfact>
</mgrwt>
</event>
<event>
 8    1  0.3754098E-007  0.1612060E+03  0.7546771E-02  0.1187344E+00
         -5   -1    0    0    0  501 -0.00000000000E+00  0.00000000000E+00  0.20852825990E+03  0.20858121962E+03  0.47000000000E+01 0. -1.
          5   -1    0    0  501    0  0.00000000000E+00 -0.00000000000E+00 -0.13088625766E+03  0.13097061672E+03  0.47000000000E+01 0. -1.
         25    2    1    2    0    0  0.98851209390E+02  0.24261573915E+02  0.76294184432E+02  0.17834843637E+03  0.12500870613E+03 0.  0.
         25    2    1    2    0    0 -0.98851209390E+02 -0.24261573915E+02  0.13478178139E+01  0.16120339997E+03  0.12499813592E+03 0.  0.
          5    1    4    4  502    0 -0.52345015807E+02  0.36509134134E+01  0.60894047632E+02  0.80520214143E+02  0.47000000000E+01 0. -1.
         -5    1    4    4    0  502 -0.46506193582E+02 -0.27912487329E+02 -0.59546229818E+02  0.80683185832E+02  0.47000000000E+01 0. -1.
          5    1    3    3  503    0 -0.55428003951E+01  0.25933064195E+02 -0.22075153642E+02  0.34823108177E+02  0.47000000000E+01 0. -1.
         -5    1    3    3    0  503  0.10439400978E+03 -0.16714902795E+01  0.98369338075E+02  0.14352532819E+03  0.47000000000E+01 0. -1.
<mgrwt>
<rscale>  0 0.16120391E+03</rscale>
<asrwt>0</asrwt>
<pdfrwt beam="2">  1        5 0.20146911E-01 0.16120596E+03</pdfrwt>
<pdfrwt beam="1">  1       -5 0.32091833E-01 0.16120596E+03</pdfrwt>
<totfact> 0.16346463E+02</totfact>
</mgrwt>
</event>
<event>
 8    1  0.3754098E-007  0.1723141E+03  0.7546771E-02  0.1175459E+00
         -5   -1    0    0    0  501 -0.00000000000E+00  0.00000000000E+00  0.15654986026E+04  0.15655056579E+04  0.47000000000E+01 0.  1.
          5   -1    0    0  501    0  0.00000000000E+00 -0.00000000000E+00 -0.19710336410E+02  0.20262955396E+02  0.47000000000E+01 0.  1.
         25    2    1    2    0    0 -0.49642038839E+02  0.10769901850E+03  0.95270785466E+03  0.96816313370E+03  0.12499674601E+03 0.  0.
         25    2    1    2    0    0  0.49642038839E+02 -0.10769901850E+03  0.59308041154E+03  0.61760547955E+03  0.12501497196E+03 0.  0.
          5    1    4    4  502    0 -0.25979854549E+02  0.13136343661E+02  0.90852720711E+02  0.95518706167E+02  0.47000000000E+01 0.  1.
         -5    1    4    4    0  502  0.75621893388E+02 -0.12083536216E+03  0.50222769083E+03  0.52208677339E+03  0.47000000000E+01 0.  1.
          5    1    3    3  503    0 -0.72653769218E+02  0.79990351766E+02  0.88261211220E+03  0.88921496679E+03  0.47000000000E+01 0.  1.
         -5    1    3    3    0  503  0.23011730379E+02  0.27708666737E+02  0.70095742457E+02  0.78948166907E+02  0.47000000000E+01 0.  1.
<mgrwt>
<rscale>  0 0.17231081E+03</rscale>
<asrwt>0</asrwt>
<pdfrwt beam="2">  1        5 0.30754113E-02 0.17231411E+03</pdfrwt>
<pdfrwt beam="1">  1       -5 0.24088899E+00 0.17231411E+03</pdfrwt>
<totfact> 0.29134058E+01</totfact>
</mgrwt>
</event>
<event>
 8    1  0.3754098E-007  0.1343881E+03  0.7546771E-02  0.1221090E+00
          5   -1    0    0  501    0  0.00000000000E+00  0.00000000000E+00  0.23843248517E+03  0.23847880405E+03  0.47000000000E+01 0.  1.
         -5   -1    0    0    0  501 -0.00000000000E+00 -0.00000000000E+00 -0.93955418497E+02  0.94072900800E+02  0.47000000000E+01 0.  1.
         25    2    1    2    0    0  0.41191378428E+00 -0.49346360850E+02 -0.11573375020E+01  0.13439307971E+03  0.12499970977E+03 0.  0.
         25    2    1    2    0    0 -0.41191378428E+00  0.49346360850E+02  0.14563440417E+03  0.19815862514E+03  0.12498891166E+03 0.  0.
          5    1    4    4  502    0  0.47691205961E+02  0.67462490575E+02  0.90932595638E+02  0.12294903704E+03  0.47000000000E+01 0.  1.
         -5    1    4    4    0  502 -0.48103119745E+02 -0.18116129725E+02  0.54701808534E+02  0.75209588101E+02  0.47000000000E+01 0.  1.
          5    1    3    3  503    0 -0.10263975475E+02 -0.86563159475E+02  0.20654397011E+02  0.89706320217E+02  0.47000000000E+01 0.  1.
         -5    1    3    3    0  503  0.10675889259E+02  0.37216798626E+02 -0.21811734513E+02  0.44686759492E+02  0.47000000000E+01 0.  1.
<mgrwt>
<rscale>  0 0.13438559E+03</rscale>
<asrwt>0</asrwt>
<pdfrwt beam="1">  1        5 0.36694520E-01 0.13438810E+03</pdfrwt>
<pdfrwt beam="2">  1       -5 0.14467280E-01 0.13438810E+03</pdfrwt>
<totfact> 0.21632625E+02</totfact>
</mgrwt>
</event>
<event>
 8    1  0.3754098E-007  0.1291025E+03  0.7546771E-02  0.1228797E+00
         -5   -1    0    0    0  501 -0.00000000000E+00  0.00000000000E+00  0.76649343701E+03  0.76650784665E+03  0.47000000000E+01 0. -1.
          5   -1    0    0  501    0  0.00000000000E+00 -0.00000000000E+00 -0.21721680183E+02  0.22224342284E+02  0.47000000000E+01 0. -1.
         25    2    1    2    0    0  0.26658396248E+02  0.18174317462E+02  0.41394399053E+03  0.43360935943E+03  0.12500589341E+03 0.  0.
         25    2    1    2    0    0 -0.26658396248E+02 -0.18174317462E+02  0.33082776630E+03  0.35512282950E+03  0.12499694867E+03 0.  0.
          5    1    3    3  502    0  0.72300685495E+02 -0.35419927875E+01  0.17698531297E+03  0.19127421636E+03  0.47000000000E+01 0. -1.
         -5    1    3    3    0  502 -0.45642289247E+02  0.21716310250E+02  0.23695867756E+03  0.24233514307E+03  0.47000000000E+01 0. -1.
          5    1    4    4  503    0 -0.23115942699E+02  0.43289573369E+02  0.61564514235E+02  0.78870865231E+02  0.47000000000E+01 0. -1.
         -5    1    4    4    0  503 -0.35424535484E+01 -0.61463890831E+02  0.26926325206E+03  0.27625196427E+03  0.47000000000E+01 0. -1.
<mgrwt>
<rscale>  0 0.12910031E+03</rscale>
<asrwt>0</asrwt>
<pdfrwt beam="2">  1        5 0.33815715E-02 0.12910248E+03</pdfrwt>
<pdfrwt beam="1">  1       -5 0.11796185E+00 0.12910248E+03</pdfrwt>
<totfact> 0.18521548E+02</totfact>
</mgrwt>
</event>
<event>
 8    1  0.3754098E-007  0.1481646E+03  0.7546771E-02  0.1202750E+00
         -5   -1    0    0    0  501 -0.00000000000E+00  0.00000000000E+00  0.18863061746E+03  0.18868916196E+03  0.47000000000E+01 0. -1.
          5   -1    0    0  501    0  0.00000000000E+00 -0.00000000000E+00 -0.40939093005E+03  0.40941790826E+03  0.47000000000E+01 0. -1.
         25    2    1    2    0    0  0.37020803053E+02  0.70397545720E+02  0.14263979432E+03  0.20566687531E+03  0.12500559337E+03 0.  0.
         25    2    1    2    0    0 -0.37020803053E+02 -0.70397545720E+02 -0.36340010692E+03  0.39244019492E+03  0.12499325813E+03 0.  0.
          5    1    4    4  502    0  0.47500176026E+01 -0.71535966065E+02 -0.33271689133E+03  0.34038592345E+03  0.47000000000E+01 0. -1.
         -5    1    4    4    0  502 -0.41770820656E+02  0.11384203456E+01 -0.30683215584E+02  0.52054271465E+02  0.47000000000E+01 0. -1.
          5    1    3    3  503    0  0.27401786210E+02  0.42507868394E+02 -0.85909054256E+01  0.51513788629E+02  0.47000000000E+01 0.  1.
         -5    1    3    3    0  503  0.96190168431E+01  0.27889677326E+02  0.15123069975E+03  0.15415308668E+03  0.47000000000E+01 0. -1.
<mgrwt>
<rscale>  0 0.14816201E+03</rscale>
<asrwt>0</asrwt>
<pdfrwt beam="2">  1        5 0.62989799E-01 0.14816461E+03</pdfrwt>
<pdfrwt beam="1">  1       -5 0.29026674E-01 0.14816461E+03</pdfrwt>
<totfact> 0.19340077E+01</totfact>
</mgrwt>
</event>
<event>
 8    1  0.3754098E-007  0.1324364E+03  0.7546771E-02  0.1223887E+00
         -5   -1    0    0    0  501 -0.00000000000E+00  0.00000000000E+00  0.16716289667E+04  0.16716355740E+04  0.47000000000E+01 0.  1.
          5   -1    0    0  501    0  0.00000000000E+00 -0.00000000000E+00 -0.15000020255E+02  0.15719115995E+02  0.47000000000E+01 0.  1.
         25    2    1    2    0    0 -0.62798993967E+01  0.43277237655E+02  0.13034930061E+04  0.13102035811E+04  0.12500820181E+03 0.  0.
         25    2    1    2    0    0  0.62798993967E+01 -0.43277237655E+02  0.35313594033E+03  0.37715110890E+03  0.12500244061E+03 0.  0.
          5    1    3    3  502    0 -0.43867873009E+02 -0.10649273372E+02  0.91775655968E+03  0.91887811495E+03  0.47000000000E+01 0.  1.
         -5    1    3    3    0  502  0.37587973613E+02  0.53926511028E+02  0.38573644642E+03  0.39132546614E+03  0.47000000000E+01 0.  1.
          5    1    4    4  503    0 -0.26394749461E+02 -0.14270052749E+02  0.32167476449E+03  0.32310534089E+03  0.47000000000E+01 0.  1.
         -5    1    4    4    0  503  0.32674648858E+02 -0.29007184907E+02  0.31461175836E+02  0.54045768004E+02  0.47000000000E+01 0.  1.
<mgrwt>
<rscale>  0 0.13243507E+03</rscale>
<asrwt>0</asrwt>
<pdfrwt beam="2">  1        5 0.23635183E-02 0.13243643E+03</pdfrwt>
<pdfrwt beam="1">  1       -5 0.25722955E+00 0.13243643E+03</pdfrwt>
<totfact> 0.32815213E+01</totfact>
</mgrwt>
</event>
<event>
 8    1  0.3754098E-007  0.1285336E+03  0.7546771E-02  0.1229648E+00
          5   -1    0    0  501    0  0.00000000000E+00  0.00000000000E+00  0.44665350426E+03  0.44667823191E+03  0.47000000000E+01 0.  1.
         -5   -1    0    0    0  501 -0.00000000000E+00 -0.00000000000E+00 -0.37090355318E+02  0.37386955715E+02  0.47000000000E+01 0.  1.
         25    2    1    2    0    0 -0.29294410687E+02  0.61654871074E+01  0.18394210647E+03  0.22440051995E+03  0.12499887636E+03 0.  0.
         25    2    1    2    0    0  0.29294410687E+02 -0.61654871074E+01  0.22562104247E+03  0.25966466768E+03  0.12499883642E+03 0.  0.
          5    1    4    4  502    0  0.26570701478E+02 -0.48715355582E+02  0.38529041244E+02  0.67718277191E+02  0.47000000000E+01 0. -1.
         -5    1    4    4    0  502  0.27237092084E+01  0.42549868475E+02  0.18709200122E+03  0.19194639049E+03  0.47000000000E+01 0. -1.
          5    1    3    3  503    0  0.36376013541E+02 -0.31519289218E+02  0.10110536425E+03  0.11207615551E+03  0.47000000000E+01 0. -1.
         -5    1    3    3    0  503 -0.65670424228E+02  0.37684776325E+02  0.82836742220E+02  0.11232436444E+03  0.47000000000E+01 0. -1.
<mgrwt>
<rscale>  0 0.12853362E+03</rscale>
<asrwt>0</asrwt>
<pdfrwt beam="1">  1        5 0.68740639E-01 0.12853363E+03</pdfrwt>
<pdfrwt beam="2">  1       -5 0.57309262E-02 0.12853363E+03</pdfrwt>
<totfact> 0.27960048E+02</totfact>
</mgrwt>
</event>
<event>
 8    1  0.3754098E-007  0.1261926E+03  0.7546771E-02  0.1233219E+00
         -5   -1    0    0    0  501 -0.00000000000E+00  0.00000000000E+00  0.93383797038E+03  0.93384979784E+03  0.47000000000E+01 0.  1.
          5   -1    0    0  501    0  0.00000000000E+00 -0.00000000000E+00 -0.20112202870E+02  0.20654072342E+02  0.47000000000E+01 0.  1.
         25    2    1    2    0    0 -0.12994990297E+02 -0.11403649111E+02  0.65007211282E+03  0.66220639192E+03  0.12499856256E+03 0.  0.
         25    2    1    2    0    0  0.12994990297E+02  0.11403649111E+02  0.26365365469E+03  0.29229747826E+03  0.12500261270E+03 0.  0.
          5    1    3    3  502    0  0.29026328295E+02  0.35558406483E+02  0.45078271657E+03  0.45313803147E+03  0.47000000000E+01 0.  1.
         -5    1    3    3    0  502 -0.42021318592E+02 -0.46962055594E+02  0.19928939625E+03  0.20906836045E+03  0.47000000000E+01 0.  1.
          5    1    4    4  503    0 -0.25411004082E+02  0.50307292669E+00  0.24770619242E+03  0.24905103889E+03  0.47000000000E+01 0.  1.
         -5    1    4    4    0  503  0.38405994379E+02  0.10900576184E+02  0.15947462269E+02  0.43246439371E+02  0.47000000000E+01 0.  1.
<mgrwt>
<rscale>  0 0.12619157E+03</rscale>
<asrwt>0</asrwt>
<pdfrwt beam="2">  1        5 0.31367768E-02 0.12619258E+03</pdfrwt>
<pdfrwt beam="1">  1       -5 0.14370999E+00 0.12619258E+03</pdfrwt>
<totfact> 0.12414464E+02</totfact>
</mgrwt>
</event>
<event>
 8    1  0.3754098E-007  0.1352427E+03  0.7546771E-02  0.1219879E+00
          5   -1    0    0  501    0  0.00000000000E+00  0.00000000000E+00  0.25946091353E+02  0.26368345729E+02  0.47000000000E+01 0.  1.
         -5   -1    0    0    0  501 -0.00000000000E+00 -0.00000000000E+00 -0.70513569218E+03  0.70515135565E+03  0.47000000000E+01 0.  1.
         25    2    1    2    0    0 -0.45170465205E+02  0.24977501933E+02 -0.37425116544E+03  0.39793784319E+03  0.12500538260E+03 0.  0.
         25    2    1    2    0    0  0.45170465205E+02 -0.24977501933E+02 -0.30493843538E+03  0.33358185819E+03  0.12500064085E+03 0.  0.
          5    1    4    4  502    0  0.85418392826E+02 -0.34138220274E+02 -0.23243359692E+03  0.25001837311E+03  0.47000000000E+01 0.  1.
         -5    1    4    4    0  502 -0.40247927620E+02  0.91607183408E+01 -0.72504838458E+02  0.83563485076E+02  0.47000000000E+01 0.  1.
          5    1    3    3  503    0  0.20809022097E+02  0.57646022592E+02 -0.17112519894E+03  0.18182959889E+03  0.47000000000E+01 0.  1.
         -5    1    3    3    0  503 -0.65979487302E+02 -0.32668520659E+02 -0.20312596650E+03  0.21610824430E+03  0.47000000000E+01 0.  1.
<mgrwt>
<rscale>  0 0.13524162E+03</rscale>
<asrwt>0</asrwt>
<pdfrwt beam="1">  1        5 0.40253929E-02 0.13524272E+03</pdfrwt>
<pdfrwt beam="2">  1       -5 0.10851609E+00 0.13524272E+03</pdfrwt>
<totfact> 0.17440316E+02</totfact>
</mgrwt>
</event>
<event>
 8    1  0.3754098E-007  0.1616539E+03  0.7546771E-02  0.1186846E+00
         -5   -1    0    0    0  501 -0.00000000000E+00  0.00000000000E+00  0.16819458529E+03  0.16826024046E+03  0.47000000000E+01 0.  1.
          5   -1    0    0  501    0  0.00000000000E+00 -0.00000000000E+00 -0.15539599456E+03  0.15546705479E+03  0.47000000000E+01 0.  1.
         25    2    1    2    0    0  0.10192868920E+03 -0.10833793003E+02  0.10159497951E+01  0.16165706472E+03  0.12500058266E+03 0.  0.
         25    2    1    2    0    0 -0.10192868920E+03  0.10833793003E+02  0.11782640934E+02  0.16207023053E+03  0.12498440000E+03 0.  0.
          5    1    4    4  502    0 -0.14409557622E+00 -0.22324838364E+02 -0.37682761714E+02  0.44051103299E+02  0.47000000000E+01 0.  1.
         -5    1    4    4    0  502 -0.10178459363E+03  0.33158631367E+02  0.49465402648E+02  0.11801912723E+03  0.47000000000E+01 0.  1.
          5    1    3    3  503    0  0.70150544942E+02 -0.37196742886E+02 -0.51447345016E+02  0.94729171569E+02  0.47000000000E+01 0. -1.
         -5    1    3    3    0  503  0.31778144260E+02  0.26362949883E+02  0.52463294811E+02  0.66927893150E+02  0.47000000000E+01 0. -1.
<mgrwt>
<rscale>  0 0.16165074E+03</rscale>
<asrwt>0</asrwt>
<pdfrwt beam="2">  1        5 0.23917593E-01 0.16165387E+03</pdfrwt>
<pdfrwt beam="1">  1       -5 0.25886607E-01 0.16165387E+03</pdfrwt>
<totfact> 0.18010185E+02</totfact>
</mgrwt>
</event>
<event>
 8    1  0.3754098E-007  0.1383621E+03  0.7546771E-02  0.1215553E+00
          5   -1    0    0  501    0  0.00000000000E+00  0.00000000000E+00  0.24018356428E+02  0.24473893141E+02  0.47000000000E+01 0. -1.
         -5   -1    0    0    0  501 -0.00000000000E+00 -0.00000000000E+00 -0.80593762808E+03  0.80595133250E+03  0.47000000000E+01 0. -1.
         25    2    1    2    0    0 -0.49852668669E+02  0.32156620909E+02 -0.45102952152E+03  0.47177503896E+03  0.12499888507E+03 0.  0.
         25    2    1    2    0    0  0.49852668669E+02 -0.32156620909E+02 -0.33088975013E+03  0.35865018667E+03  0.12499037089E+03 0.  0.
          5    1    3    3  502    0 -0.10048650836E+02 -0.21516035490E+02 -0.10850329140E+02  0.26528000476E+02  0.47000000000E+01 0.  1.
         -5    1    3    3    0  502 -0.39804017833E+02  0.53672656399E+02 -0.44017919238E+03  0.44524703849E+03  0.47000000000E+01 0.  1.
          5    1    4    4  503    0  0.47006083279E+02 -0.16907649827E+02 -0.33745317172E+03  0.34116297219E+03  0.47000000000E+01 0. -1.
         -5    1    4    4    0  503  0.28465853899E+01 -0.15248971082E+02  0.65634215890E+01  0.17487214484E+02  0.47000000000E+01 0. -1.
<mgrwt>
<rscale>  0 0.13836013E+03</rscale>
<asrwt>0</asrwt>
<pdfrwt beam="1">  1        5 0.37312278E-02 0.13836205E+03</pdfrwt>
<pdfrwt beam="2">  1       -5 0.12402648E+00 0.13836205E+03</pdfrwt>
<totfact> 0.14204009E+02</totfact>
</mgrwt>
</event>
<event>
 8    1  0.3754098E-007  0.1536609E+03  0.7546771E-02  0.1196047E+00
         -5   -1    0    0    0  501 -0.00000000000E+00  0.00000000000E+00  0.42948570450E+03  0.42951142053E+03  0.47000000000E+01 0. -1.
          5   -1    0    0  501    0  0.00000000000E+00 -0.00000000000E+00 -0.55264588590E+02  0.55464085245E+02  0.47000000000E+01 0. -1.
         25    2    1    2    0    0 -0.16944944180E+02  0.87742599714E+02  0.16606830782E+03  0.22625286124E+03  0.12500311764E+03 0.  0.
         25    2    1    2    0    0  0.16944944180E+02 -0.87742599714E+02  0.20815280809E+03  0.25872264453E+03  0.12499568129E+03 0.  0.
          5    1    4    4  502    0  0.28210233663E+02  0.20717054819E+02  0.95720410766E+02  0.10202696056E+03  0.47000000000E+01 0.  1.
         -5    1    4    4    0  502 -0.11265289484E+02 -0.10845965453E+03  0.11243239732E+03  0.15669568397E+03  0.47000000000E+01 0.  1.
          5    1    3    3  503    0 -0.21860549424E+02  0.55180107806E+02  0.18044517026E+03  0.19001388736E+03  0.47000000000E+01 0.  1.
         -5    1    3    3    0  503  0.49156052444E+01  0.32562491908E+02 -0.14376862445E+02  0.36238973881E+02  0.47000000000E+01 0.  1.
<mgrwt>
<rscale>  0 0.15365939E+03</rscale>
<asrwt>0</asrwt>
<pdfrwt beam="2">  1        5 0.85195685E-02 0.15366091E+03</pdfrwt>
<pdfrwt beam="1">  1       -5 0.66092048E-01 0.15366091E+03</pdfrwt>
<totfact> 0.16527915E+02</totfact>
</mgrwt>
</event>
<event>
 8    1  0.3754098E-007  0.1855968E+03  0.7546771E-02  0.1162494E+00
          5   -1    0    0  501    0  0.00000000000E+00  0.00000000000E+00  0.67409924557E+02  0.67573574190E+02  0.47000000000E+01 0.  1.
         -5   -1    0    0    0  501 -0.00000000000E+00 -0.00000000000E+00 -0.10844791852E+04  0.10844893698E+04  0.47000000000E+01 0.  1.
         25    2    1    2    0    0  0.13716483541E+03 -0.22661164085E+01 -0.92767699472E+03  0.94606014250E+03  0.12500343731E+03 0.  0.
         25    2    1    2    0    0 -0.13716483541E+03  0.22661164085E+01 -0.89392265937E+02  0.20600280147E+03  0.12500739836E+03 0.  0.
          5    1    4    4  502    0 -0.97169401582E+02 -0.27851134842E+02 -0.11193492281E+03  0.15089431819E+03  0.47000000000E+01 0.  1.
         -5    1    4    4    0  502 -0.39995433832E+02  0.30117251250E+02  0.22542656878E+02  0.55108483280E+02  0.47000000000E+01 0.  1.
          5    1    3    3  503    0  0.12891697878E+03 -0.80925597131E+00 -0.44587728169E+03  0.46416471499E+03  0.47000000000E+01 0.  1.
         -5    1    3    3    0  503  0.82478566339E+01 -0.14568604372E+01 -0.48179971303E+03  0.48189542752E+03  0.47000000000E+01 0.  1.
<mgrwt>
<rscale>  0 0.18559615E+03</rscale>
<asrwt>0</asrwt>
<pdfrwt beam="1">  1        5 0.10384130E-01 0.18559681E+03</pdfrwt>
<pdfrwt beam="2">  1       -5 0.16685631E+00 0.18559681E+03</pdfrwt>
<totfact> 0.12216610E+01</totfact>
</mgrwt>
</event>
<event>
 8    1  0.3754098E-007  0.1333053E+03  0.7546771E-02  0.1222639E+00
         -5   -1    0    0    0  501 -0.00000000000E+00  0.00000000000E+00  0.43029934981E+02  0.43285855709E+02  0.47000000000E+01 0.  1.
          5   -1    0    0  501    0  0.00000000000E+00 -0.00000000000E+00 -0.46953383668E+03  0.46955735942E+03  0.47000000000E+01 0.  1.
         25    2    1    2    0    0 -0.21219500393E+02 -0.41095302882E+02 -0.12305111087E+03  0.18140104893E+03  0.12500269417E+03 0.  0.
         25    2    1    2    0    0  0.21219500393E+02  0.41095302882E+02 -0.30345279083E+03  0.33144216621E+03  0.12502488616E+03 0.  0.
          5    1    4    4  502    0 -0.42206142047E+02 -0.68464503177E+00 -0.44395451997E+02  0.61439997748E+02  0.47000000000E+01 0.  1.
         -5    1    4    4    0  502  0.63425642441E+02  0.41779947914E+02 -0.25905733884E+03  0.27000216846E+03  0.47000000000E+01 0.  1.
          5    1    3    3  503    0  0.31163427746E+02  0.23381101284E+02 -0.76699630201E+02  0.86155431629E+02  0.47000000000E+01 0.  1.
         -5    1    3    3    0  503 -0.52382928139E+02 -0.64476404166E+02 -0.46351480665E+02  0.95245617298E+02  0.47000000000E+01 0.  1.
<mgrwt>
<rscale>  0 0.13330013E+03</rscale>
<asrwt>0</asrwt>
<pdfrwt beam="2">  1        5 0.72257467E-01 0.13330534E+03</pdfrwt>
<pdfrwt beam="1">  1       -5 0.66414860E-02 0.13330534E+03</pdfrwt>
<totfact> 0.19751109E+02</totfact>
</mgrwt>
</event>
<event>
 8    1  0.3754098E-007  0.1427461E+03  0.7546771E-02  0.1209682E+00
         -5   -1    0    0    0  501 -0.00000000000E+00  0.00000000000E+00  0.70049908804E+02  0.70207405047E+02  0.47000000000E+01 0.  1.
          5   -1    0    0  501    0  0.00000000000E+00 -0.00000000000E+00 -0.41370009335E+03  0.41372679057E+03  0.47000000000E+01 0.  1.
         25    2    1    2    0    0 -0.16670678472E+02 -0.66884799841E+02 -0.39745460358E+02  0.14817604433E+03  0.12499980210E+03 0.  0.
         25    2    1    2    0    0  0.16670678472E+02  0.66884799841E+02 -0.30390472418E+03  0.33575815129E+03  0.12499586714E+03 0.  0.
          5    1    3    3  502    0  0.33536765493E+02 -0.26964060019E+02 -0.65817140665E+02  0.78776653761E+02  0.47000000000E+01 0.  1.
         -5    1    3    3    0  502 -0.50207443965E+02 -0.39920739822E+02  0.26071680307E+02  0.69399390570E+02  0.47000000000E+01 0.  1.
          5    1    4    4  503    0  0.38888863811E+02  0.96633825091E+02 -0.24050274297E+03  0.26213374307E+03  0.47000000000E+01 0. -1.
         -5    1    4    4    0  503 -0.22218185339E+02 -0.29749025250E+02 -0.63401981215E+02  0.73624408216E+02  0.47000000000E+01 0. -1.
<mgrwt>
<rscale>  0 0.14274520E+03</rscale>
<asrwt>0</asrwt>
<pdfrwt beam="2">  1        5 0.63660335E-01 0.14274606E+03</pdfrwt>
<pdfrwt beam="1">  1       -5 0.10791078E-01 0.14274606E+03</pdfrwt>
<totfact> 0.11623769E+02</totfact>
</mgrwt>
</event>
<event>
 8    1  0.3754098E-007  0.1283570E+03  0.7546771E-02  0.1229915E+00
          5   -1    0    0  501    0  0.00000000000E+00  0.00000000000E+00  0.97827771200E+02  0.97940608626E+02  0.47000000000E+01 0. -1.
         -5   -1    0    0    0  501 -0.00000000000E+00 -0.00000000000E+00 -0.25931200635E+03  0.25935459633E+03  0.47000000000E+01 0. -1.
         25    2    1    2    0    0 -0.17886097406E+02  0.23040744775E+02 -0.18662090504E+03  0.22650137479E+03  0.12499888872E+03 0.  0.
         25    2    1    2    0    0  0.17886097406E+02 -0.23040744775E+02  0.25136669885E+02  0.13079383017E+03  0.12499754173E+03 0.  0.
          5    1    4    4  502    0 -0.25843296749E+02 -0.63400215147E+02  0.11884667199E+02  0.69647674634E+02  0.47000000000E+01 0.  1.
         -5    1    4    4    0  502  0.43729394155E+02  0.40359470372E+02  0.13252002686E+02  0.61146155538E+02  0.47000000000E+01 0.  1.
          5    1    3    3  503    0  0.41819608490E+02 -0.19556603183E+02 -0.35396491888E+02  0.58363875988E+02  0.47000000000E+01 0.  1.
         -5    1    3    3    0  503 -0.59705705896E+02  0.42597347958E+02 -0.15122441315E+03  0.16813749880E+03  0.47000000000E+01 0.  1.
<mgrwt>
<rscale>  0 0.12835664E+03</rscale>
<asrwt>0</asrwt>
<pdfrwt beam="1">  1        5 0.15062382E-01 0.12835697E+03</pdfrwt>
<pdfrwt beam="2">  1       -5 0.39906110E-01 0.12835697E+03</pdfrwt>
<totfact> 0.16694636E+02</totfact>
</mgrwt>
</event>
<event>
 8    1  0.3754098E-007  0.1265505E+03  0.7546771E-02  0.1232677E+00
          5   -1    0    0  501    0  0.00000000000E+00  0.00000000000E+00  0.23318351573E+03  0.23323087705E+03  0.47000000000E+01 0.  1.
         -5   -1    0    0    0  501 -0.00000000000E+00 -0.00000000000E+00 -0.68576617757E+02  0.68737489793E+02  0.47000000000E+01 0.  1.
         25    2    1    2    0    0 -0.16414332910E+01 -0.19507137799E+02  0.78357370056E+02  0.14882132376E+03  0.12499874493E+03 0.  0.
         25    2    1    2    0    0  0.16414332910E+01  0.19507137799E+02  0.86249527919E+02  0.15314704308E+03  0.12502724907E+03 0.  0.
          5    1    4    4  502    0 -0.12888233929E+02 -0.49961260421E+02  0.54683862981E+02  0.75330266076E+02  0.47000000000E+01 0.  1.
         -5    1    4    4    0  502  0.14529667220E+02  0.69468398220E+02  0.31565664938E+02  0.77816777007E+02  0.47000000000E+01 0.  1.
          5    1    3    3  503    0 -0.19163596241E+02  0.15243592839E+02 -0.26793745251E+02  0.36600619231E+02  0.47000000000E+01 0. -1.
         -5    1    3    3    0  503  0.17522162950E+02 -0.34750730637E+02  0.10515111531E+03  0.11222070453E+03  0.47000000000E+01 0. -1.
<mgrwt>
<rscale>  0 0.12654349E+03</rscale>
<asrwt>0</asrwt>
<pdfrwt beam="1">  1        5 0.35890404E-01 0.12655053E+03</pdfrwt>
<pdfrwt beam="2">  1       -5 0.10566267E-01 0.12655053E+03</pdfrwt>
<totfact> 0.38678324E+02</totfact>
</mgrwt>
</event>
<event>
 8    1  0.3754098E-007  0.1463711E+03  0.7546771E-02  0.1205007E+00
         -5   -1    0    0    0  501 -0.00000000000E+00  0.00000000000E+00  0.77669813547E+02  0.77811888143E+02  0.47000000000E+01 0.  1.
          5   -1    0    0  501    0  0.00000000000E+00 -0.00000000000E+00 -0.29314640205E+03  0.29318407705E+03  0.47000000000E+01 0.  1.
         25    2    1    2    0    0  0.19479202214E+02 -0.73621593527E+02 -0.62119863516E+02  0.15899883699E+03  0.12498869696E+03 0.  0.
         25    2    1    2    0    0 -0.19479202214E+02  0.73621593527E+02 -0.15335672499E+03  0.21199712821E+03  0.12499967566E+03 0.  0.
          5    1    4    4  502    0 -0.69692865204E+02  0.27107076274E+02 -0.59177682927E+02  0.95477626704E+02  0.47000000000E+01 0.  1.
         -5    1    4    4    0  502  0.50213662990E+02  0.46514517253E+02 -0.94179042064E+02  0.11651950150E+03  0.47000000000E+01 0.  1.
          5    1    3    3  503    0 -0.75423010305E+01  0.18086610318E+02  0.23229452972E+02  0.30752386298E+02  0.47000000000E+01 0. -1.
         -5    1    3    3    0  503  0.27021503245E+02 -0.91708203845E+02 -0.85349316488E+02  0.12824645069E+03  0.47000000000E+01 0. -1.
<mgrwt>
<rscale>  0 0.14636875E+03</rscale>
<asrwt>0</asrwt>
<pdfrwt beam="2">  1        5 0.45113273E-01 0.14637109E+03</pdfrwt>
<pdfrwt beam="1">  1       -5 0.11963029E-01 0.14637109E+03</pdfrwt>
<totfact> 0.20469362E+02</totfact>
</mgrwt>
</event>
<event>
 8    1  0.3754098E-007  0.1269796E+03  0.7546771E-02  0.1232019E+00
          5   -1    0    0  501    0  0.00000000000E+00  0.00000000000E+00  0.71958699200E+02  0.72112026671E+02  0.47000000000E+01 0. -1.
         -5   -1    0    0    0  501 -0.00000000000E+00 -0.00000000000E+00 -0.24756383238E+03  0.24760844311E+03  0.47000000000E+01 0. -1.
         25    2    1    2    0    0 -0.20452869162E+02  0.88542985520E+01 -0.13752894325E+03  0.18718446440E+03  0.12500837981E+03 0.  0.
         25    2    1    2    0    0  0.20452869162E+02 -0.88542985520E+01 -0.38076189927E+02  0.13253600538E+03  0.12497711000E+03 0.  0.
          5    1    3    3  502    0 -0.55244981287E+02  0.33457469388E+02 -0.12773062956E+03  0.14320828867E+03  0.47000000000E+01 0. -1.
         -5    1    3    3    0  502  0.34792112125E+02 -0.24603170836E+02 -0.97983136916E+01  0.43976175737E+02  0.47000000000E+01 0. -1.
          5    1    4    4  503    0 -0.11748975035E+02 -0.10113639783E+02  0.42577634740E+02  0.45555121601E+02  0.47000000000E+01 0.  1.
         -5    1    4    4    0  503  0.32201844197E+02  0.12593412305E+01 -0.80653824667E+02  0.86980883781E+02  0.47000000000E+01 0.  1.
<mgrwt>
<rscale>  0 0.12697188E+03</rscale>
<asrwt>0</asrwt>
<pdfrwt beam="1">  1        5 0.11085795E-01 0.12697958E+03</pdfrwt>
<pdfrwt beam="2">  1       -5 0.38101969E-01 0.12697958E+03</pdfrwt>
<totfact> 0.31553659E+02</totfact>
</mgrwt>
</event>
<event>
 8    1  0.3754098E-007  0.1294224E+03  0.7546771E-02  0.1228317E+00
         -5   -1    0    0    0  501 -0.00000000000E+00  0.00000000000E+00  0.12107588566E+03  0.12116707510E+03  0.47000000000E+01 0.  1.
          5   -1    0    0  501    0  0.00000000000E+00 -0.00000000000E+00 -0.14557512282E+03  0.14565097454E+03  0.47000000000E+01 0.  1.
         25    2    1    2    0    0 -0.27553044000E+02 -0.19114926589E+02  0.17847693011E+02  0.13064725186E+03  0.12500245445E+03 0.  0.
         25    2    1    2    0    0  0.27553044000E+02  0.19114926589E+02 -0.42346930169E+02  0.13617079778E+03  0.12499869208E+03 0.  0.
          5    1    3    3  502    0 -0.50300663190E+02 -0.23176917275E+02 -0.39800358096E+02  0.68362889906E+02  0.47000000000E+01 0. -1.
         -5    1    3    3    0  502  0.22747619190E+02  0.40619906865E+01  0.57648051107E+02  0.62284361950E+02  0.47000000000E+01 0. -1.
          5    1    4    4  503    0 -0.74130397492E+01  0.64734243709E+02 -0.12197216690E+01  0.65337991918E+02  0.47000000000E+01 0. -1.
         -5    1    4    4    0  503  0.34966083749E+02 -0.45619317120E+02 -0.41127208500E+02  0.70832805862E+02  0.47000000000E+01 0. -1.
<mgrwt>
<rscale>  0 0.12942152E+03</rscale>
<asrwt>0</asrwt>
<pdfrwt beam="2">  1        5 0.22409022E-01 0.12942243E+03</pdfrwt>
<pdfrwt beam="1">  1       -5 0.18639909E-01 0.12942243E+03</pdfrwt>
<totfact> 0.35162428E+02</totfact>
</mgrwt>
</event>
<event>
 8    1  0.3754098E-007  0.1951843E+03  0.7546771E-02  0.1153867E+00
          5   -1    0    0  501    0  0.00000000000E+00  0.00000000000E+00  0.10583893852E+03  0.10594324381E+03  0.47000000000E+01 0. -1.
         -5   -1    0    0    0  501 -0.00000000000E+00 -0.00000000000E+00 -0.44311264711E+03  0.44313757235E+03  0.47000000000E+01 0. -1.
         25    2    1    2    0    0 -0.61904365976E+02  0.13653129906E+03 -0.28776828304E+03  0.34771620465E+03  0.12499211216E+03 0.  0.
         25    2    1    2    0    0  0.61904365976E+02 -0.13653129906E+03 -0.49505425540E+02  0.20136461150E+03  0.12499589377E+03 0.  0.
          5    1    4    4  502    0  0.37697845833E+02 -0.49382904164E+02  0.39992114045E+02  0.74035518435E+02  0.47000000000E+01 0. -1.
         -5    1    4    4    0  502  0.24206520143E+02 -0.87148394891E+02 -0.89497539585E+02  0.12732909307E+03  0.47000000000E+01 0. -1.
          5    1    3    3  503    0 -0.46858958186E+02  0.24983633882E+02 -0.19519908684E+02  0.56772006828E+02  0.47000000000E+01 0. -1.
         -5    1    3    3    0  503 -0.15045407790E+02  0.11154766517E+03 -0.26824837436E+03  0.29094419783E+03  0.47000000000E+01 0. -1.
<mgrwt>
<rscale>  0 0.19518372E+03</rscale>
<asrwt>0</asrwt>
<pdfrwt beam="1">  1        5 0.16292855E-01 0.19518432E+03</pdfrwt>
<pdfrwt beam="2">  1       -5 0.68181116E-01 0.19518432E+03</pdfrwt>
<totfact> 0.52175252E+01</totfact>
</mgrwt>
</event>
<event>
 8    1  0.3754098E-007  0.1610119E+03  0.7546771E-02  0.1187561E+00
         -5   -1    0    0    0  501 -0.00000000000E+00  0.00000000000E+00  0.32926487128E+02  0.33260239846E+02  0.47000000000E+01 0. -1.
          5   -1    0    0  501    0  0.00000000000E+00 -0.00000000000E+00 -0.78860824112E+03  0.78862224668E+03  0.47000000000E+01 0. -1.
         25    2    1    2    0    0 -0.91469185239E+02  0.43950069405E+02 -0.34319380024E+03  0.37908327401E+03  0.12499569458E+03 0.  0.
         25    2    1    2    0    0  0.91469185239E+02 -0.43950069405E+02 -0.41248795375E+03  0.44279921251E+03  0.12500644049E+03 0.  0.
          5    1    4    4  502    0 -0.27112711687E+02 -0.94029032873E+01 -0.14834158911E+03  0.15116491255E+03  0.47000000000E+01 0.  1.
         -5    1    4    4    0  502  0.11858189693E+03 -0.34547166117E+02 -0.26414636464E+03  0.29163429997E+03  0.47000000000E+01 0.  1.
          5    1    3    3  503    0 -0.90080563587E+02 -0.23724618176E+01 -0.11495658459E+03  0.14614117439E+03  0.47000000000E+01 0.  1.
         -5    1    3    3    0  503 -0.13886216522E+01  0.46322531222E+02 -0.22823721565E+03  0.23294209962E+03  0.47000000000E+01 0.  1.
<mgrwt>
<rscale>  0 0.16100981E+03</rscale>
<asrwt>0</asrwt>
<pdfrwt beam="2">  1        5 0.12135108E+00 0.16101190E+03</pdfrwt>
<pdfrwt beam="1">  1       -5 0.50923646E-02 0.16101190E+03</pdfrwt>
<totfact> 0.94256276E+01</totfact>
</mgrwt>
</event>
<event>
 8    1  0.3754098E-007  0.1274500E+03  0.7546771E-02  0.1231290E+00
         -5   -1    0    0    0  501 -0.00000000000E+00  0.00000000000E+00  0.66148080842E+02  0.66314844485E+02  0.47000000000E+01 0. -1.
          5   -1    0    0  501    0  0.00000000000E+00 -0.00000000000E+00 -0.25994418256E+03  0.25998666898E+03  0.47000000000E+01 0. -1.
         25    2    1    2    0    0 -0.22859264441E+02 -0.97749775591E+01 -0.57873895160E+02  0.13997290753E+03  0.12499972378E+03 0.  0.
         25    2    1    2    0    0  0.22859264441E+02  0.97749775591E+01 -0.13592220655E+03  0.18632860593E+03  0.12500162797E+03 0.  0.
          5    1    4    4  502    0  0.65971835475E+01 -0.35357809261E+02  0.57081928135E+01  0.36720171183E+02  0.47000000000E+01 0. -1.
         -5    1    4    4    0  502  0.16262080893E+02  0.45132786820E+02 -0.14163039937E+03  0.14960843474E+03  0.47000000000E+01 0. -1.
          5    1    3    3  503    0  0.61758165139E+01 -0.64280486074E+02 -0.21913850699E+02  0.68355164048E+02  0.47000000000E+01 0. -1.
         -5    1    3    3    0  503 -0.29035080955E+02  0.54505508515E+02 -0.35960044461E+02  0.71617743487E+02  0.47000000000E+01 0. -1.
<mgrwt>
<rscale>  0 0.12744954E+03</rscale>
<asrwt>0</asrwt>
<pdfrwt beam="2">  1        5 0.40007508E-01 0.12745000E+03</pdfrwt>
<pdfrwt beam="1">  1       -5 0.10192724E-01 0.12745000E+03</pdfrwt>
<totfact> 0.33144581E+02</totfact>
</mgrwt>
</event>
<event>
 8    1  0.3754098E-007  0.1399346E+03  0.7546771E-02  0.1213420E+00
         -5   -1    0    0    0  501 -0.00000000000E+00  0.00000000000E+00  0.10467563242E+04  0.10467668757E+04  0.47000000000E+01 0. -1.
          5   -1    0    0  501    0  0.00000000000E+00 -0.00000000000E+00 -0.19050174530E+02  0.19621395200E+02  0.47000000000E+01 0. -1.
         25    2    1    2    0    0 -0.57673803530E+01  0.62656647504E+02  0.61090206149E+03  0.62672404427E+03  0.12499032278E+03 0.  0.
         25    2    1    2    0    0  0.57673803530E+01 -0.62656647504E+02  0.41680408813E+03  0.43966422667E+03  0.12497946301E+03 0.  0.
          5    1    4    4  502    0 -0.42865269904E+02 -0.73493309246E+02  0.31352886471E+03  0.32490173418E+03  0.47000000000E+01 0. -1.
         -5    1    4    4    0  502  0.48632650257E+02  0.10836661742E+02  0.10327522342E+03  0.11476249249E+03  0.47000000000E+01 0. -1.
          5    1    3    3  503    0  0.18906179235E+02  0.12525951460E+02  0.51582459506E+03  0.51634430949E+03  0.47000000000E+01 0.  1.
         -5    1    3    3    0  503 -0.24673559588E+02  0.50130696044E+02  0.95077466426E+02  0.11037973478E+03  0.47000000000E+01 0.  1.
<mgrwt>
<rscale>  0 0.13993220E+03</rscale>
<asrwt>0</asrwt>
<pdfrwt beam="2">  1        5 0.29755458E-02 0.13993462E+03</pdfrwt>
<pdfrwt beam="1">  1       -5 0.16108430E+00 0.13993462E+03</pdfrwt>
<totfact> 0.10218411E+02</totfact>
</mgrwt>
</event>
<event>
 8    1  0.3754098E-007  0.1494019E+03  0.7546771E-02  0.1201211E+00
          5   -1    0    0  501    0  0.00000000000E+00  0.00000000000E+00  0.19881305879E+04  0.19881361434E+04  0.47000000000E+01 0.  1.
         -5   -1    0    0    0  501 -0.00000000000E+00 -0.00000000000E+00 -0.10876345327E+02  0.11848412876E+02  0.47000000000E+01 0.  1.
         25    2    1    2    0    0 -0.63823021221E+02 -0.51179948022E+02  0.87718053018E+03  0.88981199663E+03  0.12500776655E+03 0.  0.
         25    2    1    2    0    0  0.63823021221E+02  0.51179948022E+02  0.11000737124E+04  0.11101725596E+04  0.12501269655E+03 0.  0.
          5    1    3    3  502    0 -0.11291370221E+02  0.21755825481E+02  0.35858525351E+02  0.43689069848E+02  0.47000000000E+01 0. -1.
         -5    1    3    3    0  502 -0.52531651000E+02 -0.72935773503E+02  0.84132200483E+03  0.84612292678E+03  0.47000000000E+01 0. -1.
          5    1    4    4  503    0 -0.94932588406E+01  0.55364548230E+01  0.73108238896E+03  0.73118008982E+03  0.47000000000E+01 0.  1.
         -5    1    4    4    0  503  0.73316280061E+02  0.45643493199E+02  0.36899132347E+03  0.37899246983E+03  0.47000000000E+01 0.  1.
<mgrwt>
<rscale>  0 0.14940091E+03</rscale>
<asrwt>0</asrwt>
<pdfrwt beam="1">  1        5 0.30594164E+00 0.14940194E+03</pdfrwt>
<pdfrwt beam="2">  1       -5 0.17484846E-02 0.14940194E+03</pdfrwt>
<totfact> 0.26886139E+01</totfact>
</mgrwt>
</event>
<event>
 8    1  0.3754098E-007  0.1686505E+03  0.7546771E-02  0.1179263E+00
         -5   -1    0    0    0  501 -0.00000000000E+00  0.00000000000E+00  0.44343110541E+02  0.44591495293E+02  0.47000000000E+01 0.  1.
          5   -1    0    0  501    0  0.00000000000E+00 -0.00000000000E+00 -0.67979740891E+03  0.67981365621E+03  0.47000000000E+01 0.  1.
         25    2    1    2    0    0 -0.10790136371E+03  0.34281691401E+02 -0.22942601224E+03  0.28474425128E+03  0.12500021956E+03 0.  0.
         25    2    1    2    0    0  0.10790136371E+03 -0.34281691401E+02 -0.40602828613E+03  0.43966090022E+03  0.12499919754E+03 0.  0.
          5    1    4    4  502    0  0.73077832838E+02 -0.60589561682E+02 -0.37247368953E+03  0.38440890212E+03  0.47000000000E+01 0.  1.
         -5    1    4    4    0  502  0.34823530867E+02  0.26307870280E+02 -0.33554596603E+02  0.55251998099E+02  0.47000000000E+01 0.  1.
          5    1    3    3  503    0 -0.13196210134E+03  0.41100603522E+02 -0.21457977260E+03  0.25528381188E+03  0.47000000000E+01 0.  1.
         -5    1    3    3    0  503  0.24060737638E+02 -0.68189121210E+01 -0.14846239645E+02  0.29460439403E+02  0.47000000000E+01 0.  1.
<mgrwt>
<rscale>  0 0.16865032E+03</rscale>
<asrwt>0</asrwt>
<pdfrwt beam="2">  1        5 0.10460457E+00 0.16865051E+03</pdfrwt>
<pdfrwt beam="1">  1       -5 0.68423738E-02 0.16865051E+03</pdfrwt>
<totfact> 0.84362733E+01</totfact>
</mgrwt>
</event>
<event>
 8    1  0.3754098E-007  0.1430873E+03  0.7546771E-02  0.1209237E+00
         -5   -1    0    0    0  501 -0.00000000000E+00  0.00000000000E+00  0.63382967887E+03  0.63384710445E+03  0.47000000000E+01 0.  1.
          5   -1    0    0  501    0  0.00000000000E+00 -0.00000000000E+00 -0.11443426433E+03  0.11453074196E+03  0.47000000000E+01 0.  1.
         25    2    1    2    0    0  0.68029683517E+02 -0.14815049151E+02  0.57674842841E+03  0.59423289131E+03  0.12500582351E+03 0.  0.
         25    2    1    2    0    0 -0.68029683517E+02  0.14815049151E+02 -0.57353013880E+02  0.15414495510E+03  0.12499510174E+03 0.  0.
          5    1    4    4  502    0 -0.33093619054E+02 -0.52057027934E+02 -0.47440079997E+01  0.62046090862E+02  0.47000000000E+01 0.  1.
         -5    1    4    4    0  502 -0.34936064463E+02  0.66872077084E+02 -0.52609005881E+02  0.92098864235E+02  0.47000000000E+01 0.  1.
          5    1    3    3  503    0  0.52681750663E+02  0.23969371084E+02  0.52212701807E+03  0.52534618168E+03  0.47000000000E+01 0.  1.
         -5    1    3    3    0  503  0.15347932854E+02 -0.38784420234E+02  0.54621410344E+02  0.68886709631E+02  0.47000000000E+01 0.  1.
<mgrwt>
<rscale>  0 0.14308497E+03</rscale>
<asrwt>0</asrwt>
<pdfrwt beam="2">  1        5 0.17614033E-01 0.14308731E+03</pdfrwt>
<pdfrwt beam="1">  1       -5 0.97521022E-01 0.14308731E+03</pdfrwt>
<totfact> 0.17995376E+01</totfact>
</mgrwt>
</event>
<event>
 8    1  0.3754098E-007  0.1433262E+03  0.7546771E-02  0.1208924E+00
         -5   -1    0    0    0  501 -0.00000000000E+00  0.00000000000E+00  0.40329249045E+03  0.40331987659E+03  0.47000000000E+01 0. -1.
          5   -1    0    0  501    0  0.00000000000E+00 -0.00000000000E+00 -0.56817780434E+02  0.57011842396E+02  0.47000000000E+01 0. -1.
         25    2    1    2    0    0  0.62352410361E+02  0.32084193770E+02  0.24800405933E+03  0.28643845296E+03  0.12499502119E+03 0.  0.
         25    2    1    2    0    0 -0.62352410361E+02 -0.32084193770E+02  0.98470650680E+02  0.17389326602E+03  0.12500072142E+03 0.  0.
          5    1    3    3  502    0 -0.33136011227E+02  0.16105480448E+02  0.29607819985E+02  0.47498365706E+02  0.47000000000E+01 0.  1.
         -5    1    3    3    0  502  0.95488421588E+02  0.15978713322E+02  0.21839623935E+03  0.23894008726E+03  0.47000000000E+01 0.  1.
          5    1    4    4  503    0  0.21155752078E+01 -0.67050279787E+02  0.30698029721E+02  0.73923438142E+02  0.47000000000E+01 0. -1.
         -5    1    4    4    0  503 -0.64467985569E+02  0.34966086017E+02  0.67772620959E+02  0.99969827880E+02  0.47000000000E+01 0. -1.
<mgrwt>
<rscale>  0 0.14332495E+03</rscale>
<asrwt>0</asrwt>
<pdfrwt beam="2">  1        5 0.87582313E-02 0.14332620E+03</pdfrwt>
<pdfrwt beam="1">  1       -5 0.62062034E-01 0.14332620E+03</pdfrwt>
<totfact> 0.17711783E+02</totfact>
</mgrwt>
</event>
<event>
 8    1  0.3754098E-007  0.1288821E+03  0.7546771E-02  0.1229129E+00
          5   -1    0    0  501    0  0.00000000000E+00  0.00000000000E+00  0.11973577978E+03  0.11982798905E+03  0.47000000000E+01 0.  1.
         -5   -1    0    0    0  501 -0.00000000000E+00 -0.00000000000E+00 -0.13870456433E+03  0.13878417117E+03  0.47000000000E+01 0.  1.
         25    2    1    2    0    0  0.90852018307E+01 -0.30014843291E+02 -0.14092513190E+02  0.12963786882E+03  0.12499578551E+03 0.  0.
         25    2    1    2    0    0 -0.90852018307E+01  0.30014843291E+02 -0.48762713606E+01  0.12897429139E+03  0.12500863213E+03 0.  0.
          5    1    4    4  502    0  0.17490605993E+02 -0.25671434961E+02  0.41207843543E+02  0.51818145860E+02  0.47000000000E+01 0. -1.
         -5    1    4    4    0  502 -0.26575807823E+02  0.55686278252E+02 -0.46084114904E+02  0.77156145533E+02  0.47000000000E+01 0. -1.
          5    1    3    3  503    0  0.13575247164E+01  0.48245932524E+02 -0.15291168350E+02  0.50847052107E+02  0.47000000000E+01 0.  1.
         -5    1    3    3    0  503  0.77276771143E+01 -0.78260775815E+02  0.11986551599E+01  0.78790816717E+02  0.47000000000E+01 0.  1.
<mgrwt>
<rscale>  0 0.12887896E+03</rscale>
<asrwt>0</asrwt>
<pdfrwt beam="1">  1        5 0.18434106E-01 0.12888208E+03</pdfrwt>
<pdfrwt beam="2">  1       -5 0.21352380E-01 0.12888208E+03</pdfrwt>
<totfact> 0.39248751E+02</totfact>
</mgrwt>
</event>
<event>
 8    1  0.3754098E-007  0.1753283E+03  0.7546771E-02  0.1172404E+00
         -5   -1    0    0    0  501 -0.00000000000E+00  0.00000000000E+00  0.56699281812E+02  0.56893747970E+02  0.47000000000E+01 0. -1.
          5   -1    0    0  501    0  0.00000000000E+00 -0.00000000000E+00 -0.55600287723E+03  0.55602274188E+03  0.47000000000E+01 0. -1.
         25    2    1    2    0    0  0.84189540576E+01 -0.12265094532E+03 -0.29996149507E+03  0.34744093808E+03  0.12499669497E+03 0.  0.
         25    2    1    2    0    0 -0.84189540576E+01  0.12265094532E+03 -0.19934210035E+03  0.26547555177E+03  0.12500344972E+03 0.  0.
          5    1    4    4  502    0  0.51288862577E+02  0.17726179505E+02 -0.64721820652E+02  0.84591778163E+02  0.47000000000E+01 0.  1.
         -5    1    4    4    0  502 -0.59707816635E+02  0.10492476582E+03 -0.13462027969E+03  0.18088377360E+03  0.47000000000E+01 0.  1.
          5    1    3    3  503    0  0.53154056929E+02 -0.19893837244E+02 -0.60942364014E+02  0.83409713223E+02  0.47000000000E+01 0. -1.
         -5    1    3    3    0  503 -0.44735102871E+02 -0.10275710808E+03 -0.23901913106E+03  0.26403122486E+03  0.47000000000E+01 0. -1.
<mgrwt>
<rscale>  0 0.17532705E+03</rscale>
<asrwt>0</asrwt>
<pdfrwt beam="2">  1        5 0.85555388E-01 0.17532825E+03</pdfrwt>
<pdfrwt beam="1">  1       -5 0.87394538E-02 0.17532825E+03</pdfrwt>
<totfact> 0.91038819E+01</totfact>
</mgrwt>
</event>
<event>
 8    1  0.3754098E-007  0.1278958E+03  0.7546771E-02  0.1230615E+00
          5   -1    0    0  501    0  0.00000000000E+00  0.00000000000E+00  0.89804944749E+03  0.89806174628E+03  0.47000000000E+01 0. -1.
         -5   -1    0    0    0  501 -0.00000000000E+00 -0.00000000000E+00 -0.19197623104E+02  0.19764582789E+02  0.47000000000E+01 0. -1.
         25    2    1    2    0    0 -0.99230756727E+00 -0.26986110322E+02  0.32182681541E+03  0.34630886958E+03  0.12501239623E+03 0.  0.
         25    2    1    2    0    0  0.99230756727E+00  0.26986110322E+02  0.55702500897E+03  0.57151745948E+03  0.12500444412E+03 0.  0.
          5    1    3    3  502    0 -0.52830494988E+02  0.17800983828E+02  0.18410171233E+03  0.19241482976E+03  0.47000000000E+01 0.  1.
         -5    1    3    3    0  502  0.51838187420E+02 -0.44787094150E+02  0.13772510308E+03  0.15389403983E+03  0.47000000000E+01 0.  1.
          5    1    4    4  503    0 -0.41154276422E+02 -0.11946698877E+02  0.78642968964E+02  0.89683915221E+02  0.47000000000E+01 0.  1.
         -5    1    4    4    0  503  0.42146583989E+02  0.38932809199E+02  0.47838204001E+03  0.48183354426E+03  0.47000000000E+01 0.  1.
<mgrwt>
<rscale>  0 0.12789385E+03</rscale>
<asrwt>0</asrwt>
<pdfrwt beam="1">  1        5 0.13820600E+00 0.12789579E+03</pdfrwt>
<pdfrwt beam="2">  1       -5 0.29980390E-02 0.12789579E+03</pdfrwt>
<totfact> 0.14890158E+02</totfact>
</mgrwt>
</event>
<event>
 8    1  0.3754098E-007  0.1844820E+03  0.7546771E-02  0.1163541E+00
         -5   -1    0    0    0  501 -0.00000000000E+00  0.00000000000E+00  0.19146876058E+03  0.19152643755E+03  0.47000000000E+01 0.  1.
          5   -1    0    0  501    0  0.00000000000E+00 -0.00000000000E+00 -0.19009921797E+03  0.19015731033E+03  0.47000000000E+01 0.  1.
         25    2    1    2    0    0 -0.33953056090E-02 -0.13563633148E+03  0.49590703669E+02  0.19103102041E+03  0.12504558545E+03 0.  0.
         25    2    1    2    0    0  0.33953056090E-02  0.13563633148E+03 -0.48221161054E+02  0.19065272746E+03  0.12500387069E+03 0.  0.
          5    1    4    4  502    0 -0.26992910614E+02  0.96829837127E+02 -0.84078430257E+02  0.13113316520E+03  0.47000000000E+01 0.  1.
         -5    1    4    4    0  502  0.26996305920E+02  0.38806494351E+02  0.35857269203E+02  0.59519562261E+02  0.47000000000E+01 0.  1.
          5    1    3    3  503    0  0.54588268366E+02 -0.10905601115E+03  0.21341174705E+02  0.12389765272E+03  0.47000000000E+01 0.  1.
         -5    1    3    3    0  503 -0.54591663671E+02 -0.26580320323E+02  0.28249528964E+02  0.67133367691E+02  0.47000000000E+01 0.  1.
<mgrwt>
<rscale>  0 0.18447494E+03</rscale>
<asrwt>0</asrwt>
<pdfrwt beam="2">  1        5 0.29254939E-01 0.18448201E+03</pdfrwt>
<pdfrwt beam="1">  1       -5 0.29465638E-01 0.18448201E+03</pdfrwt>
<totfact> 0.98508220E+01</totfact>
</mgrwt>
</event>
<event>
 8    1  0.3754098E-007  0.1636672E+03  0.7546771E-02  0.1184618E+00
          5   -1    0    0  501    0  0.00000000000E+00  0.00000000000E+00  0.98590850960E+03  0.98591971241E+03  0.47000000000E+01 0. -1.
         -5   -1    0    0    0  501 -0.00000000000E+00 -0.00000000000E+00 -0.40761839304E+02  0.41031908845E+02  0.47000000000E+01 0. -1.
         25    2    1    2    0    0  0.67424561419E+02 -0.81334284230E+02  0.17500680741E+03  0.23961288117E+03  0.12500245161E+03 0.  0.
         25    2    1    2    0    0 -0.67424561419E+02  0.81334284230E+02  0.77013986289E+03  0.78733874008E+03  0.12500218378E+03 0.  0.
          5    1    4    4  502    0 -0.57044577879E+01  0.68263419038E+02  0.16245078892E+03  0.17636548426E+03  0.47000000000E+01 0. -1.
         -5    1    4    4    0  502 -0.61720103631E+02  0.13070865192E+02  0.60768907397E+03  0.61097325582E+03  0.47000000000E+01 0. -1.
          5    1    3    3  503    0  0.61122138685E+02 -0.11409923240E+03  0.14577532761E+03  0.19500535073E+03  0.47000000000E+01 0.  1.
         -5    1    3    3    0  503  0.63024227346E+01  0.32764948169E+02  0.29231479803E+02  0.44607530444E+02  0.47000000000E+01 0.  1.
<mgrwt>
<rscale>  0 0.16366714E+03</rscale>
<asrwt>0</asrwt>
<pdfrwt beam="1">  1        5 0.15169987E+00 0.16366719E+03</pdfrwt>
<pdfrwt beam="2">  1       -5 0.62926885E-02 0.16366719E+03</pdfrwt>
<totfact> 0.36699881E+01</totfact>
</mgrwt>
</event>
<event>
 8    1  0.3754098E-007  0.2077819E+03  0.7546771E-02  0.1143335E+00
         -5   -1    0    0    0  501 -0.00000000000E+00  0.00000000000E+00  0.18940682570E+03  0.18946513035E+03  0.47000000000E+01 0. -1.
          5   -1    0    0  501    0  0.00000000000E+00 -0.00000000000E+00 -0.26410951251E+03  0.26415132897E+03  0.47000000000E+01 0. -1.
         25    2    1    2    0    0  0.11821593898E+03 -0.11650182210E+03  0.46703535621E+02  0.21296572889E+03  0.12500199462E+03 0.  0.
         25    2    1    2    0    0 -0.11821593898E+03  0.11650182210E+03 -0.12140622244E+03  0.24065073044E+03  0.12500248170E+03 0.  0.
          5    1    4    4  502    0 -0.54846131322E+02 -0.12433865765E+02 -0.68606724137E+01  0.56849432405E+02  0.47000000000E+01 0. -1.
         -5    1    4    4    0  502 -0.63369807663E+02  0.12893568787E+03 -0.11454555002E+03  0.18380129804E+03  0.47000000000E+01 0. -1.
          5    1    3    3  503    0  0.10599082814E+03 -0.75294372288E+02  0.84836028353E+02  0.15531432598E+03  0.47000000000E+01 0. -1.
         -5    1    3    3    0  503  0.12225110847E+02 -0.41207449814E+02 -0.38132492731E+02  0.57651402909E+02  0.47000000000E+01 0. -1.
<mgrwt>
<rscale>  0 0.20778179E+03</rscale>
<asrwt>0</asrwt>
<pdfrwt beam="2">  1        5 0.40639934E-01 0.20778186E+03</pdfrwt>
<pdfrwt beam="1">  1       -5 0.29147213E-01 0.20778186E+03</pdfrwt>
<totfact> 0.53614693E+01</totfact>
</mgrwt>
</event>
<event>
 8    1  0.3754098E-007  0.1347369E+03  0.7546771E-02  0.1220595E+00
          5   -1    0    0  501    0  0.00000000000E+00  0.00000000000E+00  0.49663753937E+03  0.49665977843E+03  0.47000000000E+01 0.  1.
         -5   -1    0    0    0  501 -0.00000000000E+00 -0.00000000000E+00 -0.41956474120E+02  0.42218902408E+02  0.47000000000E+01 0.  1.
         25    2    1    2    0    0 -0.36204686138E+02 -0.34831242700E+02  0.12943371676E+03  0.18682772984E+03  0.12501007494E+03 0.  0.
         25    2    1    2    0    0  0.36204686138E+02  0.34831242700E+02  0.32524734849E+03  0.35205095101E+03  0.12502015692E+03 0.  0.
          5    1    3    3  502    0  0.15092313411E+02 -0.69365397101E+02  0.54876476828E+02  0.89849062032E+02  0.47000000000E+01 0. -1.
         -5    1    3    3    0  502 -0.51296999548E+02  0.34534154401E+02  0.74557239932E+02  0.96978667805E+02  0.47000000000E+01 0. -1.
          5    1    4    4  503    0 -0.81864404740E+00 -0.23089963447E+01  0.28681655308E+03  0.28686552034E+03  0.47000000000E+01 0. -1.
         -5    1    4    4    0  503  0.37023330185E+02  0.37140239044E+02  0.38430795414E+02  0.65185430661E+02  0.47000000000E+01 0. -1.
<mgrwt>
<rscale>  0 0.13473457E+03</rscale>
<asrwt>0</asrwt>
<pdfrwt beam="1">  1        5 0.76427676E-01 0.13473691E+03</pdfrwt>
<pdfrwt beam="2">  1       -5 0.64767394E-02 0.13473691E+03</pdfrwt>
<totfact> 0.18199559E+02</totfact>
</mgrwt>
</event>
<event>
 8    1  0.3754098E-007  0.1724106E+03  0.7546771E-02  0.1175358E+00
         -5   -1    0    0    0  501 -0.00000000000E+00  0.00000000000E+00  0.88168557658E+02  0.88293740206E+02  0.47000000000E+01 0.  1.
          5   -1    0    0  501    0  0.00000000000E+00 -0.00000000000E+00 -0.34258638948E+03  0.34261862800E+03  0.47000000000E+01 0.  1.
         25    2    1    2    0    0  0.74312026829E+02 -0.92608274019E+02 -0.99107142536E+02  0.19886590102E+03  0.12500740434E+03 0.  0.
         25    2    1    2    0    0 -0.74312026829E+02  0.92608274019E+02 -0.15531068928E+03  0.23204646719E+03  0.12500233190E+03 0.  0.
          5    1    3    3  502    0  0.10169879242E+03 -0.39320428663E+02 -0.81602092931E+02  0.13627080414E+03  0.47000000000E+01 0. -1.
         -5    1    3    3    0  502 -0.27386765590E+02 -0.53287845356E+02 -0.17505049606E+02  0.62595096884E+02  0.47000000000E+01 0. -1.
          5    1    4    4  503    0 -0.15582040278E+02 -0.16226141323E+02  0.10397115098E+02  0.25224544472E+02  0.47000000000E+01 0.  1.
         -5    1    4    4    0  503 -0.58729986550E+02  0.10883441534E+03 -0.16570780438E+03  0.20682192272E+03  0.47000000000E+01 0.  1.
<mgrwt>
<rscale>  0 0.17240970E+03</rscale>
<asrwt>0</asrwt>
<pdfrwt beam="2">  1        5 0.52717707E-01 0.17241062E+03</pdfrwt>
<pdfrwt beam="1">  1       -5 0.13576503E-01 0.17241062E+03</pdfrwt>
<totfact> 0.12360950E+02</totfact>
</mgrwt>
</event>
<event>
 8    1  0.3754098E-007  0.1311374E+03  0.7546771E-02  0.1225780E+00
         -5   -1    0    0    0  501 -0.00000000000E+00  0.00000000000E+00  0.63375028239E+02  0.63549069263E+02  0.47000000000E+01 0.  1.
          5   -1    0    0  501    0  0.00000000000E+00 -0.00000000000E+00 -0.27088828006E+03  0.27092905026E+03  0.47000000000E+01 0.  1.
         25    2    1    2    0    0 -0.31507396879E+02 -0.24079655835E+02 -0.10031196032E+03  0.16510452278E+03  0.12499787269E+03 0.  0.
         25    2    1    2    0    0  0.31507396879E+02  0.24079655835E+02 -0.10720129150E+03  0.16937359674E+03  0.12499100963E+03 0.  0.
          5    1    4    4  502    0  0.11620877044E+01  0.67601054658E+02 -0.91456056386E+02  0.11383124917E+03  0.47000000000E+01 0. -1.
         -5    1    4    4    0  502  0.30345309174E+02 -0.43521398822E+02 -0.15745235119E+02  0.55542347567E+02  0.47000000000E+01 0. -1.
          5    1    3    3  503    0  0.12866843029E+02  0.45651415686E+02 -0.44933180475E+02  0.65503344276E+02  0.47000000000E+01 0. -1.
         -5    1    3    3    0  503 -0.44374239908E+02 -0.69731071522E+02 -0.55378779843E+02  0.99601178506E+02  0.47000000000E+01 0. -1.
<mgrwt>
<rscale>  0 0.13113575E+03</rscale>
<asrwt>0</asrwt>
<pdfrwt beam="2">  1        5 0.41691643E-01 0.13113739E+03</pdfrwt>
<pdfrwt beam="1">  1       -5 0.97665285E-02 0.13113739E+03</pdfrwt>
<totfact> 0.33157017E+02</totfact>
</mgrwt>
</event>
<event>
 8    1  0.3754098E-007  0.2252370E+03  0.7546771E-02  0.1130039E+00
         -5   -1    0    0    0  501 -0.00000000000E+00  0.00000000000E+00  0.23070090238E+03  0.23074877326E+03  0.47000000000E+01 0.  1.
          5   -1    0    0  501    0  0.00000000000E+00 -0.00000000000E+00 -0.24290011822E+03  0.24294558533E+03  0.47000000000E+01 0.  1.
         25    2    1    2    0    0  0.14681666782E+03  0.11640457786E+03  0.66928568531E+02  0.23497046719E+03  0.12500610971E+03 0.  0.
         25    2    1    2    0    0 -0.14681666782E+03 -0.11640457786E+03 -0.79127784370E+02  0.23872389140E+03  0.12499092113E+03 0.  0.
          5    1    4    4  502    0  0.15091875685E+02  0.10495314880E+02 -0.11209176520E+02  0.22037513117E+02  0.47000000000E+01 0.  1.
         -5    1    4    4    0  502 -0.16190854351E+03 -0.12689989274E+03 -0.67918607850E+02  0.21668637828E+03  0.47000000000E+01 0.  1.
          5    1    3    3  503    0  0.15518964268E+03  0.60127660031E+02  0.62006935266E+02  0.17766854172E+03  0.47000000000E+01 0. -1.
         -5    1    3    3    0  503 -0.83729748518E+01  0.56276917833E+02  0.49216332650E+01  0.57301925471E+02  0.47000000000E+01 0. -1.
<mgrwt>
<rscale>  0 0.22523485E+03</rscale>
<asrwt>0</asrwt>
<pdfrwt beam="2">  1        5 0.37376429E-01 0.22523696E+03</pdfrwt>
<pdfrwt beam="1">  1       -5 0.35499626E-01 0.22523696E+03</pdfrwt>
<totfact> 0.43836932E+01</totfact>
</mgrwt>
</event>
<event>
 8    1  0.3754098E-007  0.1360414E+03  0.7546771E-02  0.1218759E+00
         -5   -1    0    0    0  501 -0.00000000000E+00  0.00000000000E+00  0.68394580565E+03  0.68396195440E+03  0.47000000000E+01 0.  1.
          5   -1    0    0  501    0  0.00000000000E+00 -0.00000000000E+00 -0.89020347039E+02  0.89144333454E+02  0.47000000000E+01 0.  1.
         25    2    1    2    0    0 -0.52274808479E+02 -0.12175037459E+02  0.62002123875E+03  0.63476950813E+03  0.12500041923E+03 0.  0.
         25    2    1    2    0    0  0.52274808479E+02  0.12175037459E+02 -0.25095780143E+02  0.13833677972E+03  0.12500551710E+03 0.  0.
          5    1    4    4  502    0 -0.96669043954E+01 -0.36535447016E+02  0.24337253558E+02  0.45196015754E+02  0.47000000000E+01 0.  1.
         -5    1    4    4    0  502  0.61941712875E+02  0.48710484475E+02 -0.49433033702E+02  0.93140763968E+02  0.47000000000E+01 0.  1.
          5    1    3    3  503    0 -0.31444621907E+02  0.37632772547E+02  0.95521816431E+02  0.10747789182E+03  0.47000000000E+01 0.  1.
         -5    1    3    3    0  503 -0.20830186572E+02 -0.49807810007E+02  0.52449942232E+03  0.52729161631E+03  0.47000000000E+01 0.  1.
<mgrwt>
<rscale>  0 0.13604024E+03</rscale>
<asrwt>0</asrwt>
<pdfrwt beam="2">  1        5 0.13706218E-01 0.13604141E+03</pdfrwt>
<pdfrwt beam="1">  1       -5 0.10523321E+00 0.13604141E+03</pdfrwt>
<totfact> 0.23229017E+01</totfact>
</mgrwt>
</event>
<event>
 8    1  0.3754098E-007  0.1291738E+03  0.7546771E-02  0.1228688E+00
         -5   -1    0    0    0  501 -0.00000000000E+00  0.00000000000E+00  0.45411011533E+03  0.45413443697E+03  0.47000000000E+01 0. -1.
          5   -1    0    0  501    0  0.00000000000E+00 -0.00000000000E+00 -0.38884238282E+02  0.39167256564E+02  0.47000000000E+01 0. -1.
         25    2    1    2    0    0  0.32169092452E+02 -0.51096619492E+01  0.26758110735E+03  0.29712878287E+03  0.12499962178E+03 0.  0.
         25    2    1    2    0    0 -0.32169092452E+02  0.51096619492E+01  0.14764476970E+03  0.19617291067E+03  0.12499549474E+03 0.  0.
          5    1    3    3  502    0  0.12992615427E+02  0.48075997236E+02  0.44513954061E+02  0.66960373893E+02  0.47000000000E+01 0. -1.
         -5    1    3    3    0  502  0.19176477025E+02 -0.53185659185E+02  0.22306715328E+03  0.23016840897E+03  0.47000000000E+01 0. -1.
          5    1    4    4  503    0 -0.49877625544E+01  0.62725473179E+02  0.55389999874E+02  0.83961329473E+02  0.47000000000E+01 0.  1.
         -5    1    4    4    0  503 -0.27181329898E+02 -0.57615811230E+02  0.92254769824E+02  0.11221158119E+03  0.47000000000E+01 0.  1.
<mgrwt>
<rscale>  0 0.12917278E+03</rscale>
<asrwt>0</asrwt>
<pdfrwt beam="2">  1        5 0.60058319E-02 0.12917378E+03</pdfrwt>
<pdfrwt beam="1">  1       -5 0.69886738E-01 0.12917378E+03</pdfrwt>
<totfact> 0.24951189E+02</totfact>
</mgrwt>
</event>
<event>
 8    1  0.3754098E-007  0.1288582E+03  0.7546771E-02  0.1229165E+00
         -5   -1    0    0    0  501 -0.00000000000E+00  0.00000000000E+00  0.48882087214E+02  0.49107519286E+02  0.47000000000E+01 0.  1.
          5   -1    0    0  501    0  0.00000000000E+00 -0.00000000000E+00 -0.55833662652E+03  0.55835640815E+03  0.47000000000E+01 0.  1.
         25    2    1    2    0    0 -0.30932604040E+02  0.46841022386E+01 -0.64246060596E+02  0.14398610260E+03  0.12500269851E+03 0.  0.
         25    2    1    2    0    0  0.30932604040E+02 -0.46841022386E+01 -0.44520847871E+03  0.46347782483E+03  0.12498935067E+03 0.  0.
          5    1    3    3  502    0 -0.17914611924E+02  0.61625094152E+02 -0.11956902557E+02  0.65449545975E+02  0.47000000000E+01 0. -1.
         -5    1    3    3    0  502 -0.13017992116E+02 -0.56940991913E+02 -0.52289158039E+02  0.78536556629E+02  0.47000000000E+01 0. -1.
          5    1    4    4  503    0 -0.17869058329E+02 -0.31295586356E+02 -0.35874262910E+03  0.36057881373E+03  0.47000000000E+01 0.  1.
         -5    1    4    4    0  503  0.48801662369E+02  0.26611484118E+02 -0.86465849609E+02  0.10289901110E+03  0.47000000000E+01 0.  1.
<mgrwt>
<rscale>  0 0.12885499E+03</rscale>
<asrwt>0</asrwt>
<pdfrwt beam="2">  1        5 0.85916801E-01 0.12885822E+03</pdfrwt>
<pdfrwt beam="1">  1       -5 0.75391841E-02 0.12885822E+03</pdfrwt>
<totfact> 0.10562452E+02</totfact>
</mgrwt>
</event>
<event>
 8    1  0.3754098E-007  0.1378785E+03  0.7546771E-02  0.1216213E+00
         -5   -1    0    0    0  501 -0.00000000000E+00  0.00000000000E+00  0.16000427463E+03  0.16007328915E+03  0.47000000000E+01 0. -1.
          5   -1    0    0  501    0  0.00000000000E+00 -0.00000000000E+00 -0.11875412341E+03  0.11884709431E+03  0.47000000000E+01 0. -1.
         25    2    1    2    0    0 -0.41106530565E+02  0.41183684542E+02  0.24316255870E+02  0.14000588592E+03  0.12499810024E+03 0.  0.
         25    2    1    2    0    0  0.41106530565E+02 -0.41183684542E+02  0.16933895353E+02  0.13891449755E+03  0.12499855235E+03 0.  0.
          5    1    3    3  502    0 -0.47100371063E+02  0.78194042762E+02 -0.59420200016E+01  0.91597766782E+02  0.47000000000E+01 0.  1.
         -5    1    3    3    0  502  0.59938404980E+01 -0.37010358220E+02  0.30258275871E+02  0.48408119135E+02  0.47000000000E+01 0.  1.
          5    1    4    4  503    0  0.71043306980E+02 -0.51759033609E+02 -0.19708093507E+02  0.90203370095E+02  0.47000000000E+01 0.  1.
         -5    1    4    4    0  503 -0.29936776415E+02  0.10575349067E+02  0.36641988860E+02  0.48711127452E+02  0.47000000000E+01 0.  1.
<mgrwt>
<rscale>  0 0.13787840E+03</rscale>
<asrwt>0</asrwt>
<pdfrwt beam="2">  1        5 0.18282326E-01 0.13787850E+03</pdfrwt>
<pdfrwt beam="1">  1       -5 0.24628503E-01 0.13787850E+03</pdfrwt>
<totfact> 0.31144684E+02</totfact>
</mgrwt>
</event>
<event>
 8    1  0.3754098E-007  0.1258647E+03  0.7546771E-02  0.1233726E+00
          5   -1    0    0  501    0  0.00000000000E+00  0.00000000000E+00  0.43289836853E+02  0.43544230097E+02  0.47000000000E+01 0.  1.
         -5   -1    0    0    0  501 -0.00000000000E+00 -0.00000000000E+00 -0.41019018313E+03  0.41021710878E+03  0.47000000000E+01 0.  1.
         25    2    1    2    0    0 -0.92771044267E+01 -0.11428563526E+02 -0.25906307330E+03  0.28801819315E+03  0.12499650758E+03 0.  0.
         25    2    1    2    0    0  0.92771044267E+01  0.11428563526E+02 -0.10783727298E+03  0.16574314573E+03  0.12500094472E+03 0.  0.
          5    1    4    4  502    0 -0.23957249858E+02  0.60823013268E+02 -0.48291592845E+02  0.81409807169E+02  0.47000000000E+01 0. -1.
         -5    1    4    4    0  502  0.33234354285E+02 -0.49394449743E+02 -0.59545680132E+02  0.84333338559E+02  0.47000000000E+01 0. -1.
          5    1    3    3  503    0  0.41253186411E+02  0.21317851938E+02 -0.42269327361E+02  0.62968740148E+02  0.47000000000E+01 0. -1.
         -5    1    3    3    0  503 -0.50530290838E+02 -0.32746415463E+02 -0.21679374594E+03  0.22504945300E+03  0.47000000000E+01 0. -1.
<mgrwt>
<rscale>  0 0.12586356E+03</rscale>
<asrwt>0</asrwt>
<pdfrwt beam="1">  1        5 0.66816151E-02 0.12586466E+03</pdfrwt>
<pdfrwt beam="2">  1       -5 0.63127819E-01 0.12586466E+03</pdfrwt>
<totfact> 0.25905680E+02</totfact>
</mgrwt>
</event>
<event>
 8    1  0.3754098E-007  0.1941881E+03  0.7546771E-02  0.1154738E+00
         -5   -1    0    0    0  501 -0.00000000000E+00  0.00000000000E+00  0.16000026459E+03  0.16006928084E+03  0.47000000000E+01 0. -1.
          5   -1    0    0  501    0  0.00000000000E+00 -0.00000000000E+00 -0.26696694591E+03  0.26700831487E+03  0.47000000000E+01 0. -1.
         25    2    1    2    0    0 -0.94610156634E+02 -0.11460094517E+03  0.19775894428E+02  0.19518815026E+03  0.12499147822E+03 0.  0.
         25    2    1    2    0    0  0.94610156634E+02  0.11460094517E+03 -0.12674257575E+03  0.23188944545E+03  0.12499830412E+03 0.  0.
          5    1    4    4  502    0  0.78423245725E+02  0.10228129772E+03 -0.15185444196E+03  0.19923235399E+03  0.47000000000E+01 0.  1.
         -5    1    4    4    0  502  0.16186910909E+02  0.12319647453E+02  0.25111866211E+02  0.32657091462E+02  0.47000000000E+01 0.  1.
          5    1    3    3  503    0 -0.23332432881E+01  0.21809412210E+02 -0.14757445201E+02  0.26850822595E+02  0.47000000000E+01 0.  1.
         -5    1    3    3    0  503 -0.92276913346E+02 -0.13641035738E+03  0.34533339629E+02  0.16833732766E+03  0.47000000000E+01 0.  1.
<mgrwt>
<rscale>  0 0.19418704E+03</rscale>
<asrwt>0</asrwt>
<pdfrwt beam="2">  1        5 0.41080329E-01 0.19418814E+03</pdfrwt>
<pdfrwt beam="1">  1       -5 0.24623917E-01 0.19418814E+03</pdfrwt>
<totfact> 0.71525468E+01</totfact>
</mgrwt>
</event>
<event>
 8    1  0.3754098E-007  0.1307407E+03  0.7546771E-02  0.1226372E+00
          5   -1    0    0  501    0  0.00000000000E+00  0.00000000000E+00  0.17515251834E+03  0.17521556632E+03  0.47000000000E+01 0.  1.
         -5   -1    0    0    0  501 -0.00000000000E+00 -0.00000000000E+00 -0.97448344087E+02  0.97561620350E+02  0.47000000000E+01 0.  1.
         25    2    1    2    0    0 -0.35351216843E+02  0.14554570072E+02  0.37020933700E+02  0.13588108534E+03  0.12502630035E+03 0.  0.
         25    2    1    2    0    0  0.35351216843E+02 -0.14554570072E+02  0.40683240557E+02  0.13689610133E+03  0.12499548974E+03 0.  0.
          5    1    4    4  502    0 -0.20479486517E+02 -0.53758724461E+02  0.36698427632E+02  0.68397912354E+02  0.47000000000E+01 0. -1.
         -5    1    4    4    0  502  0.55830703359E+02  0.39204154389E+02  0.39848129249E+01  0.68498188976E+02  0.47000000000E+01 0. -1.
          5    1    3    3  503    0 -0.27909702495E+02  0.68353227192E+02  0.88207772371E+01  0.74505109033E+02  0.47000000000E+01 0. -1.
         -5    1    3    3    0  503 -0.74415143482E+01 -0.53798657119E+02  0.28200156463E+02  0.61375976311E+02  0.47000000000E+01 0. -1.
<mgrwt>
<rscale>  0 0.13073329E+03</rscale>
<asrwt>0</asrwt>
<pdfrwt beam="1">  1        5 0.26960104E-01 0.13074066E+03</pdfrwt>
<pdfrwt beam="2">  1       -5 0.15005617E-01 0.13074066E+03</pdfrwt>
<totfact> 0.36858287E+02</totfact>
</mgrwt>
</event>
<event>
 8    1  0.3754098E-007  0.1831545E+03  0.7546771E-02  0.1164786E+00
         -5   -1    0    0    0  501 -0.00000000000E+00  0.00000000000E+00  0.10134805471E+04  0.10134914452E+04  0.47000000000E+01 0. -1.
          5   -1    0    0  501    0  0.00000000000E+00 -0.00000000000E+00 -0.33086104428E+02  0.33418263064E+02  0.47000000000E+01 0. -1.
         25    2    1    2    0    0 -0.67470298138E+02 -0.11561986288E+03  0.52705060173E+03  0.55796766362E+03  0.12500153217E+03 0.  0.
         25    2    1    2    0    0  0.67470298138E+02  0.11561986288E+03  0.45334384099E+03  0.48894204462E+03  0.12499396389E+03 0.  0.
          5    1    3    3  502    0 -0.23672348726E+02 -0.64523648851E+02  0.78792595830E+02  0.10466157133E+03  0.47000000000E+01 0. -1.
         -5    1    3    3    0  502 -0.43797949412E+02 -0.51096214025E+02  0.44825800590E+03  0.45330609229E+03  0.47000000000E+01 0. -1.
          5    1    4    4  503    0 -0.35630661902E+02  0.20530601209E+02  0.13077476131E+03  0.13716842876E+03  0.47000000000E+01 0.  1.
         -5    1    4    4    0  503  0.10310096004E+03  0.95089261667E+02  0.32256907968E+03  0.35177361585E+03  0.47000000000E+01 0.  1.
<mgrwt>
<rscale>  0 0.18315323E+03</rscale>
<asrwt>0</asrwt>
<pdfrwt beam="2">  1        5 0.51165586E-02 0.18315452E+03</pdfrwt>
<pdfrwt beam="1">  1       -5 0.15594648E+00 0.18315452E+03</pdfrwt>
<totfact> 0.49584694E+01</totfact>
</mgrwt>
</event>
<event>
 8    1  0.3754098E-007  0.1380681E+03  0.7546771E-02  0.1215953E+00
         -5   -1    0    0    0  501 -0.00000000000E+00  0.00000000000E+00  0.89478766146E+02  0.89602118228E+02  0.47000000000E+01 0. -1.
          5   -1    0    0  501    0  0.00000000000E+00 -0.00000000000E+00 -0.21527207275E+03  0.21532337381E+03  0.47000000000E+01 0. -1.
         25    2    1    2    0    0 -0.40019012220E+02 -0.42856200377E+02 -0.46387608269E+02  0.14565237053E+03  0.12499851035E+03 0.  0.
         25    2    1    2    0    0  0.40019012220E+02  0.42856200377E+02 -0.79405698338E+02  0.15927312150E+03  0.12499794820E+03 0.  0.
          5    1    3    3  502    0  0.20125294742E+02 -0.59735112796E+02  0.66675746804E+01  0.63559875246E+02  0.47000000000E+01 0.  1.
         -5    1    3    3    0  502 -0.60144306963E+02  0.16878912419E+02 -0.53055182950E+02  0.82092495286E+02  0.47000000000E+01 0.  1.
          5    1    4    4  503    0  0.82096404858E+02  0.69000059985E+01 -0.47161184177E+02  0.95045763011E+02  0.47000000000E+01 0. -1.
         -5    1    4    4    0  503 -0.42077392637E+02  0.35956194378E+02 -0.32244514160E+02  0.64227358491E+02  0.47000000000E+01 0. -1.
<mgrwt>
<rscale>  0 0.13806798E+03</rscale>
<asrwt>0</asrwt>
<pdfrwt beam="2">  1        5 0.33132215E-01 0.13806811E+03</pdfrwt>
<pdfrwt beam="1">  1       -5 0.13779399E-01 0.13806811E+03</pdfrwt>
<totfact> 0.29242390E+02</totfact>
</mgrwt>
</event>
<event>
 8    1  0.3754098E-007  0.1874809E+03  0.7546771E-02  0.1160753E+00
          5   -1    0    0  501    0  0.00000000000E+00  0.00000000000E+00  0.26825655212E+02  0.27234275786E+02  0.47000000000E+01 0.  1.
         -5   -1    0    0    0  501 -0.00000000000E+00 -0.00000000000E+00 -0.15107691294E+04  0.15107764402E+04  0.47000000000E+01 0.  1.
         25    2    1    2    0    0  0.13206209889E+03 -0.45652470155E+02 -0.10291907818E+04  0.10461275077E+04  0.12499820429E+03 0.  0.
         25    2    1    2    0    0 -0.13206209889E+03  0.45652470155E+02 -0.45475269238E+03  0.49188320828E+03  0.12499813347E+03 0.  0.
          5    1    4    4  502    0 -0.58233829088E+02  0.84644896181E+02 -0.22525068497E+03  0.24762047245E+03  0.47000000000E+01 0.  1.
         -5    1    4    4    0  502 -0.73828269800E+02 -0.38992426026E+02 -0.22950200741E+03  0.24426273583E+03  0.47000000000E+01 0.  1.
          5    1    3    3  503    0  0.68325933956E+02  0.25925028586E+02 -0.23459989715E+03  0.24576358986E+03  0.47000000000E+01 0. -1.
         -5    1    3    3    0  503  0.63736164932E+02 -0.71577498741E+02 -0.79459088466E+03  0.80036391787E+03  0.47000000000E+01 0. -1.
<mgrwt>
<rscale>  0 0.18748091E+03</rscale>
<asrwt>0</asrwt>
<pdfrwt beam="1">  1        5 0.41590198E-02 0.18748092E+03</pdfrwt>
<pdfrwt beam="2">  1       -5 0.23245795E+00 0.18748092E+03</pdfrwt>
<totfact> 0.20541757E+01</totfact>
</mgrwt>
</event>
<event>
 8    1  0.3754098E-007  0.1315313E+03  0.7546771E-02  0.1225202E+00
          5   -1    0    0  501    0  0.00000000000E+00  0.00000000000E+00  0.89686004350E+03  0.89687235861E+03  0.47000000000E+01 0.  1.
         -5   -1    0    0    0  501 -0.00000000000E+00 -0.00000000000E+00 -0.20343338462E+02  0.20879210229E+02  0.47000000000E+01 0.  1.
         25    2    1    2    0    0 -0.50335147784E+01  0.40613370810E+02  0.32155903940E+03  0.34741965796E+03  0.12500168303E+03 0.  0.
         25    2    1    2    0    0  0.50335147784E+01 -0.40613370810E+02  0.55495766564E+03  0.57033191087E+03  0.12500278295E+03 0.  0.
          5    1    4    4  502    0 -0.27348402951E+02  0.32344820212E+01  0.24794172761E+02  0.37352885040E+02  0.47000000000E+01 0. -1.
         -5    1    4    4    0  502  0.32381917730E+02 -0.43847852831E+02  0.53016349288E+03  0.53297902583E+03  0.47000000000E+01 0. -1.
          5    1    3    3  503    0 -0.60629148977E+02  0.43112181067E+02  0.16086747716E+03  0.17729915135E+03  0.47000000000E+01 0.  1.
         -5    1    3    3    0  503  0.55595634198E+02 -0.24988102568E+01  0.16069156225E+03  0.17012050662E+03  0.47000000000E+01 0.  1.
<mgrwt>
<rscale>  0 0.13153102E+03</rscale>
<asrwt>0</asrwt>
<pdfrwt beam="1">  1        5 0.13802067E+00 0.13153128E+03</pdfrwt>
<pdfrwt beam="2">  1       -5 0.31719118E-02 0.13153128E+03</pdfrwt>
<totfact> 0.13772024E+02</totfact>
</mgrwt>
</event>
<event>
 8    1  0.3754098E-007  0.1679313E+03  0.7546771E-02  0.1180023E+00
         -5   -1    0    0    0  501 -0.00000000000E+00  0.00000000000E+00  0.32021015850E+02  0.32364107528E+02  0.47000000000E+01 0.  1.
          5   -1    0    0  501    0  0.00000000000E+00 -0.00000000000E+00 -0.89770088093E+03  0.89771318450E+03  0.47000000000E+01 0.  1.
         25    2    1    2    0    0 -0.64067730361E+02  0.92037093231E+02 -0.35995132094E+03  0.39719617202E+03  0.12499738005E+03 0.  0.
         25    2    1    2    0    0  0.64067730361E+02 -0.92037093231E+02 -0.50572854414E+03  0.53288112001E+03  0.12500170837E+03 0.  0.
          5    1    3    3  502    0  0.24038666264E+02 -0.28751596195E+01 -0.15386003958E+02  0.29067905607E+02  0.47000000000E+01 0. -1.
         -5    1    3    3    0  502 -0.88106396625E+02  0.94912252850E+02 -0.34456531698E+03  0.36812826641E+03  0.47000000000E+01 0. -1.
          5    1    4    4  503    0  0.75368309358E+02 -0.37294273769E+02 -0.43256842090E+03  0.44069124528E+03  0.47000000000E+01 0.  1.
         -5    1    4    4    0  503 -0.11300578997E+02 -0.54742819462E+02 -0.73160123244E+02  0.92189874723E+02  0.47000000000E+01 0.  1.
<mgrwt>
<rscale>  0 0.16793051E+03</rscale>
<asrwt>0</asrwt>
<pdfrwt beam="2">  1        5 0.13813515E+00 0.16793132E+03</pdfrwt>
<pdfrwt beam="1">  1       -5 0.49536489E-02 0.16793132E+03</pdfrwt>
<totfact> 0.71185417E+01</totfact>
</mgrwt>
</event>
<event>
 8    1  0.3754098E-007  0.1551722E+03  0.7546771E-02  0.1194259E+00
          5   -1    0    0  501    0  0.00000000000E+00  0.00000000000E+00  0.63476092438E+03  0.63477832440E+03  0.47000000000E+01 0.  1.
         -5   -1    0    0    0  501 -0.00000000000E+00 -0.00000000000E+00 -0.47131649615E+02  0.47365413494E+02  0.47000000000E+01 0.  1.
         25    2    1    2    0    0 -0.16690482684E+02 -0.90414273646E+02  0.14224015479E+03  0.21049782214E+03  0.12499503351E+03 0.  0.
         25    2    1    2    0    0  0.16690482684E+02  0.90414273646E+02  0.44538911998E+03  0.47164591575E+03  0.12500035420E+03 0.  0.
          5    1    4    4  502    0  0.22915370844E+02  0.12076681662E+03  0.33400351868E+03  0.35593563844E+03  0.47000000000E+01 0. -1.
         -5    1    4    4    0  502 -0.62248881593E+01 -0.30352542976E+02  0.11138560130E+03  0.11571027731E+03  0.47000000000E+01 0. -1.
          5    1    3    3  503    0  0.47388564372E+02 -0.16097148665E+02  0.21068297967E+02  0.54504654917E+02  0.47000000000E+01 0. -1.
         -5    1    3    3    0  503 -0.64079047056E+02 -0.74317124981E+02  0.12117185682E+03  0.15599316723E+03  0.47000000000E+01 0. -1.
<mgrwt>
<rscale>  0 0.15517110E+03</rscale>
<asrwt>0</asrwt>
<pdfrwt beam="1">  1        5 0.97674846E-01 0.15517217E+03</pdfrwt>
<pdfrwt beam="2">  1       -5 0.72703434E-02 0.15517217E+03</pdfrwt>
<totfact> 0.87823171E+01</totfact>
</mgrwt>
</event>
<event>
 8    1  0.3754098E-007  0.1539831E+03  0.7546771E-02  0.1195664E+00
         -5   -1    0    0    0  501 -0.00000000000E+00  0.00000000000E+00  0.49462815024E+03  0.49465047964E+03  0.47000000000E+01 0. -1.
          5   -1    0    0  501    0  0.00000000000E+00 -0.00000000000E+00 -0.47944128745E+02  0.48173950233E+02  0.47000000000E+01 0. -1.
         25    2    1    2    0    0  0.51116114004E+02  0.73960885094E+02  0.20829273576E+03  0.25902660471E+03  0.12500339413E+03 0.  0.
         25    2    1    2    0    0 -0.51116114004E+02 -0.73960885094E+02  0.23839128573E+03  0.28379782516E+03  0.12501092279E+03 0.  0.
          5    1    4    4  502    0 -0.18738523594E+02 -0.18357881268E+02 -0.90031396858E+01  0.28129887937E+02  0.47000000000E+01 0.  1.
         -5    1    4    4    0  502 -0.32377590410E+02 -0.55603003826E+02  0.24739442542E+03  0.25566793722E+03  0.47000000000E+01 0.  1.
          5    1    3    3  503    0 -0.16908503199E+02  0.77923342155E+02  0.14679164782E+03  0.16711619491E+03  0.47000000000E+01 0. -1.
         -5    1    3    3    0  503  0.68024617203E+02 -0.39624570606E+01  0.61501087940E+02  0.91910409799E+02  0.47000000000E+01 0. -1.
<mgrwt>
<rscale>  0 0.15398159E+03</rscale>
<asrwt>0</asrwt>
<pdfrwt beam="2">  1        5 0.73954162E-02 0.15398312E+03</pdfrwt>
<pdfrwt beam="1">  1       -5 0.76116033E-01 0.15398312E+03</pdfrwt>
<totfact> 0.15317835E+02</totfact>
</mgrwt>
</event>
<event>
 8    1  0.3754098E-007  0.1322278E+03  0.7546771E-02  0.1224196E+00
          5   -1    0    0  501    0  0.00000000000E+00  0.00000000000E+00  0.54495600391E+03  0.54497627122E+03  0.47000000000E+01 0.  1.
         -5   -1    0    0    0  501 -0.00000000000E+00 -0.00000000000E+00 -0.32767293467E+02  0.33102651270E+02  0.47000000000E+01 0.  1.
         25    2    1    2    0    0 -0.15876172816E+00 -0.43104148275E+02  0.20893020573E+03  0.24725698932E+03  0.12500478030E+03 0.  0.
         25    2    1    2    0    0  0.15876172816E+00  0.43104148275E+02  0.30325850471E+03  0.33082193317E+03  0.12497774995E+03 0.  0.
          5    1    4    4  502    0 -0.27035286811E+02 -0.37736233587E+02  0.10040457077E+03  0.11071629460E+03  0.47000000000E+01 0.  1.
         -5    1    4    4    0  502  0.27194048539E+02  0.80840381862E+02  0.20285393393E+03  0.22010563856E+03  0.47000000000E+01 0.  1.
          5    1    3    3  503    0 -0.82082365266E+01  0.42977361574E+02  0.52881431481E+02  0.68796544610E+02  0.47000000000E+01 0. -1.
         -5    1    3    3    0  503  0.80494747984E+01 -0.86081509849E+02  0.15604877425E+03  0.17846044471E+03  0.47000000000E+01 0. -1.
<mgrwt>
<rscale>  0 0.13222140E+03</rscale>
<asrwt>0</asrwt>
<pdfrwt beam="1">  1        5 0.83866746E-01 0.13222779E+03</pdfrwt>
<pdfrwt beam="2">  1       -5 0.50684775E-02 0.13222779E+03</pdfrwt>
<totfact> 0.21995669E+02</totfact>
</mgrwt>
</event>
<event>
 8    1  0.3754098E-007  0.1291498E+03  0.7546771E-02  0.1228751E+00
          5   -1    0    0  501    0  0.00000000000E+00  0.00000000000E+00  0.13411870685E+04  0.13411953037E+04  0.47000000000E+01 0. -1.
         -5   -1    0    0    0  501 -0.00000000000E+00 -0.00000000000E+00 -0.12015487409E+02  0.12902012932E+02  0.47000000000E+01 0. -1.
         25    2    1    2    0    0 -0.13237580114E+02  0.29319121888E+02  0.62714158266E+03  0.64028655659E+03  0.12500186162E+03 0.  0.
         25    2    1    2    0    0  0.13237580114E+02 -0.29319121888E+02  0.70202999839E+03  0.71381076002E+03  0.12507932702E+03 0.  0.
          5    1    4    4  502    0  0.44265154917E+02 -0.10665441346E+02  0.92673032886E+02  0.10336119486E+03  0.47000000000E+01 0.  1.
         -5    1    4    4    0  502 -0.31027574803E+02 -0.18653680542E+02  0.60935696551E+03  0.61044956516E+03  0.47000000000E+01 0.  1.
          5    1    3    3  503    0  0.41446423501E+02  0.43285773213E+02  0.18472733518E+03  0.19426204608E+03  0.47000000000E+01 0. -1.
         -5    1    3    3    0  503 -0.54684003614E+02 -0.13966651325E+02  0.44241424749E+03  0.44602451051E+03  0.47000000000E+01 0. -1.
<mgrwt>
<rscale>  0 0.12913109E+03</rscale>
<asrwt>0</asrwt>
<pdfrwt beam="1">  1        5 0.20640522E+00 0.12914985E+03</pdfrwt>
<pdfrwt beam="2">  1       -5 0.19173650E-02 0.12914985E+03</pdfrwt>
<totfact> 0.96374857E+01</totfact>
</mgrwt>
</event>
<event>
 8    1  0.3754098E-007  0.1498538E+03  0.7546771E-02  0.1200656E+00
          5   -1    0    0  501    0  0.00000000000E+00  0.00000000000E+00  0.65907323367E+02  0.66074694653E+02  0.47000000000E+01 0. -1.
         -5   -1    0    0    0  501 -0.00000000000E+00 -0.00000000000E+00 -0.37339700967E+03  0.37342658827E+03  0.47000000000E+01 0. -1.
         25    2    1    2    0    0  0.58967519859E+02 -0.57900482653E+02 -0.21936620744E+03  0.26566464743E+03  0.12500615040E+03 0.  0.
         25    2    1    2    0    0 -0.58967519859E+02  0.57900482653E+02 -0.88123478866E+02  0.17383663550E+03  0.12499517600E+03 0.  0.
          5    1    3    3  502    0  0.14103684915E+02 -0.85511319988E+02 -0.85959357588E+02  0.12215646087E+03  0.47000000000E+01 0.  1.
         -5    1    3    3    0  502  0.44863834944E+02  0.27610837335E+02 -0.13340684985E+03  0.14350818656E+03  0.47000000000E+01 0.  1.
          5    1    4    4  503    0 -0.25096012648E+02  0.27483014039E+02 -0.11486133637E+03  0.12083187702E+03  0.47000000000E+01 0. -1.
         -5    1    4    4    0  503 -0.33871507210E+02  0.30417468614E+02  0.26737857503E+02  0.53004758479E+02  0.47000000000E+01 0. -1.
<mgrwt>
<rscale>  0 0.14985155E+03</rscale>
<asrwt>0</asrwt>
<pdfrwt beam="1">  1        5 0.10154738E-01 0.14985384E+03</pdfrwt>
<pdfrwt beam="2">  1       -5 0.57460843E-01 0.14985384E+03</pdfrwt>
<totfact> 0.16447424E+02</totfact>
</mgrwt>
</event>
<event>
 8    1  0.3754098E-007  0.1315233E+03  0.7546771E-02  0.1225215E+00
         -5   -1    0    0    0  501 -0.00000000000E+00  0.00000000000E+00  0.16941512838E+03  0.16948031073E+03  0.47000000000E+01 0.  1.
          5   -1    0    0  501    0  0.00000000000E+00 -0.00000000000E+00 -0.13665839865E+03  0.13673919672E+03  0.47000000000E+01 0.  1.
         25    2    1    2    0    0 -0.32654357049E+02 -0.24625619139E+02  0.93482036923E+02  0.16136064901E+03  0.12500255865E+03 0.  0.
         25    2    1    2    0    0  0.32654357049E+02  0.24625619139E+02 -0.60725307190E+02  0.14485885844E+03  0.12499519104E+03 0.  0.
          5    1    3    3  502    0 -0.24102000613E+02 -0.65263497941E+02  0.13367307375E+02  0.71000038757E+02  0.47000000000E+01 0. -1.
         -5    1    3    3    0  502 -0.85523564358E+01  0.40637878802E+02  0.80114729548E+02  0.90360610250E+02  0.47000000000E+01 0. -1.
          5    1    4    4  503    0 -0.42269355641E+02  0.50723470432E+01  0.50809020768E+01  0.43131574243E+02  0.47000000000E+01 0. -1.
         -5    1    4    4    0  503  0.74923712689E+02  0.19553272096E+02 -0.65806209267E+02  0.10172728420E+03  0.47000000000E+01 0. -1.
<mgrwt>
<rscale>  0 0.13152151E+03</rscale>
<asrwt>0</asrwt>
<pdfrwt beam="2">  1        5 0.21035598E-01 0.13152326E+03</pdfrwt>
<pdfrwt beam="1">  1       -5 0.26075095E-01 0.13152326E+03</pdfrwt>
<totfact> 0.21152799E+02</totfact>
</mgrwt>
</event>
<event>
 8    1  0.3754098E-007  0.1382911E+03  0.7546771E-02  0.1215648E+00
          5   -1    0    0  501    0  0.00000000000E+00  0.00000000000E+00  0.36912382967E+03  0.36915375066E+03  0.47000000000E+01 0. -1.
         -5   -1    0    0    0  501 -0.00000000000E+00 -0.00000000000E+00 -0.94188256146E+02  0.94305448389E+02  0.47000000000E+01 0. -1.
         25    2    1    2    0    0 -0.56116292951E+02 -0.18717642188E+02 -0.18063205116E+02  0.13946428527E+03  0.12499847609E+03 0.  0.
         25    2    1    2    0    0  0.56116292951E+02  0.18717642188E+02  0.29299877864E+03  0.32399491378E+03  0.12500012563E+03 0.  0.
          5    1    4    4  502    0 -0.22638101162E+02 -0.36696518081E+01  0.42078348830E+01  0.23785412400E+02  0.47000000000E+01 0.  1.
         -5    1    4    4    0  502  0.78754394113E+02  0.22387293996E+02  0.28879094375E+03  0.30020950138E+03  0.47000000000E+01 0.  1.
          5    1    3    3  503    0 -0.77074979804E+02  0.31463313831E+02 -0.62507992582E+01  0.83616117587E+02  0.47000000000E+01 0. -1.
         -5    1    3    3    0  503  0.20958686853E+02 -0.50180956019E+02 -0.11812405858E+02  0.55848167685E+02  0.47000000000E+01 0. -1.
<mgrwt>
<rscale>  0 0.13829070E+03</rscale>
<asrwt>0</asrwt>
<pdfrwt beam="1">  1        5 0.56799597E-01 0.13829107E+03</pdfrwt>
<pdfrwt beam="2">  1       -5 0.14501817E-01 0.13829107E+03</pdfrwt>
<totfact> 0.87279599E+01</totfact>
</mgrwt>
</event>
<event>
 8    1  0.3754098E-007  0.1521147E+03  0.7546771E-02  0.1197902E+00
          5   -1    0    0  501    0  0.00000000000E+00  0.00000000000E+00  0.48239722835E+03  0.48242012388E+03  0.47000000000E+01 0.  1.
         -5   -1    0    0    0  501 -0.00000000000E+00 -0.00000000000E+00 -0.47826107658E+02  0.48056493564E+02  0.47000000000E+01 0.  1.
         25    2    1    2    0    0  0.69380669117E+02  0.51948595131E+02  0.21522439068E+03  0.26355347430E+03  0.12500624658E+03 0.  0.
         25    2    1    2    0    0 -0.69380669117E+02 -0.51948595131E+02  0.21934673001E+03  0.26692314315E+03  0.12499057003E+03 0.  0.
          5    1    3    3  502    0  0.69064466668E+00  0.78261208791E+02  0.11022552853E+03  0.13526659207E+03  0.47000000000E+01 0. -1.
         -5    1    3    3    0  502  0.68690024451E+02 -0.26312613660E+02  0.10499886216E+03  0.12828688222E+03  0.47000000000E+01 0. -1.
          5    1    4    4  503    0 -0.88143910228E+02 -0.68744894659E+02  0.11890393081E+03  0.16326495097E+03  0.47000000000E+01 0.  1.
         -5    1    4    4    0  503  0.18763241110E+02  0.16796299528E+02  0.10044279920E+03  0.10365819218E+03  0.47000000000E+01 0.  1.
<mgrwt>
<rscale>  0 0.15211152E+03</rscale>
<asrwt>0</asrwt>
<pdfrwt beam="1">  1        5 0.74234438E-01 0.15211474E+03</pdfrwt>
<pdfrwt beam="2">  1       -5 0.73773462E-02 0.15211474E+03</pdfrwt>
<totfact> 0.16225470E+02</totfact>
</mgrwt>
</event>
<event>
 8    1  0.3754098E-007  0.1444057E+03  0.7546771E-02  0.1207522E+00
         -5   -1    0    0    0  501 -0.00000000000E+00  0.00000000000E+00  0.24925219335E+03  0.24929650196E+03  0.47000000000E+01 0. -1.
          5   -1    0    0  501    0  0.00000000000E+00 -0.00000000000E+00 -0.11044603185E+03  0.11054599021E+03  0.47000000000E+01 0. -1.
         25    2    1    2    0    0 -0.36845186388E+01  0.72208827476E+02  0.15814071807E+03  0.21415294209E+03  0.12500122180E+03 0.  0.
         25    2    1    2    0    0  0.36845186388E+01 -0.72208827476E+02 -0.19334556575E+02  0.14568955008E+03  0.12499571785E+03 0.  0.
          5    1    3    3  502    0  0.40174085065E+02  0.30163114822E+02  0.14260079633E+03  0.15126416536E+03  0.47000000000E+01 0. -1.
         -5    1    3    3    0  502 -0.43858603704E+02  0.42045712654E+02  0.15539921739E+02  0.62888776734E+02  0.47000000000E+01 0. -1.
          5    1    4    4  503    0  0.31237415632E+02  0.25976145699E+01 -0.50783051183E+02  0.59862609568E+02  0.47000000000E+01 0. -1.
         -5    1    4    4    0  503 -0.27552896993E+02 -0.74806442045E+02  0.31448494608E+02  0.85826940510E+02  0.47000000000E+01 0. -1.
<mgrwt>
<rscale>  0 0.14440447E+03</rscale>
<asrwt>0</asrwt>
<pdfrwt beam="2">  1        5 0.17002795E-01 0.14440566E+03</pdfrwt>
<pdfrwt beam="1">  1       -5 0.38357588E-01 0.14440566E+03</pdfrwt>
<totfact> 0.15098354E+02</totfact>
</mgrwt>
</event>
<event>
 8    1  0.3754098E-007  0.1439075E+03  0.7546771E-02  0.1208167E+00
         -5   -1    0    0    0  501 -0.00000000000E+00  0.00000000000E+00  0.17474273898E+04  0.17474337105E+04  0.47000000000E+01 0.  1.
          5   -1    0    0  501    0  0.00000000000E+00 -0.00000000000E+00 -0.11862284360E+02  0.12759458854E+02  0.47000000000E+01 0.  1.
         25    2    1    2    0    0 -0.62347324582E+02 -0.34580231048E+02  0.10389967527E+04  0.10489154557E+04  0.12500559966E+03 0.  0.
         25    2    1    2    0    0  0.62347324582E+02  0.34580231048E+02  0.69656835276E+03  0.71127771363E+03  0.12500213826E+03 0.  0.
          5    1    3    3  502    0 -0.62393368472E+02 -0.70042929901E+02  0.91656860182E+03  0.92136802436E+03  0.47000000000E+01 0. -1.
         -5    1    3    3    0  502  0.46043890241E-01  0.35462698852E+02  0.12242815083E+03  0.12754743136E+03  0.47000000000E+01 0. -1.
          5    1    4    4  503    0  0.45140522728E+02 -0.34055193031E+02  0.48121594901E+03  0.48454958729E+03  0.47000000000E+01 0. -1.
         -5    1    4    4    0  503  0.17206801855E+02  0.68635424079E+02  0.21535240375E+03  0.22672812633E+03  0.47000000000E+01 0. -1.
<mgrwt>
<rscale>  0 0.14390679E+03</rscale>
<asrwt>0</asrwt>
<pdfrwt beam="2">  1        5 0.18944669E-02 0.14390754E+03</pdfrwt>
<pdfrwt beam="1">  1       -5 0.26890441E+00 0.14390754E+03</pdfrwt>
<totfact> 0.40225368E+01</totfact>
</mgrwt>
</event>
<event>
 8    1  0.3754098E-007  0.1849778E+03  0.7546771E-02  0.1163071E+00
         -5   -1    0    0    0  501 -0.00000000000E+00  0.00000000000E+00  0.50994337807E+03  0.50996503688E+03  0.47000000000E+01 0.  1.
          5   -1    0    0  501    0  0.00000000000E+00 -0.00000000000E+00 -0.67123350955E+02  0.67287697564E+02  0.47000000000E+01 0.  1.
         25    2    1    2    0    0 -0.93225179630E+02 -0.99504718000E+02  0.20870115290E+03  0.27887642095E+03  0.12499505559E+03 0.  0.
         25    2    1    2    0    0  0.93225179630E+02  0.99504718000E+02  0.23411887422E+03  0.29837631349E+03  0.12499861665E+03 0.  0.
          5    1    3    3  502    0 -0.64338243115E+02 -0.61583316569E+02  0.21286580741E+03  0.23079396953E+03  0.47000000000E+01 0.  1.
         -5    1    3    3    0  502 -0.28886936515E+02 -0.37921401431E+02 -0.41646545114E+01  0.48082451424E+02  0.47000000000E+01 0.  1.
          5    1    4    4  503    0 -0.40780496811E-01  0.69893986770E+02  0.16270229037E+03  0.17714202308E+03  0.47000000000E+01 0.  1.
         -5    1    4    4    0  503  0.93265960127E+02  0.29610731230E+02  0.71416583848E+02  0.12123429041E+03  0.47000000000E+01 0.  1.
<mgrwt>
<rscale>  0 0.18497717E+03</rscale>
<asrwt>0</asrwt>
<pdfrwt beam="2">  1        5 0.10340978E-01 0.18497777E+03</pdfrwt>
<pdfrwt beam="1">  1       -5 0.78467134E-01 0.18497777E+03</pdfrwt>
<totfact> 0.84349654E+01</totfact>
</mgrwt>
</event>
<event>
 8    1  0.3754098E-007  0.1392498E+03  0.7546771E-02  0.1214342E+00
         -5   -1    0    0    0  501 -0.00000000000E+00  0.00000000000E+00  0.20849582762E+03  0.20854879557E+03  0.47000000000E+01 0.  1.
          5   -1    0    0  501    0  0.00000000000E+00 -0.00000000000E+00 -0.93236916535E+02  0.93355303036E+02  0.47000000000E+01 0.  1.
         25    2    1    2    0    0  0.12693065500E+02  0.60034349129E+02  0.48262991705E+02  0.14737595055E+03  0.12500046978E+03 0.  0.
         25    2    1    2    0    0 -0.12693065500E+02 -0.60034349129E+02  0.66995919381E+02  0.15452814806E+03  0.12500103336E+03 0.  0.
          5    1    4    4  502    0 -0.46340673074E+02 -0.80102060016E+02  0.68197870691E+02  0.11505145617E+03  0.47000000000E+01 0.  1.
         -5    1    4    4    0  502  0.33647607574E+02  0.20067710887E+02 -0.12019513108E+01  0.39476691891E+02  0.47000000000E+01 0.  1.
          5    1    3    3  503    0 -0.28778520546E+02 -0.28862419717E+02  0.15169551540E+02  0.43742974415E+02  0.47000000000E+01 0.  1.
         -5    1    3    3    0  503  0.41471586046E+02  0.88896768847E+02  0.33093440165E+02  0.10363297613E+03  0.47000000000E+01 0.  1.
<mgrwt>
<rscale>  0 0.13924963E+03</rscale>
<asrwt>0</asrwt>
<pdfrwt beam="2">  1        5 0.14357322E-01 0.13924976E+03</pdfrwt>
<pdfrwt beam="1">  1       -5 0.32089462E-01 0.13924976E+03</pdfrwt>
<totfact> 0.29022794E+02</totfact>
</mgrwt>
</event>
<event>
 8    1  0.3754098E-007  0.1251287E+03  0.7546771E-02  0.1234869E+00
         -5   -1    0    0    0  501 -0.00000000000E+00  0.00000000000E+00  0.18080796256E+03  0.18086903915E+03  0.47000000000E+01 0. -1.
          5   -1    0    0  501    0  0.00000000000E+00 -0.00000000000E+00 -0.86713891496E+02  0.86841170987E+02  0.47000000000E+01 0. -1.
         25    2    1    2    0    0  0.37547453523E+01 -0.42321528900E+01  0.54355471303E+02  0.13642475499E+03  0.12500074913E+03 0.  0.
         25    2    1    2    0    0 -0.37547453523E+01  0.42321528900E+01  0.39738599757E+02  0.13128545515E+03  0.12499882076E+03 0.  0.
          5    1    3    3  502    0  0.59236334636E+02  0.20012385495E+02  0.16405242744E+02  0.64812505767E+02  0.47000000000E+01 0. -1.
         -5    1    3    3    0  502 -0.55481589283E+02 -0.24244538385E+02  0.37950228560E+02  0.71612249222E+02  0.47000000000E+01 0. -1.
          5    1    4    4  503    0  0.49261555436E+02 -0.33610829821E+02  0.19093318797E+02  0.62793578875E+02  0.47000000000E+01 0.  1.
         -5    1    4    4    0  503 -0.53016300788E+02  0.37842982711E+02  0.20645280960E+02  0.68491876275E+02  0.47000000000E+01 0.  1.
<mgrwt>
<rscale>  0 0.12512824E+03</rscale>
<asrwt>0</asrwt>
<pdfrwt beam="2">  1        5 0.13355088E-01 0.12512872E+03</pdfrwt>
<pdfrwt beam="1">  1       -5 0.27831098E-01 0.12512872E+03</pdfrwt>
<totfact> 0.42046016E+02</totfact>
</mgrwt>
</event>
<event>
 8    1  0.3754098E-007  0.1378412E+03  0.7546771E-02  0.1216267E+00
          5   -1    0    0  501    0  0.00000000000E+00  0.00000000000E+00  0.79439119595E+02  0.79578035425E+02  0.47000000000E+01 0. -1.
         -5   -1    0    0    0  501 -0.00000000000E+00 -0.00000000000E+00 -0.23999284570E+03  0.24003886350E+03  0.47000000000E+01 0. -1.
         25    2    1    2    0    0 -0.22625865160E+01  0.58053186851E+02 -0.91583034568E+02  0.16549217379E+03  0.12499966226E+03 0.  0.
         25    2    1    2    0    0  0.22625865160E+01 -0.58053186851E+02 -0.68970691540E+02  0.15412472513E+03  0.12498873070E+03 0.  0.
          5    1    4    4  502    0 -0.30718623761E+02  0.12808984986E+02  0.17144746731E+02  0.37732430118E+02  0.47000000000E+01 0.  1.
         -5    1    4    4    0  502  0.32981210277E+02 -0.70862171837E+02 -0.86115438271E+02  0.11639229501E+03  0.47000000000E+01 0.  1.
          5    1    3    3  503    0 -0.29208561668E+02  0.88859142920E+02 -0.78691063097E+02  0.12232522539E+03  0.47000000000E+01 0.  1.
         -5    1    3    3    0  503  0.26945975152E+02 -0.30805956070E+02 -0.12891971470E+02  0.43166948405E+02  0.47000000000E+01 0.  1.
<mgrwt>
<rscale>  0 0.13783876E+03</rscale>
<asrwt>0</asrwt>
<pdfrwt beam="1">  1        5 0.12235629E-01 0.13784124E+03</pdfrwt>
<pdfrwt beam="2">  1       -5 0.36936202E-01 0.13784124E+03</pdfrwt>
<totfact> 0.29058904E+02</totfact>
</mgrwt>
</event>
<event>
 8    1  0.3754098E-007  0.1328810E+03  0.7546771E-02  0.1223244E+00
         -5   -1    0    0    0  501 -0.00000000000E+00  0.00000000000E+00  0.25211583276E+03  0.25215963818E+03  0.47000000000E+01 0.  1.
          5   -1    0    0  501    0  0.00000000000E+00 -0.00000000000E+00 -0.21896987439E+03  0.21902030931E+03  0.47000000000E+01 0.  1.
         25    2    1    2    0    0  0.45045854758E+02 -0.16467963481E+01  0.21088717281E+03  0.24925813876E+03  0.12499751643E+03 0.  0.
         25    2    1    2    0    0 -0.45045854758E+02  0.16467963481E+01 -0.17774121444E+03  0.22192180872E+03  0.12500203561E+03 0.  0.
          5    1    4    4  502    0 -0.69185797954E+02 -0.87410758219E+01 -0.18193371100E+03  0.19489752755E+03  0.47000000000E+01 0. -1.
         -5    1    4    4    0  502  0.24139943197E+02  0.10387872170E+02  0.41924965614E+01  0.27024281178E+02  0.47000000000E+01 0. -1.
          5    1    3    3  503    0  0.19329966111E+02 -0.47577472464E+01  0.22033912048E+03  0.22128646990E+03  0.47000000000E+01 0. -1.
         -5    1    3    3    0  503  0.25715888647E+02  0.31109508983E+01 -0.94519476620E+01  0.27971668863E+02  0.47000000000E+01 0. -1.
<mgrwt>
<rscale>  0 0.13287990E+03</rscale>
<asrwt>0</asrwt>
<pdfrwt beam="2">  1        5 0.33694922E-01 0.13288096E+03</pdfrwt>
<pdfrwt beam="1">  1       -5 0.38794300E-01 0.13288096E+03</pdfrwt>
<totfact> 0.38950043E+01</totfact>
</mgrwt>
</event>
<event>
 8    1  0.3754098E-007  0.1277880E+03  0.7546771E-02  0.1230778E+00
         -5   -1    0    0    0  501 -0.00000000000E+00  0.00000000000E+00  0.10144824307E+03  0.10155705797E+03  0.47000000000E+01 0.  1.
          5   -1    0    0  501    0  0.00000000000E+00 -0.00000000000E+00 -0.16164191273E+03  0.16171022835E+03  0.47000000000E+01 0.  1.
         25    2    1    2    0    0  0.17412484191E+02 -0.19994392672E+02 -0.20211369577E+02  0.12937651348E+03  0.12500724953E+03 0.  0.
         25    2    1    2    0    0 -0.17412484191E+02  0.19994392672E+02 -0.39982300082E+02  0.13389077283E+03  0.12500073754E+03 0.  0.
          5    1    4    4  502    0  0.26113822275E+02 -0.43097020022E+02 -0.20947994505E+02  0.54774020506E+02  0.47000000000E+01 0.  1.
         -5    1    4    4    0  502 -0.43526306466E+02  0.63091412694E+02 -0.19034305578E+02  0.79116752329E+02  0.47000000000E+01 0.  1.
          5    1    3    3  503    0  0.45608409554E+02  0.28295825553E+02 -0.42875479510E+02  0.68856208935E+02  0.47000000000E+01 0. -1.
         -5    1    3    3    0  503 -0.28195925363E+02 -0.48290218225E+02  0.22664109933E+02  0.60520304546E+02  0.47000000000E+01 0. -1.
<mgrwt>
<rscale>  0 0.12778645E+03</rscale>
<asrwt>0</asrwt>
<pdfrwt beam="2">  1        5 0.24881612E-01 0.12778804E+03</pdfrwt>
<pdfrwt beam="1">  1       -5 0.15621047E-01 0.12778804E+03</pdfrwt>
<totfact> 0.39647932E+02</totfact>
</mgrwt>
</event>
<event>
 8    1  0.3754098E-007  0.1270421E+03  0.7546771E-02  0.1231913E+00
          5   -1    0    0  501    0  0.00000000000E+00  0.00000000000E+00  0.25928719000E+03  0.25932978405E+03  0.47000000000E+01 0.  1.
         -5   -1    0    0    0  501 -0.00000000000E+00 -0.00000000000E+00 -0.75608762800E+02  0.75754702904E+02  0.47000000000E+01 0.  1.
         25    2    1    2    0    0  0.73933790446E+01  0.21440885797E+02  0.21136068045E+02  0.12878441008E+03  0.12499726904E+03 0.  0.
         25    2    1    2    0    0 -0.73933790446E+01 -0.21440885797E+02  0.16254235915E+03  0.20630007688E+03  0.12500131825E+03 0.  0.
          5    1    4    4  502    0 -0.61379510603E+02 -0.11010638012E+02  0.46912149748E+02  0.78176200120E+02  0.47000000000E+01 0.  1.
         -5    1    4    4    0  502  0.53986131558E+02 -0.10430247785E+02  0.11563020941E+03  0.12812387676E+03  0.47000000000E+01 0.  1.
          5    1    3    3  503    0  0.10627249036E+02 -0.51198749760E+02 -0.13876581643E+01  0.52519196436E+02  0.47000000000E+01 0.  1.
         -5    1    3    3    0  503 -0.32338699918E+01  0.72639635558E+02  0.22523726210E+02  0.76265213639E+02  0.47000000000E+01 0.  1.
<mgrwt>
<rscale>  0 0.12704114E+03</rscale>
<asrwt>0</asrwt>
<pdfrwt beam="1">  1        5 0.39904840E-01 0.12704213E+03</pdfrwt>
<pdfrwt beam="2">  1       -5 0.11646620E-01 0.12704213E+03</pdfrwt>
<totfact> 0.26335456E+02</totfact>
</mgrwt>
</event>
<event>
 8    1  0.3754098E-007  0.1282523E+03  0.7546771E-02  0.1230075E+00
         -5   -1    0    0    0  501 -0.00000000000E+00  0.00000000000E+00  0.15763798728E+02  0.16449539518E+02  0.47000000000E+01 0.  1.
          5   -1    0    0  501    0  0.00000000000E+00 -0.00000000000E+00 -0.10288226273E+04  0.10288333628E+04  0.47000000000E+01 0.  1.
         25    2    1    2    0    0  0.46309148330E+01 -0.28302285364E+02 -0.55352961928E+03  0.56819199010E+03  0.12499853385E+03 0.  0.
         25    2    1    2    0    0 -0.46309148330E+01  0.28302285364E+02 -0.45952920925E+03  0.47709091219E+03  0.12500471836E+03 0.  0.
          5    1    4    4  502    0  0.42951064023E+02 -0.25524317991E+02 -0.26401500849E+03  0.26874206857E+03  0.47000000000E+01 0. -1.
         -5    1    4    4    0  502 -0.47581978856E+02  0.53826603355E+02 -0.19551420075E+03  0.20834884362E+03  0.47000000000E+01 0. -1.
          5    1    3    3  503    0  0.19119998304E+02 -0.74521684609E+02 -0.39135082487E+03  0.39886916895E+03  0.47000000000E+01 0.  1.
         -5    1    3    3    0  503 -0.14489083471E+02  0.46219399245E+02 -0.16217879440E+03  0.16932282115E+03  0.47000000000E+01 0.  1.
<mgrwt>
<rscale>  0 0.12825076E+03</rscale>
<asrwt>0</asrwt>
<pdfrwt beam="2">  1        5 0.15833393E+00 0.12825227E+03</pdfrwt>
<pdfrwt beam="1">  1       -5 0.24787757E-02 0.12825227E+03</pdfrwt>
<totfact> 0.13987891E+02</totfact>
</mgrwt>
</event>
<event>
 8    1  0.3754098E-007  0.1252072E+03  0.7546771E-02  0.1234749E+00
          5   -1    0    0  501    0  0.00000000000E+00  0.00000000000E+00  0.16053232101E+02  0.16727111552E+02  0.47000000000E+01 0.  1.
         -5   -1    0    0    0  501 -0.00000000000E+00 -0.00000000000E+00 -0.98669370036E+03  0.98670489425E+03  0.47000000000E+01 0.  1.
         25    2    1    2    0    0  0.23598064060E+01 -0.66756127950E+01 -0.57416441233E+03  0.58765772656E+03  0.12500679463E+03 0.  0.
         25    2    1    2    0    0 -0.23598064060E+01  0.66756127950E+01 -0.39647605593E+03  0.41577427924E+03  0.12499942344E+03 0.  0.
          5    1    3    3  502    0  0.33802292650E+01  0.12847505646E+02 -0.98528995509E+00  0.14126045006E+02  0.47000000000E+01 0. -1.
         -5    1    3    3    0  502 -0.10204228590E+01 -0.19523118441E+02 -0.57317912238E+03  0.57353168156E+03  0.47000000000E+01 0. -1.
          5    1    4    4  503    0  0.17443642494E+02  0.34876844279E+02 -0.36996235251E+03  0.37204153962E+03  0.47000000000E+01 0. -1.
         -5    1    4    4    0  503 -0.19803448900E+02 -0.28201231484E+02 -0.26513703419E+02  0.43732739618E+02  0.47000000000E+01 0. -1.
<mgrwt>
<rscale>  0 0.12520531E+03</rscale>
<asrwt>0</asrwt>
<pdfrwt beam="1">  1        5 0.25224267E-02 0.12520715E+03</pdfrwt>
<pdfrwt beam="2">  1       -5 0.15185168E+00 0.12520715E+03</pdfrwt>
<totfact> 0.15141394E+02</totfact>
</mgrwt>
</event>
<event>
 8    1  0.3754098E-007  0.1289228E+03  0.7546771E-02  0.1229064E+00
         -5   -1    0    0    0  501 -0.00000000000E+00  0.00000000000E+00  0.16097424369E+02  0.16769528059E+02  0.47000000000E+01 0. -1.
          5   -1    0    0  501    0  0.00000000000E+00 -0.00000000000E+00 -0.10391672369E+04  0.10391778655E+04  0.47000000000E+01 0. -1.
         25    2    1    2    0    0  0.27485749614E+02  0.15508601676E+02 -0.42421121159E+03  0.44336919032E+03  0.12500041488E+03 0.  0.
         25    2    1    2    0    0 -0.27485749614E+02 -0.15508601676E+02 -0.59885860092E+03  0.61257820327E+03  0.12499779227E+03 0.  0.
          5    1    3    3  502    0 -0.36388814038E+02 -0.30958724385E+02 -0.12591439844E+03  0.13475575734E+03  0.47000000000E+01 0.  1.
         -5    1    3    3    0  502  0.63874563652E+02  0.46467326061E+02 -0.29829681316E+03  0.30861343298E+03  0.47000000000E+01 0.  1.
          5    1    4    4  503    0 -0.68959669657E+02  0.27786093100E+01 -0.48549417546E+03  0.49039763571E+03  0.47000000000E+01 0. -1.
         -5    1    4    4    0  503  0.41473920043E+02 -0.18287210986E+02 -0.11336442546E+03  0.12218056756E+03  0.47000000000E+01 0. -1.
<mgrwt>
<rscale>  0 0.12892216E+03</rscale>
<asrwt>0</asrwt>
<pdfrwt beam="2">  1        5 0.15992435E+00 0.12892279E+03</pdfrwt>
<pdfrwt beam="1">  1       -5 0.25290455E-02 0.12892279E+03</pdfrwt>
<totfact> 0.13196300E+02</totfact>
</mgrwt>
</event>
<event>
 8    1  0.3754098E-007  0.1307527E+03  0.7546771E-02  0.1226349E+00
          5   -1    0    0  501    0  0.00000000000E+00  0.00000000000E+00  0.13158223719E+03  0.13166615033E+03  0.47000000000E+01 0. -1.
         -5   -1    0    0    0  501 -0.00000000000E+00 -0.00000000000E+00 -0.13128901116E+03  0.13137311160E+03  0.47000000000E+01 0. -1.
         25    2    1    2    0    0  0.28248971939E+01 -0.38235684305E+02 -0.14112865857E+02  0.13149533626E+03  0.12498761089E+03 0.  0.
         25    2    1    2    0    0 -0.28248971939E+01  0.38235684305E+02  0.14406091886E+02  0.13154392567E+03  0.12500528509E+03 0.  0.
          5    1    3    3  502    0  0.15772601819E+02  0.13942071683E+02 -0.58035904721E+02  0.61914558609E+02  0.47000000000E+01 0.  1.
         -5    1    3    3    0  502 -0.12947704626E+02 -0.52177755988E+02  0.43923038864E+02  0.69580777648E+02  0.47000000000E+01 0.  1.
          5    1    4    4  503    0  0.43185393342E+02  0.16837163676E+02  0.50795073863E+02  0.68925306002E+02  0.47000000000E+01 0.  1.
         -5    1    4    4    0  503 -0.46010290536E+02  0.21398520629E+02 -0.36388981977E+02  0.62618619672E+02  0.47000000000E+01 0.  1.
<mgrwt>
<rscale>  0 0.13074848E+03</rscale>
<asrwt>0</asrwt>
<pdfrwt beam="1">  1        5 0.20256345E-01 0.13075270E+03</pdfrwt>
<pdfrwt beam="2">  1       -5 0.20211234E-01 0.13075270E+03</pdfrwt>
<totfact> 0.36708469E+02</totfact>
</mgrwt>
</event>
<event>
 8    1  0.3754098E-007  0.1415514E+03  0.7546771E-02  0.1211260E+00
         -5   -1    0    0    0  501 -0.00000000000E+00  0.00000000000E+00  0.35623511878E+02  0.35932222288E+02  0.47000000000E+01 0.  1.
          5   -1    0    0  501    0  0.00000000000E+00 -0.00000000000E+00 -0.71948322332E+03  0.71949857445E+03  0.47000000000E+01 0.  1.
         25    2    1    2    0    0  0.37871742742E+02 -0.54542040124E+02 -0.16394654270E+03  0.21659269838E+03  0.12499930034E+03 0.  0.
         25    2    1    2    0    0 -0.37871742742E+02  0.54542040124E+02 -0.51991316874E+03  0.53883809836E+03  0.12501076026E+03 0.  0.
          5    1    4    4  502    0 -0.81832288068E+02  0.20460917097E+02 -0.34706533368E+03  0.35719967573E+03  0.47000000000E+01 0.  1.
         -5    1    4    4    0  502  0.43960545327E+02  0.34081123027E+02 -0.17284783506E+03  0.18163842263E+03  0.47000000000E+01 0.  1.
          5    1    3    3  503    0  0.71199091378E+02  0.59202122335E+01 -0.72274838306E+02  0.10173544996E+03  0.47000000000E+01 0.  1.
         -5    1    3    3    0  503 -0.33327348636E+02 -0.60462252358E+02 -0.91671704396E+02  0.11485724842E+03  0.47000000000E+01 0.  1.
<mgrwt>
<rscale>  0 0.14154885E+03</rscale>
<asrwt>0</asrwt>
<pdfrwt beam="2">  1        5 0.11071464E+00 0.14155138E+03</pdfrwt>
<pdfrwt beam="1">  1       -5 0.55054686E-02 0.14155138E+03</pdfrwt>
<totfact> 0.10025803E+02</totfact>
</mgrwt>
</event>
<event>
 8    1  0.3754098E-007  0.1922739E+03  0.7546771E-02  0.1156433E+00
         -5   -1    0    0    0  501 -0.00000000000E+00  0.00000000000E+00  0.39128155632E+03  0.39130978306E+03  0.47000000000E+01 0.  1.
          5   -1    0    0  501    0  0.00000000000E+00 -0.00000000000E+00 -0.98177121840E+02  0.98289558209E+02  0.47000000000E+01 0.  1.
         25    2    1    2    0    0  0.13073638390E+03  0.65129303385E+02  0.98439755494E+02  0.21600844582E+03  0.12504173291E+03 0.  0.
         25    2    1    2    0    0 -0.13073638390E+03 -0.65129303385E+02  0.19466467899E+03  0.27359089545E+03  0.12499525027E+03 0.  0.
          5    1    3    3  502    0 -0.79369985418E+01 -0.23628380651E+02  0.27407181018E+01  0.25512699852E+02  0.47000000000E+01 0.  1.
         -5    1    3    3    0  502  0.13867338245E+03  0.88757684036E+02  0.95699037393E+02  0.19049574597E+03  0.47000000000E+01 0.  1.
          5    1    4    4  503    0 -0.14979535449E+03 -0.35847127663E+02  0.13800958242E+03  0.20686323895E+03  0.47000000000E+01 0.  1.
         -5    1    4    4    0  503  0.19058970586E+02 -0.29282175722E+02  0.56655096565E+02  0.66727656497E+02  0.47000000000E+01 0.  1.
<mgrwt>
<rscale>  0 0.19226637E+03</rscale>
<asrwt>0</asrwt>
<pdfrwt beam="2">  1        5 0.15114993E-01 0.19227393E+03</pdfrwt>
<pdfrwt beam="1">  1       -5 0.60207983E-01 0.19227393E+03</pdfrwt>
<totfact> 0.78666612E+01</totfact>
</mgrwt>
</event>
<event>
 8    1  0.3754098E-007  0.1271744E+03  0.7546771E-02  0.1231711E+00
          5   -1    0    0  501    0  0.00000000000E+00  0.00000000000E+00  0.19750576734E+02  0.20302100417E+02  0.47000000000E+01 0. -1.
         -5   -1    0    0    0  501 -0.00000000000E+00 -0.00000000000E+00 -0.81411426496E+03  0.81412783174E+03  0.47000000000E+01 0. -1.
         25    2    1    2    0    0  0.23104013222E+02  0.36073455926E+01 -0.43610519356E+03  0.45426882709E+03  0.12500247614E+03 0.  0.
         25    2    1    2    0    0 -0.23104013222E+02 -0.36073455926E+01 -0.35825849466E+03  0.38016110507E+03  0.12500603361E+03 0.  0.
          5    1    4    4  502    0 -0.46350149810E+01  0.45617900202E+02 -0.52428171525E+02  0.69808877316E+02  0.47000000000E+01 0.  1.
         -5    1    4    4    0  502 -0.18468998241E+02 -0.49225245795E+02 -0.30583032314E+03  0.31035222775E+03  0.47000000000E+01 0.  1.
          5    1    3    3  503    0  0.33153447118E+02  0.35213853623E+02 -0.40700893739E+03  0.40989941651E+03  0.47000000000E+01 0. -1.
         -5    1    3    3    0  503 -0.10049433896E+02 -0.31606508030E+02 -0.29096256175E+02  0.44369410576E+02  0.47000000000E+01 0. -1.
<mgrwt>
<rscale>  0 0.12717348E+03</rscale>
<asrwt>0</asrwt>
<pdfrwt beam="1">  1        5 0.30820194E-02 0.12717436E+03</pdfrwt>
<pdfrwt beam="2">  1       -5 0.12529179E+00 0.12717436E+03</pdfrwt>
<totfact> 0.18353902E+02</totfact>
</mgrwt>
</event>
<event>
 8    1  0.3754098E-007  0.1316962E+03  0.7546771E-02  0.1224966E+00
          5   -1    0    0  501    0  0.00000000000E+00  0.00000000000E+00  0.25556728067E+03  0.25561049460E+03  0.47000000000E+01 0. -1.
         -5   -1    0    0    0  501 -0.00000000000E+00 -0.00000000000E+00 -0.68043211714E+02  0.68205341875E+02  0.47000000000E+01 0. -1.
         25    2    1    2    0    0  0.39886907474E+02  0.10908591539E+02  0.82722510982E+02  0.15550877833E+03  0.12502001263E+03 0.  0.
         25    2    1    2    0    0 -0.39886907474E+02 -0.10908591539E+02  0.10480155798E+03  0.16830705814E+03  0.12503574093E+03 0.  0.
          5    1    3    3  502    0  0.83855273107E+02  0.10150524236E+02  0.69102595846E+02  0.10923368859E+03  0.47000000000E+01 0. -1.
         -5    1    3    3    0  502 -0.43968365633E+02  0.75806730334E+00  0.13619915136E+02  0.46275089744E+02  0.47000000000E+01 0. -1.
          5    1    4    4  503    0  0.78780667329E+01  0.51603796154E+02  0.34967094289E+02  0.63006375836E+02  0.47000000000E+01 0. -1.
         -5    1    4    4    0  503 -0.47764974207E+02 -0.62512387693E+02  0.69834463688E+02  0.10530068231E+03  0.47000000000E+01 0. -1.
<mgrwt>
<rscale>  0 0.13169251E+03</rscale>
<asrwt>0</asrwt>
<pdfrwt beam="1">  1        5 0.39333839E-01 0.13169624E+03</pdfrwt>
<pdfrwt beam="2">  1       -5 0.10483982E-01 0.13169624E+03</pdfrwt>
<totfact> 0.33058042E+02</totfact>
</mgrwt>
</event>
<event>
 8    1  0.3754098E-007  0.1285412E+03  0.7546771E-02  0.1229637E+00
          5   -1    0    0  501    0  0.00000000000E+00  0.00000000000E+00  0.26997009702E+03  0.27001100586E+03  0.47000000000E+01 0. -1.
         -5   -1    0    0    0  501 -0.00000000000E+00 -0.00000000000E+00 -0.68432480251E+02  0.68593690332E+02  0.47000000000E+01 0. -1.
         25    2    1    2    0    0  0.17220636374E+02  0.24508179636E+02  0.45307106518E+02  0.13629223852E+03  0.12500255675E+03 0.  0.
         25    2    1    2    0    0 -0.17220636374E+02 -0.24508179636E+02  0.15623051025E+03  0.20231245766E+03  0.12500062803E+03 0.  0.
          5    1    3    3  502    0  0.38918270520E+02 -0.95219110308E+01  0.75546741934E+02  0.85642856017E+02  0.47000000000E+01 0.  1.
         -5    1    3    3    0  502 -0.21697634146E+02  0.34030090666E+02 -0.30239635416E+02  0.50649382507E+02  0.47000000000E+01 0.  1.
          5    1    4    4  503    0  0.66400934064E+01 -0.20123008882E+02  0.17176033455E+03  0.17312633783E+03  0.47000000000E+01 0. -1.
         -5    1    4    4    0  503 -0.23860729780E+02 -0.43851707532E+01 -0.15529824299E+02  0.29186119833E+02  0.47000000000E+01 0. -1.
<mgrwt>
<rscale>  0 0.12854073E+03</rscale>
<asrwt>0</asrwt>
<pdfrwt beam="1">  1        5 0.41549409E-01 0.12854120E+03</pdfrwt>
<pdfrwt beam="2">  1       -5 0.10543621E-01 0.12854120E+03</pdfrwt>
<totfact> 0.29002005E+02</totfact>
</mgrwt>
</event>
<event>
 8    1  0.3754098E-007  0.1291893E+03  0.7546771E-02  0.1228665E+00
          5   -1    0    0  501    0  0.00000000000E+00  0.00000000000E+00  0.96314511223E+02  0.96429119420E+02  0.47000000000E+01 0.  1.
         -5   -1    0    0    0  501 -0.00000000000E+00 -0.00000000000E+00 -0.17303908623E+03  0.17310290397E+03  0.47000000000E+01 0.  1.
         25    2    1    2    0    0 -0.10454662940E+01 -0.32627098969E+02 -0.39283826636E+02  0.13502672443E+03  0.12499350659E+03 0.  0.
         25    2    1    2    0    0  0.10454662940E+01  0.32627098969E+02 -0.37440748366E+02  0.13450529895E+03  0.12499698085E+03 0.  0.
          5    1    3    3  502    0 -0.49323700327E+02  0.11144695293E+02 -0.47050170969E+02  0.69230341869E+02  0.47000000000E+01 0. -1.
         -5    1    3    3    0  502  0.48278234033E+02 -0.43771794262E+02  0.77663443332E+01  0.65796382564E+02  0.47000000000E+01 0. -1.
          5    1    4    4  503    0 -0.58748219001E+02  0.30977073403E+00 -0.29518170268E+02  0.65915563941E+02  0.47000000000E+01 0. -1.
         -5    1    4    4    0  503  0.59793685295E+02  0.32317328235E+02 -0.79225780986E+01  0.68589735013E+02  0.47000000000E+01 0. -1.
<mgrwt>
<rscale>  0 0.12918842E+03</rscale>
<asrwt>0</asrwt>
<pdfrwt beam="1">  1        5 0.14831342E-01 0.12918926E+03</pdfrwt>
<pdfrwt beam="2">  1       -5 0.26635123E-01 0.12918926E+03</pdfrwt>
<totfact> 0.38367508E+02</totfact>
</mgrwt>
</event>
<event>
 8    1  0.3754098E-007  0.1373762E+03  0.7546771E-02  0.1216908E+00
         -5   -1    0    0    0  501 -0.00000000000E+00  0.00000000000E+00  0.52196306402E+02  0.52407484217E+02  0.47000000000E+01 0. -1.
          5   -1    0    0  501    0  0.00000000000E+00 -0.00000000000E+00 -0.39922435613E+03  0.39925202132E+03  0.47000000000E+01 0. -1.
         25    2    1    2    0    0 -0.13166228333E+02  0.55416007468E+02 -0.10326409805E+03  0.17185047922E+03  0.12499931924E+03 0.  0.
         25    2    1    2    0    0  0.13166228333E+02 -0.55416007468E+02 -0.24376395169E+03  0.27980902632E+03  0.12501177390E+03 0.  0.
          5    1    4    4  502    0  0.42208659288E+02 -0.82630357916E+02 -0.13485259944E+03  0.16375793276E+03  0.47000000000E+01 0. -1.
         -5    1    4    4    0  502 -0.29042430955E+02  0.27214350448E+02 -0.10891135225E+03  0.11605109355E+03  0.47000000000E+01 0. -1.
          5    1    3    3  503    0 -0.14844781705E+02  0.15597946207E+02 -0.12450869454E+03  0.12644432959E+03  0.47000000000E+01 0.  1.
         -5    1    3    3    0  503  0.16785533716E+01  0.39818061261E+02  0.21244596495E+02  0.45406149630E+02  0.47000000000E+01 0.  1.
<mgrwt>
<rscale>  0 0.13737339E+03</rscale>
<asrwt>0</asrwt>
<pdfrwt beam="2">  1        5 0.61437502E-01 0.13737622E+03</pdfrwt>
<pdfrwt beam="1">  1       -5 0.80485738E-02 0.13737622E+03</pdfrwt>
<totfact> 0.20653744E+02</totfact>
</mgrwt>
</event>
<event>
 8    1  0.3754098E-007  0.1434383E+03  0.7546771E-02  0.1208777E+00
         -5   -1    0    0    0  501 -0.00000000000E+00  0.00000000000E+00  0.73932825881E+02  0.74082067619E+02  0.47000000000E+01 0.  1.
          5   -1    0    0  501    0  0.00000000000E+00 -0.00000000000E+00 -0.30403785423E+03  0.30407417978E+03  0.47000000000E+01 0.  1.
         25    2    1    2    0    0  0.42498805589E+02  0.56059691598E+02 -0.59558651506E+02  0.15530961111E+03  0.12500001934E+03 0.  0.
         25    2    1    2    0    0 -0.42498805589E+02 -0.56059691598E+02 -0.17054637685E+03  0.22284663628E+03  0.12500287656E+03 0.  0.
          5    1    4    4  502    0 -0.86213500849E+02 -0.42130410301E+02 -0.10097417360E+03  0.13937579752E+03  0.47000000000E+01 0.  1.
         -5    1    4    4    0  502  0.43714695260E+02 -0.13929281297E+02 -0.69572203242E+02  0.83470838759E+02  0.47000000000E+01 0.  1.
          5    1    3    3  503    0  0.78355369104E+02  0.14195017425E+02 -0.88403055833E+01  0.80257731029E+02  0.47000000000E+01 0.  1.
         -5    1    3    3    0  503 -0.35856563514E+02  0.41864674174E+02 -0.50718345923E+02  0.75051880082E+02  0.47000000000E+01 0.  1.
<mgrwt>
<rscale>  0 0.14343771E+03</rscale>
<asrwt>0</asrwt>
<pdfrwt beam="2">  1        5 0.46789328E-01 0.14343834E+03</pdfrwt>
<pdfrwt beam="1">  1       -5 0.11388555E-01 0.14343834E+03</pdfrwt>
<totfact> 0.20552503E+02</totfact>
</mgrwt>
</event>
<event>
 8    1  0.3754098E-007  0.1401246E+03  0.7546771E-02  0.1213164E+00
          5   -1    0    0  501    0  0.00000000000E+00  0.00000000000E+00  0.10476530200E+03  0.10487067513E+03  0.47000000000E+01 0. -1.
         -5   -1    0    0    0  501 -0.00000000000E+00 -0.00000000000E+00 -0.24383008980E+03  0.24387538353E+03  0.47000000000E+01 0. -1.
         25    2    1    2    0    0  0.28834345256E+02  0.56351743102E+02 -0.15355905436E+03  0.20788284128E+03  0.12501181586E+03 0.  0.
         25    2    1    2    0    0 -0.28834345256E+02 -0.56351743102E+02  0.14494266560E+02  0.14086321739E+03  0.12500169532E+03 0.  0.
          5    1    4    4  502    0 -0.22605995746E+02 -0.47769950906E+02 -0.51450031899E+02  0.73906664352E+02  0.47000000000E+01 0.  1.
         -5    1    4    4    0  502 -0.62283495099E+01 -0.85817921966E+01  0.65944298459E+02  0.66956553033E+02  0.47000000000E+01 0.  1.
          5    1    3    3  503    0  0.15795241184E+02 -0.18847804467E+02 -0.12302334530E+03  0.12554506309E+03  0.47000000000E+01 0. -1.
         -5    1    3    3    0  503  0.13039104073E+02  0.75199547569E+02 -0.30535709068E+02  0.82337778194E+02  0.47000000000E+01 0. -1.
<mgrwt>
<rscale>  0 0.14012230E+03</rscale>
<asrwt>0</asrwt>
<pdfrwt beam="1">  1        5 0.16129329E-01 0.14012456E+03</pdfrwt>
<pdfrwt beam="2">  1       -5 0.37523911E-01 0.14012456E+03</pdfrwt>
<totfact> 0.17214862E+02</totfact>
</mgrwt>
</event>
<event>
 8    1  0.3754098E-007  0.2184178E+03  0.7546771E-02  0.1135068E+00
         -5   -1    0    0    0  501 -0.00000000000E+00  0.00000000000E+00  0.40893172402E+03  0.40895873253E+03  0.47000000000E+01 0.  1.
          5   -1    0    0  501    0  0.00000000000E+00 -0.00000000000E+00 -0.13109672140E+03  0.13118094512E+03  0.47000000000E+01 0.  1.
         25    2    1    2    0    0 -0.16755620826E+03 -0.63289340943E+02  0.22873980255E+03  0.31627238394E+03  0.12500279986E+03 0.  0.
         25    2    1    2    0    0  0.16755620826E+03  0.63289340943E+02  0.49095200072E+02  0.22386729370E+03  0.12500241164E+03 0.  0.
          5    1    4    4  502    0  0.68820195661E+02  0.73588122207E+02 -0.19997295522E+02  0.10282710192E+03  0.47000000000E+01 0. -1.
         -5    1    4    4    0  502  0.98736012597E+02 -0.10298781264E+02  0.69092495594E+02  0.12104019178E+03  0.47000000000E+01 0. -1.
          5    1    3    3  503    0 -0.18670597534E+03 -0.46396828992E+02  0.20049682266E+03  0.27790799352E+03  0.47000000000E+01 0.  1.
         -5    1    3    3    0  503  0.19149767081E+02 -0.16892511951E+02  0.28242979892E+02  0.38364390422E+02  0.47000000000E+01 0.  1.
<mgrwt>
<rscale>  0 0.21841772E+03</rscale>
<asrwt>0</asrwt>
<pdfrwt beam="2">  1        5 0.20177283E-01 0.21841777E+03</pdfrwt>
<pdfrwt beam="1">  1       -5 0.62921130E-01 0.21841777E+03</pdfrwt>
<totfact> 0.43194505E+01</totfact>
</mgrwt>
</event>
<event>
 8    1  0.3754098E-007  0.1729516E+03  0.7546771E-02  0.1174806E+00
          5   -1    0    0  501    0  0.00000000000E+00  0.00000000000E+00  0.34307869304E+03  0.34311088531E+03  0.47000000000E+01 0.  1.
         -5   -1    0    0    0  501 -0.00000000000E+00 -0.00000000000E+00 -0.89968978598E+02  0.90091659491E+02  0.47000000000E+01 0.  1.
         25    2    1    2    0    0  0.16419957151E+02 -0.11839375020E+03  0.87811400317E+02  0.19396671731E+03  0.12500220125E+03 0.  0.
         25    2    1    2    0    0 -0.16419957151E+02  0.11839375020E+03  0.16529831412E+03  0.23923582749E+03  0.12499421356E+03 0.  0.
          5    1    3    3  502    0  0.65066515569E+02 -0.53384094346E+02  0.16703949940E+02  0.85933840372E+02  0.47000000000E+01 0. -1.
         -5    1    3    3    0  502 -0.48646558418E+02 -0.65009655854E+02  0.71107450376E+02  0.10803287694E+03  0.47000000000E+01 0. -1.
          5    1    4    4  503    0  0.28655504159E+02  0.54445593241E+02  0.14601754678E+03  0.15852026529E+03  0.47000000000E+01 0.  1.
         -5    1    4    4    0  503 -0.45075461310E+02  0.63948156960E+02  0.19280767343E+02  0.80715562193E+02  0.47000000000E+01 0.  1.
<mgrwt>
<rscale>  0 0.17295013E+03</rscale>
<asrwt>0</asrwt>
<pdfrwt beam="1">  1        5 0.52793251E-01 0.17295157E+03</pdfrwt>
<pdfrwt beam="2">  1       -5 0.13853295E-01 0.17295157E+03</pdfrwt>
<totfact> 0.11893865E+02</totfact>
</mgrwt>
</event>
<event>
 8    1  0.3754098E-007  0.3346832E+03  0.7546771E-02  0.1069083E+00
         -5   -1    0    0    0  501 -0.00000000000E+00  0.00000000000E+00  0.35131707891E+03  0.35134851634E+03  0.47000000000E+01 0. -1.
          5   -1    0    0  501    0  0.00000000000E+00 -0.00000000000E+00 -0.31878530625E+03  0.31881995151E+03  0.47000000000E+01 0. -1.
         25    2    1    2    0    0  0.28423322679E+03 -0.12489862228E+03  0.14187101602E+02  0.33498376176E+03  0.12499861494E+03 0.  0.
         25    2    1    2    0    0 -0.28423322679E+03  0.12489862228E+03  0.18344671064E+02  0.33518470609E+03  0.12499626867E+03 0.  0.
          5    1    4    4  502    0 -0.13755449351E+03  0.24973015507E+01 -0.23261322471E+02  0.13960893353E+03  0.47000000000E+01 0.  1.
         -5    1    4    4    0  502 -0.14667873328E+03  0.12240132073E+03  0.41605993535E+02  0.19557577255E+03  0.47000000000E+01 0.  1.
          5    1    3    3  503    0  0.19407482828E+03 -0.61055674514E+02  0.64525243412E+02  0.21349105695E+03  0.47000000000E+01 0.  1.
         -5    1    3    3    0  503  0.90158398509E+02 -0.63842947765E+02 -0.50338141810E+02  0.12149270481E+03  0.47000000000E+01 0.  1.
<mgrwt>
<rscale>  0 0.33468298E+03</rscale>
<asrwt>0</asrwt>
<pdfrwt beam="2">  1        5 0.49048977E-01 0.33468320E+03</pdfrwt>
<pdfrwt beam="1">  1       -5 0.54053865E-01 0.33468320E+03</pdfrwt>
<totfact> 0.11167847E+01</totfact>
</mgrwt>
</event>
<event>
 8    1  0.3754098E-007  0.1301527E+03  0.7546771E-02  0.1227233E+00
         -5   -1    0    0    0  501 -0.00000000000E+00  0.00000000000E+00  0.85939566525E+02  0.86067991114E+02  0.47000000000E+01 0.  1.
          5   -1    0    0  501    0  0.00000000000E+00 -0.00000000000E+00 -0.20554224017E+03  0.20559596906E+03  0.47000000000E+01 0.  1.
         25    2    1    2    0    0 -0.35227750688E+02  0.85448435320E+01 -0.29727272546E+02  0.13350445071E+03  0.12500287540E+03 0.  0.
         25    2    1    2    0    0  0.35227750688E+02 -0.85448435320E+01 -0.89875401101E+02  0.15815950946E+03  0.12499133546E+03 0.  0.
          5    1    3    3  502    0 -0.29765632267E+01  0.62855119801E+02 -0.30667385616E+02  0.70158424686E+02  0.47000000000E+01 0. -1.
         -5    1    3    3    0  502 -0.32251187462E+02 -0.54310276269E+02  0.94011306993E+00  0.63346026029E+02  0.47000000000E+01 0. -1.
          5    1    4    4  503    0 -0.31415481249E+00  0.55867744405E+02 -0.33052298140E+02  0.65083392432E+02  0.47000000000E+01 0. -1.
         -5    1    4    4    0  503  0.35541905501E+02 -0.64412587937E+02 -0.56823102961E+02  0.93076117030E+02  0.47000000000E+01 0. -1.
<mgrwt>
<rscale>  0 0.13014994E+03</rscale>
<asrwt>0</asrwt>
<pdfrwt beam="2">  1        5 0.31635895E-01 0.13015271E+03</pdfrwt>
<pdfrwt beam="1">  1       -5 0.13235484E-01 0.13015271E+03</pdfrwt>
<totfact> 0.33739074E+02</totfact>
</mgrwt>
</event>
<event>
 8    1  0.3754098E-007  0.1718895E+03  0.7546771E-02  0.1175892E+00
          5   -1    0    0  501    0  0.00000000000E+00  0.00000000000E+00  0.22026524044E+03  0.22031537883E+03  0.47000000000E+01 0.  1.
         -5   -1    0    0    0  501 -0.00000000000E+00 -0.00000000000E+00 -0.14506786029E+03  0.14514397710E+03  0.47000000000E+01 0.  1.
         25    2    1    2    0    0  0.11730240802E+03 -0.12701056417E+02 -0.12780397620E+02  0.17236330951E+03  0.12499840054E+03 0.  0.
         25    2    1    2    0    0 -0.11730240802E+03  0.12701056417E+02  0.87977777775E+02  0.19309604642E+03  0.12499928799E+03 0.  0.
          5    1    3    3  502    0  0.86750210172E+02  0.47234512731E+02  0.13860567907E+02  0.99854411522E+02  0.47000000000E+01 0.  1.
         -5    1    3    3    0  502  0.30552197852E+02 -0.59935569149E+02 -0.26640965527E+02  0.72508897985E+02  0.47000000000E+01 0.  1.
          5    1    4    4  503    0  0.44654803679E+01 -0.23168172031E+01 -0.25191924974E+02  0.26115727843E+02  0.47000000000E+01 0.  1.
         -5    1    4    4    0  503 -0.12176788839E+03  0.15017873620E+02  0.11316970275E+03  0.16698031858E+03  0.47000000000E+01 0.  1.
<mgrwt>
<rscale>  0 0.17188932E+03</rscale>
<asrwt>0</asrwt>
<pdfrwt beam="1">  1        5 0.33896672E-01 0.17188948E+03</pdfrwt>
<pdfrwt beam="2">  1       -5 0.22327844E-01 0.17188948E+03</pdfrwt>
<totfact> 0.12309673E+02</totfact>
</mgrwt>
</event>
<event>
 8    1  0.3754098E-007  0.1271694E+03  0.7546771E-02  0.1231719E+00
         -5   -1    0    0    0  501 -0.00000000000E+00  0.00000000000E+00  0.13487824706E+03  0.13496011088E+03  0.47000000000E+01 0.  1.
          5   -1    0    0  501    0  0.00000000000E+00 -0.00000000000E+00 -0.13962603050E+03  0.13970511227E+03  0.47000000000E+01 0.  1.
         25    2    1    2    0    0 -0.18684863652E+02 -0.14016457412E+02  0.49431169058E+02  0.13643862501E+03  0.12500589071E+03 0.  0.
         25    2    1    2    0    0  0.18684863652E+02  0.14016457412E+02 -0.54178952504E+02  0.13822659814E+03  0.12500259329E+03 0.  0.
          5    1    3    3  502    0 -0.58372953160E+02 -0.47005047538E+02  0.24986563160E+02  0.79140978597E+02  0.47000000000E+01 0.  1.
         -5    1    3    3    0  502  0.39688089508E+02  0.32988590126E+02  0.24444605898E+02  0.57297646416E+02  0.47000000000E+01 0.  1.
          5    1    4    4  503    0 -0.38299338839E+02 -0.26370055781E+02  0.44059221008E+01  0.46943810528E+02  0.47000000000E+01 0. -1.
         -5    1    4    4    0  503  0.56984202491E+02  0.40386513193E+02 -0.58584874605E+02  0.91282787610E+02  0.47000000000E+01 0. -1.
<mgrwt>
<rscale>  0 0.12716860E+03</rscale>
<asrwt>0</asrwt>
<pdfrwt beam="2">  1        5 0.21493308E-01 0.12716941E+03</pdfrwt>
<pdfrwt beam="1">  1       -5 0.20762880E-01 0.12716941E+03</pdfrwt>
<totfact> 0.30921336E+02</totfact>
</mgrwt>
</event>
<event>
 8    1  0.3754098E-007  0.1345072E+03  0.7546771E-02  0.1220924E+00
         -5   -1    0    0    0  501 -0.00000000000E+00  0.00000000000E+00  0.56988557127E+02  0.57182039518E+02  0.47000000000E+01 0.  1.
          5   -1    0    0  501    0  0.00000000000E+00 -0.00000000000E+00 -0.33612988282E+03  0.33616274054E+03  0.47000000000E+01 0.  1.
         25    2    1    2    0    0  0.50185726953E+01 -0.49417132928E+02 -0.92283214617E+02  0.16312072866E+03  0.12499976527E+03 0.  0.
         25    2    1    2    0    0 -0.50185726953E+01  0.49417132928E+02 -0.18685811108E+03  0.23022405140E+03  0.12497968262E+03 0.  0.
          5    1    4    4  502    0 -0.33797143900E+02  0.29744046664E+02 -0.56316069803E+01  0.45615350979E+02  0.47000000000E+01 0. -1.
         -5    1    4    4    0  502  0.28778571204E+02  0.19673086264E+02 -0.18122650410E+03  0.18460870042E+03  0.47000000000E+01 0. -1.
          5    1    3    3  503    0 -0.24651299315E+02  0.26806294256E+02  0.37230404424E+01  0.36908196919E+02  0.47000000000E+01 0. -1.
         -5    1    3    3    0  503  0.29669872010E+02 -0.76223427184E+02 -0.96006255059E+02  0.12621253174E+03  0.47000000000E+01 0. -1.
<mgrwt>
<rscale>  0 0.13450251E+03</rscale>
<asrwt>0</asrwt>
<pdfrwt beam="2">  1        5 0.51729699E-01 0.13450718E+03</pdfrwt>
<pdfrwt beam="1">  1       -5 0.87848813E-02 0.13450718E+03</pdfrwt>
<totfact> 0.25592068E+02</totfact>
</mgrwt>
</event>
<event>
 8    1  0.3754098E-007  0.1731574E+03  0.7546771E-02  0.1174599E+00
          5   -1    0    0  501    0  0.00000000000E+00  0.00000000000E+00  0.22258905199E+02  0.22749700232E+02  0.47000000000E+01 0. -1.
         -5   -1    0    0    0  501 -0.00000000000E+00 -0.00000000000E+00 -0.13438631051E+04  0.13438713239E+04  0.47000000000E+01 0. -1.
         25    2    1    2    0    0 -0.15414828351E+02  0.11880870522E+03 -0.72571583505E+03  0.74608382375E+03  0.12499789383E+03 0.  0.
         25    2    1    2    0    0  0.15414828351E+02 -0.11880870522E+03 -0.59588836486E+03  0.62053720040E+03  0.12502139152E+03 0.  0.
          5    1    4    4  502    0 -0.41772771485E+02 -0.13217629818E+02 -0.26201065891E+03  0.26569031890E+03  0.47000000000E+01 0.  1.
         -5    1    4    4    0  502  0.57187599836E+02 -0.10559107540E+03 -0.33387770595E+03  0.35484688150E+03  0.47000000000E+01 0.  1.
          5    1    3    3  503    0 -0.12221238878E+02  0.13614743198E+03 -0.70637288319E+03  0.71949303125E+03  0.47000000000E+01 0. -1.
         -5    1    3    3    0  503 -0.31935894738E+01 -0.17338726760E+02 -0.19342951858E+02  0.26590792504E+02  0.47000000000E+01 0. -1.
<mgrwt>
<rscale>  0 0.17315313E+03</rscale>
<asrwt>0</asrwt>
<pdfrwt beam="1">  1        5 0.34628337E-02 0.17315737E+03</pdfrwt>
<pdfrwt beam="2">  1       -5 0.20678649E+00 0.17315737E+03</pdfrwt>
<totfact> 0.40211470E+01</totfact>
</mgrwt>
</event>
<event>
 8    1  0.3754098E-007  0.1265739E+03  0.7546771E-02  0.1232635E+00
          5   -1    0    0  501    0  0.00000000000E+00  0.00000000000E+00  0.12770577396E+03  0.12779223256E+03  0.47000000000E+01 0. -1.
         -5   -1    0    0    0  501 -0.00000000000E+00 -0.00000000000E+00 -0.12592740537E+03  0.12601508411E+03  0.47000000000E+01 0. -1.
         25    2    1    2    0    0  0.19513547441E+02 -0.34329731548E+01  0.10078496449E+02  0.12696156540E+03  0.12500039663E+03 0.  0.
         25    2    1    2    0    0 -0.19513547441E+02  0.34329731548E+01 -0.83001278604E+01  0.12684575128E+03  0.12501355390E+03 0.  0.
          5    1    4    4  502    0 -0.31616706098E+02  0.59917283313E+02  0.21960490276E+01  0.67945636912E+02  0.47000000000E+01 0.  1.
         -5    1    4    4    0  502  0.12103158657E+02 -0.56484310158E+02 -0.10496176888E+02  0.58900114370E+02  0.47000000000E+01 0.  1.
          5    1    3    3  503    0 -0.24770466472E+02 -0.21309139577E+02  0.53092433127E+02  0.62518412441E+02  0.47000000000E+01 0.  1.
         -5    1    3    3    0  503  0.44284013913E+02  0.17876166422E+02 -0.43013936678E+02  0.64443152955E+02  0.47000000000E+01 0.  1.
<mgrwt>
<rscale>  0 0.12657065E+03</rscale>
<asrwt>0</asrwt>
<pdfrwt beam="1">  1        5 0.19660437E-01 0.12657390E+03</pdfrwt>
<pdfrwt beam="2">  1       -5 0.19386842E-01 0.12657390E+03</pdfrwt>
<totfact> 0.41437085E+02</totfact>
</mgrwt>
</event>
<event>
 8    1  0.3754098E-007  0.1372619E+03  0.7546771E-02  0.1217062E+00
         -5   -1    0    0    0  501 -0.00000000000E+00  0.00000000000E+00  0.12815200355E+03  0.12823816130E+03  0.47000000000E+01 0. -1.
          5   -1    0    0  501    0  0.00000000000E+00 -0.00000000000E+00 -0.17918026409E+03  0.17924189533E+03  0.47000000000E+01 0. -1.
         25    2    1    2    0    0  0.69721087654E+01 -0.56282255528E+02  0.39767277018E+02  0.14290586124E+03  0.12499738504E+03 0.  0.
         25    2    1    2    0    0 -0.69721087654E+01  0.56282255528E+02 -0.90795537559E+02  0.16457419539E+03  0.12499813422E+03 0.  0.
          5    1    3    3  502    0  0.49039729157E+02  0.87784784088E+01  0.41887672038E+02  0.65258131966E+02  0.47000000000E+01 0.  1.
         -5    1    3    3    0  502 -0.42067620391E+02 -0.65060733937E+02 -0.21203950200E+01  0.77647729271E+02  0.47000000000E+01 0.  1.
          5    1    4    4  503    0  0.76519865657E+01  0.94165802728E+02 -0.75119439060E+02  0.12079226559E+03  0.47000000000E+01 0.  1.
         -5    1    4    4    0  503 -0.14624095331E+02 -0.37883547200E+02 -0.15676098500E+02  0.43781929799E+02  0.47000000000E+01 0.  1.
<mgrwt>
<rscale>  0 0.13726175E+03</rscale>
<asrwt>0</asrwt>
<pdfrwt beam="2">  1        5 0.27577563E-01 0.13726193E+03</pdfrwt>
<pdfrwt beam="1">  1       -5 0.19727061E-01 0.13726193E+03</pdfrwt>
<totfact> 0.21718417E+02</totfact>
</mgrwt>
</event>
<event>
 8    1  0.3754098E-007  0.1344557E+03  0.7546771E-02  0.1220992E+00
         -5   -1    0    0    0  501 -0.00000000000E+00  0.00000000000E+00  0.45374238305E+02  0.45617008908E+02  0.47000000000E+01 0. -1.
          5   -1    0    0  501    0  0.00000000000E+00 -0.00000000000E+00 -0.42164810991E+03  0.42167430392E+03  0.47000000000E+01 0. -1.
         25    2    1    2    0    0  0.22182721515E+02 -0.44284406211E+02 -0.13176434158E+03  0.18825142520E+03  0.12499430231E+03 0.  0.
         25    2    1    2    0    0 -0.22182721515E+02  0.44284406211E+02 -0.24450953002E+03  0.27903988763E+03  0.12500066740E+03 0.  0.
          5    1    3    3  502    0  0.63990233265E+02  0.47181199896E+01 -0.39049937736E+02  0.75259539240E+02  0.47000000000E+01 0.  1.
         -5    1    3    3    0  502 -0.41807511750E+02 -0.49002526201E+02 -0.92714403847E+02  0.11299188596E+03  0.47000000000E+01 0.  1.
          5    1    4    4  503    0 -0.72344982874E+02  0.42356068270E+02 -0.14828536638E+03  0.17040678668E+03  0.47000000000E+01 0.  1.
         -5    1    4    4    0  503  0.50162261360E+02  0.19283379410E+01 -0.96224163644E+02  0.10863310094E+03  0.47000000000E+01 0.  1.
<mgrwt>
<rscale>  0 0.13445427E+03</rscale>
<asrwt>0</asrwt>
<pdfrwt beam="2">  1        5 0.64889627E-01 0.13445575E+03</pdfrwt>
<pdfrwt beam="1">  1       -5 0.70013419E-02 0.13445575E+03</pdfrwt>
<totfact> 0.23053185E+02</totfact>
</mgrwt>
</event>
<event>
 8    1  0.3754098E-007  0.1277770E+03  0.7546771E-02  0.1230799E+00
          5   -1    0    0  501    0  0.00000000000E+00  0.00000000000E+00  0.14085122980E+03  0.14092962406E+03  0.47000000000E+01 0.  1.
         -5   -1    0    0    0  501 -0.00000000000E+00 -0.00000000000E+00 -0.14077415950E+03  0.14085259665E+03  0.47000000000E+01 0.  1.
         25    2    1    2    0    0 -0.13637926925E+02  0.22690344810E+02 -0.59338149348E+02  0.14088287226E+03  0.12500449164E+03 0.  0.
         25    2    1    2    0    0  0.13637926925E+02 -0.22690344810E+02  0.59415219654E+02  0.14089934844E+03  0.12498645233E+03 0.  0.
          5    1    4    4  502    0  0.53046335822E+02 -0.25045299687E+02  0.77425974412E+02  0.97252518190E+02  0.47000000000E+01 0.  1.
         -5    1    4    4    0  502 -0.39408408897E+02  0.23549548770E+01 -0.18010754758E+02  0.43646830254E+02  0.47000000000E+01 0.  1.
          5    1    3    3  503    0  0.20920591602E+02 -0.22330311197E+02 -0.75570011885E+02  0.81665357695E+02  0.47000000000E+01 0.  1.
         -5    1    3    3    0  503 -0.34558518528E+02  0.45020656007E+02  0.16231862538E+02  0.59217514568E+02  0.47000000000E+01 0.  1.
<mgrwt>
<rscale>  0 0.12777261E+03</rscale>
<asrwt>0</asrwt>
<pdfrwt beam="1">  1        5 0.21681484E-01 0.12777702E+03</pdfrwt>
<pdfrwt beam="2">  1       -5 0.21669627E-01 0.12777702E+03</pdfrwt>
<totfact> 0.28123368E+02</totfact>
</mgrwt>
</event>
<event>
 8    1  0.3754098E-007  0.1498281E+03  0.7546771E-02  0.1200685E+00
          5   -1    0    0  501    0  0.00000000000E+00  0.00000000000E+00  0.46127963933E+02  0.46366788293E+02  0.47000000000E+01 0.  1.
         -5   -1    0    0    0  501 -0.00000000000E+00 -0.00000000000E+00 -0.48529703499E+03  0.48531979371E+03  0.47000000000E+01 0.  1.
         25    2    1    2    0    0  0.31874662740E+01  0.82542166414E+02 -0.21492889110E+03  0.26199785946E+03  0.12500032382E+03 0.  0.
         25    2    1    2    0    0 -0.31874662740E+01 -0.82542166414E+02 -0.22424017996E+03  0.26968872254E+03  0.12499991833E+03 0.  0.
          5    1    3    3  502    0 -0.55890311321E+02  0.16065240884E+02 -0.10877146605E+03  0.12343071211E+03  0.47000000000E+01 0.  1.
         -5    1    3    3    0  502  0.59077777595E+02  0.66476925530E+02 -0.10615742505E+03  0.13856714736E+03  0.47000000000E+01 0.  1.
          5    1    4    4  503    0  0.17483622685E+01 -0.68692809064E+02 -0.23876079785E+03  0.24849661442E+03  0.47000000000E+01 0. -1.
         -5    1    4    4    0  503 -0.49358285426E+01 -0.13849357350E+02  0.14520617898E+02  0.21192108120E+02  0.47000000000E+01 0. -1.
<mgrwt>
<rscale>  0 0.14982798E+03</rscale>
<asrwt>0</asrwt>
<pdfrwt beam="1">  1        5 0.71167320E-02 0.14982807E+03</pdfrwt>
<pdfrwt beam="2">  1       -5 0.74681200E-01 0.14982807E+03</pdfrwt>
<totfact> 0.16933740E+02</totfact>
</mgrwt>
</event>
<event>
 8    1  0.3754098E-007  0.1322232E+03  0.7546771E-02  0.1224203E+00
          5   -1    0    0  501    0  0.00000000000E+00  0.00000000000E+00  0.25931313004E+03  0.25935571984E+03  0.47000000000E+01 0. -1.
         -5   -1    0    0    0  501 -0.00000000000E+00 -0.00000000000E+00 -0.68513771653E+02  0.68674790907E+02  0.47000000000E+01 0. -1.
         25    2    1    2    0    0  0.41374413919E+02  0.12004247941E+02  0.73393352753E+02  0.15120533013E+03  0.12498209286E+03 0.  0.
         25    2    1    2    0    0 -0.41374413919E+02 -0.12004247941E+02  0.11740600564E+03  0.17682518062E+03  0.12500812072E+03 0.  0.
          5    1    3    3  502    0  0.34629508027E+02  0.65929912040E+02  0.26231712075E+02  0.79095820662E+02  0.47000000000E+01 0.  1.
         -5    1    3    3    0  502  0.67449058923E+01 -0.53925664099E+02  0.47161640679E+02  0.72109509467E+02  0.47000000000E+01 0.  1.
          5    1    4    4  503    0 -0.25796880759E+01 -0.39480943940E+02  0.12246824177E+03  0.12878648985E+03  0.47000000000E+01 0. -1.
         -5    1    4    4    0  503 -0.38794725843E+02  0.27476695999E+02 -0.50622361322E+01  0.48038690770E+02  0.47000000000E+01 0. -1.
<mgrwt>
<rscale>  0 0.13221705E+03</rscale>
<asrwt>0</asrwt>
<pdfrwt beam="1">  1        5 0.39909989E-01 0.13222320E+03</pdfrwt>
<pdfrwt beam="2">  1       -5 0.10556243E-01 0.13222320E+03</pdfrwt>
<totfact> 0.31753969E+02</totfact>
</mgrwt>
</event>
<event>
 8    1  0.3754098E-007  0.1385510E+03  0.7546771E-02  0.1215298E+00
          5   -1    0    0  501    0  0.00000000000E+00  0.00000000000E+00  0.31338120608E+02  0.31688606837E+02  0.47000000000E+01 0.  1.
         -5   -1    0    0    0  501 -0.00000000000E+00 -0.00000000000E+00 -0.60878358574E+03  0.60880172821E+03  0.47000000000E+01 0.  1.
         25    2    1    2    0    0  0.17853548550E+02  0.57064055001E+02 -0.28546282759E+03  0.31730271985E+03  0.12496773391E+03 0.  0.
         25    2    1    2    0    0 -0.17853548550E+02 -0.57064055001E+02 -0.29198263754E+03  0.32318761520E+03  0.12498527281E+03 0.  0.
          5    1    4    4  502    0  0.43183341570E+02 -0.71023733021E+01 -0.41341419361E+02  0.60385823257E+02  0.47000000000E+01 0.  1.
         -5    1    4    4    0  502 -0.61036890120E+02 -0.49961681699E+02 -0.25064121818E+03  0.26280179194E+03  0.47000000000E+01 0.  1.
          5    1    3    3  503    0  0.64700322002E+02  0.61548847937E+02 -0.16116777177E+03  0.18431368101E+03  0.47000000000E+01 0.  1.
         -5    1    3    3    0  503 -0.46846773452E+02 -0.44847929361E+01 -0.12429505582E+03  0.13298903884E+03  0.47000000000E+01 0.  1.
<mgrwt>
<rscale>  0 0.13854702E+03</rscale>
<asrwt>0</asrwt>
<pdfrwt beam="1">  1        5 0.48496058E-02 0.13855098E+03</pdfrwt>
<pdfrwt beam="2">  1       -5 0.93687361E-01 0.13855098E+03</pdfrwt>
<totfact> 0.18503725E+02</totfact>
</mgrwt>
</event>
<event>
 8    1  0.3754098E-007  0.1422516E+03  0.7546771E-02  0.1210332E+00
         -5   -1    0    0    0  501 -0.00000000000E+00  0.00000000000E+00  0.10985255393E+03  0.10995305182E+03  0.47000000000E+01 0. -1.
          5   -1    0    0  501    0  0.00000000000E+00 -0.00000000000E+00 -0.26190355398E+03  0.26194572260E+03  0.47000000000E+01 0. -1.
         25    2    1    2    0    0  0.66578899432E+02 -0.13331557204E+02  0.25367659134E+02  0.14449409498E+03  0.12499818033E+03 0.  0.
         25    2    1    2    0    0 -0.66578899432E+02  0.13331557204E+02 -0.17741865918E+03  0.22740467944E+03  0.12500010935E+03 0.  0.
          5    1    4    4  502    0 -0.83282202093E+02  0.19685041725E+02 -0.18764046992E+03  0.20628732875E+03  0.47000000000E+01 0. -1.
         -5    1    4    4    0  502  0.16703302661E+02 -0.63534845211E+01  0.10221810736E+02  0.21117350688E+02  0.47000000000E+01 0. -1.
          5    1    3    3  503    0  0.12704815702E+02 -0.59707015090E+02  0.38119279441E+02  0.72121490959E+02  0.47000000000E+01 0.  1.
         -5    1    3    3    0  503  0.53874083729E+02  0.46375457886E+02 -0.12751620308E+02  0.72372604017E+02  0.47000000000E+01 0.  1.
<mgrwt>
<rscale>  0 0.14225114E+03</rscale>
<asrwt>0</asrwt>
<pdfrwt beam="2">  1        5 0.40303829E-01 0.14225156E+03</pdfrwt>
<pdfrwt beam="1">  1       -5 0.16911367E-01 0.14225156E+03</pdfrwt>
<totfact> 0.13715761E+02</totfact>
</mgrwt>
</event>
<event>
 8    1  0.3754098E-007  0.1342948E+03  0.7546771E-02  0.1221219E+00
          5   -1    0    0  501    0  0.00000000000E+00  0.00000000000E+00  0.71975195035E+02  0.72128487440E+02  0.47000000000E+01 0. -1.
         -5   -1    0    0    0  501 -0.00000000000E+00 -0.00000000000E+00 -0.25163758640E+03  0.25168147506E+03  0.47000000000E+01 0. -1.
         25    2    1    2    0    0  0.11279174759E+02  0.47783361928E+02 -0.10235297246E+03  0.16885263865E+03  0.12499845259E+03 0.  0.
         25    2    1    2    0    0 -0.11279174759E+02 -0.47783361928E+02 -0.77309418904E+02  0.15495732384E+03  0.12499822599E+03 0.  0.
          5    1    3    3  502    0  0.84680120906E+01  0.64970183265E+02 -0.78236425386E+00  0.65692724377E+02  0.47000000000E+01 0.  1.
         -5    1    3    3    0  502  0.28111626680E+01 -0.17186821337E+02 -0.10157060820E+03  0.10315991428E+03  0.47000000000E+01 0.  1.
          5    1    4    4  503    0 -0.16234311239E+02 -0.60226896831E+02 -0.10592400242E+03  0.12301551224E+03  0.47000000000E+01 0. -1.
         -5    1    4    4    0  503  0.49551364801E+01  0.12443534903E+02  0.28614583518E+02  0.31941811600E+02  0.47000000000E+01 0. -1.
<mgrwt>
<rscale>  0 0.13429471E+03</rscale>
<asrwt>0</asrwt>
<pdfrwt beam="1">  1        5 0.11088275E-01 0.13429476E+03</pdfrwt>
<pdfrwt beam="2">  1       -5 0.38728642E-01 0.13429476E+03</pdfrwt>
<totfact> 0.31135600E+02</totfact>
</mgrwt>
</event>
<event>
 8    1  0.3754098E-007  0.1268413E+03  0.7546771E-02  0.1232220E+00
          5   -1    0    0  501    0  0.00000000000E+00  0.00000000000E+00  0.26636009114E+03  0.26640155433E+03  0.47000000000E+01 0. -1.
         -5   -1    0    0    0  501 -0.00000000000E+00 -0.00000000000E+00 -0.60621149122E+02  0.60803073285E+02  0.47000000000E+01 0. -1.
         25    2    1    2    0    0 -0.19493364679E+02  0.91157775386E+01  0.11541549085E+03  0.17149180491E+03  0.12500245981E+03 0.  0.
         25    2    1    2    0    0  0.19493364679E+02 -0.91157775386E+01  0.90323451166E+02  0.15571282270E+03  0.12500027463E+03 0.  0.
          5    1    4    4  502    0  0.62678794576E+02  0.26380852669E+02  0.64905052458E+02  0.94124048530E+02  0.47000000000E+01 0.  1.
         -5    1    4    4    0  502 -0.43185429897E+02 -0.35496630208E+02  0.25418398708E+02  0.61588774175E+02  0.47000000000E+01 0.  1.
          5    1    3    3  503    0  0.32944487441E+01 -0.54202380968E+02  0.28614072349E+02  0.61559780957E+02  0.47000000000E+01 0. -1.
         -5    1    3    3    0  503 -0.22787813423E+02  0.63318158506E+02  0.86801418500E+02  0.10993202395E+03  0.47000000000E+01 0. -1.
<mgrwt>
<rscale>  0 0.12684072E+03</rscale>
<asrwt>0</asrwt>
<pdfrwt beam="1">  1        5 0.40995659E-01 0.12684125E+03</pdfrwt>
<pdfrwt beam="2">  1       -5 0.93435144E-02 0.12684125E+03</pdfrwt>
<totfact> 0.36616310E+02</totfact>
</mgrwt>
</event>
<event>
 8    1  0.3754098E-007  0.1610403E+03  0.7546771E-02  0.1187541E+00
         -5   -1    0    0    0  501 -0.00000000000E+00  0.00000000000E+00  0.14525094010E+04  0.14525170051E+04  0.47000000000E+01 0.  1.
          5   -1    0    0  501    0  0.00000000000E+00 -0.00000000000E+00 -0.17564075823E+02  0.18182044977E+02  0.47000000000E+01 0.  1.
         25    2    1    2    0    0  0.57273206245E+02  0.83810833941E+02  0.74838118451E+03  0.76551184492E+03  0.12501804408E+03 0.  0.
         25    2    1    2    0    0 -0.57273206245E+02 -0.83810833941E+02  0.68656414067E+03  0.70518720513E+03  0.12495678842E+03 0.  0.
          5    1    3    3  502    0  0.60707311993E+02  0.83846563097E+01  0.54608875804E+03  0.54953680664E+03  0.47000000000E+01 0.  1.
         -5    1    3    3    0  502 -0.34341057480E+01  0.75426177632E+02  0.20229242646E+03  0.21597503828E+03  0.47000000000E+01 0.  1.
          5    1    4    4  503    0 -0.56290745582E+02 -0.58522915704E+02  0.66923053318E+03  0.67415515739E+03  0.47000000000E+01 0. -1.
         -5    1    4    4    0  503 -0.98246066303E+00 -0.25287918237E+02  0.17333607498E+02  0.31032047735E+02  0.47000000000E+01 0. -1.
<mgrwt>
<rscale>  0 0.16102844E+03</rscale>
<asrwt>0</asrwt>
<pdfrwt beam="2">  1        5 0.27502857E-02 0.16104033E+03</pdfrwt>
<pdfrwt beam="1">  1       -5 0.22351118E+00 0.16104033E+03</pdfrwt>
<totfact> 0.44486383E+01</totfact>
</mgrwt>
</event>
<event>
 8    1  0.3754098E-007  0.1362192E+03  0.7546771E-02  0.1218509E+00
         -5   -1    0    0    0  501 -0.00000000000E+00  0.00000000000E+00  0.72865252466E+03  0.72866768262E+03  0.47000000000E+01 0.  1.
          5   -1    0    0  501    0  0.00000000000E+00 -0.00000000000E+00 -0.28713591686E+02  0.29095710123E+02  0.47000000000E+01 0.  1.
         25    2    1    2    0    0 -0.31807981026E+02 -0.43802984751E+02  0.48092333296E+03  0.49984290649E+03  0.12500091938E+03 0.  0.
         25    2    1    2    0    0  0.31807981026E+02  0.43802984751E+02  0.21901560001E+03  0.25792048626E+03  0.12499878021E+03 0.  0.
          5    1    4    4  502    0  0.26427372337E+01  0.75594805091E+02  0.71639714953E+02  0.10428757057E+03  0.47000000000E+01 0.  1.
         -5    1    4    4    0  502  0.29165243792E+02 -0.31791820340E+02  0.14737588506E+03  0.15363291569E+03  0.47000000000E+01 0.  1.
          5    1    3    3  503    0  0.21974948884E+02  0.23488248337E+02  0.45284413827E+02  0.55743737980E+02  0.47000000000E+01 0. -1.
         -5    1    3    3    0  503 -0.53782929910E+02 -0.67291233088E+02  0.43563891914E+03  0.44409916851E+03  0.47000000000E+01 0. -1.
<mgrwt>
<rscale>  0 0.13621874E+03</rscale>
<asrwt>0</asrwt>
<pdfrwt beam="2">  1        5 0.44480360E-02 0.13621923E+03</pdfrwt>
<pdfrwt beam="1">  1       -5 0.11213093E+00 0.13621923E+03</pdfrwt>
<totfact> 0.13672987E+02</totfact>
</mgrwt>
</event>
<event>
 8    1  0.3754098E-007  0.1293832E+03  0.7546771E-02  0.1228374E+00
         -5   -1    0    0    0  501 -0.00000000000E+00  0.00000000000E+00  0.27926479315E+03  0.27930434062E+03  0.47000000000E+01 0.  1.
          5   -1    0    0  501    0  0.00000000000E+00 -0.00000000000E+00 -0.60491424074E+02  0.60673737206E+02  0.47000000000E+01 0.  1.
         25    2    1    2    0    0 -0.33126334159E+02  0.41587737440E+01  0.91335274948E+02  0.15837277205E+03  0.12500061225E+03 0.  0.
         25    2    1    2    0    0  0.33126334159E+02 -0.41587737440E+01  0.12743809412E+03  0.18160530578E+03  0.12500147935E+03 0.  0.
          5    1    3    3  502    0 -0.43647594516E+02  0.14436122330E+01 -0.18673891487E+02  0.47728406076E+02  0.47000000000E+01 0. -1.
         -5    1    3    3    0  502  0.10521260358E+02  0.27151615110E+01  0.11000916643E+03  0.11064436597E+03  0.47000000000E+01 0. -1.
          5    1    4    4  503    0  0.34038058669E+02 -0.41009529683E+02  0.50960181978E+01  0.53744119346E+02  0.47000000000E+01 0.  1.
         -5    1    4    4    0  503 -0.91172451071E+00  0.36850755939E+02  0.12234207593E+03  0.12786118644E+03  0.47000000000E+01 0.  1.
<mgrwt>
<rscale>  0 0.12938302E+03</rscale>
<asrwt>0</asrwt>
<pdfrwt beam="2">  1        5 0.93234393E-02 0.12938323E+03</pdfrwt>
<pdfrwt beam="1">  1       -5 0.42980880E-01 0.12938323E+03</pdfrwt>
<totfact> 0.33589230E+02</totfact>
</mgrwt>
</event>
<event>
 8    1  0.3754098E-007  0.1313051E+03  0.7546771E-02  0.1225532E+00
          5   -1    0    0  501    0  0.00000000000E+00  0.00000000000E+00  0.57337084043E+02  0.57529394283E+02  0.47000000000E+01 0.  1.
         -5   -1    0    0    0  501 -0.00000000000E+00 -0.00000000000E+00 -0.30047022932E+03  0.30050698612E+03  0.47000000000E+01 0.  1.
         25    2    1    2    0    0 -0.40198566565E+02  0.92318541674E-01 -0.11434482760E+03  0.17411392427E+03  0.12499994299E+03 0.  0.
         25    2    1    2    0    0  0.40198566565E+02 -0.92318541674E-01 -0.12878831767E+03  0.18392245613E+03  0.12500042330E+03 0.  0.
          5    1    3    3  502    0 -0.82958100711E+02 -0.89961385825E+00 -0.96987121017E+02  0.12771627704E+03  0.47000000000E+01 0. -1.
         -5    1    3    3    0  502  0.42759534146E+02  0.99193239992E+00 -0.17357706586E+02  0.46397647227E+02  0.47000000000E+01 0. -1.
          5    1    4    4  503    0  0.31966049373E+02  0.56516217050E+02 -0.34860916133E+02  0.73846357904E+02  0.47000000000E+01 0. -1.
         -5    1    4    4    0  503  0.82325171923E+01 -0.56608535591E+02 -0.93927401542E+02  0.11007609823E+03  0.47000000000E+01 0. -1.
<mgrwt>
<rscale>  0 0.13130502E+03</rscale>
<asrwt>0</asrwt>
<pdfrwt beam="1">  1        5 0.88387105E-02 0.13130514E+03</pdfrwt>
<pdfrwt beam="2">  1       -5 0.46243809E-01 0.13130514E+03</pdfrwt>
<totfact> 0.31813492E+02</totfact>
</mgrwt>
</event>
<event>
 8    1  0.3754098E-007  0.1496954E+03  0.7546771E-02  0.1200850E+00
         -5   -1    0    0    0  501 -0.00000000000E+00  0.00000000000E+00  0.65219931116E+03  0.65221624595E+03  0.47000000000E+01 0. -1.
          5   -1    0    0  501    0  0.00000000000E+00 -0.00000000000E+00 -0.43988681099E+02  0.44239055877E+02  0.47000000000E+01 0. -1.
         25    2    1    2    0    0 -0.63816934225E+02 -0.52064715978E+02  0.46799537052E+03  0.49135362324E+03  0.12500152197E+03 0.  0.
         25    2    1    2    0    0  0.63816934225E+02  0.52064715978E+02  0.14021525954E+03  0.20510167858E+03  0.12499217499E+03 0.  0.
          5    1    4    4  502    0  0.93359870617E+01 -0.30553303972E+02  0.86653080510E+02  0.92474382398E+02  0.47000000000E+01 0. -1.
         -5    1    4    4    0  502  0.54480947164E+02  0.82618019950E+02  0.53562179026E+02  0.11262729619E+03  0.47000000000E+01 0. -1.
          5    1    3    3  503    0  0.35149021727E+02 -0.18529905304E+01  0.16134209602E+03  0.16520365991E+03  0.47000000000E+01 0. -1.
         -5    1    3    3    0  503 -0.98965955952E+02 -0.50211725448E+02  0.30665327451E+03  0.32614996332E+03  0.47000000000E+01 0. -1.
<mgrwt>
<rscale>  0 0.14969346E+03</rscale>
<asrwt>0</asrwt>
<pdfrwt beam="2">  1        5 0.67880519E-02 0.14969541E+03</pdfrwt>
<pdfrwt beam="1">  1       -5 0.10035891E+00 0.14969541E+03</pdfrwt>
<totfact> 0.91388624E+01</totfact>
</mgrwt>
</event>
<event>
 8    1  0.3754098E-007  0.1280538E+03  0.7546771E-02  0.1230378E+00
         -5   -1    0    0    0  501 -0.00000000000E+00  0.00000000000E+00  0.68415601043E+03  0.68417215421E+03  0.47000000000E+01 0.  1.
          5   -1    0    0  501    0  0.00000000000E+00 -0.00000000000E+00 -0.23911943216E+02  0.24369469185E+02  0.47000000000E+01 0.  1.
         25    2    1    2    0    0 -0.37570851774E+01 -0.27546347028E+02  0.36169577918E+03  0.38368955505E+03  0.12498368316E+03 0.  0.
         25    2    1    2    0    0  0.37570851774E+01  0.27546347028E+02  0.29854828803E+03  0.32485206835E+03  0.12499947640E+03 0.  0.
          5    1    3    3  502    0 -0.19252762273E+02 -0.23431839080E+02  0.11007163909E+02  0.32603183820E+02  0.47000000000E+01 0. -1.
         -5    1    3    3    0  502  0.15495677096E+02 -0.41145079475E+01  0.35068861527E+03  0.35108637123E+03  0.47000000000E+01 0. -1.
          5    1    4    4  503    0  0.14651941098E+02 -0.19557698038E+02  0.26417598186E+03  0.26534547730E+03  0.47000000000E+01 0.  1.
         -5    1    4    4    0  503 -0.10894855920E+02  0.47104045066E+02  0.34372306172E+02  0.59506591052E+02  0.47000000000E+01 0.  1.
<mgrwt>
<rscale>  0 0.12804999E+03</rscale>
<asrwt>0</asrwt>
<pdfrwt beam="2">  1        5 0.37151973E-02 0.12805384E+03</pdfrwt>
<pdfrwt beam="1">  1       -5 0.10529119E+00 0.12805384E+03</pdfrwt>
<totfact> 0.21027655E+02</totfact>
</mgrwt>
</event>
<event>
 8    1  0.3754098E-007  0.1817780E+03  0.7546771E-02  0.1166094E+00
         -5   -1    0    0    0  501 -0.00000000000E+00  0.00000000000E+00  0.90674477633E+03  0.90675695719E+03  0.47000000000E+01 0.  1.
          5   -1    0    0  501    0  0.00000000000E+00 -0.00000000000E+00 -0.37104717950E+02  0.37401204448E+02  0.47000000000E+01 0.  1.
         25    2    1    2    0    0 -0.43175522799E+02 -0.12471591377E+03  0.36460580895E+03  0.40740604258E+03  0.12499641074E+03 0.  0.
         25    2    1    2    0    0  0.43175522799E+02  0.12471591377E+03  0.50503424944E+03  0.53675211905E+03  0.12500023714E+03 0.  0.
          5    1    4    4  502    0  0.53572428007E+00  0.40558639865E+01 -0.67518920112E+01  0.91877678961E+01  0.47000000000E+01 0. -1.
         -5    1    4    4    0  502  0.42639798519E+02  0.12066004979E+03  0.51178614145E+03  0.52756435116E+03  0.47000000000E+01 0. -1.
          5    1    3    3  503    0 -0.55248073070E+02 -0.13520884051E+03  0.23500069558E+03  0.27673307907E+03  0.47000000000E+01 0. -1.
         -5    1    3    3    0  503  0.12072550271E+02  0.10492926737E+02  0.12960511337E+03  0.13067296351E+03  0.47000000000E+01 0. -1.
<mgrwt>
<rscale>  0 0.18177735E+03</rscale>
<asrwt>0</asrwt>
<pdfrwt beam="2">  1        5 0.57321623E-02 0.18177801E+03</pdfrwt>
<pdfrwt beam="1">  1       -5 0.13952293E+00 0.18177801E+03</pdfrwt>
<totfact> 0.55458476E+01</totfact>
</mgrwt>
</event>
<event>
 8    1  0.3754098E-007  0.1304963E+03  0.7546771E-02  0.1226724E+00
         -5   -1    0    0    0  501 -0.00000000000E+00  0.00000000000E+00  0.18966910099E+02  0.19540564954E+02  0.47000000000E+01 0.  1.
          5   -1    0    0  501    0  0.00000000000E+00 -0.00000000000E+00 -0.12031117582E+04  0.12031209385E+04  0.47000000000E+01 0.  1.
         25    2    1    2    0    0  0.27562575829E+02 -0.25289282971E+02 -0.27720487663E+03  0.30638130866E+03  0.12501087652E+03 0.  0.
         25    2    1    2    0    0 -0.27562575829E+02  0.25289282971E+02 -0.90693997148E+03  0.91628019483E+03  0.12502015898E+03 0.  0.
          5    1    4    4  502    0  0.36381299321E+02  0.40537535761E+02 -0.59196216604E+03  0.59448144358E+03  0.47000000000E+01 0. -1.
         -5    1    4    4    0  502 -0.63943875151E+02 -0.15248252790E+02 -0.31497780545E+03  0.32179875125E+03  0.47000000000E+01 0. -1.
          5    1    3    3  503    0 -0.25171599355E+02 -0.38362946738E+02 -0.22899297063E+03  0.23359194270E+03  0.47000000000E+01 0. -1.
         -5    1    3    3    0  503  0.52734175184E+02  0.13073663766E+02 -0.48211906003E+02  0.72789365961E+02  0.47000000000E+01 0. -1.
<mgrwt>
<rscale>  0 0.13049407E+03</rscale>
<asrwt>0</asrwt>
<pdfrwt beam="2">  1        5 0.18513889E+00 0.13049630E+03</pdfrwt>
<pdfrwt beam="1">  1       -5 0.29628206E-02 0.13049630E+03</pdfrwt>
<totfact> 0.67380622E+01</totfact>
</mgrwt>
</event>
<event>
 8    1  0.3754098E-007  0.1277648E+03  0.7546771E-02  0.1230816E+00
         -5   -1    0    0    0  501 -0.00000000000E+00  0.00000000000E+00  0.94768320221E+03  0.94769485687E+03  0.47000000000E+01 0. -1.
          5   -1    0    0  501    0  0.00000000000E+00 -0.00000000000E+00 -0.27817844345E+02  0.28212097831E+02  0.47000000000E+01 0. -1.
         25    2    1    2    0    0  0.11200183541E+02 -0.23937429665E+02  0.76290545938E+03  0.77352995283E+03  0.12500161327E+03 0.  0.
         25    2    1    2    0    0 -0.11200183541E+02  0.23937429665E+02  0.15695989848E+03  0.20237700188E+03  0.12498638529E+03 0.  0.
          5    1    4    4  502    0  0.17503702470E+02  0.66935912685E+02  0.12019382610E+03  0.13876397890E+03  0.47000000000E+01 0.  1.
         -5    1    4    4    0  502 -0.28703886011E+02 -0.42998483020E+02  0.36766072385E+02  0.63613022981E+02  0.47000000000E+01 0.  1.
          5    1    3    3  503    0  0.17911668573E+02  0.50019894476E+02  0.31226605163E+03  0.31678856469E+03  0.47000000000E+01 0. -1.
         -5    1    3    3    0  503 -0.67114850316E+01 -0.73957324141E+02  0.45063940775E+03  0.45674138814E+03  0.47000000000E+01 0. -1.
<mgrwt>
<rscale>  0 0.12776109E+03</rscale>
<asrwt>0</asrwt>
<pdfrwt beam="2">  1        5 0.43108927E-02 0.12776482E+03</pdfrwt>
<pdfrwt beam="1">  1       -5 0.14582862E+00 0.12776482E+03</pdfrwt>
<totfact> 0.71374278E+01</totfact>
</mgrwt>
</event>
<event>
 8    1  0.3754098E-007  0.1412265E+03  0.7546771E-02  0.1211693E+00
          5   -1    0    0  501    0  0.00000000000E+00  0.00000000000E+00  0.10445873852E+03  0.10456442059E+03  0.47000000000E+01 0. -1.
         -5   -1    0    0    0  501 -0.00000000000E+00 -0.00000000000E+00 -0.20979090393E+03  0.20984354498E+03  0.47000000000E+01 0. -1.
         25    2    1    2    0    0  0.15724636613E+02 -0.63805007240E+02 -0.10009048719E+03  0.17309831078E+03  0.12500630554E+03 0.  0.
         25    2    1    2    0    0 -0.15724636613E+02  0.63805007240E+02 -0.52416782206E+01  0.14130965480E+03  0.12499040044E+03 0.  0.
          5    1    4    4  502    0 -0.29568053873E+02  0.95406111261E+02  0.14880303965E+02  0.10109455634E+03  0.47000000000E+01 0.  1.
         -5    1    4    4    0  502  0.13843417260E+02 -0.31601104021E+02 -0.20121982186E+02  0.40215098456E+02  0.47000000000E+01 0.  1.
          5    1    3    3  503    0 -0.43917285133E+02  0.27536917500E+00 -0.61320608321E+01  0.44592554666E+02  0.47000000000E+01 0. -1.
         -5    1    3    3    0  503  0.59641921746E+02 -0.64080376415E+02 -0.93958426355E+02  0.12850575611E+03  0.47000000000E+01 0. -1.
<mgrwt>
<rscale>  0 0.14122296E+03</rscale>
<asrwt>0</asrwt>
<pdfrwt beam="1">  1        5 0.16082754E-01 0.14122648E+03</pdfrwt>
<pdfrwt beam="2">  1       -5 0.32287702E-01 0.14122648E+03</pdfrwt>
<totfact> 0.23449849E+02</totfact>
</mgrwt>
</event>
<event>
 8    1  0.3754098E-007  0.1784665E+03  0.7546771E-02  0.1169299E+00
         -5   -1    0    0    0  501 -0.00000000000E+00  0.00000000000E+00  0.28794098458E+03  0.28797934058E+03  0.47000000000E+01 0. -1.
          5   -1    0    0  501    0  0.00000000000E+00 -0.00000000000E+00 -0.11452765327E+03  0.11462405229E+03  0.47000000000E+01 0. -1.
         25    2    1    2    0    0  0.12490994203E+03 -0.24855001173E+02  0.12438981951E+03  0.21753880147E+03  0.12502015135E+03 0.  0.
         25    2    1    2    0    0 -0.12490994203E+03  0.24855001173E+02  0.49023511800E+02  0.18506459140E+03  0.12500133431E+03 0.  0.
          5    1    4    4  502    0 -0.12070098752E+03  0.15731035302E+02 -0.12589147516E+02  0.12246130203E+03  0.47000000000E+01 0.  1.
         -5    1    4    4    0  502 -0.42089545050E+01  0.91239658703E+01  0.61612659316E+02  0.62603289364E+02  0.47000000000E+01 0.  1.
          5    1    3    3  503    0 -0.21526086504E+02  0.11757360335E+02  0.60968411072E+01  0.25707380141E+02  0.47000000000E+01 0.  1.
         -5    1    3    3    0  503  0.14643602853E+03 -0.36612361508E+02  0.11829297841E+03  0.19183142133E+03  0.47000000000E+01 0.  1.
<mgrwt>
<rscale>  0 0.17846324E+03</rscale>
<asrwt>0</asrwt>
<pdfrwt beam="2">  1        5 0.17630005E-01 0.17846653E+03</pdfrwt>
<pdfrwt beam="1">  1       -5 0.44308979E-01 0.17846653E+03</pdfrwt>
<totfact> 0.11202507E+02</totfact>
</mgrwt>
</event>
<event>
 8    1  0.3754098E-007  0.1307503E+03  0.7546771E-02  0.1226348E+00
         -5   -1    0    0    0  501 -0.00000000000E+00  0.00000000000E+00  0.11685420376E+03  0.11694868505E+03  0.47000000000E+01 0. -1.
          5   -1    0    0  501    0  0.00000000000E+00 -0.00000000000E+00 -0.15674679739E+03  0.15681724552E+03  0.47000000000E+01 0. -1.
         25    2    1    2    0    0  0.10041824132E+02  0.37005920597E+02  0.15704178097E+02  0.13168623816E+03  0.12499747086E+03 0.  0.
         25    2    1    2    0    0 -0.10041824132E+02 -0.37005920597E+02 -0.55596771732E+02  0.14207969241E+03  0.12500144630E+03 0.  0.
          5    1    4    4  502    0 -0.45780504941E+02 -0.67987312018E+02 -0.26134475818E+02  0.86158168820E+02  0.47000000000E+01 0. -1.
         -5    1    4    4    0  502  0.35738680809E+02  0.30981391421E+02 -0.29462295915E+02  0.55921523592E+02  0.47000000000E+01 0. -1.
          5    1    3    3  503    0  0.65033232133E+02  0.98155145935E+01 -0.65432781638E+01  0.66261377118E+02  0.47000000000E+01 0.  1.
         -5    1    3    3    0  503 -0.54991408001E+02  0.27190406004E+02  0.22247456261E+02  0.65424861045E+02  0.47000000000E+01 0.  1.
<mgrwt>
<rscale>  0 0.13074934E+03</rscale>
<asrwt>0</asrwt>
<pdfrwt beam="2">  1        5 0.24127579E-01 0.13075029E+03</pdfrwt>
<pdfrwt beam="1">  1       -5 0.17990257E-01 0.13075029E+03</pdfrwt>
<totfact> 0.32753379E+02</totfact>
</mgrwt>
</event>
<event>
 8    1  0.3754098E-007  0.1344424E+03  0.7546771E-02  0.1221014E+00
         -5   -1    0    0    0  501 -0.00000000000E+00  0.00000000000E+00  0.95624573150E+03  0.95625728181E+03  0.47000000000E+01 0. -1.
          5   -1    0    0  501    0  0.00000000000E+00 -0.00000000000E+00 -0.21959277055E+02  0.22456621491E+02  0.47000000000E+01 0. -1.
         25    2    1    2    0    0 -0.41692377343E+02  0.26611705570E+02  0.65631240103E+03  0.66994083194E+03  0.12501325270E+03 0.  0.
         25    2    1    2    0    0  0.41692377343E+02 -0.26611705570E+02  0.27797405341E+03  0.30877307136E+03  0.12499919209E+03 0.  0.
          5    1    3    3  502    0 -0.86312291933E+02  0.12236602264E+02  0.43263861039E+03  0.44135904134E+03  0.47000000000E+01 0. -1.
         -5    1    3    3    0  502  0.44619914589E+02  0.14375103306E+02  0.22367379064E+03  0.22858179060E+03  0.47000000000E+01 0. -1.
          5    1    4    4  503    0  0.77925548357E+02 -0.35248069178E+02  0.12689334707E+03  0.15309744935E+03  0.47000000000E+01 0. -1.
         -5    1    4    4    0  503 -0.36233171014E+02  0.86363636080E+01  0.15108070634E+03  0.15567562201E+03  0.47000000000E+01 0. -1.
<mgrwt>
<rscale>  0 0.13443910E+03</rscale>
<asrwt>0</asrwt>
<pdfrwt beam="2">  1        5 0.34174962E-02 0.13444237E+03</pdfrwt>
<pdfrwt beam="1">  1       -5 0.14715387E+00 0.13444237E+03</pdfrwt>
<totfact> 0.10348472E+02</totfact>
</mgrwt>
</event>
<event>
 8    1  0.3754098E-007  0.1276536E+03  0.7546771E-02  0.1230981E+00
         -5   -1    0    0    0  501 -0.00000000000E+00  0.00000000000E+00  0.31927461941E+02  0.32271548243E+02  0.47000000000E+01 0. -1.
          5   -1    0    0  501    0  0.00000000000E+00 -0.00000000000E+00 -0.54979331120E+03  0.54981340020E+03  0.47000000000E+01 0. -1.
         25    2    1    2    0    0 -0.24811499645E+02  0.73832556294E+01 -0.17803604875E+03  0.21907139875E+03  0.12500128046E+03 0.  0.
         25    2    1    2    0    0  0.24811499645E+02 -0.73832556294E+01 -0.33982980050E+03  0.36301354969E+03  0.12499768387E+03 0.  0.
          5    1    4    4  502    0  0.48452750515E+02  0.44145946827E+02 -0.13079533450E+03  0.14637637508E+03  0.47000000000E+01 0.  1.
         -5    1    4    4    0  502 -0.23641250869E+02 -0.51529202457E+02 -0.20903446600E+03  0.21663717461E+03  0.47000000000E+01 0.  1.
          5    1    3    3  503    0  0.25234557400E+02 -0.31074454418E+02 -0.13896591866E+03  0.14469285108E+03  0.47000000000E+01 0.  1.
         -5    1    3    3    0  503 -0.50046057045E+02  0.38457710047E+02 -0.39070130094E+02  0.74378547669E+02  0.47000000000E+01 0.  1.
<mgrwt>
<rscale>  0 0.12765273E+03</rscale>
<asrwt>0</asrwt>
<pdfrwt beam="2">  1        5 0.84611593E-01 0.12765361E+03</pdfrwt>
<pdfrwt beam="1">  1       -5 0.49399311E-02 0.12765361E+03</pdfrwt>
<totfact> 0.22205835E+02</totfact>
</mgrwt>
</event>
<event>
 8    1  0.3754098E-007  0.1625699E+03  0.7546771E-02  0.1185835E+00
          5   -1    0    0  501    0  0.00000000000E+00  0.00000000000E+00  0.48610361253E+03  0.48612633349E+03  0.47000000000E+01 0.  1.
         -5   -1    0    0    0  501 -0.00000000000E+00 -0.00000000000E+00 -0.54246979539E+02  0.54450204674E+02  0.47000000000E+01 0.  1.
         25    2    1    2    0    0  0.10285066803E+03 -0.14612536264E+02  0.21141450897E+03  0.26669282545E+03  0.12504872016E+03 0.  0.
         25    2    1    2    0    0 -0.10285066803E+03  0.14612536264E+02  0.22044212402E+03  0.27388371272E+03  0.12500308764E+03 0.  0.
          5    1    3    3  502    0  0.10552175184E+03 -0.56762681260E+02  0.16123360767E+03  0.20093583139E+03  0.47000000000E+01 0.  1.
         -5    1    3    3    0  502 -0.26710838149E+01  0.42150144996E+02  0.50180901302E+02  0.65756994057E+02  0.47000000000E+01 0.  1.
          5    1    4    4  503    0 -0.10812402946E+03  0.29979394757E+02  0.94386490872E+02  0.14669856685E+03  0.47000000000E+01 0.  1.
         -5    1    4    4    0  503  0.52733614315E+01 -0.15366858493E+02  0.12605563315E+03  0.12718514587E+03  0.47000000000E+01 0.  1.
<mgrwt>
<rscale>  0 0.16256111E+03</rscale>
<asrwt>0</asrwt>
<pdfrwt beam="1">  1        5 0.74802552E-01 0.16256989E+03</pdfrwt>
<pdfrwt beam="2">  1       -5 0.83630696E-02 0.16256989E+03</pdfrwt>
<totfact> 0.13128801E+02</totfact>
</mgrwt>
</event>
<event>
 8    1  0.3754098E-007  0.1301184E+03  0.7546771E-02  0.1227294E+00
          5   -1    0    0  501    0  0.00000000000E+00  0.00000000000E+00  0.49528781249E+02  0.49751283119E+02  0.47000000000E+01 0.  1.
         -5   -1    0    0    0  501 -0.00000000000E+00 -0.00000000000E+00 -0.35859389297E+03  0.35862469250E+03  0.47000000000E+01 0.  1.
         25    2    1    2    0    0  0.34150684651E+02  0.11823468986E+02 -0.20010274235E+03  0.23868790895E+03  0.12499898681E+03 0.  0.
         25    2    1    2    0    0 -0.34150684651E+02 -0.11823468986E+02 -0.10896236937E+03  0.16968806667E+03  0.12496070723E+03 0.  0.
          5    1    3    3  502    0  0.19925937599E+02 -0.21885051286E+01  0.13163349392E+02  0.24437600355E+02  0.47000000000E+01 0. -1.
         -5    1    3    3    0  502  0.14224747052E+02  0.14011974114E+02 -0.21326609174E+03  0.21425030859E+03  0.47000000000E+01 0. -1.
          5    1    4    4  503    0 -0.26170903445E+02  0.11919847096E+02 -0.13209430008E+03  0.13527007450E+03  0.47000000000E+01 0.  1.
         -5    1    4    4    0  503 -0.79797812061E+01 -0.23743316082E+02  0.23131930710E+02  0.34417992170E+02  0.47000000000E+01 0.  1.
<mgrwt>
<rscale>  0 0.13010925E+03</rscale>
<asrwt>0</asrwt>
<pdfrwt beam="1">  1        5 0.76392974E-02 0.13011845E+03</pdfrwt>
<pdfrwt beam="2">  1       -5 0.55187774E-01 0.13011845E+03</pdfrwt>
<totfact> 0.27989927E+02</totfact>
</mgrwt>
</event>
<event>
 8    1  0.3754098E-007  0.1256571E+03  0.7546771E-02  0.1234057E+00
         -5   -1    0    0    0  501 -0.00000000000E+00  0.00000000000E+00  0.26302609599E+02  0.26719230373E+02  0.47000000000E+01 0. -1.
          5   -1    0    0  501    0  0.00000000000E+00 -0.00000000000E+00 -0.63393985641E+03  0.63395727896E+03  0.47000000000E+01 0. -1.
         25    2    1    2    0    0  0.10488436364E+02 -0.69724557746E+01 -0.22197547783E+03  0.25506005715E+03  0.12499559015E+03 0.  0.
         25    2    1    2    0    0 -0.10488436364E+02  0.69724557746E+01 -0.38566176899E+03  0.40561645219E+03  0.12502433280E+03 0.  0.
          5    1    4    4  502    0 -0.33068485426E+02 -0.91080930223E+01 -0.37330097326E+03  0.37490290573E+03  0.47000000000E+01 0.  1.
         -5    1    4    4    0  502  0.22580049061E+02  0.16080548797E+02 -0.12360795724E+02  0.30713546460E+02  0.47000000000E+01 0.  1.
          5    1    3    3  503    0  0.18461084960E+02 -0.58844518982E+02 -0.66124750137E+02  0.90543148017E+02  0.47000000000E+01 0.  1.
         -5    1    3    3    0  503 -0.79726485953E+01  0.51872063208E+02 -0.15585072769E+03  0.16451690913E+03  0.47000000000E+01 0.  1.
<mgrwt>
<rscale>  0 0.12564995E+03</rscale>
<asrwt>0</asrwt>
<pdfrwt beam="2">  1        5 0.97562586E-01 0.12565710E+03</pdfrwt>
<pdfrwt beam="1">  1       -5 0.40799437E-02 0.12565710E+03</pdfrwt>
<totfact> 0.21586546E+02</totfact>
</mgrwt>
</event>
<event>
 8    1  0.3754098E-007  0.1365389E+03  0.7546771E-02  0.1218093E+00
         -5   -1    0    0    0  501 -0.00000000000E+00  0.00000000000E+00  0.45094792458E+03  0.45097241677E+03  0.47000000000E+01 0. -1.
          5   -1    0    0  501    0  0.00000000000E+00 -0.00000000000E+00 -0.41170515714E+02  0.41437921812E+02  0.47000000000E+01 0. -1.
         25    2    1    2    0    0  0.36881689811E+02 -0.40717111179E+02  0.20041757012E+03  0.24250789267E+03  0.12499893364E+03 0.  0.
         25    2    1    2    0    0 -0.36881689811E+02  0.40717111179E+02  0.20935983875E+03  0.24990244590E+03  0.12490615758E+03 0.  0.
          5    1    3    3  502    0  0.43304545567E+02  0.31453653611E+02  0.13293638304E+03  0.14338336001E+03  0.47000000000E+01 0.  1.
         -5    1    3    3    0  502 -0.64228557562E+01 -0.72170764790E+02  0.67481187084E+02  0.99124532669E+02  0.47000000000E+01 0.  1.
          5    1    4    4  503    0 -0.62092906138E+02 -0.57946289055E+01  0.17696186515E+03  0.18768776848E+03  0.47000000000E+01 0. -1.
         -5    1    4    4    0  503  0.25211216327E+02  0.46511740085E+02  0.32397973595E+02  0.62214677428E+02  0.47000000000E+01 0. -1.
<mgrwt>
<rscale>  0 0.13651768E+03</rscale>
<asrwt>0</asrwt>
<pdfrwt beam="2">  1        5 0.63563795E-02 0.13653892E+03</pdfrwt>
<pdfrwt beam="1">  1       -5 0.69399055E-01 0.13653892E+03</pdfrwt>
<totfact> 0.23486846E+02</totfact>
</mgrwt>
</event>
<event>
 8    1  0.3754098E-007  0.1257933E+03  0.7546771E-02  0.1233836E+00
          5   -1    0    0  501    0  0.00000000000E+00  0.00000000000E+00  0.45629767083E+02  0.45871185335E+02  0.47000000000E+01 0.  1.
         -5   -1    0    0    0  501 -0.00000000000E+00 -0.00000000000E+00 -0.53021586816E+03  0.53023669889E+03  0.47000000000E+01 0.  1.
         25    2    1    2    0    0  0.11448518744E+02 -0.82065709395E+01 -0.41221864938E+03  0.43098381780E+03  0.12499767964E+03 0.  0.
         25    2    1    2    0    0 -0.11448518744E+02  0.82065709395E+01 -0.72367451693E+02  0.14512406643E+03  0.12500212080E+03 0.  0.
          5    1    4    4  502    0  0.25008764787E+01 -0.13984726107E+02 -0.10325982465E+03  0.10433843172E+03  0.47000000000E+01 0. -1.
         -5    1    4    4    0  502 -0.13949395223E+02  0.22191297046E+02  0.30892372954E+02  0.40785634707E+02  0.47000000000E+01 0. -1.
          5    1    3    3  503    0  0.28849079911E+02  0.17040038728E+02 -0.23889722650E+02  0.41417884782E+02  0.47000000000E+01 0.  1.
         -5    1    3    3    0  503 -0.17400561167E+02 -0.25246609667E+02 -0.38832892673E+03  0.38956593302E+03  0.47000000000E+01 0.  1.
<mgrwt>
<rscale>  0 0.12579217E+03</rscale>
<asrwt>0</asrwt>
<pdfrwt beam="1">  1        5 0.70401375E-02 0.12579327E+03</pdfrwt>
<pdfrwt beam="2">  1       -5 0.81591841E-01 0.12579327E+03</pdfrwt>
<totfact> 0.13275042E+02</totfact>
</mgrwt>
</event>
<event>
 8    1  0.3754098E-007  0.1607107E+03  0.7546771E-02  0.1187899E+00
          5   -1    0    0  501    0  0.00000000000E+00  0.00000000000E+00  0.16907903633E+03  0.16914434819E+03  0.47000000000E+01 0. -1.
         -5   -1    0    0    0  501 -0.00000000000E+00 -0.00000000000E+00 -0.18797090487E+03  0.18802965478E+03  0.47000000000E+01 0. -1.
         25    2    1    2    0    0  0.79588694152E+02  0.62183717055E+02 -0.86867273581E+02  0.18268510126E+03  0.12500699220E+03 0.  0.
         25    2    1    2    0    0 -0.79588694152E+02 -0.62183717055E+02  0.67975405041E+02  0.17448890172E+03  0.12499818490E+03 0.  0.
          5    1    3    3  502    0  0.69483235834E+02  0.51938946307E+02 -0.11889858996E+03  0.14725671088E+03  0.47000000000E+01 0.  1.
         -5    1    3    3    0  502  0.10105458318E+02  0.10244770748E+02  0.32031316379E+02  0.35428390374E+02  0.47000000000E+01 0.  1.
          5    1    4    4  503    0 -0.11209516856E+03 -0.59498680539E+02  0.46930389436E+02  0.13538822421E+03  0.47000000000E+01 0.  1.
         -5    1    4    4    0  503  0.32506474412E+02 -0.26850365162E+01  0.21045015606E+02  0.39100677509E+02  0.47000000000E+01 0.  1.
<mgrwt>
<rscale>  0 0.16070897E+03</rscale>
<asrwt>0</asrwt>
<pdfrwt beam="1">  1        5 0.26021703E-01 0.16071068E+03</pdfrwt>
<pdfrwt beam="2">  1       -5 0.28928144E-01 0.16071068E+03</pdfrwt>
<totfact> 0.12319978E+02</totfact>
</mgrwt>
</event>
<event>
 8    1  0.3754098E-007  0.1392475E+03  0.7546771E-02  0.1214365E+00
          5   -1    0    0  501    0  0.00000000000E+00  0.00000000000E+00  0.14384754518E+03  0.14392430738E+03  0.47000000000E+01 0.  1.
         -5   -1    0    0    0  501 -0.00000000000E+00 -0.00000000000E+00 -0.14369818552E+03  0.14377502746E+03  0.47000000000E+01 0.  1.
         25    2    1    2    0    0 -0.40157838561E+02  0.46210628060E+02 -0.36134799780E+02  0.14385964772E+03  0.12506718332E+03 0.  0.
         25    2    1    2    0    0  0.40157838561E+02 -0.46210628060E+02  0.36284159435E+02  0.14383968712E+03  0.12500096488E+03 0.  0.
          5    1    3    3  502    0  0.11171614353E+01  0.83236192574E+02 -0.17662054871E+02  0.85226462945E+02  0.47000000000E+01 0. -1.
         -5    1    3    3    0  502 -0.41274999996E+02 -0.37025564514E+02 -0.18472744909E+02  0.58633184774E+02  0.47000000000E+01 0. -1.
          5    1    4    4  503    0  0.21921115746E+02 -0.40925635090E+02  0.81869773110E+02  0.94234774219E+02  0.47000000000E+01 0. -1.
         -5    1    4    4    0  503  0.18236722815E+02 -0.52849929705E+01 -0.45585613675E+02  0.49604912900E+02  0.47000000000E+01 0. -1.
<mgrwt>
<rscale>  0 0.13923266E+03</rscale>
<asrwt>0</asrwt>
<pdfrwt beam="1">  1        5 0.22142207E-01 0.13924753E+03</pdfrwt>
<pdfrwt beam="2">  1       -5 0.22119229E-01 0.13924753E+03</pdfrwt>
<totfact> 0.26800329E+02</totfact>
</mgrwt>
</event>
<event>
 8    1  0.3754098E-007  0.1310405E+03  0.7546771E-02  0.1225925E+00
         -5   -1    0    0    0  501 -0.00000000000E+00  0.00000000000E+00  0.12921696358E+04  0.12921781834E+04  0.47000000000E+01 0. -1.
          5   -1    0    0  501    0  0.00000000000E+00 -0.00000000000E+00 -0.13209584292E+02  0.14020810146E+02  0.47000000000E+01 0. -1.
         25    2    1    2    0    0  0.28474181222E+02 -0.27066970504E+02  0.74212777247E+03  0.75360815813E+03  0.12501290108E+03 0.  0.
         25    2    1    2    0    0 -0.28474181222E+02  0.27066970504E+02  0.53683227900E+03  0.55259083539E+03  0.12499734275E+03 0.  0.
          5    1    3    3  502    0  0.11378048190E+02 -0.17547216352E+02  0.72957475061E+03  0.72988956117E+03  0.47000000000E+01 0. -1.
         -5    1    3    3    0  502  0.17096133032E+02 -0.95197541518E+01  0.12553021864E+02  0.23718596958E+02  0.47000000000E+01 0. -1.
          5    1    4    4  503    0  0.35509990300E+02  0.48640756919E+02  0.31187213700E+03  0.31766838445E+03  0.47000000000E+01 0.  1.
         -5    1    4    4    0  503 -0.63984171522E+02 -0.21573786415E+02  0.22496014200E+03  0.23492245094E+03  0.47000000000E+01 0.  1.
<mgrwt>
<rscale>  0 0.13103684E+03</rscale>
<asrwt>0</asrwt>
<pdfrwt beam="2">  1        5 0.20953029E-02 0.13104055E+03</pdfrwt>
<pdfrwt beam="1">  1       -5 0.19885842E+00 0.13104055E+03</pdfrwt>
<totfact> 0.94511074E+01</totfact>
</mgrwt>
</event>
<event>
 8    1  0.3754098E-007  0.1489434E+03  0.7546771E-02  0.1201783E+00
         -5   -1    0    0    0  501 -0.00000000000E+00  0.00000000000E+00  0.26641244377E+03  0.26645389882E+03  0.47000000000E+01 0. -1.
          5   -1    0    0  501    0  0.00000000000E+00 -0.00000000000E+00 -0.83847023646E+02  0.83978648324E+02  0.47000000000E+01 0. -1.
         25    2    1    2    0    0 -0.30493137684E+01  0.80907279479E+02  0.10729343900E+03  0.18354936046E+03  0.12499279774E+03 0.  0.
         25    2    1    2    0    0  0.30493137684E+01 -0.80907279479E+02  0.75271981122E+02  0.16688318668E+03  0.12501536172E+03 0.  0.
          5    1    4    4  502    0  0.23611734424E+02 -0.58575192561E+02 -0.20293680390E+02  0.66501809372E+02  0.47000000000E+01 0. -1.
         -5    1    4    4    0  502 -0.20562420655E+02 -0.22332086918E+02  0.95565661512E+02  0.10038137730E+03  0.47000000000E+01 0. -1.
          5    1    3    3  503    0 -0.14159067584E+02  0.10989408902E+03  0.58123265161E+02  0.12521019906E+03  0.47000000000E+01 0.  1.
         -5    1    3    3    0  503  0.11109753815E+02 -0.28986809544E+02  0.49170173840E+02  0.58339161400E+02  0.47000000000E+01 0.  1.
<mgrwt>
<rscale>  0 0.14893863E+03</rscale>
<asrwt>0</asrwt>
<pdfrwt beam="2">  1        5 0.12912856E-01 0.14894337E+03</pdfrwt>
<pdfrwt beam="1">  1       -5 0.40999842E-01 0.14894337E+03</pdfrwt>
<totfact> 0.21905019E+02</totfact>
</mgrwt>
</event>
<event>
 8    1  0.3754098E-007  0.1430544E+03  0.7546771E-02  0.1209280E+00
         -5   -1    0    0    0  501 -0.00000000000E+00  0.00000000000E+00  0.10396672562E+03  0.10407290731E+03  0.47000000000E+01 0. -1.
          5   -1    0    0  501    0  0.00000000000E+00 -0.00000000000E+00 -0.21106703864E+03  0.21111936150E+03  0.47000000000E+01 0. -1.
         25    2    1    2    0    0  0.38861162937E+02 -0.57675737049E+02 -0.12289794220E+02  0.14357178077E+03  0.12500054625E+03 0.  0.
         25    2    1    2    0    0 -0.38861162937E+02  0.57675737049E+02 -0.94810518800E+02  0.17162048803E+03  0.12501150670E+03 0.  0.
          5    1    4    4  502    0  0.24328928178E+02 -0.20072693158E+02  0.23532831177E+01  0.31975579719E+02  0.47000000000E+01 0.  1.
         -5    1    4    4    0  502 -0.63190091115E+02  0.77748430207E+02 -0.97163801918E+02  0.13964490831E+03  0.47000000000E+01 0.  1.
          5    1    3    3  503    0 -0.27220969104E+02  0.11254171793E+02 -0.34310683442E+02  0.45463727739E+02  0.47000000000E+01 0.  1.
         -5    1    3    3    0  503  0.66082132041E+02 -0.68929908841E+02  0.22020889222E+02  0.98108053034E+02  0.47000000000E+01 0.  1.
<mgrwt>
<rscale>  0 0.14305199E+03</rscale>
<asrwt>0</asrwt>
<pdfrwt beam="2">  1        5 0.32484045E-01 0.14305439E+03</pdfrwt>
<pdfrwt beam="1">  1       -5 0.16007074E-01 0.14305439E+03</pdfrwt>
<totfact> 0.23470744E+02</totfact>
</mgrwt>
</event>
<event>
 8    1  0.3754098E-007  0.1266691E+03  0.7546771E-02  0.1232521E+00
          5   -1    0    0  501    0  0.00000000000E+00  0.00000000000E+00  0.37809595274E+03  0.37812516378E+03  0.47000000000E+01 0. -1.
         -5   -1    0    0    0  501 -0.00000000000E+00 -0.00000000000E+00 -0.42247569554E+02  0.42508200776E+02  0.47000000000E+01 0. -1.
         25    2    1    2    0    0 -0.19203636216E+02 -0.52859159703E+01  0.17026886610E+03  0.21221814096E+03  0.12509329334E+03 0.  0.
         25    2    1    2    0    0  0.19203636216E+02  0.52859159703E+01  0.16557951709E+03  0.20841522359E+03  0.12499443345E+03 0.  0.
          5    1    4    4  502    0 -0.14187116769E+01  0.29661292892E+02 -0.86003524491E+01  0.31270770715E+02  0.47000000000E+01 0. -1.
         -5    1    4    4    0  502  0.20622347893E+02 -0.24375376922E+02  0.17417986954E+03  0.17714445288E+03  0.47000000000E+01 0. -1.
          5    1    3    3  503    0  0.47776827851E+02 -0.67978510789E+01  0.30858710250E+02  0.57473350843E+02  0.47000000000E+01 0.  1.
         -5    1    3    3    0  503 -0.66980464067E+02  0.15119351086E+01  0.13941015585E+03  0.15474479012E+03  0.47000000000E+01 0.  1.
<mgrwt>
<rscale>  0 0.12664465E+03</rscale>
<asrwt>0</asrwt>
<pdfrwt beam="1">  1        5 0.58190905E-01 0.12666907E+03</pdfrwt>
<pdfrwt beam="2">  1       -5 0.65219215E-02 0.12666907E+03</pdfrwt>
<totfact> 0.32325804E+02</totfact>
</mgrwt>
</event>
<event>
 8    1  0.3754098E-007  0.1368422E+03  0.7546771E-02  0.1217644E+00
         -5   -1    0    0    0  501 -0.00000000000E+00  0.00000000000E+00  0.78625630816E+02  0.78765981370E+02  0.47000000000E+01 0. -1.
          5   -1    0    0  501    0  0.00000000000E+00 -0.00000000000E+00 -0.24746102849E+03  0.24750565775E+03  0.47000000000E+01 0. -1.
         25    2    1    2    0    0 -0.54664251030E+02 -0.10602087418E+02 -0.52158705779E+02  0.14644053846E+03  0.12499486437E+03 0.  0.
         25    2    1    2    0    0  0.54664251030E+02  0.10602087418E+02 -0.11667669189E+03  0.17983110066E+03  0.12500075894E+03 0.  0.
          5    1    4    4  502    0  0.45604096806E+02  0.26220551486E+02  0.83060705618E+01  0.53463368523E+02  0.47000000000E+01 0. -1.
         -5    1    4    4    0  502  0.90601542241E+01 -0.15618464068E+02 -0.12498276245E+03  0.12636773214E+03  0.47000000000E+01 0. -1.
          5    1    3    3  503    0 -0.74776919425E+02  0.11556851362E+02 -0.76409616876E+02  0.10763674114E+03  0.47000000000E+01 0. -1.
         -5    1    3    3    0  503  0.20112668395E+02 -0.22158938781E+02  0.24250911097E+02  0.38803797325E+02  0.47000000000E+01 0. -1.
<mgrwt>
<rscale>  0 0.13684081E+03</rscale>
<asrwt>0</asrwt>
<pdfrwt beam="2">  1        5 0.38085156E-01 0.13684215E+03</pdfrwt>
<pdfrwt beam="1">  1       -5 0.12110480E-01 0.13684215E+03</pdfrwt>
<totfact> 0.27745063E+02</totfact>
</mgrwt>
</event>
<event>
 8    1  0.3754098E-007  0.1413839E+03  0.7546771E-02  0.1211480E+00
          5   -1    0    0  501    0  0.00000000000E+00  0.00000000000E+00  0.15906312420E+03  0.15913254690E+03  0.47000000000E+01 0.  1.
         -5   -1    0    0    0  501 -0.00000000000E+00 -0.00000000000E+00 -0.12851283496E+03  0.12859875096E+03  0.47000000000E+01 0.  1.
         25    2    1    2    0    0 -0.37373824217E+02  0.54475427559E+02 -0.66399408066E+01  0.14153969405E+03  0.12500008493E+03 0.  0.
         25    2    1    2    0    0  0.37373824217E+02 -0.54475427559E+02  0.37190230052E+02  0.14619160381E+03  0.12499798746E+03 0.  0.
          5    1    4    4  502    0  0.44214089703E+02 -0.16560411502E+02 -0.38518467066E+02  0.61113789463E+02  0.47000000000E+01 0. -1.
         -5    1    4    4    0  502 -0.68402654859E+01 -0.37915016056E+02  0.75708697118E+02  0.85077814346E+02  0.47000000000E+01 0. -1.
          5    1    3    3  503    0 -0.38533746505E+02  0.56908068865E+01 -0.58331075746E+02  0.70298216908E+02  0.47000000000E+01 0.  1.
         -5    1    3    3    0  503  0.11599222877E+01  0.48784620672E+02  0.51691134940E+02  0.71241477141E+02  0.47000000000E+01 0.  1.
<mgrwt>
<rscale>  0 0.14138340E+03</rscale>
<asrwt>0</asrwt>
<pdfrwt beam="1">  1        5 0.24483199E-01 0.14138386E+03</pdfrwt>
<pdfrwt beam="2">  1       -5 0.19783154E-01 0.14138386E+03</pdfrwt>
<totfact> 0.27441854E+02</totfact>
</mgrwt>
</event>
<event>
 8    1  0.3754098E-007  0.1258645E+03  0.7546771E-02  0.1233725E+00
         -5   -1    0    0    0  501 -0.00000000000E+00  0.00000000000E+00  0.78523009922E+02  0.78663543571E+02  0.47000000000E+01 0.  1.
          5   -1    0    0  501    0  0.00000000000E+00 -0.00000000000E+00 -0.22155505280E+03  0.22160489937E+03  0.47000000000E+01 0.  1.
         25    2    1    2    0    0  0.16629258243E+01 -0.14600855628E+02 -0.26247353613E+02  0.12856947861E+03  0.12500094780E+03 0.  0.
         25    2    1    2    0    0 -0.16629258243E+01  0.14600855628E+02 -0.11678468927E+03  0.17169896432E+03  0.12500368152E+03 0.  0.
          5    1    4    4  502    0 -0.42458035524E+02 -0.28788359438E+02 -0.14956483969E+02  0.53639918274E+02  0.47000000000E+01 0.  1.
         -5    1    4    4    0  502  0.40795109700E+02  0.43389215066E+02 -0.10182820530E+03  0.11805904605E+03  0.47000000000E+01 0.  1.
          5    1    3    3  503    0 -0.70468825656E+01 -0.21810154963E+02 -0.74863805342E+02  0.78434818568E+02  0.47000000000E+01 0. -1.
         -5    1    3    3    0  503  0.87098083899E+01  0.72092993351E+01  0.48616451730E+02  0.50134660045E+02  0.47000000000E+01 0. -1.
<mgrwt>
<rscale>  0 0.12586381E+03</rscale>
<asrwt>0</asrwt>
<pdfrwt beam="2">  1        5 0.34100037E-01 0.12586449E+03</pdfrwt>
<pdfrwt beam="1">  1       -5 0.12095108E-01 0.12586449E+03</pdfrwt>
<totfact> 0.33709624E+02</totfact>
</mgrwt>
</event>
<event>
 8    1  0.3754098E-007  0.1448873E+03  0.7546771E-02  0.1206901E+00
         -5   -1    0    0    0  501 -0.00000000000E+00  0.00000000000E+00  0.60823859870E+02  0.61005179530E+02  0.47000000000E+01 0.  1.
          5   -1    0    0  501    0  0.00000000000E+00 -0.00000000000E+00 -0.34443414193E+03  0.34446620752E+03  0.47000000000E+01 0.  1.
         25    2    1    2    0    0  0.12523948738E+02 -0.72180418264E+02 -0.14340836370E+03  0.20385566246E+03  0.12499724104E+03 0.  0.
         25    2    1    2    0    0 -0.12523948738E+02  0.72180418264E+02 -0.14020191836E+03  0.20161572459E+03  0.12500184166E+03 0.  0.
          5    1    3    3  502    0 -0.20784932965E+02  0.20133219959E+02 -0.84165584856E+02  0.89125168490E+02  0.47000000000E+01 0. -1.
         -5    1    3    3    0  502  0.33308881703E+02 -0.92313638223E+02 -0.59242778841E+02  0.11473049397E+03  0.47000000000E+01 0. -1.
          5    1    4    4  503    0  0.23407641862E+02  0.73439067083E+02 -0.14574098249E+03  0.16493555786E+03  0.47000000000E+01 0. -1.
         -5    1    4    4    0  503 -0.35931590599E+02 -0.12586488190E+01  0.55390641255E+01  0.36680166729E+02  0.47000000000E+01 0. -1.
<mgrwt>
<rscale>  0 0.14488628E+03</rscale>
<asrwt>0</asrwt>
<pdfrwt beam="2">  1        5 0.53006281E-01 0.14488728E+03</pdfrwt>
<pdfrwt beam="1">  1       -5 0.93739314E-02 0.14488728E+03</pdfrwt>
<totfact> 0.22259893E+02</totfact>
</mgrwt>
</event>
<event>
 8    1  0.3754098E-007  0.1274525E+03  0.7546771E-02  0.1231288E+00
         -5   -1    0    0    0  501 -0.00000000000E+00  0.00000000000E+00  0.38048891227E+03  0.38051793960E+03  0.47000000000E+01 0. -1.
          5   -1    0    0  501    0  0.00000000000E+00 -0.00000000000E+00 -0.42635159075E+02  0.42893435271E+02  0.47000000000E+01 0. -1.
         25    2    1    2    0    0 -0.24138657082E+02  0.59575690696E+01  0.17937689603E+03  0.22004211154E+03  0.12499717048E+03 0.  0.
         25    2    1    2    0    0  0.24138657082E+02 -0.59575690696E+01  0.15847685716E+03  0.20336926333E+03  0.12500390241E+03 0.  0.
          5    1    4    4  502    0 -0.18761762634E+02 -0.33942735912E+02  0.14503653387E+03  0.15020585613E+03  0.47000000000E+01 0.  1.
         -5    1    4    4    0  502  0.42900419716E+02  0.27985166843E+02  0.13440323291E+02  0.53163407201E+02  0.47000000000E+01 0.  1.
          5    1    3    3  503    0  0.37815128230E+02 -0.32801191313E+02  0.47344816517E+02  0.69061738507E+02  0.47000000000E+01 0.  1.
         -5    1    3    3    0  503 -0.61953785312E+02  0.38758760382E+02  0.13203207951E+03  0.15098037303E+03  0.47000000000E+01 0.  1.
<mgrwt>
<rscale>  0 0.12745086E+03</rscale>
<asrwt>0</asrwt>
<pdfrwt beam="2">  1        5 0.65813555E-02 0.12745251E+03</pdfrwt>
<pdfrwt beam="1">  1       -5 0.58558856E-01 0.12745251E+03</pdfrwt>
<totfact> 0.31472026E+02</totfact>
</mgrwt>
</event>
<event>
 8    1  0.3754098E-007  0.1726611E+03  0.7546771E-02  0.1175103E+00
         -5   -1    0    0    0  501 -0.00000000000E+00  0.00000000000E+00  0.61248902042E+02  0.61428967119E+02  0.47000000000E+01 0. -1.
          5   -1    0    0  501    0  0.00000000000E+00 -0.00000000000E+00 -0.52080938850E+03  0.52083059545E+03  0.47000000000E+01 0. -1.
         25    2    1    2    0    0 -0.11316914340E+03 -0.37116619511E+02 -0.15431609223E+03  0.23156596891E+03  0.12499777267E+03 0.  0.
         25    2    1    2    0    0  0.11316914340E+03  0.37116619511E+02 -0.30524439424E+03  0.35069359366E+03  0.12500783159E+03 0.  0.
          5    1    4    4  502    0  0.34326405972E+02 -0.46090995086E+02 -0.11160652121E+03  0.12562160464E+03  0.47000000000E+01 0. -1.
         -5    1    4    4    0  502  0.78842737430E+02  0.83207614597E+02 -0.19363787302E+03  0.22507198902E+03  0.47000000000E+01 0. -1.
          5    1    3    3  503    0 -0.10422961381E+03 -0.74609340116E+02 -0.90915509133E+02  0.15721986461E+03  0.47000000000E+01 0.  1.
         -5    1    3    3    0  503 -0.89395295961E+01  0.37492720605E+02 -0.63400583093E+02  0.74346104298E+02  0.47000000000E+01 0.  1.
<mgrwt>
<rscale>  0 0.17265928E+03</rscale>
<asrwt>0</asrwt>
<pdfrwt beam="2">  1        5 0.80140001E-01 0.17266110E+03</pdfrwt>
<pdfrwt beam="1">  1       -5 0.94383908E-02 0.17266110E+03</pdfrwt>
<totfact> 0.92408239E+01</totfact>
</mgrwt>
</event>
<event>
 8    1  0.3754098E-007  0.1278061E+03  0.7546771E-02  0.1230749E+00
          5   -1    0    0  501    0  0.00000000000E+00  0.00000000000E+00  0.38698496690E+03  0.38701350701E+03  0.47000000000E+01 0. -1.
         -5   -1    0    0    0  501 -0.00000000000E+00 -0.00000000000E+00 -0.42570716525E+02  0.42829381334E+02  0.47000000000E+01 0. -1.
         25    2    1    2    0    0 -0.14783021079E+01 -0.26586470796E+02  0.14846296428E+03  0.19589701526E+03  0.12500145206E+03 0.  0.
         25    2    1    2    0    0  0.14783021079E+01  0.26586470796E+02  0.19595128609E+03  0.23394587308E+03  0.12499895681E+03 0.  0.
          5    1    4    4  502    0  0.21985086080E+02  0.39746766652E+02  0.20306079165E+03  0.20813198835E+03  0.47000000000E+01 0.  1.
         -5    1    4    4    0  502 -0.20506783972E+02 -0.13160295856E+02 -0.71095055536E+01  0.25813884735E+02  0.47000000000E+01 0.  1.
          5    1    3    3  503    0 -0.31725617383E+02  0.35783978336E+02  0.24852885597E+02  0.54099573255E+02  0.47000000000E+01 0. -1.
         -5    1    3    3    0  503  0.30247315275E+02 -0.62370449132E+02  0.12361007868E+03  0.14179744200E+03  0.47000000000E+01 0. -1.
<mgrwt>
<rscale>  0 0.12780545E+03</rscale>
<asrwt>0</asrwt>
<pdfrwt beam="1">  1        5 0.59558241E-01 0.12780606E+03</pdfrwt>
<pdfrwt beam="2">  1       -5 0.65714338E-02 0.12780606E+03</pdfrwt>
<totfact> 0.30440819E+02</totfact>
</mgrwt>
</event>
<event>
 8    1  0.3754098E-007  0.1305343E+03  0.7546771E-02  0.1226670E+00
          5   -1    0    0  501    0  0.00000000000E+00  0.00000000000E+00  0.76477461890E+02  0.76621747417E+02  0.47000000000E+01 0. -1.
         -5   -1    0    0    0  501 -0.00000000000E+00 -0.00000000000E+00 -0.26564720080E+03  0.26568877525E+03  0.47000000000E+01 0. -1.
         25    2    1    2    0    0 -0.25033198325E+02 -0.28033140404E+02 -0.16362343980E+03  0.20931274260E+03  0.12500670455E+03 0.  0.
         25    2    1    2    0    0  0.25033198325E+02  0.28033140404E+02 -0.25546299114E+02  0.13299778007E+03  0.12499311232E+03 0.  0.
          5    1    4    4  502    0 -0.40441109652E+02 -0.16682025077E+02 -0.30312241960E+02  0.53429348894E+02  0.47000000000E+01 0.  1.
         -5    1    4    4    0  502  0.65474307977E+02  0.44715165480E+02  0.47659428469E+01  0.79568431179E+02  0.47000000000E+01 0.  1.
          5    1    3    3  503    0 -0.29761070708E+02 -0.51588349809E+02 -0.19086515147E+02  0.62717335930E+02  0.47000000000E+01 0.  1.
         -5    1    3    3    0  503  0.47278723836E+01  0.23555209405E+02 -0.14453692465E+03  0.14659540667E+03  0.47000000000E+01 0.  1.
<mgrwt>
<rscale>  0 0.13053101E+03</rscale>
<asrwt>0</asrwt>
<pdfrwt beam="1">  1        5 0.11780060E-01 0.13053426E+03</pdfrwt>
<pdfrwt beam="2">  1       -5 0.40883096E-01 0.13053426E+03</pdfrwt>
<totfact> 0.24805112E+02</totfact>
</mgrwt>
</event>
<event>
 8    1  0.3754098E-007  0.1445795E+03  0.7546771E-02  0.1207297E+00
          5   -1    0    0  501    0  0.00000000000E+00  0.00000000000E+00  0.15718946656E+03  0.15725971638E+03  0.47000000000E+01 0. -1.
         -5   -1    0    0    0  501 -0.00000000000E+00 -0.00000000000E+00 -0.14250898712E+03  0.14258646994E+03  0.47000000000E+01 0. -1.
         25    2    1    2    0    0  0.71127488575E+02  0.14762569794E+02  0.46376744546E+02  0.15183302292E+03  0.12500164526E+03 0.  0.
         25    2    1    2    0    0 -0.71127488575E+02 -0.14762569794E+02 -0.31696265111E+02  0.14801316341E+03  0.12500476079E+03 0.  0.
          5    1    3    3  502    0  0.90595108087E+02  0.20535421411E+02 -0.82381264742E+01  0.93376302506E+02  0.47000000000E+01 0. -1.
         -5    1    3    3    0  502 -0.19467619513E+02 -0.57728516166E+01  0.54614871020E+02  0.58456720417E+02  0.47000000000E+01 0. -1.
          5    1    4    4  503    0 -0.84634003759E+02  0.31772638607E+02 -0.39396608920E+02  0.98724859842E+02  0.47000000000E+01 0.  1.
         -5    1    4    4    0  503  0.13506515184E+02 -0.46535208401E+02  0.77003438087E+01  0.49288303563E+02  0.47000000000E+01 0.  1.
<mgrwt>
<rscale>  0 0.14457887E+03</rscale>
<asrwt>0</asrwt>
<pdfrwt beam="1">  1        5 0.24194359E-01 0.14457954E+03</pdfrwt>
<pdfrwt beam="2">  1       -5 0.21935823E-01 0.14457954E+03</pdfrwt>
<totfact> 0.23300344E+02</totfact>
</mgrwt>
</event>
<event>
 8    1  0.3754098E-007  0.1554159E+03  0.7546771E-02  0.1193972E+00
         -5   -1    0    0    0  501 -0.00000000000E+00  0.00000000000E+00  0.62709141802E+02  0.62885025766E+02  0.47000000000E+01 0. -1.
          5   -1    0    0  501    0  0.00000000000E+00 -0.00000000000E+00 -0.45814191583E+03  0.45816602345E+03  0.47000000000E+01 0. -1.
         25    2    1    2    0    0 -0.79123091567E+02  0.47616493688E+02 -0.93247603491E+02  0.18124353054E+03  0.12500523075E+03 0.  0.
         25    2    1    2    0    0  0.79123091567E+02 -0.47616493688E+02 -0.30218517054E+03  0.33980751867E+03  0.12500191344E+03 0.  0.
          5    1    4    4  502    0 -0.27280838272E+02  0.14703010607E+02 -0.74659687365E+02  0.80972721180E+02  0.47000000000E+01 0. -1.
         -5    1    4    4    0  502  0.10640392984E+03 -0.62319504295E+02 -0.22752548317E+03  0.25883479749E+03  0.47000000000E+01 0. -1.
          5    1    3    3  503    0 -0.60754898192E+02  0.88483013279E+02 -0.48947302191E+02  0.11806070339E+03  0.47000000000E+01 0.  1.
         -5    1    3    3    0  503 -0.18368193374E+02 -0.40866519591E+02 -0.44300301300E+02  0.63182827149E+02  0.47000000000E+01 0.  1.
<mgrwt>
<rscale>  0 0.15541523E+03</rscale>
<asrwt>0</asrwt>
<pdfrwt beam="2">  1        5 0.70498754E-01 0.15541590E+03</pdfrwt>
<pdfrwt beam="1">  1       -5 0.96629445E-02 0.15541590E+03</pdfrwt>
<totfact> 0.11532137E+02</totfact>
</mgrwt>
</event>
<event>
 8    1  0.3754098E-007  0.1316841E+03  0.7546771E-02  0.1224982E+00
          5   -1    0    0  501    0  0.00000000000E+00  0.00000000000E+00  0.54329653568E+02  0.54532570606E+02  0.47000000000E+01 0.  1.
         -5   -1    0    0    0  501 -0.00000000000E+00 -0.00000000000E+00 -0.57227926352E+03  0.57229856322E+03  0.47000000000E+01 0.  1.
         25    2    1    2    0    0 -0.21676130360E+02 -0.35255243519E+02 -0.46770564923E+03  0.48588732298E+03  0.12500051794E+03 0.  0.
         25    2    1    2    0    0  0.21676130360E+02  0.35255243519E+02 -0.50243960726E+02  0.14094381085E+03  0.12501166107E+03 0.  0.
          5    1    4    4  502    0 -0.42969652929E+02 -0.15894922432E+02 -0.32830262422E+02  0.56559311900E+02  0.47000000000E+01 0.  1.
         -5    1    4    4    0  502  0.64645783289E+02  0.51150165950E+02 -0.17413698304E+02  0.84384498946E+02  0.47000000000E+01 0.  1.
          5    1    3    3  503    0 -0.47511624175E+02  0.47033978535E+01 -0.40075066399E+03  0.40361201799E+03  0.47000000000E+01 0.  1.
         -5    1    3    3    0  503  0.25835493815E+02 -0.39958641372E+02 -0.66954985243E+02  0.82275304982E+02  0.47000000000E+01 0.  1.
<mgrwt>
<rscale>  0 0.13168146E+03</rscale>
<asrwt>0</asrwt>
<pdfrwt beam="1">  1        5 0.83755022E-02 0.13168410E+03</pdfrwt>
<pdfrwt beam="2">  1       -5 0.88060053E-01 0.13168410E+03</pdfrwt>
<totfact> 0.83864481E+01</totfact>
</mgrwt>
</event>
<event>
 8    1  0.3754098E-007  0.1373408E+03  0.7546771E-02  0.1216954E+00
         -5   -1    0    0    0  501 -0.00000000000E+00  0.00000000000E+00  0.25547428945E+03  0.25551751910E+03  0.47000000000E+01 0. -1.
          5   -1    0    0  501    0  0.00000000000E+00 -0.00000000000E+00 -0.12012382975E+03  0.12021574137E+03  0.47000000000E+01 0. -1.
         25    2    1    2    0    0  0.23194398894E+02  0.51954477903E+02  0.18437669272E+03  0.22990434792E+03  0.12499598577E+03 0.  0.
         25    2    1    2    0    0 -0.23194398894E+02 -0.51954477903E+02 -0.49026233021E+02  0.14582891255E+03  0.12500100919E+03 0.  0.
          5    1    3    3  502    0 -0.16296941688E+02  0.45228584010E+02  0.18329714610E+03  0.18955513417E+03  0.47000000000E+01 0.  1.
         -5    1    3    3    0  502  0.39491340582E+02  0.67258938931E+01  0.10795466210E+01  0.40349213754E+02  0.47000000000E+01 0.  1.
          5    1    4    4  503    0 -0.49993826057E+02  0.23104411598E+02 -0.73306864745E+01  0.55758635594E+02  0.47000000000E+01 0. -1.
         -5    1    4    4    0  503  0.26799427163E+02 -0.75058889501E+02 -0.41695546546E+02  0.90070276957E+02  0.47000000000E+01 0. -1.
<mgrwt>
<rscale>  0 0.13733967E+03</rscale>
<asrwt>0</asrwt>
<pdfrwt beam="2">  1        5 0.18490985E-01 0.13734082E+03</pdfrwt>
<pdfrwt beam="1">  1       -5 0.39314132E-01 0.13734082E+03</pdfrwt>
<totfact> 0.12103590E+02</totfact>
</mgrwt>
</event>
<event>
 8    1  0.3754098E-007  0.2161811E+03  0.7546771E-02  0.1136765E+00
         -5   -1    0    0    0  501 -0.00000000000E+00  0.00000000000E+00  0.15491275219E+03  0.15498403399E+03  0.47000000000E+01 0. -1.
          5   -1    0    0  501    0  0.00000000000E+00 -0.00000000000E+00 -0.31421140561E+03  0.31424655513E+03  0.47000000000E+01 0. -1.
         25    2    1    2    0    0 -0.87362607638E+02 -0.15321589829E+03 -0.32480893273E+02  0.21859734496E+03  0.12498981597E+03 0.  0.
         25    2    1    2    0    0  0.87362607638E+02  0.15321589829E+03 -0.12681776014E+03  0.25063324416E+03  0.12500776811E+03 0.  0.
          5    1    4    4  502    0  0.54030252375E+02  0.13831270560E+03 -0.14670441407E+03  0.20879163731E+03  0.47000000000E+01 0.  1.
         -5    1    4    4    0  502  0.33332355263E+02  0.14903192689E+02  0.19886653926E+02  0.41841606853E+02  0.47000000000E+01 0.  1.
          5    1    3    3  503    0 -0.57635345267E+01  0.80091247207E+01  0.26332381075E+02  0.28510501611E+02  0.47000000000E+01 0. -1.
         -5    1    3    3    0  503 -0.81599073112E+02 -0.16122502301E+03 -0.58813274348E+02  0.19008684335E+03  0.47000000000E+01 0. -1.
<mgrwt>
<rscale>  0 0.21617853E+03</rscale>
<asrwt>0</asrwt>
<pdfrwt beam="2">  1        5 0.48348403E-01 0.21618112E+03</pdfrwt>
<pdfrwt beam="1">  1       -5 0.23840918E-01 0.21618112E+03</pdfrwt>
<totfact> 0.55635186E+01</totfact>
</mgrwt>
</event>
<event>
 8    1  0.3754098E-007  0.1303000E+03  0.7546771E-02  0.1227013E+00
          5   -1    0    0  501    0  0.00000000000E+00  0.00000000000E+00  0.46250996985E+03  0.46253384980E+03  0.47000000000E+01 0.  1.
         -5   -1    0    0    0  501 -0.00000000000E+00 -0.00000000000E+00 -0.49765302699E+02  0.49986751772E+02  0.47000000000E+01 0.  1.
         25    2    1    2    0    0  0.17698621542E+02 -0.32237561227E+02  0.74605956734E+02  0.15014709607E+03  0.12500240046E+03 0.  0.
         25    2    1    2    0    0 -0.17698621542E+02  0.32237561227E+02  0.33813871041E+03  0.36237350549E+03  0.12499707375E+03 0.  0.
          5    1    4    4  502    0 -0.67535404919E+02 -0.45794871056E+01  0.16414575323E+03  0.17761734409E+03  0.47000000000E+01 0. -1.
         -5    1    4    4    0  502  0.49836783377E+02  0.36817048333E+02  0.17399295718E+03  0.18475616140E+03  0.47000000000E+01 0. -1.
          5    1    3    3  503    0  0.75606455635E+01 -0.20836872376E+02  0.10947610893E+03  0.11179645361E+03  0.47000000000E+01 0. -1.
         -5    1    3    3    0  503  0.10137975979E+02 -0.11400688851E+02 -0.34870152200E+02  0.38350642468E+02  0.47000000000E+01 0. -1.
<mgrwt>
<rscale>  0 0.13029877E+03</rscale>
<asrwt>0</asrwt>
<pdfrwt beam="1">  1        5 0.71174254E-01 0.13030004E+03</pdfrwt>
<pdfrwt beam="2">  1       -5 0.76750716E-02 0.13030004E+03</pdfrwt>
<totfact> 0.15857879E+02</totfact>
</mgrwt>
</event>
<event>
 8    1  0.3754098E-007  0.1338897E+03  0.7546771E-02  0.1221796E+00
         -5   -1    0    0    0  501 -0.00000000000E+00  0.00000000000E+00  0.76617208660E+02  0.76761231509E+02  0.47000000000E+01 0. -1.
          5   -1    0    0  501    0  0.00000000000E+00 -0.00000000000E+00 -0.24025086320E+03  0.24029683158E+03  0.47000000000E+01 0. -1.
         25    2    1    2    0    0 -0.17538282534E+01  0.47944351901E+02 -0.55423434211E+02  0.14490723986E+03  0.12499845724E+03 0.  0.
         25    2    1    2    0    0  0.17538282534E+01 -0.47944351901E+02 -0.10821022033E+03  0.17215082323E+03  0.12499886944E+03 0.  0.
          5    1    4    4  502    0 -0.43772501161E+02 -0.40994599227E+02 -0.11048730261E+03  0.12580191994E+03  0.47000000000E+01 0.  1.
         -5    1    4    4    0  502  0.45526329415E+02 -0.69497526735E+01  0.22770822765E+01  0.46348903287E+02  0.47000000000E+01 0.  1.
          5    1    3    3  503    0 -0.13350970103E+02  0.22597748118E+02  0.38494515457E+02  0.46827602362E+02  0.47000000000E+01 0.  1.
         -5    1    3    3    0  503  0.11597141850E+02  0.25346603782E+02 -0.93917949669E+02  0.98079637501E+02  0.47000000000E+01 0.  1.
<mgrwt>
<rscale>  0 0.13388961E+03</rscale>
<asrwt>0</asrwt>
<pdfrwt beam="2">  1        5 0.36976286E-01 0.13388971E+03</pdfrwt>
<pdfrwt beam="1">  1       -5 0.11801878E-01 0.13388971E+03</pdfrwt>
<totfact> 0.30603734E+02</totfact>
</mgrwt>
</event>
<event>
 8    1  0.3754098E-007  0.1267758E+03  0.7546771E-02  0.1232324E+00
         -5   -1    0    0    0  501 -0.00000000000E+00  0.00000000000E+00  0.63449785901E+03  0.63451526624E+03  0.47000000000E+01 0. -1.
          5   -1    0    0  501    0  0.00000000000E+00 -0.00000000000E+00 -0.26757537779E+02  0.27167182924E+02  0.47000000000E+01 0. -1.
         25    2    1    2    0    0  0.19889644688E+02  0.71883792790E+01  0.38574688242E+03  0.40604526049E+03  0.12499930202E+03 0.  0.
         25    2    1    2    0    0 -0.19889644688E+02 -0.71883792790E+01  0.22199343881E+03  0.25563718867E+03  0.12498805781E+03 0.  0.
          5    1    4    4  502    0 -0.28277585886E+02  0.50311565685E+02  0.16175873667E+03  0.17181051887E+03  0.47000000000E+01 0. -1.
         -5    1    4    4    0  502  0.83879411982E+01 -0.57499944964E+02  0.60234702147E+02  0.83826669809E+02  0.47000000000E+01 0. -1.
          5    1    3    3  503    0  0.61866728730E+02  0.18432349714E+02  0.11649265057E+03  0.13326616704E+03  0.47000000000E+01 0.  1.
         -5    1    3    3    0  503 -0.41977084042E+02 -0.11243970435E+02  0.26925423185E+03  0.27277909345E+03  0.47000000000E+01 0.  1.
<mgrwt>
<rscale>  0 0.12677300E+03</rscale>
<asrwt>0</asrwt>
<pdfrwt beam="2">  1        5 0.41493945E-02 0.12677577E+03</pdfrwt>
<pdfrwt beam="1">  1       -5 0.97647904E-01 0.12677577E+03</pdfrwt>
<totfact> 0.21018997E+02</totfact>
</mgrwt>
</event>
<event>
 8    1  0.3754098E-007  0.1383828E+03  0.7546771E-02  0.1215525E+00
         -5   -1    0    0    0  501 -0.00000000000E+00  0.00000000000E+00  0.16254172483E+02  0.16920050920E+02  0.47000000000E+01 0. -1.
          5   -1    0    0  501    0  0.00000000000E+00 -0.00000000000E+00 -0.12084574521E+04  0.12084665919E+04  0.47000000000E+01 0. -1.
         25    2    1    2    0    0 -0.14727956939E+02  0.57488017071E+02 -0.46575591304E+03  0.48587627685E+03  0.12500160420E+03 0.  0.
         25    2    1    2    0    0  0.14727956939E+02 -0.57488017071E+02 -0.72644736661E+03  0.73951036592E+03  0.12501207951E+03 0.  0.
          5    1    4    4  502    0  0.41735232192E+02  0.23023081348E+02 -0.17067310614E+03  0.17726615876E+03  0.47000000000E+01 0. -1.
         -5    1    4    4    0  502 -0.27007275253E+02 -0.80511098419E+02 -0.55577426047E+03  0.56224420716E+03  0.47000000000E+01 0. -1.
          5    1    3    3  503    0  0.24972208217E+02  0.15042841995E+02 -0.38574486690E+03  0.38687348141E+03  0.47000000000E+01 0. -1.
         -5    1    3    3    0  503 -0.39700165157E+02  0.42445175076E+02 -0.80011046137E+02  0.99002795438E+02  0.47000000000E+01 0. -1.
<mgrwt>
<rscale>  0 0.13838045E+03</rscale>
<asrwt>0</asrwt>
<pdfrwt beam="2">  1        5 0.18596839E+00 0.13838282E+03</pdfrwt>
<pdfrwt beam="1">  1       -5 0.25525673E-02 0.13838282E+03</pdfrwt>
<totfact> 0.85982427E+01</totfact>
</mgrwt>
</event>
<event>
 8    1  0.3754098E-007  0.1287063E+03  0.7546771E-02  0.1229388E+00
         -5   -1    0    0    0  501 -0.00000000000E+00  0.00000000000E+00  0.21896843796E+02  0.22395574746E+02  0.47000000000E+01 0.  1.
          5   -1    0    0  501    0  0.00000000000E+00 -0.00000000000E+00 -0.77722509866E+03  0.77723930934E+03  0.47000000000E+01 0.  1.
         25    2    1    2    0    0 -0.20679209662E+02 -0.22631956308E+02 -0.29948228591E+03  0.32596770052E+03  0.12500186819E+03 0.  0.
         25    2    1    2    0    0  0.20679209662E+02  0.22631956308E+02 -0.45584596895E+03  0.47366718357E+03  0.12500087286E+03 0.  0.
          5    1    3    3  502    0  0.18620216529E+02 -0.50624398665E+02 -0.25326834229E+03  0.25899128443E+03  0.47000000000E+01 0.  1.
         -5    1    3    3    0  502 -0.39299426190E+02  0.27992442357E+02 -0.46213943621E+02  0.66976416096E+02  0.47000000000E+01 0.  1.
          5    1    4    4  503    0  0.50946746272E+02 -0.31127881666E+02 -0.30132594817E+03  0.30721968201E+03  0.47000000000E+01 0.  1.
         -5    1    4    4    0  503 -0.30267536610E+02  0.53759837974E+02 -0.15452002078E+03  0.16644750155E+03  0.47000000000E+01 0.  1.
<mgrwt>
<rscale>  0 0.12870602E+03</rscale>
<asrwt>0</asrwt>
<pdfrwt beam="2">  1        5 0.11961253E+00 0.12870626E+03</pdfrwt>
<pdfrwt beam="1">  1       -5 0.34082029E-02 0.12870626E+03</pdfrwt>
<totfact> 0.17634887E+02</totfact>
</mgrwt>
</event>
<event>
 8    1  0.3754098E-007  0.1267517E+03  0.7546771E-02  0.1232357E+00
         -5   -1    0    0    0  501 -0.00000000000E+00  0.00000000000E+00  0.75059004042E+03  0.75060475537E+03  0.47000000000E+01 0.  1.
          5   -1    0    0  501    0  0.00000000000E+00 -0.00000000000E+00 -0.21572173260E+02  0.22078239494E+02  0.47000000000E+01 0.  1.
         25    2    1    2    0    0 -0.17998915318E+02  0.10802307067E+02  0.41908188888E+03  0.43783032563E+03  0.12500045468E+03 0.  0.
         25    2    1    2    0    0  0.17998915318E+02 -0.10802307067E+02  0.30993597829E+03  0.33485266923E+03  0.12500139464E+03 0.  0.
          5    1    4    4  502    0  0.63311454111E+02  0.23617822987E+02  0.13886342845E+03  0.15450334477E+03  0.47000000000E+01 0.  1.
         -5    1    4    4    0  502 -0.45312538793E+02 -0.34420130054E+02  0.17107254983E+03  0.18034932445E+03  0.47000000000E+01 0.  1.
          5    1    3    3  503    0 -0.58872333710E+02  0.37210913321E+02  0.31767229203E+03  0.32525125499E+03  0.47000000000E+01 0.  1.
         -5    1    3    3    0  503  0.40873418392E+02 -0.26408606254E+02  0.10140959685E+03  0.11257907065E+03  0.47000000000E+01 0.  1.
<mgrwt>
<rscale>  0 0.12675149E+03</rscale>
<asrwt>0</asrwt>
<pdfrwt beam="2">  1        5 0.33588558E-02 0.12675172E+03</pdfrwt>
<pdfrwt beam="1">  1       -5 0.11551546E+00 0.12675172E+03</pdfrwt>
<totfact> 0.19610763E+02</totfact>
</mgrwt>
</event>
<event>
 8    1  0.3754098E-007  0.1294697E+03  0.7546771E-02  0.1228248E+00
          5   -1    0    0  501    0  0.00000000000E+00  0.00000000000E+00  0.43839262205E+02  0.44090485490E+02  0.47000000000E+01 0.  1.
         -5   -1    0    0    0  501 -0.00000000000E+00 -0.00000000000E+00 -0.38586470643E+03  0.38589332939E+03  0.47000000000E+01 0.  1.
         25    2    1    2    0    0  0.33238272484E+02 -0.57152576280E+01 -0.19521722303E+03  0.23424807794E+03  0.12499980369E+03 0.  0.
         25    2    1    2    0    0 -0.33238272484E+02  0.57152576280E+01 -0.14680822120E+03  0.19573573695E+03  0.12498951147E+03 0.  0.
          5    1    4    4  502    0 -0.40626508311E+02  0.59883403203E+02 -0.65971773455E+02  0.98035198013E+02  0.47000000000E+01 0.  1.
         -5    1    4    4    0  502  0.73882358266E+01 -0.54168145575E+02 -0.80836447748E+02  0.97700538934E+02  0.47000000000E+01 0.  1.
          5    1    3    3  503    0 -0.32581567264E+02 -0.12958012143E+01 -0.15133313217E+03  0.15487751456E+03  0.47000000000E+01 0.  1.
         -5    1    3    3    0  503  0.65819839749E+02 -0.44194564137E+01 -0.43884090859E+02  0.79370563372E+02  0.47000000000E+01 0.  1.
<mgrwt>
<rscale>  0 0.12946719E+03</rscale>
<asrwt>0</asrwt>
<pdfrwt beam="1">  1        5 0.67660288E-02 0.12946968E+03</pdfrwt>
<pdfrwt beam="2">  1       -5 0.59385325E-01 0.12946968E+03</pdfrwt>
<totfact> 0.29297115E+02</totfact>
</mgrwt>
</event>
<event>
 8    1  0.3754098E-007  0.1296532E+03  0.7546771E-02  0.1227972E+00
         -5   -1    0    0    0  501 -0.00000000000E+00  0.00000000000E+00  0.50010500915E+02  0.50230869013E+02  0.47000000000E+01 0. -1.
          5   -1    0    0  501    0  0.00000000000E+00 -0.00000000000E+00 -0.34032359613E+03  0.34035604898E+03  0.47000000000E+01 0. -1.
         25    2    1    2    0    0 -0.10314272775E+02  0.32821070900E+02 -0.12107707749E+03  0.17739677179E+03  0.12500539600E+03 0.  0.
         25    2    1    2    0    0  0.10314272775E+02 -0.32821070900E+02 -0.16923601772E+03  0.21319014621E+03  0.12500240729E+03 0.  0.
          5    1    4    4  502    0  0.40856773871E+02 -0.85987954693E+01 -0.16877228759E+03  0.17392351857E+03  0.47000000000E+01 0.  1.
         -5    1    4    4    0  502 -0.30542501096E+02 -0.24222275430E+02 -0.46373013101E+00  0.39266627636E+02  0.47000000000E+01 0.  1.
          5    1    3    3  503    0  0.36345307160E+02  0.49026056242E+02 -0.19317871733E+02  0.64185712674E+02  0.47000000000E+01 0. -1.
         -5    1    3    3    0  503 -0.46659579934E+02 -0.16204985342E+02 -0.10175920576E+03  0.11321105911E+03  0.47000000000E+01 0. -1.
<mgrwt>
<rscale>  0 0.12965249E+03</rscale>
<asrwt>0</asrwt>
<pdfrwt beam="2">  1        5 0.52376923E-01 0.12965321E+03</pdfrwt>
<pdfrwt beam="1">  1       -5 0.77133712E-02 0.12965321E+03</pdfrwt>
<totfact> 0.30756869E+02</totfact>
</mgrwt>
</event>
<event>
 8    1  0.3754098E-007  0.1345640E+03  0.7546771E-02  0.1220837E+00
          5   -1    0    0  501    0  0.00000000000E+00  0.00000000000E+00  0.77206935348E+02  0.77349860154E+02  0.47000000000E+01 0.  1.
         -5   -1    0    0    0  501 -0.00000000000E+00 -0.00000000000E+00 -0.31463427500E+03  0.31466937729E+03  0.47000000000E+01 0.  1.
         25    2    1    2    0    0  0.14709044269E+02 -0.47604132363E+02 -0.21782245060E+03  0.25603457191E+03  0.12499829050E+03 0.  0.
         25    2    1    2    0    0 -0.14709044269E+02  0.47604132363E+02 -0.19604889053E+02  0.13598466553E+03  0.12499987274E+03 0.  0.
          5    1    4    4  502    0 -0.62470603104E+02  0.25397734418E+02 -0.40863485673E+02  0.78990731274E+02  0.47000000000E+01 0. -1.
         -5    1    4    4    0  502  0.47761558835E+02  0.22206397945E+02  0.21258596620E+02  0.56993934259E+02  0.47000000000E+01 0. -1.
          5    1    3    3  503    0  0.38405051931E+02  0.67462485029E+01 -0.18288558535E+03  0.18705530522E+03  0.47000000000E+01 0.  1.
         -5    1    3    3    0  503 -0.23696007661E+02 -0.54350380866E+02 -0.34936865243E+02  0.68979266685E+02  0.47000000000E+01 0.  1.
<mgrwt>
<rscale>  0 0.13456366E+03</rscale>
<asrwt>0</asrwt>
<pdfrwt beam="1">  1        5 0.11891685E-01 0.13456403E+03</pdfrwt>
<pdfrwt beam="2">  1       -5 0.48418967E-01 0.13456403E+03</pdfrwt>
<totfact> 0.17345346E+02</totfact>
</mgrwt>
</event>
<event>
 8    1  0.3754098E-007  0.1293533E+03  0.7546771E-02  0.1228419E+00
         -5   -1    0    0    0  501 -0.00000000000E+00  0.00000000000E+00  0.39091689433E+02  0.39373216566E+02  0.47000000000E+01 0.  1.
          5   -1    0    0  501    0  0.00000000000E+00 -0.00000000000E+00 -0.44377296766E+03  0.44379785582E+03  0.47000000000E+01 0.  1.
         25    2    1    2    0    0 -0.32895093538E+02  0.48857078735E+01 -0.15427070002E+03  0.20132405360E+03  0.12500387334E+03 0.  0.
         25    2    1    2    0    0  0.32895093538E+02 -0.48857078735E+01 -0.25041057821E+03  0.28184701879E+03  0.12500530789E+03 0.  0.
          5    1    4    4  502    0 -0.58222810076E+01 -0.60642372187E+02 -0.11053034518E+03  0.12629506509E+03  0.47000000000E+01 0.  1.
         -5    1    4    4    0  502  0.38717374545E+02  0.55756664313E+02 -0.13988023302E+03  0.15555195369E+03  0.47000000000E+01 0.  1.
          5    1    3    3  503    0 -0.21635237706E+02 -0.43596073895E+02 -0.11747808734E+02  0.50287196976E+02  0.47000000000E+01 0. -1.
         -5    1    3    3    0  503 -0.11259855832E+02  0.48481781768E+02 -0.14252289129E+03  0.15103685662E+03  0.47000000000E+01 0. -1.
<mgrwt>
<rscale>  0 0.12935298E+03</rscale>
<asrwt>0</asrwt>
<pdfrwt beam="2">  1        5 0.68296331E-01 0.12935333E+03</pdfrwt>
<pdfrwt beam="1">  1       -5 0.60376768E-02 0.12935333E+03</pdfrwt>
<totfact> 0.26054727E+02</totfact>
</mgrwt>
</event>
<event>
 8    1  0.3754098E-007  0.1314914E+03  0.7546771E-02  0.1225261E+00
         -5   -1    0    0    0  501 -0.00000000000E+00  0.00000000000E+00  0.93711697758E+02  0.93829485220E+02  0.47000000000E+01 0.  1.
          5   -1    0    0  501    0  0.00000000000E+00 -0.00000000000E+00 -0.19857816902E+03  0.19863378164E+03  0.47000000000E+01 0.  1.
         25    2    1    2    0    0  0.12505397220E+02 -0.38823793346E+02 -0.13144937486E+02  0.13214685044E+03  0.12500531513E+03 0.  0.
         25    2    1    2    0    0 -0.12505397220E+02  0.38823793346E+02 -0.91721533775E+02  0.16031641642E+03  0.12499936691E+03 0.  0.
          5    1    3    3  502    0  0.17589146126E+02 -0.72411971411E+02 -0.43444253463E+02  0.86384980315E+02  0.47000000000E+01 0. -1.
         -5    1    3    3    0  502 -0.50837489058E+01  0.33588178065E+02  0.30299315978E+02  0.45761870126E+02  0.47000000000E+01 0. -1.
          5    1    4    4  503    0  0.48257679960E+02  0.49838401421E+02 -0.47066531974E+02  0.83964387471E+02  0.47000000000E+01 0. -1.
         -5    1    4    4    0  503 -0.60763077180E+02 -0.11014608075E+02 -0.44655001801E+02  0.76352028953E+02  0.47000000000E+01 0. -1.
<mgrwt>
<rscale>  0 0.13149003E+03</rscale>
<asrwt>0</asrwt>
<pdfrwt beam="2">  1        5 0.30563826E-01 0.13149145E+03</pdfrwt>
<pdfrwt beam="1">  1       -5 0.14430523E-01 0.13149145E+03</pdfrwt>
<totfact> 0.31037313E+02</totfact>
</mgrwt>
</event>
<event>
 8    1  0.3754098E-007  0.1313354E+03  0.7546771E-02  0.1225498E+00
          5   -1    0    0  501    0  0.00000000000E+00  0.00000000000E+00  0.16847757332E+03  0.16854311825E+03  0.47000000000E+01 0.  1.
         -5   -1    0    0    0  501 -0.00000000000E+00 -0.00000000000E+00 -0.10450715113E+03  0.10461278430E+03  0.47000000000E+01 0.  1.
         25    2    1    2    0    0  0.38312203972E+02 -0.12438294910E+02  0.11803301959E+02  0.13186468391E+03  0.12500576296E+03 0.  0.
         25    2    1    2    0    0 -0.38312203972E+02  0.12438294910E+02  0.52167120225E+02  0.14129121864E+03  0.12497705341E+03 0.  0.
          5    1    3    3  502    0  0.63812759375E+02  0.11453632625E+02  0.48402784065E+02  0.81044268548E+02  0.47000000000E+01 0. -1.
         -5    1    3    3    0  502 -0.25500555403E+02 -0.23891927535E+02 -0.36599482105E+02  0.50820415362E+02  0.47000000000E+01 0. -1.
          5    1    4    4  503    0 -0.47631892527E+02 -0.45507654088E+02  0.49167462339E+02  0.82336341425E+02  0.47000000000E+01 0. -1.
         -5    1    4    4    0  503  0.93196885556E+01  0.57945948998E+02  0.29996578859E+01  0.58954877215E+02  0.47000000000E+01 0. -1.
<mgrwt>
<rscale>  0 0.13132853E+03</rscale>
<asrwt>0</asrwt>
<pdfrwt beam="1">  1        5 0.25932794E-01 0.13133536E+03</pdfrwt>
<pdfrwt beam="2">  1       -5 0.16091191E-01 0.13133536E+03</pdfrwt>
<totfact> 0.35053101E+02</totfact>
</mgrwt>
</event>
<event>
 8    1  0.3754098E-007  0.1418625E+03  0.7546771E-02  0.1210845E+00
          5   -1    0    0  501    0  0.00000000000E+00  0.00000000000E+00  0.54036886534E+03  0.54038930470E+03  0.47000000000E+01 0. -1.
         -5   -1    0    0    0  501 -0.00000000000E+00 -0.00000000000E+00 -0.37218429535E+02  0.37514017341E+02  0.47000000000E+01 0. -1.
         25    2    1    2    0    0 -0.29199438789E+01 -0.67009209335E+02  0.26955813678E+03  0.30460885668E+03  0.12500482494E+03 0.  0.
         25    2    1    2    0    0  0.29199438789E+01  0.67009209335E+02  0.23359229902E+03  0.27329446535E+03  0.12500296965E+03 0.  0.
          5    1    3    3  502    0 -0.54108192476E+02 -0.61862722738E+02  0.21116390693E+03  0.22664284359E+03  0.47000000000E+01 0.  1.
         -5    1    3    3    0  502  0.51188248597E+02 -0.51464865966E+01  0.58394229847E+02  0.77966013097E+02  0.47000000000E+01 0.  1.
          5    1    4    4  503    0 -0.52067129304E+02  0.57951001077E+02  0.17837616230E+03  0.19470349190E+03  0.47000000000E+01 0.  1.
         -5    1    4    4    0  503  0.54987073183E+02  0.90582082579E+01  0.55216136720E+02  0.78590973453E+02  0.47000000000E+01 0.  1.
<mgrwt>
<rscale>  0 0.14186208E+03</rscale>
<asrwt>0</asrwt>
<pdfrwt beam="1">  1        5 0.83157983E-01 0.14186249E+03</pdfrwt>
<pdfrwt beam="2">  1       -5 0.57502219E-02 0.14186249E+03</pdfrwt>
<totfact> 0.18605034E+02</totfact>
</mgrwt>
</event>
<event>
 8    1  0.3754098E-007  0.1270282E+03  0.7546771E-02  0.1231938E+00
         -5   -1    0    0    0  501 -0.00000000000E+00  0.00000000000E+00  0.23232422725E+02  0.23703068698E+02  0.47000000000E+01 0. -1.
          5   -1    0    0  501    0  0.00000000000E+00 -0.00000000000E+00 -0.72381601526E+03  0.72383127450E+03  0.47000000000E+01 0. -1.
         25    2    1    2    0    0  0.13096131602E+02  0.18368060871E+02 -0.26605166341E+03  0.29481571162E+03  0.12499568751E+03 0.  0.
         25    2    1    2    0    0 -0.13096131602E+02 -0.18368060871E+02 -0.43453192913E+03  0.45271863157E+03  0.12500907015E+03 0.  0.
          5    1    3    3  502    0 -0.55774082109E+02  0.89725826478E+01 -0.13445118660E+03  0.14591253220E+03  0.47000000000E+01 0.  1.
         -5    1    3    3    0  502  0.68870213711E+02  0.93954782234E+01 -0.13160047681E+03  0.14890317943E+03  0.47000000000E+01 0.  1.
          5    1    4    4  503    0  0.39622323905E+02 -0.40078684980E+02 -0.11554830514E+03  0.12864575532E+03  0.47000000000E+01 0.  1.
         -5    1    4    4    0  503 -0.52718455507E+02  0.21710624109E+02 -0.31898362399E+03  0.32407287625E+03  0.47000000000E+01 0.  1.
<mgrwt>
<rscale>  0 0.12702490E+03</rscale>
<asrwt>0</asrwt>
<pdfrwt beam="2">  1        5 0.11139367E+00 0.12702819E+03</pdfrwt>
<pdfrwt beam="1">  1       -5 0.36115967E-02 0.12702819E+03</pdfrwt>
<totfact> 0.19098802E+02</totfact>
</mgrwt>
</event>
<event>
 8    1  0.3754098E-007  0.1353898E+03  0.7546771E-02  0.1219671E+00
          5   -1    0    0  501    0  0.00000000000E+00  0.00000000000E+00  0.54854447018E+02  0.55055429866E+02  0.47000000000E+01 0. -1.
         -5   -1    0    0    0  501 -0.00000000000E+00 -0.00000000000E+00 -0.37541347678E+03  0.37544289653E+03  0.47000000000E+01 0. -1.
         25    2    1    2    0    0 -0.51406183711E+02  0.79274273007E+01 -0.23232228534E+03  0.26889349522E+03  0.12499851071E+03 0.  0.
         25    2    1    2    0    0  0.51406183711E+02 -0.79274273007E+01 -0.88236744429E+02  0.16160483117E+03  0.12499983425E+03 0.  0.
          5    1    4    4  502    0 -0.94659660531E+01  0.45079149506E+02 -0.60376457730E+02  0.76086404052E+02  0.47000000000E+01 0.  1.
         -5    1    4    4    0  502  0.60872149764E+02 -0.53006576807E+02 -0.27860286700E+02  0.85518427118E+02  0.47000000000E+01 0.  1.
          5    1    3    3  503    0 -0.67839624160E+02 -0.20137736432E+02 -0.22405146319E+03  0.23500827899E+03  0.47000000000E+01 0.  1.
         -5    1    3    3    0  503  0.16433440450E+02  0.28065163732E+02 -0.82708221483E+01  0.33885216236E+02  0.47000000000E+01 0.  1.
<mgrwt>
<rscale>  0 0.13538950E+03</rscale>
<asrwt>0</asrwt>
<pdfrwt beam="1">  1        5 0.84568692E-02 0.13538980E+03</pdfrwt>
<pdfrwt beam="2">  1       -5 0.57773641E-01 0.13538980E+03</pdfrwt>
<totfact> 0.21592778E+02</totfact>
</mgrwt>
</event>
<event>
 8    1  0.3754098E-007  0.1266170E+03  0.7546771E-02  0.1232567E+00
         -5   -1    0    0    0  501 -0.00000000000E+00  0.00000000000E+00  0.27766248683E+02  0.28161224510E+02  0.47000000000E+01 0. -1.
          5   -1    0    0  501    0  0.00000000000E+00 -0.00000000000E+00 -0.58814116491E+03  0.58815994411E+03  0.47000000000E+01 0. -1.
         25    2    1    2    0    0 -0.17419417498E+02  0.10301171461E+02 -0.23054258033E+03  0.26302425237E+03  0.12498930253E+03 0.  0.
         25    2    1    2    0    0  0.17419417498E+02 -0.10301171461E+02 -0.32983233589E+03  0.35329691626E+03  0.12497916225E+03 0.  0.
          5    1    4    4  502    0  0.60177479465E+02 -0.35122464115E+02 -0.24732859793E+03  0.25699891415E+03  0.47000000000E+01 0.  1.
         -5    1    4    4    0  502 -0.42758061967E+02  0.24821292654E+02 -0.82503737962E+02  0.96298002108E+02  0.47000000000E+01 0.  1.
          5    1    3    3  503    0 -0.26484974305E+02 -0.43868463384E+02 -0.41497064820E+02  0.66105917529E+02  0.47000000000E+01 0.  1.
         -5    1    3    3    0  503  0.90655568074E+01  0.54169634845E+02 -0.18904551551E+03  0.19691833484E+03  0.47000000000E+01 0.  1.
<mgrwt>
<rscale>  0 0.12661454E+03</rscale>
<asrwt>0</asrwt>
<pdfrwt beam="2">  1        5 0.90515074E-01 0.12661704E+03</pdfrwt>
<pdfrwt beam="1">  1       -5 0.43035583E-02 0.12661704E+03</pdfrwt>
<totfact> 0.23722215E+02</totfact>
</mgrwt>
</event>
<event>
 8    1  0.3754098E-007  0.1286805E+03  0.7546771E-02  0.1229427E+00
         -5   -1    0    0    0  501 -0.00000000000E+00  0.00000000000E+00  0.47325527876E+02  0.47558338793E+02  0.47000000000E+01 0.  1.
          5   -1    0    0  501    0  0.00000000000E+00 -0.00000000000E+00 -0.41376955626E+03  0.41379624900E+03  0.47000000000E+01 0.  1.
         25    2    1    2    0    0 -0.10385817730E+02 -0.28742198110E+02 -0.91829591041E+02  0.15808654014E+03  0.12499880488E+03 0.  0.
         25    2    1    2    0    0  0.10385817730E+02  0.28742198110E+02 -0.27461443734E+03  0.30326804765E+03  0.12499776145E+03 0.  0.
          5    1    3    3  502    0 -0.14067330769E+01 -0.72184618097E+02 -0.87095911897E+02  0.11322714276E+03  0.47000000000E+01 0. -1.
         -5    1    3    3    0  502 -0.89790846531E+01  0.43442419987E+02 -0.47336791437E+01  0.44859397386E+02  0.47000000000E+01 0. -1.
          5    1    4    4  503    0 -0.39919373469E+02  0.20096068912E+02 -0.23285623648E+03  0.23715295746E+03  0.47000000000E+01 0. -1.
         -5    1    4    4    0  503  0.50305191199E+02  0.86461291976E+01 -0.41758200863E+02  0.66115090191E+02  0.47000000000E+01 0. -1.
<mgrwt>
<rscale>  0 0.12868028E+03</rscale>
<asrwt>0</asrwt>
<pdfrwt beam="2">  1        5 0.63676814E-01 0.12868054E+03</pdfrwt>
<pdfrwt beam="1">  1       -5 0.73008125E-02 0.12868054E+03</pdfrwt>
<totfact> 0.22043677E+02</totfact>
</mgrwt>
</event>
<event>
 8    1  0.3754098E-007  0.1419784E+03  0.7546771E-02  0.1210696E+00
         -5   -1    0    0    0  501 -0.00000000000E+00  0.00000000000E+00  0.40304789449E+02  0.40577901037E+02  0.47000000000E+01 0. -1.
          5   -1    0    0  501    0  0.00000000000E+00 -0.00000000000E+00 -0.53368564795E+03  0.53370634325E+03  0.47000000000E+01 0. -1.
         25    2    1    2    0    0 -0.66886970491E+02  0.73896824728E+01 -0.17256535311E+03  0.22345598906E+03  0.12500121490E+03 0.  0.
         25    2    1    2    0    0  0.66886970491E+02 -0.73896824728E+01 -0.32081550539E+03  0.35082825522E+03  0.12501760651E+03 0.  0.
          5    1    3    3  502    0 -0.64953576500E+02  0.49116348718E+01 -0.16595803000E+02  0.67383988710E+02  0.47000000000E+01 0.  1.
         -5    1    3    3    0  502 -0.19333939909E+01  0.24780476010E+01 -0.15596955011E+03  0.15607200035E+03  0.47000000000E+01 0.  1.
          5    1    4    4  503    0  0.54212860843E+02  0.51263743432E+02 -0.12183831979E+03  0.14294639499E+03  0.47000000000E+01 0. -1.
         -5    1    4    4    0  503  0.12674109648E+02 -0.58653425905E+02 -0.19897718560E+03  0.20788186023E+03  0.47000000000E+01 0. -1.
<mgrwt>
<rscale>  0 0.14197483E+03</rscale>
<asrwt>0</asrwt>
<pdfrwt beam="2">  1        5 0.82128079E-01 0.14197844E+03</pdfrwt>
<pdfrwt beam="1">  1       -5 0.62233378E-02 0.14197844E+03</pdfrwt>
<totfact> 0.16774196E+02</totfact>
</mgrwt>
</event>
<event>
 8    1  0.3754098E-007  0.1281382E+03  0.7546771E-02  0.1230245E+00
          5   -1    0    0  501    0  0.00000000000E+00  0.00000000000E+00  0.11545833799E+02  0.12465804351E+02  0.47000000000E+01 0.  1.
         -5   -1    0    0    0  501 -0.00000000000E+00 -0.00000000000E+00 -0.14714748376E+04  0.14714823437E+04  0.47000000000E+01 0.  1.
         25    2    1    2    0    0  0.17154904928E+02 -0.22359282834E+02 -0.92790514836E+03  0.93671074138E+03  0.12499928150E+03 0.  0.
         25    2    1    2    0    0 -0.17154904928E+02  0.22359282834E+02 -0.53202385545E+03  0.54723740663E+03  0.12500067263E+03 0.  0.
          5    1    4    4  502    0  0.45122478079E+02  0.19704211763E+02 -0.10999133531E+03  0.12060048852E+03  0.47000000000E+01 0. -1.
         -5    1    4    4    0  502 -0.62277383007E+02  0.26550710706E+01 -0.42203252014E+03  0.42663691811E+03  0.47000000000E+01 0. -1.
          5    1    3    3  503    0  0.93830872421E+00 -0.38827774108E+02 -0.89690751783E+03  0.89776035890E+03  0.47000000000E+01 0.  1.
         -5    1    3    3    0  503  0.16216596204E+02  0.16468491275E+02 -0.30997630529E+02  0.38950382484E+02  0.47000000000E+01 0.  1.
<mgrwt>
<rscale>  0 0.12813785E+03</rscale>
<asrwt>0</asrwt>
<pdfrwt beam="1">  1        5 0.18476276E-02 0.12813819E+03</pdfrwt>
<pdfrwt beam="2">  1       -5 0.22645195E+00 0.12813819E+03</pdfrwt>
<totfact> 0.75378966E+01</totfact>
</mgrwt>
</event>
<event>
 8    1  0.3754098E-007  0.2310163E+03  0.7546771E-02  0.1125928E+00
         -5   -1    0    0    0  501 -0.00000000000E+00  0.00000000000E+00  0.10403003744E+03  0.10413615457E+03  0.47000000000E+01 0.  1.
          5   -1    0    0  501    0  0.00000000000E+00 -0.00000000000E+00 -0.52220495754E+03  0.52222610781E+03  0.47000000000E+01 0.  1.
         25    2    1    2    0    0  0.37027549300E+02  0.19071448577E+03 -0.16665385706E+03  0.28484889496E+03  0.12498932115E+03 0.  0.
         25    2    1    2    0    0 -0.37027549300E+02 -0.19071448577E+03 -0.25152106304E+03  0.34151336742E+03  0.12500192192E+03 0.  0.
          5    1    4    4  502    0  0.33013381802E+02 -0.14039624538E+03 -0.16627383869E+03  0.22015918906E+03  0.47000000000E+01 0. -1.
         -5    1    4    4    0  502 -0.70040931103E+02 -0.50318240387E+02 -0.85247224345E+02  0.12135417835E+03  0.47000000000E+01 0. -1.
          5    1    3    3  503    0  0.24624943793E+02  0.15467279784E+03 -0.18487188931E+03  0.24234225324E+03  0.47000000000E+01 0.  1.
         -5    1    3    3    0  503  0.12402605507E+02  0.36041687926E+02  0.18218032245E+02  0.42506641726E+02  0.47000000000E+01 0.  1.
<mgrwt>
<rscale>  0 0.23101460E+03</rscale>
<asrwt>0</asrwt>
<pdfrwt beam="2">  1        5 0.80349012E-01 0.23101631E+03</pdfrwt>
<pdfrwt beam="1">  1       -5 0.16014411E-01 0.23101631E+03</pdfrwt>
<totfact> 0.38532736E+01</totfact>
</mgrwt>
</event>
<event>
 8    1  0.3754098E-007  0.1689768E+03  0.7546771E-02  0.1178927E+00
         -5   -1    0    0    0  501 -0.00000000000E+00  0.00000000000E+00  0.65014090311E+02  0.65183755177E+02  0.47000000000E+01 0. -1.
          5   -1    0    0  501    0  0.00000000000E+00 -0.00000000000E+00 -0.47366756629E+03  0.47369088375E+03  0.47000000000E+01 0. -1.
         25    2    1    2    0    0  0.10012445002E+01 -0.11369643690E+03 -0.13075883315E+03  0.21363841789E+03  0.12496246995E+03 0.  0.
         25    2    1    2    0    0 -0.10012445002E+01  0.11369643690E+03 -0.27789464283E+03  0.32523622105E+03  0.12500113885E+03 0.  0.
          5    1    4    4  502    0  0.33673012575E+02  0.15382443379E+02 -0.11371486568E+02  0.39011434823E+02  0.47000000000E+01 0.  1.
         -5    1    4    4    0  502 -0.34674257075E+02  0.98313993522E+02 -0.26652315626E+03  0.28622478622E+03  0.47000000000E+01 0.  1.
          5    1    3    3  503    0  0.48883721637E+02 -0.14486001469E+02 -0.14076422206E+02  0.53100829954E+02  0.47000000000E+01 0.  1.
         -5    1    3    3    0  503 -0.47882477137E+02 -0.99210435431E+02 -0.11668241094E+03  0.16053758793E+03  0.47000000000E+01 0.  1.
<mgrwt>
<rscale>  0 0.16896967E+03</rscale>
<asrwt>0</asrwt>
<pdfrwt beam="2">  1        5 0.72886776E-01 0.16897682E+03</pdfrwt>
<pdfrwt beam="1">  1       -5 0.10017013E-01 0.16897682E+03</pdfrwt>
<totfact> 0.10296497E+02</totfact>
</mgrwt>
</event>
<event>
 8    1  0.3754098E-007  0.1351238E+03  0.7546771E-02  0.1220051E+00
          5   -1    0    0  501    0  0.00000000000E+00  0.00000000000E+00  0.12787701858E+03  0.12796336148E+03  0.47000000000E+01 0. -1.
         -5   -1    0    0    0  501 -0.00000000000E+00 -0.00000000000E+00 -0.14266453453E+03  0.14274193292E+03  0.47000000000E+01 0. -1.
         25    2    1    2    0    0  0.43125957893E+02 -0.27802269339E+02 -0.10482545587E+02  0.13551289720E+03  0.12498418748E+03 0.  0.
         25    2    1    2    0    0 -0.43125957893E+02  0.27802269339E+02 -0.43049703661E+01  0.13519239720E+03  0.12500254824E+03 0.  0.
          5    1    3    3  502    0 -0.31407938299E+02 -0.23143648605E+02  0.30913679208E+02  0.49998326183E+02  0.47000000000E+01 0.  1.
         -5    1    3    3    0  502  0.74533896192E+02 -0.46586207339E+01 -0.41396224795E+02  0.85514571015E+02  0.47000000000E+01 0.  1.
          5    1    4    4  503    0  0.12422253855E+02  0.11075649238E+02 -0.55219047714E+02  0.57863767829E+02  0.47000000000E+01 0.  1.
         -5    1    4    4    0  503 -0.55548211748E+02  0.16726620101E+02  0.50914077348E+02  0.77328629373E+02  0.47000000000E+01 0.  1.
<mgrwt>
<rscale>  0 0.13511959E+03</rscale>
<asrwt>0</asrwt>
<pdfrwt beam="1">  1        5 0.19685983E-01 0.13512384E+03</pdfrwt>
<pdfrwt beam="2">  1       -5 0.21960985E-01 0.13512384E+03</pdfrwt>
<totfact> 0.33520965E+02</totfact>
</mgrwt>
</event>
<event>
 8    1  0.3754098E-007  0.2185438E+03  0.7546771E-02  0.1134973E+00
          5   -1    0    0  501    0  0.00000000000E+00  0.00000000000E+00  0.83449154769E+02  0.83581406016E+02  0.47000000000E+01 0.  1.
         -5   -1    0    0    0  501 -0.00000000000E+00 -0.00000000000E+00 -0.58666584726E+03  0.58668467369E+03  0.47000000000E+01 0.  1.
         25    2    1    2    0    0  0.16313131536E+03 -0.74326074423E+02 -0.30504852227E+03  0.37525455318E+03  0.12500074943E+03 0.  0.
         25    2    1    2    0    0 -0.16313131536E+03  0.74326074423E+02 -0.19816817022E+03  0.29501152652E+03  0.12499994280E+03 0.  0.
          5    1    3    3  502    0 -0.10103227792E+02 -0.27180031527E+02 -0.12386917053E+02  0.31880323708E+02  0.47000000000E+01 0.  1.
         -5    1    3    3    0  502  0.17323454315E+03 -0.47146042896E+02 -0.29266160521E+03  0.34337422948E+03  0.47000000000E+01 0.  1.
          5    1    4    4  503    0 -0.89027712521E+02  0.23529649091E+02 -0.18141200081E+03  0.20349934157E+03  0.47000000000E+01 0. -1.
         -5    1    4    4    0  503 -0.74103602840E+02  0.50796425331E+02 -0.16756169415E+02  0.91512184947E+02  0.47000000000E+01 0. -1.
<mgrwt>
<rscale>  0 0.21854365E+03</rscale>
<asrwt>0</asrwt>
<pdfrwt beam="1">  1        5 0.12849953E-01 0.21854377E+03</pdfrwt>
<pdfrwt beam="2">  1       -5 0.90267903E-01 0.21854377E+03</pdfrwt>
<totfact> 0.43047617E+01</totfact>
</mgrwt>
</event>
<event>
 8    1  0.3754098E-007  0.1811158E+03  0.7546771E-02  0.1166729E+00
          5   -1    0    0  501    0  0.00000000000E+00  0.00000000000E+00  0.30140540748E+02  0.30504789732E+02  0.47000000000E+01 0. -1.
         -5   -1    0    0    0  501 -0.00000000000E+00 -0.00000000000E+00 -0.10853118980E+04  0.10853220747E+04  0.47000000000E+01 0. -1.
         25    2    1    2    0    0 -0.54435337537E+02  0.11923824935E+03 -0.49401597406E+03  0.52616740316E+03  0.12497754777E+03 0.  0.
         25    2    1    2    0    0  0.54435337537E+02 -0.11923824935E+03 -0.56115538318E+03  0.58965946130E+03  0.12498780002E+03 0.  0.
          5    1    4    4  502    0  0.78734533677E+01 -0.12233051081E+03 -0.48454698368E+03  0.49983458718E+03  0.47000000000E+01 0. -1.
         -5    1    4    4    0  502  0.46561884169E+02  0.30922614656E+01 -0.76608399492E+02  0.89824874122E+02  0.47000000000E+01 0. -1.
          5    1    3    3  503    0 -0.33890005852E+02  0.10320648823E+03 -0.17481604361E+03  0.20587095670E+03  0.47000000000E+01 0. -1.
         -5    1    3    3    0  503 -0.20545331685E+02  0.16031761116E+02 -0.31919993045E+03  0.32029644646E+03  0.47000000000E+01 0. -1.
<mgrwt>
<rscale>  0 0.18111398E+03</rscale>
<asrwt>0</asrwt>
<pdfrwt beam="1">  1        5 0.46658091E-02 0.18111575E+03</pdfrwt>
<pdfrwt beam="2">  1       -5 0.16699983E+00 0.18111575E+03</pdfrwt>
<totfact> 0.47481772E+01</totfact>
</mgrwt>
</event>
<event>
 8    1  0.3754098E-007  0.1534213E+03  0.7546771E-02  0.1196332E+00
          5   -1    0    0  501    0  0.00000000000E+00  0.00000000000E+00  0.72123884365E+03  0.72125415742E+03  0.47000000000E+01 0.  1.
         -5   -1    0    0    0  501 -0.00000000000E+00 -0.00000000000E+00 -0.12296618444E+03  0.12305597310E+03  0.47000000000E+01 0.  1.
         25    2    1    2    0    0  0.73279290070E+02  0.50435665318E+02 -0.62721701297E+02  0.16574427084E+03  0.12499416312E+03 0.  0.
         25    2    1    2    0    0 -0.73279290070E+02 -0.50435665318E+02  0.66099436051E+03  0.67856585968E+03  0.12499788239E+03 0.  0.
          5    1    3    3  502    0  0.76689390960E+02 -0.22631216339E+02 -0.31286348642E+02  0.85990466042E+02  0.47000000000E+01 0.  1.
         -5    1    3    3    0  502 -0.34101008902E+01  0.73066881657E+02 -0.31435352655E+02  0.79753804797E+02  0.47000000000E+01 0.  1.
          5    1    4    4  503    0 -0.26938291854E+02  0.32096406309E+02  0.85625646491E+02  0.95444707569E+02  0.47000000000E+01 0. -1.
         -5    1    4    4    0  503 -0.46340998216E+02 -0.82532071627E+02  0.57536871402E+03  0.58312115211E+03  0.47000000000E+01 0. -1.
<mgrwt>
<rscale>  0 0.15342050E+03</rscale>
<asrwt>0</asrwt>
<pdfrwt beam="1">  1        5 0.11096790E+00 0.15342125E+03</pdfrwt>
<pdfrwt beam="2">  1       -5 0.18925960E-01 0.15342125E+03</pdfrwt>
<totfact> 0.11686516E+01</totfact>
</mgrwt>
</event>
<event>
 8    1  0.3754098E-007  0.1526131E+03  0.7546771E-02  0.1197302E+00
          5   -1    0    0  501    0  0.00000000000E+00  0.00000000000E+00  0.31681326766E+03  0.31684812855E+03  0.47000000000E+01 0. -1.
         -5   -1    0    0    0  501 -0.00000000000E+00 -0.00000000000E+00 -0.74634532368E+02  0.74782373737E+02  0.47000000000E+01 0. -1.
         25    2    1    2    0    0 -0.24225930709E+02 -0.84129335265E+02  0.95890949211E+02  0.18022831470E+03  0.12499012165E+03 0.  0.
         25    2    1    2    0    0  0.24225930709E+02  0.84129335265E+02  0.14628778608E+03  0.21140218758E+03  0.12500451107E+03 0.  0.
          5    1    4    4  502    0  0.57383197467E+01 -0.20764845417E+02 -0.83464486323E+01  0.23576690257E+02  0.47000000000E+01 0. -1.
         -5    1    4    4    0  502  0.18487610962E+02  0.10489418068E+03  0.15463423471E+03  0.18782549732E+03  0.47000000000E+01 0. -1.
          5    1    3    3  503    0 -0.66098481726E+02 -0.70365351992E+02  0.95532715113E+02  0.13590026381E+03  0.47000000000E+01 0.  1.
         -5    1    3    3    0  503  0.41872551017E+02 -0.13763983273E+02  0.35823409774E+00  0.44328050892E+02  0.47000000000E+01 0.  1.
<mgrwt>
<rscale>  0 0.15261019E+03</rscale>
<asrwt>0</asrwt>
<pdfrwt beam="1">  1        5 0.48754556E-01 0.15261313E+03</pdfrwt>
<pdfrwt beam="2">  1       -5 0.11496290E-01 0.15261313E+03</pdfrwt>
<totfact> 0.18917853E+02</totfact>
</mgrwt>
</event>
<event>
 8    1  0.3754098E-007  0.1606844E+03  0.7546771E-02  0.1187927E+00
         -5   -1    0    0    0  501 -0.00000000000E+00  0.00000000000E+00  0.12210205014E+03  0.12219247378E+03  0.47000000000E+01 0. -1.
          5   -1    0    0  501    0  0.00000000000E+00 -0.00000000000E+00 -0.25544426604E+03  0.25548750077E+03  0.47000000000E+01 0. -1.
         25    2    1    2    0    0 -0.97701860917E+02 -0.25471052657E+02  0.11848312269E+02  0.16111644255E+03  0.12499478952E+03 0.  0.
         25    2    1    2    0    0  0.97701860917E+02  0.25471052657E+02 -0.14519052817E+03  0.21656353200E+03  0.12500018309E+03 0.  0.
          5    1    4    4  502    0  0.71496938826E+02 -0.44717983914E+02 -0.89746510756E+02  0.12323975227E+03  0.47000000000E+01 0. -1.
         -5    1    4    4    0  502  0.26204922091E+02  0.70189036571E+02 -0.55444017412E+02  0.93323779732E+02  0.47000000000E+01 0. -1.
          5    1    3    3  503    0 -0.42468891570E+02 -0.46463245894E+02  0.58209031498E+02  0.85865134473E+02  0.47000000000E+01 0.  1.
         -5    1    3    3    0  503 -0.55232969347E+02  0.20992193237E+02 -0.46360719229E+02  0.75251308077E+02  0.47000000000E+01 0.  1.
<mgrwt>
<rscale>  0 0.16068334E+03</rscale>
<asrwt>0</asrwt>
<pdfrwt beam="2">  1        5 0.39309399E-01 0.16068439E+03</pdfrwt>
<pdfrwt beam="1">  1       -5 0.18795212E-01 0.16068439E+03</pdfrwt>
<totfact> 0.12352262E+02</totfact>
</mgrwt>
</event>
<event>
 8    1  0.3754098E-007  0.1507037E+03  0.7546771E-02  0.1199613E+00
         -5   -1    0    0    0  501 -0.00000000000E+00  0.00000000000E+00  0.71857789642E+03  0.71859326690E+03  0.47000000000E+01 0. -1.
          5   -1    0    0  501    0  0.00000000000E+00 -0.00000000000E+00 -0.33368070210E+02  0.33697449600E+02  0.47000000000E+01 0. -1.
         25    2    1    2    0    0 -0.59601005386E+01 -0.83971245498E+02  0.43312724518E+03  0.45859488008E+03  0.12499344243E+03 0.  0.
         25    2    1    2    0    0  0.59601005386E+01  0.83971245498E+02  0.25208258103E+03  0.29369583641E+03  0.12499969519E+03 0.  0.
          5    1    4    4  502    0 -0.42002188313E+02  0.38455674909E+02  0.35674878284E+02  0.67363266670E+02  0.47000000000E+01 0. -1.
         -5    1    4    4    0  502  0.47962288852E+02  0.45515570588E+02  0.21640770275E+03  0.22633256974E+03  0.47000000000E+01 0. -1.
          5    1    3    3  503    0  0.87706144381E+01  0.14646725303E+02  0.41909486791E+01  0.18196271336E+02  0.47000000000E+01 0.  1.
         -5    1    3    3    0  503 -0.14730714977E+02 -0.98617970800E+02  0.42893629650E+03  0.44039860875E+03  0.47000000000E+01 0.  1.
<mgrwt>
<rscale>  0 0.15070244E+03</rscale>
<asrwt>0</asrwt>
<pdfrwt beam="2">  1        5 0.51600688E-02 0.15070374E+03</pdfrwt>
<pdfrwt beam="1">  1       -5 0.11057696E+00 0.15070374E+03</pdfrwt>
<totfact> 0.11427373E+02</totfact>
</mgrwt>
</event>
<event>
 8    1  0.3754098E-007  0.1306257E+03  0.7546771E-02  0.1226544E+00
          5   -1    0    0  501    0  0.00000000000E+00  0.00000000000E+00  0.13121387457E+03  0.13129802313E+03  0.47000000000E+01 0. -1.
         -5   -1    0    0    0  501 -0.00000000000E+00 -0.00000000000E+00 -0.13021675861E+03  0.13030155112E+03  0.47000000000E+01 0. -1.
         25    2    1    2    0    0  0.13952162787E+02  0.35136531547E+02 -0.65785622610E+01  0.13075435350E+03  0.12499673909E+03 0.  0.
         25    2    1    2    0    0 -0.13952162787E+02 -0.35136531547E+02  0.75756782161E+01  0.13084522075E+03  0.12503536378E+03 0.  0.
          5    1    4    4  502    0 -0.66048752347E+02 -0.41084633810E+02  0.26688798161E+01  0.77971775287E+02  0.47000000000E+01 0. -1.
         -5    1    4    4    0  502  0.52096589561E+02  0.59481022632E+01  0.49067984000E+01  0.52873445461E+02  0.47000000000E+01 0. -1.
          5    1    3    3  503    0 -0.52710363298E+02  0.70135714619E+01  0.14373312246E+02  0.55283403373E+02  0.47000000000E+01 0. -1.
         -5    1    3    3    0  503  0.66662526084E+02  0.28122960085E+02 -0.20951874507E+02  0.75470950128E+02  0.47000000000E+01 0. -1.
<mgrwt>
<rscale>  0 0.13061648E+03</rscale>
<asrwt>0</asrwt>
<pdfrwt beam="1">  1        5 0.20199745E-01 0.13062573E+03</pdfrwt>
<pdfrwt beam="2">  1       -5 0.20046343E-01 0.13062573E+03</pdfrwt>
<totfact> 0.37455730E+02</totfact>
</mgrwt>
</event>
<event>
 8    1  0.3754098E-007  0.1532399E+03  0.7546771E-02  0.1196549E+00
         -5   -1    0    0    0  501 -0.00000000000E+00  0.00000000000E+00  0.57168101564E+02  0.57360978342E+02  0.47000000000E+01 0. -1.
          5   -1    0    0  501    0  0.00000000000E+00 -0.00000000000E+00 -0.41101733592E+03  0.41104420739E+03  0.47000000000E+01 0. -1.
         25    2    1    2    0    0  0.81574165953E+02 -0.34684394385E+02 -0.16444149711E+03  0.22477424511E+03  0.12500041412E+03 0.  0.
         25    2    1    2    0    0 -0.81574165953E+02  0.34684394385E+02 -0.18940773724E+03  0.24363094061E+03  0.12499356997E+03 0.  0.
          5    1    3    3  502    0  0.11516784779E+03 -0.25651632473E+02 -0.12423539481E+03  0.17140059141E+03  0.47000000000E+01 0. -1.
         -5    1    3    3    0  502 -0.33593681836E+02 -0.90327619120E+01 -0.40206102299E+02  0.53373653699E+02  0.47000000000E+01 0. -1.
          5    1    4    4  503    0 -0.40958835164E+02 -0.36023432092E+02 -0.13449132750E+03  0.14520785450E+03  0.47000000000E+01 0.  1.
         -5    1    4    4    0  503 -0.40615330789E+02  0.70707826477E+02 -0.54916409745E+02  0.98423086110E+02  0.47000000000E+01 0.  1.
<mgrwt>
<rscale>  0 0.15323847E+03</rscale>
<asrwt>0</asrwt>
<pdfrwt beam="2">  1        5 0.63250338E-01 0.15323986E+03</pdfrwt>
<pdfrwt beam="1">  1       -5 0.88119965E-02 0.15323986E+03</pdfrwt>
<totfact> 0.17176915E+02</totfact>
</mgrwt>
</event>
<event>
 8    1  0.3754098E-007  0.1318519E+03  0.7546771E-02  0.1224735E+00
          5   -1    0    0  501    0  0.00000000000E+00  0.00000000000E+00  0.71082708856E+03  0.71084262663E+03  0.47000000000E+01 0. -1.
         -5   -1    0    0    0  501 -0.00000000000E+00 -0.00000000000E+00 -0.25555344155E+02  0.25983949178E+02  0.47000000000E+01 0. -1.
         25    2    1    2    0    0  0.40930477304E+02  0.93107839854E+01  0.25900246869E+03  0.29063242236E+03  0.12499172561E+03 0.  0.
         25    2    1    2    0    0 -0.40930477304E+02 -0.93107839854E+01  0.42626927572E+03  0.44619415345E+03  0.12498692923E+03 0.  0.
          5    1    3    3  502    0  0.49390885570E+01  0.25547351275E+02  0.24795833255E+03  0.24936416429E+03  0.47000000000E+01 0. -1.
         -5    1    3    3    0  502  0.35991388747E+02 -0.16236567290E+02  0.11044136146E+02  0.41268258075E+02  0.47000000000E+01 0. -1.
          5    1    4    4  503    0  0.44119459658E+01  0.50076910522E+02  0.24361751808E+03  0.24879458866E+03  0.47000000000E+01 0. -1.
         -5    1    4    4    0  503 -0.45342423270E+02 -0.59387694508E+02  0.18265175764E+03  0.19739956478E+03  0.47000000000E+01 0. -1.
<mgrwt>
<rscale>  0 0.13185077E+03</rscale>
<asrwt>0</asrwt>
<pdfrwt beam="1">  1        5 0.10939219E+00 0.13185191E+03</pdfrwt>
<pdfrwt beam="2">  1       -5 0.39657559E-02 0.13185191E+03</pdfrwt>
<totfact> 0.17372458E+02</totfact>
</mgrwt>
</event>
<event>
 8    1  0.3754098E-007  0.1584280E+03  0.7546771E-02  0.1190486E+00
         -5   -1    0    0    0  501 -0.00000000000E+00  0.00000000000E+00  0.11439296420E+03  0.11448947663E+03  0.47000000000E+01 0. -1.
          5   -1    0    0  501    0  0.00000000000E+00 -0.00000000000E+00 -0.22076020765E+03  0.22081023364E+03  0.47000000000E+01 0. -1.
         25    2    1    2    0    0  0.57789901209E+02  0.78319199717E+02 -0.39033545770E+02  0.16315654188E+03  0.12499147866E+03 0.  0.
         25    2    1    2    0    0 -0.57789901209E+02 -0.78319199717E+02 -0.67333697681E+02  0.17214316839E+03  0.12500349537E+03 0.  0.
          5    1    4    4  502    0  0.21292337522E+02 -0.31853867695E+02  0.21653910110E+02  0.44260754030E+02  0.47000000000E+01 0.  1.
         -5    1    4    4    0  502 -0.79082238730E+02 -0.46465332022E+02 -0.88987607791E+02  0.12788241436E+03  0.47000000000E+01 0.  1.
          5    1    3    3  503    0 -0.23909096486E+02  0.79747908635E+01 -0.48468863748E+02  0.54832134165E+02  0.47000000000E+01 0. -1.
         -5    1    3    3    0  503  0.81698997694E+02  0.70344408854E+02  0.94353179777E+01  0.10832440771E+03  0.47000000000E+01 0. -1.
<mgrwt>
<rscale>  0 0.15842567E+03</rscale>
<asrwt>0</asrwt>
<pdfrwt beam="2">  1        5 0.33974381E-01 0.15842804E+03</pdfrwt>
<pdfrwt beam="1">  1       -5 0.17610190E-01 0.15842804E+03</pdfrwt>
<totfact> 0.18634304E+02</totfact>
</mgrwt>
</event>
<event>
 8    1  0.3754098E-007  0.1278331E+03  0.7546771E-02  0.1230708E+00
         -5   -1    0    0    0  501 -0.00000000000E+00  0.00000000000E+00  0.91621478130E+02  0.91741949264E+02  0.47000000000E+01 0.  1.
          5   -1    0    0  501    0  0.00000000000E+00 -0.00000000000E+00 -0.31512811070E+03  0.31516315799E+03  0.47000000000E+01 0.  1.
         25    2    1    2    0    0  0.15316150305E+02  0.21925450522E+02  0.22378607949E+02  0.12977716092E+03  0.12500399818E+03 0.  0.
         25    2    1    2    0    0 -0.15316150305E+02 -0.21925450522E+02 -0.24588524052E+03  0.27712794633E+03  0.12500014917E+03 0.  0.
          5    1    3    3  502    0  0.15666253487E+02  0.62562385131E+01 -0.51350413639E+02  0.54254280933E+02  0.47000000000E+01 0.  1.
         -5    1    3    3    0  502 -0.35010318179E+00  0.15669212009E+02  0.73729021588E+02  0.75522879988E+02  0.47000000000E+01 0.  1.
          5    1    4    4  503    0 -0.93891516468E+01 -0.22393661889E+02  0.57385695323E+01  0.25390026423E+02  0.47000000000E+01 0.  1.
         -5    1    4    4    0  503 -0.59269986586E+01  0.46821136732E+00 -0.25162381005E+03  0.25173791991E+03  0.47000000000E+01 0.  1.
<mgrwt>
<rscale>  0 0.12783219E+03</rscale>
<asrwt>0</asrwt>
<pdfrwt beam="2">  1        5 0.48493210E-01 0.12783313E+03</pdfrwt>
<pdfrwt beam="1">  1       -5 0.14107575E-01 0.12783313E+03</pdfrwt>
<totfact> 0.12524268E+02</totfact>
</mgrwt>
</event>
<event>
 8    1  0.3754098E-007  0.2009603E+03  0.7546771E-02  0.1148932E+00
          5   -1    0    0  501    0  0.00000000000E+00  0.00000000000E+00  0.37490834660E+03  0.37493780598E+03  0.47000000000E+01 0. -1.
         -5   -1    0    0    0  501 -0.00000000000E+00 -0.00000000000E+00 -0.11123309007E+03  0.11133234178E+03  0.47000000000E+01 0. -1.
         25    2    1    2    0    0  0.13567717927E+03  0.79700742053E+02  0.88127182303E+02  0.21943439539E+03  0.12499819342E+03 0.  0.
         25    2    1    2    0    0 -0.13567717927E+03 -0.79700742053E+02  0.17554807423E+03  0.26683575237E+03  0.12499474837E+03 0.  0.
          5    1    3    3  502    0  0.14794183799E+03  0.80163266864E+02  0.44845667196E+02  0.17420149439E+03  0.47000000000E+01 0. -1.
         -5    1    3    3    0  502 -0.12264658716E+02 -0.46252481119E+00  0.43281515108E+02  0.45232900997E+02  0.47000000000E+01 0. -1.
          5    1    4    4  503    0 -0.87020008910E+01  0.16047079317E+02  0.77927835301E+02  0.80175252346E+02  0.47000000000E+01 0. -1.
         -5    1    4    4    0  503 -0.12697517838E+03 -0.95747821369E+02  0.97620238930E+02  0.18666050003E+03  0.47000000000E+01 0. -1.
<mgrwt>
<rscale>  0 0.20095979E+03</rscale>
<asrwt>0</asrwt>
<pdfrwt beam="1">  1        5 0.57688108E-01 0.20096033E+03</pdfrwt>
<pdfrwt beam="2">  1       -5 0.17122684E-01 0.20096033E+03</pdfrwt>
<totfact> 0.69554923E+01</totfact>
</mgrwt>
</event>
<event>
 8    1  0.3754098E-007  0.1316718E+03  0.7546771E-02  0.1224996E+00
         -5   -1    0    0    0  501 -0.00000000000E+00  0.00000000000E+00  0.67985516150E+03  0.67987140742E+03  0.47000000000E+01 0.  1.
          5   -1    0    0  501    0  0.00000000000E+00 -0.00000000000E+00 -0.32133982103E+02  0.32475880370E+02  0.47000000000E+01 0.  1.
         25    2    1    2    0    0 -0.40839987000E+02  0.67311128372E+01  0.48746992702E+03  0.50493967810E+03  0.12499574535E+03 0.  0.
         25    2    1    2    0    0  0.40839987000E+02 -0.67311128372E+01  0.16025125238E+03  0.20740760969E+03  0.12499696095E+03 0.  0.
          5    1    3    3  502    0  0.34104977319E+01  0.26767734623E+02  0.42396505128E+03  0.42484891176E+03  0.47000000000E+01 0. -1.
         -5    1    3    3    0  502 -0.44250484732E+02 -0.20036621786E+02  0.63504875734E+02  0.80090766344E+02  0.47000000000E+01 0. -1.
          5    1    4    4  503    0  0.55206764982E+02  0.58134176643E+01  0.10896003914E+02  0.56766148593E+02  0.47000000000E+01 0.  1.
         -5    1    4    4    0  503 -0.14366777983E+02 -0.12544530501E+02  0.14935524847E+03  0.15064146109E+03  0.47000000000E+01 0.  1.
<mgrwt>
<rscale>  0 0.13167147E+03</rscale>
<asrwt>0</asrwt>
<pdfrwt beam="2">  1        5 0.49712391E-02 0.13167176E+03</pdfrwt>
<pdfrwt beam="1">  1       -5 0.10462065E+00 0.13167176E+03</pdfrwt>
<totfact> 0.13359426E+02</totfact>
</mgrwt>
</event>
<event>
 8    1  0.3754098E-007  0.1442159E+03  0.7546771E-02  0.1207766E+00
          5   -1    0    0  501    0  0.00000000000E+00  0.00000000000E+00  0.22074480440E+03  0.22079483389E+03  0.47000000000E+01 0.  1.
         -5   -1    0    0    0  501 -0.00000000000E+00 -0.00000000000E+00 -0.16891768632E+03  0.16898306055E+03  0.47000000000E+01 0.  1.
         25    2    1    2    0    0 -0.68299759427E+02  0.22545391108E+02 -0.10373710425E+03  0.17765029121E+03  0.12500034948E+03 0.  0.
         25    2    1    2    0    0  0.68299759427E+02 -0.22545391108E+02  0.15556422233E+03  0.21212760323E+03  0.12499896392E+03 0.  0.
          5    1    4    4  502    0  0.44694278658E+02  0.44841807048E+02  0.11086962719E+03  0.12775965888E+03  0.47000000000E+01 0. -1.
         -5    1    4    4    0  502  0.23605480769E+02 -0.67387198156E+02  0.44694595141E+02  0.84367944342E+02  0.47000000000E+01 0. -1.
          5    1    3    3  503    0 -0.69713305063E+01 -0.48393940290E+02 -0.25006225695E+02  0.55117821341E+02  0.47000000000E+01 0. -1.
         -5    1    3    3    0  503 -0.61328428921E+02  0.70939331398E+02 -0.78730878559E+02  0.12253246987E+03  0.47000000000E+01 0. -1.
<mgrwt>
<rscale>  0 0.14421565E+03</rscale>
<asrwt>0</asrwt>
<pdfrwt beam="1">  1        5 0.33969616E-01 0.14421595E+03</pdfrwt>
<pdfrwt beam="2">  1       -5 0.25996214E-01 0.14421595E+03</pdfrwt>
<totfact> 0.86807908E+01</totfact>
</mgrwt>
</event>
<event>
 8    1  0.3754098E-007  0.1639746E+03  0.7546771E-02  0.1184287E+00
          5   -1    0    0  501    0  0.00000000000E+00  0.00000000000E+00  0.27697163137E+03  0.27701150623E+03  0.47000000000E+01 0.  1.
         -5   -1    0    0    0  501 -0.00000000000E+00 -0.00000000000E+00 -0.97035426024E+02  0.97149183752E+02  0.47000000000E+01 0.  1.
         25    2    1    2    0    0 -0.10560824084E+03  0.10310061207E+02  0.84759614693E+02  0.18456573986E+03  0.12498368755E+03 0.  0.
         25    2    1    2    0    0  0.10560824084E+03 -0.10310061207E+02  0.95176590654E+02  0.18959495012E+03  0.12501305455E+03 0.  0.
          5    1    4    4  502    0  0.10407695843E+03 -0.46240373859E+02  0.10168301502E+03  0.15274721272E+03  0.47000000000E+01 0. -1.
         -5    1    4    4    0  502  0.15312824041E+01  0.35930312652E+02 -0.65064243694E+01  0.36847737395E+02  0.47000000000E+01 0. -1.
          5    1    3    3  503    0 -0.11803162953E+03 -0.28797779439E+02  0.72155047797E+02  0.14138323307E+03  0.47000000000E+01 0.  1.
         -5    1    3    3    0  503  0.12423388694E+02  0.39107840645E+02  0.12604566896E+02  0.43182506796E+02  0.47000000000E+01 0.  1.
<mgrwt>
<rscale>  0 0.16396898E+03</rscale>
<asrwt>0</asrwt>
<pdfrwt beam="1">  1        5 0.42622837E-01 0.16397458E+03</pdfrwt>
<pdfrwt beam="2">  1       -5 0.14940345E-01 0.16397458E+03</pdfrwt>
<totfact> 0.16035560E+02</totfact>
</mgrwt>
</event>
<event>
 8    1  0.3754098E-007  0.1457434E+03  0.7546771E-02  0.1205820E+00
          5   -1    0    0  501    0  0.00000000000E+00  0.00000000000E+00  0.11783040869E+04  0.11783134605E+04  0.47000000000E+01 0.  1.
         -5   -1    0    0    0  501 -0.00000000000E+00 -0.00000000000E+00 -0.17998315096E+02  0.18601864054E+02  0.47000000000E+01 0.  1.
         25    2    1    2    0    0 -0.68483000691E+02  0.30358529707E+02  0.50505086036E+03  0.52565911589E+03  0.12501829009E+03 0.  0.
         25    2    1    2    0    0  0.68483000691E+02 -0.30358529707E+02  0.65525491142E+03  0.67125620864E+03  0.12495734070E+03 0.  0.
          5    1    3    3  502    0 -0.47232221362E+02  0.63633820540E+02  0.45431778661E+03  0.46120156882E+03  0.47000000000E+01 0. -1.
         -5    1    3    3    0  502 -0.21250779329E+02 -0.33275290833E+02  0.50733073750E+02  0.64457547069E+02  0.47000000000E+01 0. -1.
          5    1    4    4  503    0  0.19458666032E+02 -0.74098953704E+02  0.41990540384E+03  0.42686289696E+03  0.47000000000E+01 0.  1.
         -5    1    4    4    0  503  0.49024334658E+02  0.43740423998E+02  0.23534950758E+03  0.24439331169E+03  0.47000000000E+01 0.  1.
<mgrwt>
<rscale>  0 0.14573031E+03</rscale>
<asrwt>0</asrwt>
<pdfrwt beam="1">  1        5 0.18132483E+00 0.14574339E+03</pdfrwt>
<pdfrwt beam="2">  1       -5 0.28161175E-02 0.14574339E+03</pdfrwt>
<totfact> 0.80376869E+01</totfact>
</mgrwt>
</event>
<event>
 8    1  0.3754098E-007  0.1500726E+03  0.7546771E-02  0.1200384E+00
         -5   -1    0    0    0  501 -0.00000000000E+00  0.00000000000E+00  0.32605335288E+02  0.32942341890E+02  0.47000000000E+01 0.  1.
          5   -1    0    0  501    0  0.00000000000E+00 -0.00000000000E+00 -0.68707884926E+03  0.68709492438E+03  0.47000000000E+01 0.  1.
         25    2    1    2    0    0 -0.82422414137E+02 -0.10178989152E+02 -0.33391464091E+03  0.36608846736E+03  0.12499884939E+03 0.  0.
         25    2    1    2    0    0  0.82422414137E+02  0.10178989152E+02 -0.32055887307E+03  0.35394879891E+03  0.12499877988E+03 0.  0.
          5    1    4    4  502    0  0.35667923919E+01  0.57619312199E+02 -0.12219726520E+03  0.13522931919E+03  0.47000000000E+01 0. -1.
         -5    1    4    4    0  502  0.78855621745E+02 -0.47440323047E+02 -0.19836160786E+03  0.21871947971E+03  0.47000000000E+01 0. -1.
          5    1    3    3  503    0 -0.91294174583E+02 -0.36615912687E+02 -0.31953140280E+03  0.33436171843E+03  0.47000000000E+01 0. -1.
         -5    1    3    3    0  503  0.88717604460E+01  0.26436923535E+02 -0.14383238109E+02  0.31726748934E+02  0.47000000000E+01 0. -1.
<mgrwt>
<rscale>  0 0.15007256E+03</rscale>
<asrwt>0</asrwt>
<pdfrwt beam="2">  1        5 0.10573159E+00 0.15007258E+03</pdfrwt>
<pdfrwt beam="1">  1       -5 0.50433661E-02 0.15007258E+03</pdfrwt>
<totfact> 0.13252011E+02</totfact>
</mgrwt>
</event>
<event>
 8    1  0.3754098E-007  0.1372462E+03  0.7546771E-02  0.1217084E+00
         -5   -1    0    0    0  501 -0.00000000000E+00  0.00000000000E+00  0.57978206442E+02  0.58168397109E+02  0.47000000000E+01 0.  1.
          5   -1    0    0  501    0  0.00000000000E+00 -0.00000000000E+00 -0.32510389142E+03  0.32513786340E+03  0.47000000000E+01 0.  1.
         25    2    1    2    0    0  0.43601351586E+02 -0.36190152226E+02 -0.14396895758E+03  0.19890427897E+03  0.12500018588E+03 0.  0.
         25    2    1    2    0    0 -0.43601351586E+02  0.36190152226E+02 -0.12315672740E+03  0.18440198154E+03  0.12500282522E+03 0.  0.
          5    1    3    3  502    0  0.53435062952E+02  0.33634762958E+02 -0.46704204860E+02  0.78676400423E+02  0.47000000000E+01 0. -1.
         -5    1    3    3    0  502 -0.98337113661E+01 -0.69824915184E+02 -0.97264752717E+02  0.12022787855E+03  0.47000000000E+01 0. -1.
          5    1    4    4  503    0 -0.86470178308E+02  0.36510154712E+02 -0.80509193129E+02  0.12374935681E+03  0.47000000000E+01 0.  1.
         -5    1    4    4    0  503  0.42868826722E+02 -0.32000248606E+00 -0.42647534271E+02  0.60652624721E+02  0.47000000000E+01 0.  1.
<mgrwt>
<rscale>  0 0.13724557E+03</rscale>
<asrwt>0</asrwt>
<pdfrwt beam="2">  1        5 0.50033225E-01 0.13724617E+03</pdfrwt>
<pdfrwt beam="1">  1       -5 0.89369676E-02 0.13724617E+03</pdfrwt>
<totfact> 0.26852079E+02</totfact>
</mgrwt>
</event>
<event>
 8    1  0.3754098E-007  0.1686582E+03  0.7546771E-02  0.1179256E+00
          5   -1    0    0  501    0  0.00000000000E+00  0.00000000000E+00  0.93345246371E+03  0.93346429606E+03  0.47000000000E+01 0. -1.
         -5   -1    0    0    0  501 -0.00000000000E+00 -0.00000000000E+00 -0.69809830987E+02  0.69967867642E+02  0.47000000000E+01 0. -1.
         25    2    1    2    0    0  0.63637980529E+01  0.11304697791E+03  0.55015402799E+02  0.17740427087E+03  0.12500185454E+03 0.  0.
         25    2    1    2    0    0 -0.63637980529E+01 -0.11304697791E+03  0.80862722993E+03  0.82602789282E+03  0.12499586235E+03 0.  0.
          5    1    4    4  502    0 -0.15242018996E+02  0.25844154096E+01  0.42308973559E+03  0.42339817277E+03  0.47000000000E+01 0. -1.
         -5    1    4    4    0  502  0.88782209428E+01 -0.11563139332E+03  0.38553749434E+03  0.40262972005E+03  0.47000000000E+01 0. -1.
          5    1    3    3  503    0  0.52839758285E+02  0.88820956259E+02  0.31285700147E+01  0.10350401092E+03  0.47000000000E+01 0. -1.
         -5    1    3    3    0  503 -0.46475960232E+02  0.24226021654E+02  0.51886832785E+02  0.73900259953E+02  0.47000000000E+01 0. -1.
<mgrwt>
<rscale>  0 0.16865707E+03</rscale>
<asrwt>0</asrwt>
<pdfrwt beam="1">  1        5 0.14362113E+00 0.16865818E+03</pdfrwt>
<pdfrwt beam="2">  1       -5 0.10753041E-01 0.16865818E+03</pdfrwt>
<totfact> 0.17041348E+01</totfact>
</mgrwt>
</event>
<event>
 8    1  0.3754098E-007  0.1383206E+03  0.7546771E-02  0.1215609E+00
         -5   -1    0    0    0  501 -0.00000000000E+00  0.00000000000E+00  0.71672718755E+02  0.71826656707E+02  0.47000000000E+01 0.  1.
          5   -1    0    0  501    0  0.00000000000E+00 -0.00000000000E+00 -0.33538018392E+03  0.33541311508E+03  0.47000000000E+01 0.  1.
         25    2    1    2    0    0  0.47281982434E+02 -0.35687848157E+02 -0.39583955642E+02  0.14387316085E+03  0.12499355384E+03 0.  0.
         25    2    1    2    0    0 -0.47281982434E+02  0.35687848157E+02 -0.22412350952E+03  0.26336661093E+03  0.12498566263E+03 0.  0.
          5    1    4    4  502    0 -0.54420041391E+02  0.59901561351E+02 -0.69963643070E+02  0.10708286188E+03  0.47000000000E+01 0. -1.
         -5    1    4    4    0  502  0.71380589574E+01 -0.24213713194E+02 -0.15415986645E+03  0.15628374905E+03  0.47000000000E+01 0. -1.
          5    1    3    3  503    0 -0.19813422175E+02 -0.62578940442E+02 -0.21220292469E+02  0.69145399685E+02  0.47000000000E+01 0.  1.
         -5    1    3    3    0  503  0.67095404609E+02  0.26891092285E+02 -0.18363663173E+02  0.74727761167E+02  0.47000000000E+01 0.  1.
<mgrwt>
<rscale>  0 0.13831885E+03</rscale>
<asrwt>0</asrwt>
<pdfrwt beam="2">  1        5 0.51611325E-01 0.13832063E+03</pdfrwt>
<pdfrwt beam="1">  1       -5 0.11040947E-01 0.13832063E+03</pdfrwt>
<totfact> 0.17429693E+02</totfact>
</mgrwt>
</event>
<event>
 8    1  0.3754098E-007  0.1584641E+03  0.7546771E-02  0.1190445E+00
          5   -1    0    0  501    0  0.00000000000E+00  0.00000000000E+00  0.69542207964E+02  0.69700851418E+02  0.47000000000E+01 0. -1.
         -5   -1    0    0    0  501 -0.00000000000E+00 -0.00000000000E+00 -0.36638994583E+03  0.36642009006E+03  0.47000000000E+01 0. -1.
         25    2    1    2    0    0 -0.81973145898E+02 -0.52594673045E+02 -0.17613201948E+03  0.23692480092E+03  0.12500030689E+03 0.  0.
         25    2    1    2    0    0  0.81973145898E+02  0.52594673045E+02 -0.12071571838E+03  0.19919614057E+03  0.12498408487E+03 0.  0.
          5    1    3    3  502    0 -0.80262508918E+02 -0.82858286456E+02 -0.17022867989E+03  0.20568777171E+03  0.47000000000E+01 0.  1.
         -5    1    3    3    0  502 -0.17106369797E+01  0.30263613411E+02 -0.59033395899E+01  0.31237029210E+02  0.47000000000E+01 0.  1.
          5    1    4    4  503    0  0.10636340704E+03  0.16804867931E+02 -0.11067712054E+03  0.15448978268E+03  0.47000000000E+01 0.  1.
         -5    1    4    4    0  503 -0.24390261139E+02  0.35789805114E+02 -0.10038597847E+02  0.44706357885E+02  0.47000000000E+01 0.  1.
<mgrwt>
<rscale>  0 0.15846091E+03</rscale>
<asrwt>0</asrwt>
<pdfrwt beam="1">  1        5 0.10713324E-01 0.15846411E+03</pdfrwt>
<pdfrwt beam="2">  1       -5 0.56382205E-01 0.15846411E+03</pdfrwt>
<totfact> 0.15885590E+02</totfact>
</mgrwt>
</event>
<event>
 8    1  0.3754098E-007  0.1292281E+03  0.7546771E-02  0.1228608E+00
          5   -1    0    0  501    0  0.00000000000E+00  0.00000000000E+00  0.16055237693E+03  0.16062115595E+03  0.47000000000E+01 0. -1.
         -5   -1    0    0    0  501 -0.00000000000E+00 -0.00000000000E+00 -0.13136122588E+03  0.13144528012E+03  0.47000000000E+01 0. -1.
         25    2    1    2    0    0 -0.17120644113E+02 -0.27954313761E+02 -0.52173034709E+02  0.13936255318E+03  0.12500134225E+03 0.  0.
         25    2    1    2    0    0  0.17120644113E+02  0.27954313761E+02  0.81364185757E+02  0.15270388289E+03  0.12499513996E+03 0.  0.
          5    1    4    4  502    0 -0.14349827182E+02  0.58223121574E+02 -0.10758828327E+00  0.60149405660E+02  0.47000000000E+01 0. -1.
         -5    1    4    4    0  502  0.31470471295E+02 -0.30268807813E+02  0.81471774041E+02  0.92554477230E+02  0.47000000000E+01 0. -1.
          5    1    3    3  503    0  0.65809154469E+01 -0.28196960853E+02 -0.89897593917E+02  0.94562383861E+02  0.47000000000E+01 0. -1.
         -5    1    3    3    0  503 -0.23701559560E+02  0.24264709217E+00  0.37724559208E+02  0.44800169314E+02  0.47000000000E+01 0. -1.
<mgrwt>
<rscale>  0 0.12922658E+03</rscale>
<asrwt>0</asrwt>
<pdfrwt beam="1">  1        5 0.24712122E-01 0.12922808E+03</pdfrwt>
<pdfrwt beam="2">  1       -5 0.20221176E-01 0.12922808E+03</pdfrwt>
<totfact> 0.25085236E+02</totfact>
</mgrwt>
</event>
<event>
 8    1  0.3754098E-007  0.1268817E+03  0.7546771E-02  0.1232158E+00
         -5   -1    0    0    0  501 -0.00000000000E+00  0.00000000000E+00  0.41046547911E+03  0.41049238671E+03  0.47000000000E+01 0.  1.
          5   -1    0    0  501    0  0.00000000000E+00 -0.00000000000E+00 -0.39053746290E+02  0.39335544985E+02  0.47000000000E+01 0.  1.
         25    2    1    2    0    0 -0.17186878726E+01 -0.21688475903E+02  0.18421591510E+03  0.22368384515E+03  0.12500246129E+03 0.  0.
         25    2    1    2    0    0  0.17186878726E+01  0.21688475903E+02  0.18719581772E+03  0.22614408654E+03  0.12500211931E+03 0.  0.
          5    1    3    3  502    0  0.45936404637E+02 -0.40414266816E+02  0.47442888373E+02  0.77565352383E+02  0.47000000000E+01 0.  1.
         -5    1    3    3    0  502 -0.47655092509E+02  0.18725790913E+02  0.13677302673E+03  0.14611849277E+03  0.47000000000E+01 0.  1.
          5    1    4    4  503    0 -0.17344414823E+02 -0.22820159949E+02 -0.35778688124E+01  0.29265672227E+02  0.47000000000E+01 0.  1.
         -5    1    4    4    0  503  0.19063102696E+02  0.44508635852E+02  0.19077368653E+03  0.19687841431E+03  0.47000000000E+01 0.  1.
<mgrwt>
<rscale>  0 0.12688159E+03</rscale>
<asrwt>0</asrwt>
<pdfrwt beam="2">  1        5 0.60320155E-02 0.12688167E+03</pdfrwt>
<pdfrwt beam="1">  1       -5 0.63172280E-01 0.12688167E+03</pdfrwt>
<totfact> 0.30818143E+02</totfact>
</mgrwt>
</event>
<event>
 8    1  0.3754098E-007  0.1301237E+03  0.7546771E-02  0.1227273E+00
          5   -1    0    0  501    0  0.00000000000E+00  0.00000000000E+00  0.91549980655E+03  0.91551187092E+03  0.47000000000E+01 0.  1.
         -5   -1    0    0    0  501 -0.00000000000E+00 -0.00000000000E+00 -0.18803187703E+02  0.19381688982E+02  0.47000000000E+01 0.  1.
         25    2    1    2    0    0 -0.18970639399E+02 -0.30781202720E+02  0.36483949973E+03  0.38734979022E+03  0.12499852729E+03 0.  0.
         25    2    1    2    0    0  0.18970639399E+02  0.30781202720E+02  0.53185711912E+03  0.54754376968E+03  0.12499926782E+03 0.  0.
          5    1    3    3  502    0  0.53979514288E+01  0.47438615861E+02  0.12791053480E+03  0.13661169448E+03  0.47000000000E+01 0.  1.
         -5    1    3    3    0  502 -0.24368590828E+02 -0.78219818581E+02  0.23692896492E+03  0.25073809574E+03  0.47000000000E+01 0.  1.
          5    1    4    4  503    0  0.34614433671E+02  0.46799623844E+02  0.10559357612E+03  0.12066671922E+03  0.47000000000E+01 0.  1.
         -5    1    4    4    0  503 -0.15643794271E+02 -0.16018421124E+02  0.42626354300E+03  0.42687705046E+03  0.47000000000E+01 0.  1.
<mgrwt>
<rscale>  0 0.13012355E+03</rscale>
<asrwt>0</asrwt>
<pdfrwt beam="1">  1        5 0.14089154E+00 0.13012373E+03</pdfrwt>
<pdfrwt beam="2">  1       -5 0.29382265E-02 0.13012373E+03</pdfrwt>
<totfact> 0.14698852E+02</totfact>
</mgrwt>
</event>
<event>
 8    1  0.3754098E-007  0.1334321E+03  0.7546771E-02  0.1222453E+00
          5   -1    0    0  501    0  0.00000000000E+00  0.00000000000E+00  0.13072896287E+02  0.13892106296E+02  0.47000000000E+01 0. -1.
         -5   -1    0    0    0  501 -0.00000000000E+00 -0.00000000000E+00 -0.13798796512E+04  0.13798876555E+04  0.47000000000E+01 0. -1.
         25    2    1    2    0    0  0.65700559135E+01 -0.46212241171E+02 -0.82894564865E+03  0.83961490789E+03  0.12499427293E+03 0.  0.
         25    2    1    2    0    0 -0.65700559135E+01  0.46212241171E+02 -0.53786110627E+03  0.55416485392E+03  0.12500151521E+03 0.  0.
          5    1    4    4  502    0 -0.42241490716E+02  0.49982737978E+02 -0.13943879463E+03  0.15410348822E+03  0.47000000000E+01 0.  1.
         -5    1    4    4    0  502  0.35671434802E+02 -0.37704968075E+01 -0.39842231164E+03  0.40006136569E+03  0.47000000000E+01 0.  1.
          5    1    3    3  503    0  0.12892472182E+02  0.42092769079E+02 -0.24299466265E+03  0.24699496579E+03  0.47000000000E+01 0.  1.
         -5    1    3    3    0  503 -0.63224162688E+01 -0.88305010250E+02 -0.58595098600E+03  0.59261994210E+03  0.47000000000E+01 0.  1.
<mgrwt>
<rscale>  0 0.13343037E+03</rscale>
<asrwt>0</asrwt>
<pdfrwt beam="1">  1        5 0.20748478E-02 0.13343206E+03</pdfrwt>
<pdfrwt beam="2">  1       -5 0.21235270E+00 0.13343206E+03</pdfrwt>
<totfact> 0.78459690E+01</totfact>
</mgrwt>
</event>
<event>
 8    1  0.3754098E-007  0.1343948E+03  0.7546771E-02  0.1221077E+00
          5   -1    0    0  501    0  0.00000000000E+00  0.00000000000E+00  0.12508442415E+03  0.12517269337E+03  0.47000000000E+01 0. -1.
         -5   -1    0    0    0  501 -0.00000000000E+00 -0.00000000000E+00 -0.15639265353E+03  0.15646326111E+03  0.47000000000E+01 0. -1.
         25    2    1    2    0    0  0.98151860028E+01  0.48384266304E+02 -0.54921985937E+02  0.14518395073E+03  0.12499831962E+03 0.  0.
         25    2    1    2    0    0 -0.98151860028E+01 -0.48384266304E+02  0.23613756562E+02  0.13645200375E+03  0.12499665886E+03 0.  0.
          5    1    4    4  502    0  0.31149255692E+02 -0.77670795233E+02  0.15068966486E+02  0.85159804563E+02  0.47000000000E+01 0.  1.
         -5    1    4    4    0  502 -0.40964441695E+02  0.29286528928E+02  0.85447900759E+01  0.51292199188E+02  0.47000000000E+01 0.  1.
          5    1    3    3  503    0 -0.31082565753E+02  0.76643301428E+02 -0.45006358135E+02  0.94276104184E+02  0.47000000000E+01 0.  1.
         -5    1    3    3    0  503  0.40897751756E+02 -0.28259035123E+02 -0.99156278020E+01  0.50907846542E+02  0.47000000000E+01 0.  1.
<mgrwt>
<rscale>  0 0.13439439E+03</rscale>
<asrwt>0</asrwt>
<pdfrwt beam="1">  1        5 0.19255979E-01 0.13439477E+03</pdfrwt>
<pdfrwt beam="2">  1       -5 0.24072630E-01 0.13439477E+03</pdfrwt>
<totfact> 0.29292215E+02</totfact>
</mgrwt>
</event>
<event>
 8    1  0.3754098E-007  0.1922934E+03  0.7546771E-02  0.1156409E+00
          5   -1    0    0  501    0  0.00000000000E+00  0.00000000000E+00  0.75500455476E+03  0.75501918367E+03  0.47000000000E+01 0. -1.
         -5   -1    0    0    0  501 -0.00000000000E+00 -0.00000000000E+00 -0.50645369502E+02  0.50862987053E+02  0.47000000000E+01 0. -1.
         25    2    1    2    0    0 -0.14598011179E+03 -0.64972697930E+01  0.27643640760E+03  0.33673999231E+03  0.12499730966E+03 0.  0.
         25    2    1    2    0    0  0.14598011179E+03  0.64972697930E+01  0.42792277766E+03  0.46914217841E+03  0.12499628943E+03 0.  0.
          5    1    3    3  502    0 -0.10796547449E+03 -0.33380901486E+02  0.90068204942E+02  0.14458630574E+03  0.47000000000E+01 0.  1.
         -5    1    3    3    0  502 -0.38014637300E+02  0.26883631693E+02  0.18636820265E+03  0.19215368657E+03  0.47000000000E+01 0.  1.
          5    1    4    4  503    0  0.50294737137E+02  0.47154025971E+02  0.78651617355E+02  0.10469589133E+03  0.47000000000E+01 0.  1.
         -5    1    4    4    0  503  0.95685374653E+02 -0.40656756178E+02  0.34927116031E+03  0.36444628708E+03  0.47000000000E+01 0.  1.
<mgrwt>
<rscale>  0 0.19229319E+03</rscale>
<asrwt>0</asrwt>
<pdfrwt beam="1">  1        5 0.11617241E+00 0.19229336E+03</pdfrwt>
<pdfrwt beam="2">  1       -5 0.78094608E-02 0.19229336E+03</pdfrwt>
<totfact> 0.53654260E+01</totfact>
</mgrwt>
</event>
<event>
 8    1  0.3754098E-007  0.1808411E+03  0.7546771E-02  0.1166992E+00
          5   -1    0    0  501    0  0.00000000000E+00  0.00000000000E+00  0.33068508786E+03  0.33071848653E+03  0.47000000000E+01 0. -1.
         -5   -1    0    0    0  501 -0.00000000000E+00 -0.00000000000E+00 -0.98867829953E+02  0.98979481710E+02  0.47000000000E+01 0. -1.
         25    2    1    2    0    0  0.12054089006E+03  0.50467561880E+02  0.12149451363E+03  0.21786327612E+03  0.12500563691E+03 0.  0.
         25    2    1    2    0    0 -0.12054089006E+03 -0.50467561880E+02  0.11032274427E+03  0.21183469212E+03  0.12500299158E+03 0.  0.
          5    1    3    3  502    0 -0.42815844025E+01  0.28191598655E+02  0.78894692821E+02  0.84021192297E+02  0.47000000000E+01 0.  1.
         -5    1    3    3    0  502  0.12482247446E+03  0.22275963224E+02  0.42599820810E+02  0.13384208382E+03  0.47000000000E+01 0.  1.
          5    1    4    4  503    0 -0.59269140124E+02 -0.15243860311E+02 -0.19113511625E+02  0.64285477169E+02  0.47000000000E+01 0.  1.
         -5    1    4    4    0  503 -0.61271749933E+02 -0.35223701569E+02  0.12943625590E+03  0.14754921495E+03  0.47000000000E+01 0.  1.
<mgrwt>
<rscale>  0 0.18084061E+03</rscale>
<asrwt>0</asrwt>
<pdfrwt beam="1">  1        5 0.50885787E-01 0.18084106E+03</pdfrwt>
<pdfrwt beam="2">  1       -5 0.15221593E-01 0.18084106E+03</pdfrwt>
<totfact> 0.10992568E+02</totfact>
</mgrwt>
</event>
<event>
 8    1  0.3754098E-007  0.1693867E+03  0.7546771E-02  0.1178489E+00
          5   -1    0    0  501    0  0.00000000000E+00  0.00000000000E+00  0.13406823502E+03  0.13415059314E+03  0.47000000000E+01 0. -1.
         -5   -1    0    0    0  501 -0.00000000000E+00 -0.00000000000E+00 -0.22461096808E+03  0.22466013661E+03  0.47000000000E+01 0. -1.
         25    2    1    2    0    0  0.64782781243E+02  0.94175764917E+02 -0.84558614571E+02  0.18931990572E+03  0.12500393578E+03 0.  0.
         25    2    1    2    0    0 -0.64782781243E+02 -0.94175764917E+02 -0.59841184976E+01  0.16949082403E+03  0.12500178524E+03 0.  0.
          5    1    3    3  502    0  0.57786968688E+02  0.27297728008E+02 -0.10129750414E+03  0.11986565000E+03  0.47000000000E+01 0.  1.
         -5    1    3    3    0  502  0.69958125555E+01  0.66878036909E+02  0.16738889569E+02  0.69454255724E+02  0.47000000000E+01 0.  1.
          5    1    4    4  503    0 -0.51944444301E+02  0.54655003037E+01 -0.37070281687E+02  0.64221435454E+02  0.47000000000E+01 0. -1.
         -5    1    4    4    0  503 -0.12838336942E+02 -0.99641265221E+02  0.31086163190E+02  0.10526938858E+03  0.47000000000E+01 0. -1.
<mgrwt>
<rscale>  0 0.16938634E+03</rscale>
<asrwt>0</asrwt>
<pdfrwt beam="1">  1        5 0.20636000E-01 0.16938674E+03</pdfrwt>
<pdfrwt beam="2">  1       -5 0.34565651E-01 0.16938674E+03</pdfrwt>
<totfact> 0.13675906E+02</totfact>
</mgrwt>
</event>
<event>
 8    1  0.3754098E-007  0.1422829E+03  0.7546771E-02  0.1210290E+00
         -5   -1    0    0    0  501 -0.00000000000E+00  0.00000000000E+00  0.21005087984E+02  0.21524491195E+02  0.47000000000E+01 0. -1.
          5   -1    0    0  501    0  0.00000000000E+00 -0.00000000000E+00 -0.13651021509E+04  0.13651102419E+04  0.47000000000E+01 0. -1.
         25    2    1    2    0    0 -0.67408893217E+02 -0.86875710333E+01 -0.29048854379E+03  0.32346254003E+03  0.12499995183E+03 0.  0.
         25    2    1    2    0    0  0.67408893217E+02  0.86875710333E+01 -0.10536085192E+04  0.10631721930E+04  0.12499907051E+03 0.  0.
          5    1    3    3  502    0 -0.95767140774E+02 -0.26470865360E+02 -0.15778179336E+03  0.18651872904E+03  0.47000000000E+01 0.  1.
         -5    1    3    3    0  502  0.28358247557E+02  0.17783294327E+02 -0.13270675043E+03  0.13694381100E+03  0.47000000000E+01 0.  1.
          5    1    4    4  503    0  0.75601360819E+02  0.10773307552E+02 -0.10500992623E+04  0.10528827953E+04  0.47000000000E+01 0.  1.
         -5    1    4    4    0  503 -0.81924676018E+01 -0.20857365184E+01 -0.35092568379E+01  0.10289397737E+02  0.47000000000E+01 0.  1.
<mgrwt>
<rscale>  0 0.14228270E+03</rscale>
<asrwt>0</asrwt>
<pdfrwt beam="2">  1        5 0.21005622E+00 0.14228289E+03</pdfrwt>
<pdfrwt beam="1">  1       -5 0.32721295E-02 0.14228289E+03</pdfrwt>
<totfact> 0.39835260E+01</totfact>
</mgrwt>
</event>
<event>
 8    1  0.3754098E-007  0.2901370E+03  0.7546771E-02  0.1090278E+00
         -5   -1    0    0    0  501 -0.00000000000E+00  0.00000000000E+00  0.66131994821E+02  0.66298798925E+02  0.47000000000E+01 0. -1.
          5   -1    0    0  501    0  0.00000000000E+00 -0.00000000000E+00 -0.13211895436E+04  0.13211979035E+04  0.47000000000E+01 0. -1.
         25    2    1    2    0    0  0.65708304109E+02 -0.25344849570E+03 -0.49248492160E+03  0.57159443954E+03  0.12500033641E+03 0.  0.
         25    2    1    2    0    0 -0.65708304109E+02  0.25344849570E+03 -0.76257262717E+03  0.81590226285E+03  0.12500307840E+03 0.  0.
          5    1    4    4  502    0  0.33472511854E+02  0.34185683360E+02 -0.15890264875E+03  0.16601569738E+03  0.47000000000E+01 0.  1.
         -5    1    4    4    0  502 -0.99180815963E+02  0.21926281234E+03 -0.60366997843E+03  0.64988656547E+03  0.47000000000E+01 0.  1.
          5    1    3    3  503    0 -0.31714338832E+02 -0.38020515975E+02 -0.54046015151E+02  0.73446719983E+02  0.47000000000E+01 0. -1.
         -5    1    3    3    0  503  0.97422642941E+02 -0.21542797972E+03 -0.43843890645E+03  0.49814771955E+03  0.47000000000E+01 0. -1.
<mgrwt>
<rscale>  0 0.29013673E+03</rscale>
<asrwt>0</asrwt>
<pdfrwt beam="2">  1        5 0.20327338E+00 0.29013702E+03</pdfrwt>
<pdfrwt beam="1">  1       -5 0.10187628E-01 0.29013702E+03</pdfrwt>
<totfact> 0.75842199E+00</totfact>
</mgrwt>
</event>
<event>
 8    1  0.3754098E-007  0.1639593E+03  0.7546771E-02  0.1184298E+00
         -5   -1    0    0    0  501 -0.00000000000E+00  0.00000000000E+00  0.12259312054E+03  0.12268318224E+03  0.47000000000E+01 0.  1.
          5   -1    0    0  501    0  0.00000000000E+00 -0.00000000000E+00 -0.22050430230E+03  0.22055438634E+03  0.47000000000E+01 0.  1.
         25    2    1    2    0    0  0.54194927601E+02  0.91216841811E+02 -0.35197942307E+02  0.16769380429E+03  0.12499885778E+03 0.  0.
         25    2    1    2    0    0 -0.54194927601E+02 -0.91216841811E+02 -0.62713239451E+02  0.17554376429E+03  0.12500024148E+03 0.  0.
          5    1    3    3  502    0 -0.23556003707E+01 -0.22300812646E+02  0.18931689153E+02  0.29721607493E+02  0.47000000000E+01 0.  1.
         -5    1    3    3    0  502  0.56550527972E+02  0.11351765446E+03 -0.54129631460E+02  0.13797219680E+03  0.47000000000E+01 0.  1.
          5    1    4    4  503    0  0.40378534423E+02 -0.34545690820E+02 -0.15848948322E+02  0.55651684244E+02  0.47000000000E+01 0.  1.
         -5    1    4    4    0  503 -0.94573462024E+02 -0.56671150992E+02 -0.46864291129E+02  0.11989208004E+03  0.47000000000E+01 0.  1.
<mgrwt>
<rscale>  0 0.16395907E+03</rscale>
<asrwt>0</asrwt>
<pdfrwt beam="2">  1        5 0.33934519E-01 0.16395933E+03</pdfrwt>
<pdfrwt beam="1">  1       -5 0.18871261E-01 0.16395933E+03</pdfrwt>
<totfact> 0.16608911E+02</totfact>
</mgrwt>
</event>
<event>
 8    1  0.3754098E-007  0.1590274E+03  0.7546771E-02  0.1189801E+00
          5   -1    0    0  501    0  0.00000000000E+00  0.00000000000E+00  0.44996681257E+03  0.44999135816E+03  0.47000000000E+01 0. -1.
         -5   -1    0    0    0  501 -0.00000000000E+00 -0.00000000000E+00 -0.65321176593E+02  0.65490045896E+02  0.47000000000E+01 0. -1.
         25    2    1    2    0    0  0.86900957568E+02 -0.45956511399E+02  0.95515811930E+02  0.18550296276E+03  0.12499720596E+03 0.  0.
         25    2    1    2    0    0 -0.86900957568E+02  0.45956511399E+02  0.28912982405E+03  0.32997844129E+03  0.12500375674E+03 0.  0.
          5    1    4    4  502    0 -0.11106447768E+03  0.47775985744E+02  0.17211781232E+03  0.21039128864E+03  0.47000000000E+01 0. -1.
         -5    1    4    4    0  502  0.24163520117E+02 -0.18194743448E+01  0.11701201173E+03  0.11958715266E+03  0.47000000000E+01 0. -1.
          5    1    3    3  503    0  0.76544697816E+02  0.25422248865E+02  0.25120163856E+02  0.84607884581E+02  0.47000000000E+01 0.  1.
         -5    1    3    3    0  503  0.10356259752E+02 -0.71378760265E+02  0.70395648074E+02  0.10089507818E+03  0.47000000000E+01 0.  1.
<mgrwt>
<rscale>  0 0.15902612E+03</rscale>
<asrwt>0</asrwt>
<pdfrwt beam="1">  1        5 0.69240539E-01 0.15902741E+03</pdfrwt>
<pdfrwt beam="2">  1       -5 0.10064290E-01 0.15902741E+03</pdfrwt>
<totfact> 0.11267491E+02</totfact>
</mgrwt>
</event>
<event>
 8    1  0.3754098E-007  0.1440820E+03  0.7546771E-02  0.1207940E+00
         -5   -1    0    0    0  501 -0.00000000000E+00  0.00000000000E+00  0.15602717215E+03  0.15609794505E+03  0.47000000000E+01 0.  1.
          5   -1    0    0  501    0  0.00000000000E+00 -0.00000000000E+00 -0.16303237917E+03  0.16310011238E+03  0.47000000000E+01 0.  1.
         25    2    1    2    0    0 -0.10606618621E+02  0.70873044063E+02  0.65073237129E+02  0.15809542134E+03  0.12499658926E+03 0.  0.
         25    2    1    2    0    0  0.10606618621E+02 -0.70873044063E+02 -0.72078444146E+02  0.16110263608E+03  0.12499307385E+03 0.  0.
          5    1    3    3  502    0 -0.78550103887E+01  0.68573498641E+02  0.10059340767E+03  0.12208664780E+03  0.47000000000E+01 0. -1.
         -5    1    3    3    0  502 -0.27516082323E+01  0.22995454213E+01 -0.35520170540E+02  0.36008773544E+02  0.47000000000E+01 0. -1.
          5    1    4    4  503    0  0.59437636465E+02 -0.67877170813E+02 -0.65335373511E+02  0.11149414324E+03  0.47000000000E+01 0. -1.
         -5    1    4    4    0  503 -0.48831017844E+02 -0.29958732497E+01 -0.67430706350E+01  0.49608492839E+02  0.47000000000E+01 0. -1.
<mgrwt>
<rscale>  0 0.14408128E+03</rscale>
<asrwt>0</asrwt>
<pdfrwt beam="2">  1        5 0.25092559E-01 0.14408205E+03</pdfrwt>
<pdfrwt beam="1">  1       -5 0.24014835E-01 0.14408205E+03</pdfrwt>
<totfact> 0.18277682E+02</totfact>
</mgrwt>
</event>
<event>
 8    1  0.3754098E-007  0.1704664E+03  0.7546771E-02  0.1177364E+00
          5   -1    0    0  501    0  0.00000000000E+00  0.00000000000E+00  0.32127973331E+02  0.32469934869E+02  0.47000000000E+01 0. -1.
         -5   -1    0    0    0  501 -0.00000000000E+00 -0.00000000000E+00 -0.97001991215E+03  0.97003129844E+03  0.47000000000E+01 0. -1.
         25    2    1    2    0    0 -0.25130286036E+02  0.11314586111E+03 -0.60426437393E+03  0.62784888121E+03  0.12500106752E+03 0.  0.
         25    2    1    2    0    0  0.25130286036E+02 -0.11314586111E+03 -0.33362756489E+03  0.37465235210E+03  0.12499406273E+03 0.  0.
          5    1    4    4  502    0 -0.18108422815E+02 -0.12321726469E+03 -0.22504979844E+03  0.25725456473E+03  0.47000000000E+01 0. -1.
         -5    1    4    4    0  502  0.43238708852E+02  0.10071403578E+02 -0.10857776645E+03  0.11739778737E+03  0.47000000000E+01 0. -1.
          5    1    3    3  503    0 -0.18179238899E+02  0.38684212805E+02 -0.40316619761E+02  0.58944659438E+02  0.47000000000E+01 0.  1.
         -5    1    3    3    0  503 -0.69510471371E+01  0.74461648308E+02 -0.56394775417E+03  0.56890422178E+03  0.47000000000E+01 0.  1.
<mgrwt>
<rscale>  0 0.17046509E+03</rscale>
<asrwt>0</asrwt>
<pdfrwt beam="1">  1        5 0.49699465E-02 0.17046637E+03</pdfrwt>
<pdfrwt beam="2">  1       -5 0.14926099E+00 0.17046637E+03</pdfrwt>
<totfact> 0.57638145E+01</totfact>
</mgrwt>
</event>
<event>
 8    1  0.3754098E-007  0.1335159E+03  0.7546771E-02  0.1222334E+00
         -5   -1    0    0    0  501 -0.00000000000E+00  0.00000000000E+00  0.28779817748E+03  0.28783655251E+03  0.47000000000E+01 0. -1.
          5   -1    0    0  501    0  0.00000000000E+00 -0.00000000000E+00 -0.63840275088E+02  0.64013051195E+02  0.47000000000E+01 0. -1.
         25    2    1    2    0    0 -0.41594210682E+02  0.21713444476E+02  0.14333936858E+03  0.19588214904E+03  0.12498835823E+03 0.  0.
         25    2    1    2    0    0  0.41594210682E+02 -0.21713444476E+02  0.80618533809E+02  0.15596745466E+03  0.12499978755E+03 0.  0.
          5    1    4    4  502    0  0.84335433660E+02 -0.28613721871E+01  0.38409228043E+02  0.92833246309E+02  0.47000000000E+01 0.  1.
         -5    1    4    4    0  502 -0.42741222978E+02 -0.18852072289E+02  0.42209305766E+02  0.63134208354E+02  0.47000000000E+01 0.  1.
          5    1    3    3  503    0 -0.32431329151E+02 -0.19947174958E+02 -0.74713473704E+01  0.39084420564E+02  0.47000000000E+01 0. -1.
         -5    1    3    3    0  503 -0.91628815312E+01  0.41660619433E+02  0.15081071595E+03  0.15679772848E+03  0.47000000000E+01 0. -1.
<mgrwt>
<rscale>  0 0.13351324E+03</rscale>
<asrwt>0</asrwt>
<pdfrwt beam="2">  1        5 0.98378231E-02 0.13351591E+03</pdfrwt>
<pdfrwt beam="1">  1       -5 0.44292885E-01 0.13351591E+03</pdfrwt>
<totfact> 0.29075956E+02</totfact>
</mgrwt>
</event>
<event>
 8    1  0.3754098E-007  0.1298429E+03  0.7546771E-02  0.1227690E+00
         -5   -1    0    0    0  501 -0.00000000000E+00  0.00000000000E+00  0.61595809530E+02  0.61774863429E+02  0.47000000000E+01 0.  1.
          5   -1    0    0  501    0  0.00000000000E+00 -0.00000000000E+00 -0.27333317412E+03  0.27337357970E+03  0.47000000000E+01 0.  1.
         25    2    1    2    0    0 -0.34905031265E+02 -0.42239260106E+01 -0.10103128118E+03  0.16451896202E+03  0.12499186505E+03 0.  0.
         25    2    1    2    0    0  0.34905031265E+02  0.42239260106E+01 -0.11070608342E+03  0.17062948111E+03  0.12498952020E+03 0.  0.
          5    1    3    3  502    0  0.23065115641E+02  0.26416882715E+02 -0.91488100121E+02  0.98091863657E+02  0.47000000000E+01 0.  1.
         -5    1    3    3    0  502 -0.57970146907E+02 -0.30640808726E+02 -0.95431810544E+01  0.66427098359E+02  0.47000000000E+01 0.  1.
          5    1    4    4  503    0 -0.47333292698E+00  0.39475960029E+02 -0.11362581148E+03  0.12038060682E+03  0.47000000000E+01 0. -1.
         -5    1    4    4    0  503  0.35378364192E+02 -0.35252034019E+02  0.29197280611E+01  0.50248874289E+02  0.47000000000E+01 0. -1.
<mgrwt>
<rscale>  0 0.12984230E+03</rscale>
<asrwt>0</asrwt>
<pdfrwt beam="2">  1        5 0.42068138E-01 0.12984286E+03</pdfrwt>
<pdfrwt beam="1">  1       -5 0.94931600E-02 0.12984286E+03</pdfrwt>
<totfact> 0.34072012E+02</totfact>
</mgrwt>
</event>
<event>
 8    1  0.3754098E-007  0.1286260E+03  0.7546771E-02  0.1229510E+00
         -5   -1    0    0    0  501 -0.00000000000E+00  0.00000000000E+00  0.20829182617E+02  0.21352865112E+02  0.47000000000E+01 0. -1.
          5   -1    0    0  501    0  0.00000000000E+00 -0.00000000000E+00 -0.80457271368E+03  0.80458644135E+03  0.47000000000E+01 0. -1.
         25    2    1    2    0    0  0.29099851344E+02 -0.84553622095E+01 -0.32567338418E+03  0.35015267579E+03  0.12500179480E+03 0.  0.
         25    2    1    2    0    0 -0.29099851344E+02  0.84553622095E+01 -0.45807014689E+03  0.47578663067E+03  0.12500545570E+03 0.  0.
          5    1    4    4  502    0 -0.36155843540E+02  0.55318223783E+02 -0.36784864297E+03  0.37376739429E+03  0.47000000000E+01 0. -1.
         -5    1    4    4    0  502  0.70559921954E+01 -0.46862861573E+02 -0.90221503920E+02  0.10201923637E+03  0.47000000000E+01 0. -1.
          5    1    3    3  503    0  0.22329149030E+02  0.19591905032E+02 -0.79784164353E+01  0.31115571150E+02  0.47000000000E+01 0. -1.
         -5    1    3    3    0  503  0.67707023146E+01 -0.28047267242E+02 -0.31769496774E+03  0.31903710464E+03  0.47000000000E+01 0. -1.
<mgrwt>
<rscale>  0 0.12862515E+03</rscale>
<asrwt>0</asrwt>
<pdfrwt beam="2">  1        5 0.12382173E+00 0.12862604E+03</pdfrwt>
<pdfrwt beam="1">  1       -5 0.32458295E-02 0.12862604E+03</pdfrwt>
<totfact> 0.17467741E+02</totfact>
</mgrwt>
</event>
<event>
 8    1  0.3754098E-007  0.1359719E+03  0.7546771E-02  0.1218858E+00
          5   -1    0    0  501    0  0.00000000000E+00  0.00000000000E+00  0.25333899424E+03  0.25338258820E+03  0.47000000000E+01 0.  1.
         -5   -1    0    0    0  501 -0.00000000000E+00 -0.00000000000E+00 -0.84082913163E+02  0.84214169152E+02  0.47000000000E+01 0.  1.
         25    2    1    2    0    0  0.42212929378E+02  0.32821795737E+02  0.22993940307E+02  0.13790244061E+03  0.12501663950E+03 0.  0.
         25    2    1    2    0    0 -0.42212929378E+02 -0.32821795737E+02  0.14626214077E+03  0.19969431674E+03  0.12500401848E+03 0.  0.
          5    1    3    3  502    0  0.86706735721E+02  0.25353011962E+02  0.12231744844E+02  0.91282741068E+02  0.47000000000E+01 0. -1.
         -5    1    3    3    0  502 -0.44493806343E+02  0.74687837745E+01  0.10762195462E+02  0.46619699539E+02  0.47000000000E+01 0. -1.
          5    1    4    4  503    0  0.32252487603E+02 -0.13023893035E+02  0.10795346511E+03  0.11351601374E+03  0.47000000000E+01 0.  1.
         -5    1    4    4    0  503 -0.74465416980E+02 -0.19797902701E+02  0.38308675656E+02  0.86178303000E+02  0.47000000000E+01 0.  1.
<mgrwt>
<rscale>  0 0.13596901E+03</rscale>
<asrwt>0</asrwt>
<pdfrwt beam="1">  1        5 0.38988680E-01 0.13597192E+03</pdfrwt>
<pdfrwt beam="2">  1       -5 0.12949283E-01 0.13597192E+03</pdfrwt>
<totfact> 0.23431912E+02</totfact>
</mgrwt>
</event>
<event>
 8    1  0.3754098E-007  0.1376833E+03  0.7546771E-02  0.1216483E+00
         -5   -1    0    0    0  501 -0.00000000000E+00  0.00000000000E+00  0.15144022932E+02  0.15856589500E+02  0.47000000000E+01 0. -1.
          5   -1    0    0  501    0  0.00000000000E+00 -0.00000000000E+00 -0.12764753386E+04  0.12764839913E+04  0.47000000000E+01 0. -1.
         25    2    1    2    0    0 -0.39423357243E+02  0.42148529492E+02 -0.49746724006E+03  0.51616726873E+03  0.12499717892E+03 0.  0.
         25    2    1    2    0    0  0.39423357243E+02 -0.42148529492E+02 -0.76386407562E+03  0.77617331209E+03  0.12500393891E+03 0.  0.
          5    1    3    3  502    0 -0.24392602278E+02  0.53823520824E+02 -0.87255512145E+02  0.10548736815E+03  0.47000000000E+01 0.  1.
         -5    1    3    3    0  502 -0.15030754965E+02 -0.11674991332E+02 -0.41021172792E+03  0.41067990058E+03  0.47000000000E+01 0.  1.
          5    1    4    4  503    0 -0.16572554757E+02  0.36866169600E+02 -0.21818310488E+03  0.22194531148E+03  0.47000000000E+01 0. -1.
         -5    1    4    4    0  503  0.55995912000E+02 -0.79014699092E+02 -0.54568097074E+03  0.55422800061E+03  0.47000000000E+01 0. -1.
<mgrwt>
<rscale>  0 0.13768174E+03</rscale>
<asrwt>0</asrwt>
<pdfrwt beam="2">  1        5 0.19643622E+00 0.13768328E+03</pdfrwt>
<pdfrwt beam="1">  1       -5 0.23853291E-02 0.13768328E+03</pdfrwt>
<totfact> 0.81036335E+01</totfact>
</mgrwt>
</event>
<event>
 8    1  0.3754098E-007  0.1505559E+03  0.7546771E-02  0.1199792E+00
         -5   -1    0    0    0  501 -0.00000000000E+00  0.00000000000E+00  0.68793473920E+03  0.68795079431E+03  0.47000000000E+01 0. -1.
          5   -1    0    0  501    0  0.00000000000E+00 -0.00000000000E+00 -0.33876993970E+02  0.34201472489E+02  0.47000000000E+01 0. -1.
         25    2    1    2    0    0 -0.74595466888E+02  0.38428900874E+02  0.39212179827E+03  0.42003166232E+03  0.12500331425E+03 0.  0.
         25    2    1    2    0    0  0.74595466888E+02 -0.38428900874E+02  0.26193594696E+03  0.30212060448E+03  0.12500062095E+03 0.  0.
          5    1    4    4  502    0  0.69990181291E+02 -0.38555551953E+02  0.27558135515E+03  0.28697095562E+03  0.47000000000E+01 0.  1.
         -5    1    4    4    0  502  0.46052855966E+01  0.12665107858E+00 -0.13645408188E+02  0.15149648859E+02  0.47000000000E+01 0.  1.
          5    1    3    3  503    0 -0.55708133332E+01 -0.29598011691E+02  0.22283929924E+03  0.22491447162E+03  0.47000000000E+01 0.  1.
         -5    1    3    3    0  503 -0.69024653555E+02  0.68026912565E+02  0.16928249902E+03  0.19511719070E+03  0.47000000000E+01 0.  1.
<mgrwt>
<rscale>  0 0.15055539E+03</rscale>
<asrwt>0</asrwt>
<pdfrwt beam="2">  1        5 0.52380406E-02 0.15055595E+03</pdfrwt>
<pdfrwt beam="1">  1       -5 0.10586230E+00 0.15055595E+03</pdfrwt>
<totfact> 0.12416034E+02</totfact>
</mgrwt>
</event>
<event>
 8    1  0.3754098E-007  0.1475541E+03  0.7546771E-02  0.1203512E+00
          5   -1    0    0  501    0  0.00000000000E+00  0.00000000000E+00  0.31225545369E+03  0.31229082336E+03  0.47000000000E+01 0.  1.
         -5   -1    0    0    0  501 -0.00000000000E+00 -0.00000000000E+00 -0.75714245366E+02  0.75859982543E+02  0.47000000000E+01 0.  1.
         25    2    1    2    0    0 -0.57971098846E+02 -0.52780894701E+02  0.63213222691E+02  0.16052214426E+03  0.12499990451E+03 0.  0.
         25    2    1    2    0    0  0.57971098846E+02  0.52780894701E+02  0.17332798563E+03  0.22762866165E+03  0.12500298338E+03 0.  0.
          5    1    4    4  502    0  0.35158683788E+02 -0.27652747175E+02  0.12049773142E+03  0.12861804209E+03  0.47000000000E+01 0.  1.
         -5    1    4    4    0  502  0.22812415058E+02  0.80433641876E+02  0.52830254206E+02  0.99010619560E+02  0.47000000000E+01 0.  1.
          5    1    3    3  503    0 -0.14659443147E+02 -0.69942639016E+02 -0.11315153071E+02  0.72505135783E+02  0.47000000000E+01 0.  1.
         -5    1    3    3    0  503 -0.43311655699E+02  0.17161744314E+02  0.74528375762E+02  0.88017008476E+02  0.47000000000E+01 0.  1.
<mgrwt>
<rscale>  0 0.14755346E+03</rscale>
<asrwt>0</asrwt>
<pdfrwt beam="1">  1        5 0.48053232E-01 0.14755412E+03</pdfrwt>
<pdfrwt beam="2">  1       -5 0.11662277E-01 0.14755412E+03</pdfrwt>
<totfact> 0.18808040E+02</totfact>
</mgrwt>
</event>
<event>
 8    1  0.3754098E-007  0.1262026E+03  0.7546771E-02  0.1233202E+00
          5   -1    0    0  501    0  0.00000000000E+00  0.00000000000E+00  0.18091802793E+02  0.18692333410E+02  0.47000000000E+01 0.  1.
         -5   -1    0    0    0  501 -0.00000000000E+00 -0.00000000000E+00 -0.10007015163E+04  0.10007125535E+04  0.47000000000E+01 0.  1.
         25    2    1    2    0    0 -0.16327375816E+02 -0.59516086483E+01 -0.67869514919E+03  0.69032905654E+03  0.12500038372E+03 0.  0.
         25    2    1    2    0    0  0.16327375816E+02  0.59516086483E+01 -0.30391456432E+03  0.32907583037E+03  0.12499933951E+03 0.  0.
          5    1    3    3  502    0  0.24471041763E+02 -0.21340248173E+02 -0.59442573019E+03  0.59533039297E+03  0.47000000000E+01 0.  1.
         -5    1    3    3    0  502 -0.40798417578E+02  0.15388639525E+02 -0.84269418995E+02  0.94998663575E+02  0.47000000000E+01 0.  1.
          5    1    4    4  503    0  0.62563159469E+01  0.51067864832E+02 -0.26020051371E+03  0.26527997596E+03  0.47000000000E+01 0. -1.
         -5    1    4    4    0  503  0.10071059869E+02 -0.45116256184E+02 -0.43714050609E+02  0.63795854408E+02  0.47000000000E+01 0. -1.
<mgrwt>
<rscale>  0 0.12620236E+03</rscale>
<asrwt>0</asrwt>
<pdfrwt beam="1">  1        5 0.28303987E-02 0.12620262E+03</pdfrwt>
<pdfrwt beam="2">  1       -5 0.15400108E+00 0.12620262E+03</pdfrwt>
<totfact> 0.12145477E+02</totfact>
</mgrwt>
</event>
<event>
 8    1  0.3754098E-007  0.1534504E+03  0.7546771E-02  0.1196298E+00
          5   -1    0    0  501    0  0.00000000000E+00  0.00000000000E+00  0.64837919580E+03  0.64839623037E+03  0.47000000000E+01 0. -1.
         -5   -1    0    0    0  501 -0.00000000000E+00 -0.00000000000E+00 -0.36893977787E+02  0.37192144291E+02  0.47000000000E+01 0. -1.
         25    2    1    2    0    0 -0.38445490251E+02 -0.80272126715E+02  0.25714329926E+03  0.29944900248E+03  0.12500143474E+03 0.  0.
         25    2    1    2    0    0  0.38445490251E+02  0.80272126715E+02  0.35434191876E+03  0.38613937217E+03  0.12499499712E+03 0.  0.
          5    1    3    3  502    0 -0.11392431971E+02 -0.71576620794E+02  0.26051514449E+03  0.27045005206E+03  0.47000000000E+01 0.  1.
         -5    1    3    3    0  502 -0.27053058280E+02 -0.86955059209E+01 -0.33718452291E+01  0.28998950425E+02  0.47000000000E+01 0.  1.
          5    1    4    4  503    0  0.22287779629E+02  0.20549317705E+02  0.30586443335E+03  0.30739902597E+03  0.47000000000E+01 0. -1.
         -5    1    4    4    0  503  0.16157710622E+02  0.59722809010E+02  0.48477485409E+02  0.78740346203E+02  0.47000000000E+01 0. -1.
<mgrwt>
<rscale>  0 0.15344910E+03</rscale>
<asrwt>0</asrwt>
<pdfrwt beam="1">  1        5 0.99774879E-01 0.15345041E+03</pdfrwt>
<pdfrwt beam="2">  1       -5 0.57002436E-02 0.15345041E+03</pdfrwt>
<totfact> 0.12543930E+02</totfact>
</mgrwt>
</event>
<event>
 8    1  0.3754098E-007  0.1439454E+03  0.7546771E-02  0.1208124E+00
         -5   -1    0    0    0  501 -0.00000000000E+00  0.00000000000E+00  0.23088047052E+03  0.23092830417E+03  0.47000000000E+01 0. -1.
          5   -1    0    0  501    0  0.00000000000E+00 -0.00000000000E+00 -0.92907521551E+02  0.93026327246E+02  0.47000000000E+01 0. -1.
         25    2    1    2    0    0 -0.65255572505E+02 -0.28988097730E+02  0.99476010176E+02  0.17497354692E+03  0.12498666316E+03 0.  0.
         25    2    1    2    0    0  0.65255572505E+02  0.28988097730E+02  0.38496938791E+02  0.14898108449E+03  0.12495899202E+03 0.  0.
          5    1    3    3  502    0 -0.41486809918E+02 -0.50660051756E+02 -0.47266096506E+01  0.65818136405E+02  0.47000000000E+01 0.  1.
         -5    1    3    3    0  502 -0.23768762587E+02  0.21671954026E+02  0.10420261983E+03  0.10915541052E+03  0.47000000000E+01 0.  1.
          5    1    4    4  503    0 -0.70220667588E+01  0.17569092883E+02  0.67401809215E+02  0.70164637330E+02  0.47000000000E+01 0.  1.
         -5    1    4    4    0  503  0.72277639264E+02  0.11419004847E+02 -0.28904870424E+02  0.78816447163E+02  0.47000000000E+01 0.  1.
<mgrwt>
<rscale>  0 0.14393935E+03</rscale>
<asrwt>0</asrwt>
<pdfrwt beam="2">  1        5 0.14306283E-01 0.14394536E+03</pdfrwt>
<pdfrwt beam="1">  1       -5 0.35532890E-01 0.14394536E+03</pdfrwt>
<totfact> 0.24102093E+02</totfact>
</mgrwt>
</event>
<event>
 8    1  0.3754098E-007  0.1326465E+03  0.7546771E-02  0.1223584E+00
         -5   -1    0    0    0  501 -0.00000000000E+00  0.00000000000E+00  0.11455217716E+03  0.11464855556E+03  0.47000000000E+01 0. -1.
          5   -1    0    0  501    0  0.00000000000E+00 -0.00000000000E+00 -0.16447332978E+03  0.16454046982E+03  0.47000000000E+01 0. -1.
         25    2    1    2    0    0 -0.37298661301E+02 -0.23992305932E+02  0.11255899247E+02  0.13312323622E+03  0.12501311881E+03 0.  0.
         25    2    1    2    0    0  0.37298661301E+02  0.23992305932E+02 -0.61177051870E+02  0.14606578917E+03  0.12500304881E+03 0.  0.
          5    1    3    3  502    0 -0.52782317635E+01  0.31558473340E+01  0.64609564651E+02  0.65071537152E+02  0.47000000000E+01 0.  1.
         -5    1    3    3    0  502 -0.32020429538E+02 -0.27148153266E+02 -0.53353665403E+02  0.68051699064E+02  0.47000000000E+01 0.  1.
          5    1    4    4  503    0 -0.20255939575E+02 -0.68549596510E+01 -0.75871980119E+02  0.78967974060E+02  0.47000000000E+01 0.  1.
         -5    1    4    4    0  503  0.57554600876E+02  0.30847265583E+02  0.14694928249E+02  0.67097815107E+02  0.47000000000E+01 0.  1.
<mgrwt>
<rscale>  0 0.13264415E+03</rscale>
<asrwt>0</asrwt>
<pdfrwt beam="2">  1        5 0.25316168E-01 0.13264653E+03</pdfrwt>
<pdfrwt beam="1">  1       -5 0.17635990E-01 0.13264653E+03</pdfrwt>
<totfact> 0.31153423E+02</totfact>
</mgrwt>
</event>
<event>
 8    1  0.3754098E-007  0.1343631E+03  0.7546771E-02  0.1221122E+00
          5   -1    0    0  501    0  0.00000000000E+00  0.00000000000E+00  0.29023696996E+02  0.29401785444E+02  0.47000000000E+01 0. -1.
         -5   -1    0    0    0  501 -0.00000000000E+00 -0.00000000000E+00 -0.63587464360E+03  0.63589201314E+03  0.47000000000E+01 0. -1.
         25    2    1    2    0    0 -0.31495660881E+02  0.37890449862E+02 -0.35979462934E+03  0.38406388563E+03  0.12500092039E+03 0.  0.
         25    2    1    2    0    0  0.31495660881E+02 -0.37890449862E+02 -0.24705631726E+03  0.28122991295E+03  0.12500310874E+03 0.  0.
          5    1    4    4  502    0 -0.37634675717E+02  0.18002550916E+02 -0.52101812130E+02  0.66911504863E+02  0.47000000000E+01 0. -1.
         -5    1    4    4    0  502  0.69130336598E+02 -0.55893000779E+02 -0.19495450513E+03  0.21431840809E+03  0.47000000000E+01 0. -1.
          5    1    3    3  503    0  0.73253278655E+01  0.77917360935E+02 -0.21066734608E+03  0.22478344304E+03  0.47000000000E+01 0.  1.
         -5    1    3    3    0  503 -0.38820988747E+02 -0.40026911072E+02 -0.14912728327E+03  0.15928044259E+03  0.47000000000E+01 0.  1.
<mgrwt>
<rscale>  0 0.13436258E+03</rscale>
<asrwt>0</asrwt>
<pdfrwt beam="1">  1        5 0.44956045E-02 0.13436309E+03</pdfrwt>
<pdfrwt beam="2">  1       -5 0.97857278E-01 0.13436309E+03</pdfrwt>
<totfact> 0.18700143E+02</totfact>
</mgrwt>
</event>
<event>
 8    1  0.3754098E-007  0.1375062E+03  0.7546771E-02  0.1216725E+00
          5   -1    0    0  501    0  0.00000000000E+00  0.00000000000E+00  0.19696597922E+03  0.19702204692E+03  0.47000000000E+01 0. -1.
         -5   -1    0    0    0  501 -0.00000000000E+00 -0.00000000000E+00 -0.98874026865E+02  0.98985671632E+02  0.47000000000E+01 0. -1.
         25    2    1    2    0    0  0.43673790531E+02  0.37084044980E+02  0.23260571923E+02  0.13945966373E+03  0.12500126892E+03 0.  0.
         25    2    1    2    0    0 -0.43673790531E+02 -0.37084044980E+02  0.74831380435E+02  0.15654805482E+03  0.12499972639E+03 0.  0.
          5    1    4    4  502    0  0.37049789119E+02 -0.41245100554E+02  0.39339426233E+02  0.68143419711E+02  0.47000000000E+01 0.  1.
         -5    1    4    4    0  502 -0.80723579650E+02  0.41610555748E+01  0.35491954202E+02  0.88404635105E+02  0.47000000000E+01 0.  1.
          5    1    3    3  503    0  0.54472071092E+02  0.68509974510E+02 -0.14606888577E+02  0.88860983172E+02  0.47000000000E+01 0.  1.
         -5    1    3    3    0  503 -0.10798280561E+02 -0.31425929530E+02  0.37867460500E+02  0.50598680562E+02  0.47000000000E+01 0.  1.
<mgrwt>
<rscale>  0 0.13750581E+03</rscale>
<asrwt>0</asrwt>
<pdfrwt beam="1">  1        5 0.30315359E-01 0.13750616E+03</pdfrwt>
<pdfrwt beam="2">  1       -5 0.15224290E-01 0.13750616E+03</pdfrwt>
<totfact> 0.29078011E+02</totfact>
</mgrwt>
</event>
<event>
 8    1  0.3754098E-007  0.1519137E+03  0.7546771E-02  0.1198147E+00
         -5   -1    0    0    0  501 -0.00000000000E+00  0.00000000000E+00  0.45831997231E+03  0.45834407056E+03  0.47000000000E+01 0. -1.
          5   -1    0    0  501    0  0.00000000000E+00 -0.00000000000E+00 -0.52919724502E+02  0.53128026892E+02  0.47000000000E+01 0. -1.
         25    2    1    2    0    0  0.64940749175E+02  0.56830385697E+02  0.26044446628E+03  0.30151137035E+03  0.12502316902E+03 0.  0.
         25    2    1    2    0    0 -0.64940749175E+02 -0.56830385697E+02  0.14495578153E+03  0.20996072710E+03  0.12499733871E+03 0.  0.
          5    1    3    3  502    0 -0.14983649675E+02  0.32358675505E+02  0.18611051572E+03  0.18955423419E+03  0.47000000000E+01 0. -1.
         -5    1    3    3    0  502  0.79924398850E+02  0.24471710192E+02  0.74333950561E+02  0.11195713616E+03  0.47000000000E+01 0. -1.
          5    1    4    4  503    0 -0.92493035848E+02 -0.62516917354E+02  0.14284995133E+03  0.18136020851E+03  0.47000000000E+01 0.  1.
         -5    1    4    4    0  503  0.27552286673E+02  0.56865316574E+01  0.21058302033E+01  0.28600518597E+02  0.47000000000E+01 0.  1.
<mgrwt>
<rscale>  0 0.15190843E+03</rscale>
<asrwt>0</asrwt>
<pdfrwt beam="2">  1        5 0.81593730E-02 0.15191375E+03</pdfrwt>
<pdfrwt beam="1">  1       -5 0.70528642E-01 0.15191375E+03</pdfrwt>
<totfact> 0.15330325E+02</totfact>
</mgrwt>
</event>
<event>
 8    1  0.3754098E-007  0.1350738E+03  0.7546771E-02  0.1220116E+00
          5   -1    0    0  501    0  0.00000000000E+00  0.00000000000E+00  0.43879152039E+03  0.43881669107E+03  0.47000000000E+01 0. -1.
         -5   -1    0    0    0  501 -0.00000000000E+00 -0.00000000000E+00 -0.42729042268E+02  0.42986754391E+02  0.47000000000E+01 0. -1.
         25    2    1    2    0    0  0.24822973237E+02 -0.44745770292E+02  0.15600497337E+03  0.20635375531E+03  0.12500382655E+03 0.  0.
         25    2    1    2    0    0 -0.24822973237E+02  0.44745770292E+02  0.24005750475E+03  0.27544969016E+03  0.12500624890E+03 0.  0.
          5    1    3    3  502    0 -0.48589780709E+02 -0.36683715792E+02  0.69689370242E+02  0.92657218383E+02  0.47000000000E+01 0. -1.
         -5    1    3    3    0  502  0.73412753946E+02 -0.80620545007E+01  0.86315603129E+02  0.11369653692E+03  0.47000000000E+01 0. -1.
          5    1    4    4  503    0 -0.63896203000E+02  0.20571637067E+02  0.20957008050E+03  0.22010821350E+03  0.47000000000E+01 0.  1.
         -5    1    4    4    0  503  0.39073229764E+02  0.24174133225E+02  0.30487424247E+02  0.55341476657E+02  0.47000000000E+01 0.  1.
<mgrwt>
<rscale>  0 0.13507322E+03</rscale>
<asrwt>0</asrwt>
<pdfrwt beam="1">  1        5 0.67528149E-01 0.13507378E+03</pdfrwt>
<pdfrwt beam="2">  1       -5 0.65954590E-02 0.13507378E+03</pdfrwt>
<totfact> 0.23376610E+02</totfact>
</mgrwt>
</event>
<event>
 8    1  0.3754098E-007  0.1283920E+03  0.7546771E-02  0.1229865E+00
          5   -1    0    0  501    0  0.00000000000E+00  0.00000000000E+00  0.20578481103E+02  0.21108384223E+02  0.47000000000E+01 0.  1.
         -5   -1    0    0    0  501 -0.00000000000E+00 -0.00000000000E+00 -0.79267150761E+03  0.79268544139E+03  0.47000000000E+01 0.  1.
         25    2    1    2    0    0 -0.28206393336E+02 -0.80376164361E+01 -0.40840926847E+03  0.42811521833E+03  0.12499722273E+03 0.  0.
         25    2    1    2    0    0  0.28206393336E+02  0.80376164361E+01 -0.36368375805E+03  0.38567860728E+03  0.12498763277E+03 0.  0.
          5    1    4    4  502    0 -0.38837056003E+01 -0.24163456284E+02 -0.67335918137E+01  0.25814473604E+02  0.47000000000E+01 0. -1.
         -5    1    4    4    0  502  0.32090098937E+02  0.32201072720E+02 -0.35695016623E+03  0.35986413368E+03  0.47000000000E+01 0. -1.
          5    1    3    3  503    0  0.29121086662E+01 -0.22112168133E+02 -0.38670639470E+03  0.38737753428E+03  0.47000000000E+01 0.  1.
         -5    1    3    3    0  503 -0.31118502003E+02  0.14074551697E+02 -0.21702873763E+02  0.40737684052E+02  0.47000000000E+01 0.  1.
<mgrwt>
<rscale>  0 0.12838968E+03</rscale>
<asrwt>0</asrwt>
<pdfrwt beam="1">  1        5 0.32077544E-02 0.12839202E+03</pdfrwt>
<pdfrwt beam="2">  1       -5 0.12199127E+00 0.12839202E+03</pdfrwt>
<totfact> 0.18486005E+02</totfact>
</mgrwt>
</event>
<event>
 8    1  0.3754098E-007  0.1510849E+03  0.7546771E-02  0.1199149E+00
          5   -1    0    0  501    0  0.00000000000E+00  0.00000000000E+00  0.79956431272E+03  0.79957812638E+03  0.47000000000E+01 0. -1.
         -5   -1    0    0    0  501 -0.00000000000E+00 -0.00000000000E+00 -0.38856234925E+02  0.39139455701E+02  0.47000000000E+01 0. -1.
         25    2    1    2    0    0  0.84803533724E+02 -0.35518104867E+01  0.16314875184E+03  0.22235421995E+03  0.12497851500E+03 0.  0.
         25    2    1    2    0    0 -0.84803533724E+02  0.35518104867E+01  0.59755932595E+03  0.61636336213E+03  0.12498956536E+03 0.  0.
          5    1    4    4  502    0  0.24602007663E+01  0.51232078544E+02  0.20937052126E+03  0.21561280953E+03  0.47000000000E+01 0. -1.
         -5    1    4    4    0  502 -0.87263734490E+02 -0.47680268057E+02  0.38818880469E+03  0.40075055260E+03  0.47000000000E+01 0. -1.
          5    1    3    3  503    0  0.66871346633E+02 -0.15706710154E+02  0.12369390159E+02  0.69954053187E+02  0.47000000000E+01 0.  1.
         -5    1    3    3    0  503  0.17932187091E+02  0.12154899667E+02  0.15077936168E+03  0.15240016676E+03  0.47000000000E+01 0.  1.
<mgrwt>
<rscale>  0 0.15108261E+03</rscale>
<asrwt>0</asrwt>
<pdfrwt beam="1">  1        5 0.12303275E+00 0.15108490E+03</pdfrwt>
<pdfrwt beam="2">  1       -5 0.60007307E-02 0.15108490E+03</pdfrwt>
<totfact> 0.67799518E+01</totfact>
</mgrwt>
</event>
<event>
 8    1  0.3754098E-007  0.1776214E+03  0.7546771E-02  0.1170125E+00
         -5   -1    0    0    0  501 -0.00000000000E+00  0.00000000000E+00  0.16477822756E+03  0.16484524342E+03  0.47000000000E+01 0. -1.
          5   -1    0    0  501    0  0.00000000000E+00 -0.00000000000E+00 -0.20983787395E+03  0.20989050322E+03  0.47000000000E+01 0. -1.
         25    2    1    2    0    0 -0.12155231795E+03 -0.33899770434E+02  0.33099369622E+02  0.18067903666E+03  0.12500074233E+03 0.  0.
         25    2    1    2    0    0  0.12155231795E+03  0.33899770434E+02 -0.78159016006E+02  0.19405670998E+03  0.12500005789E+03 0.  0.
          5    1    4    4  502    0  0.25364936272E+02  0.13400056290E+02 -0.90288312521E+02  0.94852574443E+02  0.47000000000E+01 0. -1.
         -5    1    4    4    0  502  0.96187381680E+02  0.20499714144E+02  0.12129296516E+02  0.99204135541E+02  0.47000000000E+01 0. -1.
          5    1    3    3  503    0 -0.13482067244E+03  0.51426398479E+01  0.33812443431E+02  0.13917051337E+03  0.47000000000E+01 0.  1.
         -5    1    3    3    0  503  0.13268354485E+02 -0.39042410282E+02 -0.71307380881E+00  0.41508523289E+02  0.47000000000E+01 0.  1.
<mgrwt>
<rscale>  0 0.17762124E+03</rscale>
<asrwt>0</asrwt>
<pdfrwt beam="2">  1        5 0.32291953E-01 0.17762136E+03</pdfrwt>
<pdfrwt beam="1">  1       -5 0.25359700E-01 0.17762136E+03</pdfrwt>
<totfact> 0.10733703E+02</totfact>
</mgrwt>
</event>
<event>
 8    1  0.3754098E-007  0.1391692E+03  0.7546771E-02  0.1214453E+00
         -5   -1    0    0    0  501 -0.00000000000E+00  0.00000000000E+00  0.81084469944E+02  0.81220571693E+02  0.47000000000E+01 0.  1.
          5   -1    0    0  501    0  0.00000000000E+00 -0.00000000000E+00 -0.29512791787E+03  0.29516533994E+03  0.47000000000E+01 0.  1.
         25    2    1    2    0    0  0.61697708998E+01  0.60855949007E+02 -0.24603672720E+02  0.14132106278E+03  0.12499915789E+03 0.  0.
         25    2    1    2    0    0 -0.61697708998E+01 -0.60855949007E+02 -0.18943977520E+03  0.23506484885E+03  0.12500616839E+03 0.  0.
          5    1    4    4  502    0  0.25591880234E+01 -0.98890563831E+02 -0.12356459195E+03  0.15835463820E+03  0.47000000000E+01 0.  1.
         -5    1    4    4    0  502 -0.87289589232E+01  0.38034614824E+02 -0.65875183256E+02  0.76710210648E+02  0.47000000000E+01 0.  1.
          5    1    3    3  503    0 -0.34826872864E+02  0.69525105808E+02 -0.49552981117E+02  0.92326807313E+02  0.47000000000E+01 0.  1.
         -5    1    3    3    0  503  0.40996643764E+02 -0.86691568005E+01  0.24949308397E+02  0.48994255470E+02  0.47000000000E+01 0.  1.
<mgrwt>
<rscale>  0 0.13916758E+03</rscale>
<asrwt>0</asrwt>
<pdfrwt beam="2">  1        5 0.45417642E-01 0.13916916E+03</pdfrwt>
<pdfrwt beam="1">  1       -5 0.12487882E-01 0.13916916E+03</pdfrwt>
<totfact> 0.18391583E+02</totfact>
</mgrwt>
</event>
<event>
 8    1  0.3754098E-007  0.1369486E+03  0.7546771E-02  0.1217500E+00
         -5   -1    0    0    0  501 -0.00000000000E+00  0.00000000000E+00  0.33969170341E+03  0.33972421663E+03  0.47000000000E+01 0. -1.
          5   -1    0    0  501    0  0.00000000000E+00 -0.00000000000E+00 -0.57677794435E+02  0.57868972437E+02  0.47000000000E+01 0. -1.
         25    2    1    2    0    0  0.52098201497E+02  0.20340400052E+02  0.18319378494E+03  0.22872444683E+03  0.12500782080E+03 0.  0.
         25    2    1    2    0    0 -0.52098201497E+02 -0.20340400052E+02  0.98820124035E+02  0.16886874224E+03  0.12499312269E+03 0.  0.
          5    1    4    4  502    0 -0.18524769153E+02  0.10432337767E+02  0.11744102021E+03  0.11944238767E+03  0.47000000000E+01 0. -1.
         -5    1    4    4    0  502 -0.33573432344E+02 -0.30772737818E+02 -0.18620896176E+02  0.49426354575E+02  0.47000000000E+01 0. -1.
          5    1    3    3  503    0  0.28591237670E+02  0.73031807071E+02  0.95819132196E+02  0.12391327536E+03  0.47000000000E+01 0. -1.
         -5    1    3    3    0  503  0.23506963827E+02 -0.52691407019E+02  0.87374652744E+02  0.10481117147E+03  0.47000000000E+01 0. -1.
<mgrwt>
<rscale>  0 0.13694521E+03</rscale>
<asrwt>0</asrwt>
<pdfrwt beam="2">  1        5 0.88907138E-02 0.13694857E+03</pdfrwt>
<pdfrwt beam="1">  1       -5 0.52277470E-01 0.13694857E+03</pdfrwt>
<totfact> 0.24661219E+02</totfact>
</mgrwt>
</event>
<event>
 8    1  0.3754098E-007  0.1796042E+03  0.7546771E-02  0.1168194E+00
         -5   -1    0    0    0  501 -0.00000000000E+00  0.00000000000E+00  0.10858339642E+03  0.10868506787E+03  0.47000000000E+01 0.  1.
          5   -1    0    0  501    0  0.00000000000E+00 -0.00000000000E+00 -0.34556579765E+03  0.34559775825E+03  0.47000000000E+01 0.  1.
         25    2    1    2    0    0  0.56756176139E+02  0.11576887828E+03 -0.33147490177E+02  0.18260963430E+03  0.12499530281E+03 0.  0.
         25    2    1    2    0    0 -0.56756176139E+02 -0.11576887828E+03 -0.20383491105E+03  0.27167319182E+03  0.12503581679E+03 0.  0.
          5    1    3    3  502    0 -0.38119039697E+02  0.34192136109E+02  0.51288322487E+01  0.51677444589E+02  0.47000000000E+01 0.  1.
         -5    1    3    3    0  502  0.94875215836E+02  0.81576742174E+02 -0.38276322426E+02  0.13093218971E+03  0.47000000000E+01 0.  1.
          5    1    4    4  503    0 -0.36294761588E+02 -0.36523869124E+02  0.28561267194E+00  0.51705650649E+02  0.47000000000E+01 0. -1.
         -5    1    4    4    0  503 -0.20461414552E+02 -0.79245009158E+02 -0.20412052373E+03  0.21996754117E+03  0.47000000000E+01 0. -1.
<mgrwt>
<rscale>  0 0.17959710E+03</rscale>
<asrwt>0</asrwt>
<pdfrwt beam="2">  1        5 0.53174248E-01 0.17960415E+03</pdfrwt>
<pdfrwt beam="1">  1       -5 0.16715418E-01 0.17960415E+03</pdfrwt>
<totfact> 0.84111166E+01</totfact>
</mgrwt>
</event>
<event>
 8    1  0.3754098E-007  0.1257039E+03  0.7546771E-02  0.1233975E+00
         -5   -1    0    0    0  501 -0.00000000000E+00  0.00000000000E+00  0.15938590205E+03  0.15945518422E+03  0.47000000000E+01 0.  1.
          5   -1    0    0  501    0  0.00000000000E+00 -0.00000000000E+00 -0.10221128913E+03  0.10231929253E+03  0.47000000000E+01 0.  1.
         25    2    1    2    0    0  0.37550135131E+01  0.12722186778E+02  0.51801842128E+02  0.13595581773E+03  0.12499839744E+03 0.  0.
         25    2    1    2    0    0 -0.37550135131E+01 -0.12722186778E+02  0.53727708005E+01  0.12581865902E+03  0.12500205650E+03 0.  0.
          5    1    4    4  502    0  0.23463290871E+02 -0.38359347979E+02  0.49999074644E+02  0.67408924195E+02  0.47000000000E+01 0. -1.
         -5    1    4    4    0  502 -0.27218304384E+02  0.25637161201E+02 -0.44626303843E+02  0.58409734828E+02  0.47000000000E+01 0. -1.
          5    1    3    3  503    0  0.40875310645E+02 -0.17016954321E+02 -0.20712596274E+02  0.49106714399E+02  0.47000000000E+01 0. -1.
         -5    1    3    3    0  503 -0.37120297132E+02  0.29739141098E+02  0.72514438402E+02  0.86849103329E+02  0.47000000000E+01 0. -1.
<mgrwt>
<rscale>  0 0.12570298E+03</rscale>
<asrwt>0</asrwt>
<pdfrwt beam="2">  1        5 0.15738451E-01 0.12570389E+03</pdfrwt>
<pdfrwt beam="1">  1       -5 0.24534545E-01 0.12570389E+03</pdfrwt>
<totfact> 0.39931745E+02</totfact>
</mgrwt>
</event>
<event>
 8    1  0.3754098E-007  0.1383941E+03  0.7546771E-02  0.1215507E+00
          5   -1    0    0  501    0  0.00000000000E+00  0.00000000000E+00  0.22276169608E+03  0.22281127270E+03  0.47000000000E+01 0.  1.
         -5   -1    0    0    0  501 -0.00000000000E+00 -0.00000000000E+00 -0.86157188266E+02  0.86285288954E+02  0.47000000000E+01 0.  1.
         25    2    1    2    0    0 -0.59386381990E+02  0.40634297258E+00  0.59151631778E+02  0.15050528759E+03  0.12500407421E+03 0.  0.
         25    2    1    2    0    0  0.59386381990E+02 -0.40634297258E+00  0.77452876038E+02  0.15859127407E+03  0.12500134688E+03 0.  0.
          5    1    4    4  502    0 -0.30407140915E+02 -0.30295042255E+02  0.30324797161E+02  0.52764259937E+02  0.47000000000E+01 0.  1.
         -5    1    4    4    0  502  0.89793522906E+02  0.29888699282E+02  0.47128078877E+02  0.10582701413E+03  0.47000000000E+01 0.  1.
          5    1    3    3  503    0 -0.55357549951E+02 -0.15056735730E+02 -0.26415072682E+02  0.63332532653E+02  0.47000000000E+01 0.  1.
         -5    1    3    3    0  503 -0.40288320389E+01  0.15463078702E+02  0.85566704459E+02  0.87172754933E+02  0.47000000000E+01 0.  1.
<mgrwt>
<rscale>  0 0.13839348E+03</rscale>
<asrwt>0</asrwt>
<pdfrwt beam="1">  1        5 0.34284698E-01 0.13839410E+03</pdfrwt>
<pdfrwt beam="2">  1       -5 0.13268620E-01 0.13839410E+03</pdfrwt>
<totfact> 0.29251973E+02</totfact>
</mgrwt>
</event>
<event>
 8    1  0.3754098E-007  0.1371726E+03  0.7546771E-02  0.1217187E+00
         -5   -1    0    0    0  501 -0.00000000000E+00  0.00000000000E+00  0.14158029848E+02  0.14917768237E+02  0.47000000000E+01 0. -1.
          5   -1    0    0  501    0  0.00000000000E+00 -0.00000000000E+00 -0.13175430242E+04  0.13175514072E+04  0.47000000000E+01 0. -1.
         25    2    1    2    0    0 -0.34898068805E+02 -0.44421074143E+02 -0.74171053790E+03  0.75428829889E+03  0.12500083507E+03 0.  0.
         25    2    1    2    0    0  0.34898068805E+02  0.44421074143E+02 -0.56167445648E+03  0.57818087658E+03  0.12499529571E+03 0.  0.
          5    1    4    4  502    0  0.48263931245E+02 -0.31254258673E+02 -0.18780033376E+03  0.19646193297E+03  0.47000000000E+01 0. -1.
         -5    1    4    4    0  502 -0.13365862440E+02  0.75675332816E+02 -0.37387412272E+03  0.38171894362E+03  0.47000000000E+01 0. -1.
          5    1    3    3  503    0 -0.45667582884E+02 -0.41579056119E+02 -0.73938824059E+03  0.74197803631E+03  0.47000000000E+01 0. -1.
         -5    1    3    3    0  503  0.10769514079E+02 -0.28420180243E+01 -0.23222973058E+01  0.12310262577E+02  0.47000000000E+01 0. -1.
<mgrwt>
<rscale>  0 0.13717131E+03</rscale>
<asrwt>0</asrwt>
<pdfrwt beam="2">  1        5 0.20275792E+00 0.13717258E+03</pdfrwt>
<pdfrwt beam="1">  1       -5 0.22372457E-02 0.13717258E+03</pdfrwt>
<totfact> 0.81256551E+01</totfact>
</mgrwt>
</event>
<event>
 8    1  0.3754098E-007  0.1271296E+03  0.7546771E-02  0.1231781E+00
          5   -1    0    0  501    0  0.00000000000E+00  0.00000000000E+00  0.23797353056E+02  0.24257040472E+02  0.47000000000E+01 0. -1.
         -5   -1    0    0    0  501 -0.00000000000E+00 -0.00000000000E+00 -0.76249351617E+03  0.76250800141E+03  0.47000000000E+01 0. -1.
         25    2    1    2    0    0 -0.18653368272E+02  0.13726781798E+02 -0.50472309203E+03  0.52048759118E+03  0.12500224098E+03 0.  0.
         25    2    1    2    0    0  0.18653368272E+02 -0.13726781798E+02 -0.23397307108E+03  0.26627745070E+03  0.12499564021E+03 0.  0.
          5    1    3    3  502    0  0.88005211003E+01  0.22398128729E+01  0.39215066406E+01  0.10951445004E+02  0.47000000000E+01 0.  1.
         -5    1    3    3    0  502 -0.27453889372E+02  0.11486968926E+02 -0.50864459867E+03  0.50953614617E+03  0.47000000000E+01 0.  1.
          5    1    4    4  503    0  0.17493233600E+02  0.57507169733E+01 -0.24337388750E+03  0.24411477441E+03  0.47000000000E+01 0.  1.
         -5    1    4    4    0  503  0.11601346719E+01 -0.19477498772E+02  0.94008164201E+01  0.22162676288E+02  0.47000000000E+01 0.  1.
<mgrwt>
<rscale>  0 0.12712797E+03</rscale>
<asrwt>0</asrwt>
<pdfrwt beam="1">  1        5 0.36976066E-02 0.12712959E+03</pdfrwt>
<pdfrwt beam="2">  1       -5 0.11734315E+00 0.12712959E+03</pdfrwt>
<totfact> 0.16143263E+02</totfact>
</mgrwt>
</event>
<event>
 8    1  0.3754098E-007  0.1455194E+03  0.7546771E-02  0.1206091E+00
          5   -1    0    0  501    0  0.00000000000E+00  0.00000000000E+00  0.30049169483E+03  0.30052844900E+03  0.47000000000E+01 0.  1.
         -5   -1    0    0    0  501 -0.00000000000E+00 -0.00000000000E+00 -0.71215315315E+02  0.71370239844E+02  0.47000000000E+01 0.  1.
         25    2    1    2    0    0  0.74379019384E+02  0.41833005622E+01  0.94158193017E+02  0.17332171431E+03  0.12499965124E+03 0.  0.
         25    2    1    2    0    0 -0.74379019384E+02 -0.41833005622E+01  0.13511818650E+03  0.19857697454E+03  0.12500460779E+03 0.  0.
          5    1    3    3  502    0  0.10559212147E+02  0.18166308976E+02 -0.27634280913E+02  0.35032202679E+02  0.47000000000E+01 0. -1.
         -5    1    3    3    0  502  0.63819807237E+02 -0.13983008414E+02  0.12179247393E+03  0.13828951163E+03  0.47000000000E+01 0. -1.
          5    1    4    4  503    0 -0.75080088083E+02  0.38366739749E+02  0.38321669339E+02  0.92734387831E+02  0.47000000000E+01 0.  1.
         -5    1    4    4    0  503  0.70106869875E+00 -0.42550040312E+02  0.96796517158E+02  0.10584258671E+03  0.47000000000E+01 0.  1.
<mgrwt>
<rscale>  0 0.14551832E+03</rscale>
<asrwt>0</asrwt>
<pdfrwt beam="1">  1        5 0.46244236E-01 0.14551938E+03</pdfrwt>
<pdfrwt beam="2">  1       -5 0.10970947E-01 0.14551938E+03</pdfrwt>
<totfact> 0.22605719E+02</totfact>
</mgrwt>
</event>
<event>
 8    1  0.3754098E-007  0.1802020E+03  0.7546771E-02  0.1167609E+00
         -5   -1    0    0    0  501 -0.00000000000E+00  0.00000000000E+00  0.12015560354E+03  0.12024749087E+03  0.47000000000E+01 0.  1.
          5   -1    0    0  501    0  0.00000000000E+00 -0.00000000000E+00 -0.56134345497E+03  0.56136313064E+03  0.47000000000E+01 0.  1.
         25    2    1    2    0    0  0.12863904064E+03  0.17305238107E+02  0.24888726935E+02  0.18191260496E+03  0.12500109229E+03 0.  0.
         25    2    1    2    0    0 -0.12863904064E+03 -0.17305238107E+02 -0.46607657837E+03  0.49969801655E+03  0.12499302698E+03 0.  0.
          5    1    4    4  502    0 -0.30064100622E+02  0.16728978335E+02 -0.30993770415E+03  0.31187686563E+03  0.47000000000E+01 0. -1.
         -5    1    4    4    0  502 -0.98574940020E+02 -0.34034216441E+02 -0.15613887422E+03  0.18782115092E+03  0.47000000000E+01 0. -1.
          5    1    3    3  503    0  0.14204035765E+03  0.55476820335E+01  0.50000486790E+02  0.15075934020E+03  0.47000000000E+01 0.  1.
         -5    1    3    3    0  503 -0.13401317011E+02  0.11757556073E+02 -0.25111759856E+02  0.31153264765E+02  0.47000000000E+01 0.  1.
<mgrwt>
<rscale>  0 0.18020056E+03</rscale>
<asrwt>0</asrwt>
<pdfrwt beam="2">  1        5 0.86369112E-01 0.18020196E+03</pdfrwt>
<pdfrwt beam="1">  1       -5 0.18494060E-01 0.18020196E+03</pdfrwt>
<totfact> 0.23409844E+01</totfact>
</mgrwt>
</event>
<event>
 8    1  0.3754098E-007  0.1432631E+03  0.7546771E-02  0.1209005E+00
          5   -1    0    0  501    0  0.00000000000E+00  0.00000000000E+00  0.84666555851E+02  0.84796908433E+02  0.47000000000E+01 0. -1.
         -5   -1    0    0    0  501 -0.00000000000E+00 -0.00000000000E+00 -0.25364419283E+03  0.25368773435E+03  0.47000000000E+01 0. -1.
         25    2    1    2    0    0 -0.15735007033E+02 -0.68205524065E+02 -0.48351523070E+02  0.15120148615E+03  0.12499774266E+03 0.  0.
         25    2    1    2    0    0  0.15735007033E+02  0.68205524065E+02 -0.12062611391E+03  0.18728315663E+03  0.12499894976E+03 0.  0.
          5    1    4    4  502    0  0.69037534837E+02  0.42250009251E+02 -0.51299780157E+02  0.95942701350E+02  0.47000000000E+01 0.  1.
         -5    1    4    4    0  502 -0.53302527804E+02  0.25955514814E+02 -0.69326333755E+02  0.91340455284E+02  0.47000000000E+01 0.  1.
          5    1    3    3  503    0 -0.23281369572E+02 -0.29921384220E+02  0.39504727150E+02  0.54954752934E+02  0.47000000000E+01 0.  1.
         -5    1    3    3    0  503  0.75463625393E+01 -0.38284139845E+02 -0.87856250220E+02  0.96246733212E+02  0.47000000000E+01 0.  1.
<mgrwt>
<rscale>  0 0.14326286E+03</rscale>
<asrwt>0</asrwt>
<pdfrwt beam="1">  1        5 0.13039001E-01 0.14326312E+03</pdfrwt>
<pdfrwt beam="2">  1       -5 0.39035560E-01 0.14326312E+03</pdfrwt>
<totfact> 0.23497804E+02</totfact>
</mgrwt>
</event>
<event>
 8    1  0.3754098E-007  0.1394698E+03  0.7546771E-02  0.1214046E+00
         -5   -1    0    0    0  501 -0.00000000000E+00  0.00000000000E+00  0.19546658007E+02  0.20103776741E+02  0.47000000000E+01 0. -1.
          5   -1    0    0  501    0  0.00000000000E+00 -0.00000000000E+00 -0.10543023019E+04  0.10543127780E+04  0.47000000000E+01 0. -1.
         25    2    1    2    0    0 -0.49927672469E+02  0.36527124982E+02 -0.37535840436E+03  0.40043195576E+03  0.12499926453E+03 0.  0.
         25    2    1    2    0    0  0.49927672469E+02 -0.36527124982E+02 -0.65939723955E+03  0.67398459897E+03  0.12499406699E+03 0.  0.
          5    1    3    3  502    0  0.27149900161E+02  0.22373493029E+02 -0.25008764029E+03  0.25259376100E+03  0.47000000000E+01 0. -1.
         -5    1    3    3    0  502 -0.77077572630E+02  0.14153631953E+02 -0.12527076407E+03  0.14783819476E+03  0.47000000000E+01 0. -1.
          5    1    4    4  503    0  0.50503324327E+02  0.38550874987E+02 -0.27335273222E+03  0.28067875221E+03  0.47000000000E+01 0.  1.
         -5    1    4    4    0  503 -0.57565185812E+00 -0.75077999969E+02 -0.38604450733E+03  0.39330584676E+03  0.47000000000E+01 0.  1.
<mgrwt>
<rscale>  0 0.13946862E+03</rscale>
<asrwt>0</asrwt>
<pdfrwt beam="2">  1        5 0.16224397E+00 0.13946978E+03</pdfrwt>
<pdfrwt beam="1">  1       -5 0.30508401E-02 0.13946978E+03</pdfrwt>
<totfact> 0.96082479E+01</totfact>
</mgrwt>
</event>
<event>
 8    1  0.3754098E-007  0.1296189E+03  0.7546771E-02  0.1228054E+00
          5   -1    0    0  501    0  0.00000000000E+00  0.00000000000E+00  0.12795816013E+02  0.13631687622E+02  0.47000000000E+01 0.  1.
         -5   -1    0    0    0  501 -0.00000000000E+00 -0.00000000000E+00 -0.13574083419E+04  0.13574164787E+04  0.47000000000E+01 0.  1.
         25    2    1    2    0    0  0.13414823458E+02  0.31187247492E+02 -0.84620016738E+03  0.85605695717E+03  0.12500475491E+03 0.  0.
         25    2    1    2    0    0 -0.13414823458E+02 -0.31187247492E+02 -0.49841235848E+03  0.51499120913E+03  0.12509382279E+03 0.  0.
          5    1    3    3  502    0 -0.36931018338E+02  0.34477022284E+02 -0.15698635219E+03  0.16498293838E+03  0.47000000000E+01 0.  1.
         -5    1    3    3    0  502  0.50345841796E+02 -0.32897747927E+01 -0.68921381519E+03  0.69107401879E+03  0.47000000000E+01 0.  1.
          5    1    4    4  503    0  0.24562175548E+02  0.33132313402E+02 -0.30134435701E+03  0.30419000996E+03  0.47000000000E+01 0.  1.
         -5    1    4    4    0  503 -0.37976999006E+02 -0.64319560894E+02 -0.19706800147E+03  0.21080119917E+03  0.47000000000E+01 0.  1.
<mgrwt>
<rscale>  0 0.12959743E+03</rscale>
<asrwt>0</asrwt>
<pdfrwt beam="1">  1        5 0.20335119E-02 0.12961893E+03</pdfrwt>
<pdfrwt beam="2">  1       -5 0.20889687E+00 0.12961893E+03</pdfrwt>
<totfact> 0.84628697E+01</totfact>
</mgrwt>
</event>
<event>
 8    1  0.3754098E-007  0.1453844E+03  0.7546771E-02  0.1206263E+00
          5   -1    0    0  501    0  0.00000000000E+00  0.00000000000E+00  0.25798225135E+02  0.26222860639E+02  0.47000000000E+01 0. -1.
         -5   -1    0    0    0  501 -0.00000000000E+00 -0.00000000000E+00 -0.82561728692E+03  0.82563066468E+03  0.47000000000E+01 0. -1.
         25    2    1    2    0    0 -0.70688012387E+02 -0.22694336061E+02 -0.45423440133E+03  0.47693303428E+03  0.12499759935E+03 0.  0.
         25    2    1    2    0    0  0.70688012387E+02  0.22694336061E+02 -0.34558466045E+03  0.37492049104E+03  0.12499915632E+03 0.  0.
          5    1    3    3  502    0 -0.86443201469E+02  0.28798591963E+02 -0.29344135713E+03  0.30729742279E+03  0.47000000000E+01 0.  1.
         -5    1    3    3    0  502  0.15755189083E+02 -0.51492928025E+02 -0.16079304421E+03  0.16963561149E+03  0.47000000000E+01 0.  1.
          5    1    4    4  503    0  0.25844408690E+02  0.15752708865E+02 -0.32220593796E+03  0.32365852029E+03  0.47000000000E+01 0. -1.
         -5    1    4    4    0  503  0.44843603696E+02  0.69416271962E+01 -0.23378722491E+02  0.51261970757E+02  0.47000000000E+01 0. -1.
<mgrwt>
<rscale>  0 0.14538404E+03</rscale>
<asrwt>0</asrwt>
<pdfrwt beam="1">  1        5 0.40026517E-02 0.14538438E+03</pdfrwt>
<pdfrwt beam="2">  1       -5 0.12705172E+00 0.14538438E+03</pdfrwt>
<totfact> 0.12084493E+02</totfact>
</mgrwt>
</event>
<event>
 8    1  0.3754098E-007  0.1371599E+03  0.7546771E-02  0.1217204E+00
         -5   -1    0    0    0  501 -0.00000000000E+00  0.00000000000E+00  0.16339595798E+03  0.16346354054E+03  0.47000000000E+01 0.  1.
          5   -1    0    0  501    0  0.00000000000E+00 -0.00000000000E+00 -0.13816106728E+03  0.13824098709E+03  0.47000000000E+01 0.  1.
         25    2    1    2    0    0  0.13523520293E+02  0.54819005286E+02  0.74357252233E+02  0.15601360421E+03  0.12499293900E+03 0.  0.
         25    2    1    2    0    0 -0.13523520293E+02 -0.54819005286E+02 -0.49122361527E+02  0.14569092341E+03  0.12499931928E+03 0.  0.
          5    1    3    3  502    0 -0.11079436838E+02  0.86083580379E+02  0.76646403146E+02  0.11588743610E+03  0.47000000000E+01 0.  1.
         -5    1    3    3    0  502  0.24602957131E+02 -0.31264575093E+02 -0.22891509130E+01  0.40126168111E+02  0.47000000000E+01 0.  1.
          5    1    4    4  503    0  0.36778009106E+02 -0.19522131229E+02  0.25389479538E+02  0.48994400014E+02  0.47000000000E+01 0. -1.
         -5    1    4    4    0  503 -0.50301529399E+02 -0.35296874057E+02 -0.74511841065E+02  0.96696523396E+02  0.47000000000E+01 0. -1.
<mgrwt>
<rscale>  0 0.13715845E+03</rscale>
<asrwt>0</asrwt>
<pdfrwt beam="2">  1        5 0.21266895E-01 0.13715990E+03</pdfrwt>
<pdfrwt beam="1">  1       -5 0.25149186E-01 0.13715990E+03</pdfrwt>
<totfact> 0.22534007E+02</totfact>
</mgrwt>
</event>
<event>
 8    1  0.3754098E-007  0.1347498E+03  0.7546771E-02  0.1220576E+00
         -5   -1    0    0    0  501 -0.00000000000E+00  0.00000000000E+00  0.79062878772E+03  0.79064275749E+03  0.47000000000E+01 0.  1.
          5   -1    0    0  501    0  0.00000000000E+00 -0.00000000000E+00 -0.22822608551E+02  0.23301533449E+02  0.47000000000E+01 0.  1.
         25    2    1    2    0    0  0.49004406119E+02 -0.11414417323E+02  0.41221662401E+03  0.43367932974E+03  0.12499398061E+03 0.  0.
         25    2    1    2    0    0 -0.49004406119E+02  0.11414417323E+02  0.35558955516E+03  0.38026496120E+03  0.12500315291E+03 0.  0.
          5    1    3    3  502    0  0.67250016749E+02 -0.39853988861E+02  0.14962074692E+03  0.16887676894E+03  0.47000000000E+01 0.  1.
         -5    1    3    3    0  502 -0.18245610630E+02  0.28439571538E+02  0.26259587709E+03  0.26480256079E+03  0.47000000000E+01 0.  1.
          5    1    4    4  503    0 -0.24182914907E+02  0.18272221530E+01  0.35216259154E+03  0.35302794931E+03  0.47000000000E+01 0.  1.
         -5    1    4    4    0  503 -0.24821491212E+02  0.95871951703E+01  0.34269636213E+01  0.27237011894E+02  0.47000000000E+01 0.  1.
<mgrwt>
<rscale>  0 0.13474767E+03</rscale>
<asrwt>0</asrwt>
<pdfrwt beam="2">  1        5 0.35490852E-02 0.13474980E+03</pdfrwt>
<pdfrwt beam="1">  1       -5 0.12167313E+00 0.13474980E+03</pdfrwt>
<totfact> 0.16052169E+02</totfact>
</mgrwt>
</event>
<event>
 8    1  0.3754098E-007  0.1948434E+03  0.7546771E-02  0.1154165E+00
         -5   -1    0    0    0  501 -0.00000000000E+00  0.00000000000E+00  0.62352878329E+03  0.62354649673E+03  0.47000000000E+01 0.  1.
          5   -1    0    0  501    0  0.00000000000E+00 -0.00000000000E+00 -0.10128500570E+03  0.10139399577E+03  0.47000000000E+01 0.  1.
         25    2    1    2    0    0  0.49085469629E+02 -0.14116873159E+03  0.49017006945E+03  0.52747483519E+03  0.12500004268E+03 0.  0.
         25    2    1    2    0    0 -0.49085469629E+02  0.14116873159E+03  0.32073708145E+02  0.19746565732E+03  0.12500387577E+03 0.  0.
          5    1    3    3  502    0  0.28015130541E+02 -0.67511619409E+02  0.73391375671E+02  0.10368727172E+03  0.47000000000E+01 0.  1.
         -5    1    3    3    0  502  0.21070339089E+02 -0.73657112180E+02  0.41677869378E+03  0.42378756347E+03  0.47000000000E+01 0.  1.
          5    1    4    4  503    0 -0.58185074674E+02  0.16921518153E+02 -0.17585435767E+02  0.63270674427E+02  0.47000000000E+01 0. -1.
         -5    1    4    4    0  503  0.90996050442E+01  0.12424721344E+03  0.49659143912E+02  0.13419498289E+03  0.47000000000E+01 0. -1.
<mgrwt>
<rscale>  0 0.19484282E+03</rscale>
<asrwt>0</asrwt>
<pdfrwt beam="2">  1        5 0.15592055E-01 0.19484343E+03</pdfrwt>
<pdfrwt beam="1">  1       -5 0.95937252E-01 0.19484343E+03</pdfrwt>
<totfact> 0.25443244E+01</totfact>
</mgrwt>
</event>
<event>
 8    1  0.3754098E-007  0.1365618E+03  0.7546771E-02  0.1218032E+00
         -5   -1    0    0    0  501 -0.00000000000E+00  0.00000000000E+00  0.17498165897E+03  0.17504476849E+03  0.47000000000E+01 0. -1.
          5   -1    0    0  501    0  0.00000000000E+00 -0.00000000000E+00 -0.19151701097E+03  0.19157467341E+03  0.47000000000E+01 0. -1.
         25    2    1    2    0    0  0.48757134804E+02  0.25428904316E+02  0.11386084164E+03  0.17780126285E+03  0.12500044178E+03 0.  0.
         25    2    1    2    0    0 -0.48757134804E+02 -0.25428904316E+02 -0.13039619364E+03  0.18881817905E+03  0.12500100022E+03 0.  0.
          5    1    4    4  502    0 -0.41633113691E+02  0.44471375394E+02 -0.86273318225E+02  0.10571752373E+03  0.47000000000E+01 0. -1.
         -5    1    4    4    0  502 -0.71240211129E+01 -0.69900279710E+02 -0.44122875411E+02  0.83100655322E+02  0.47000000000E+01 0. -1.
          5    1    3    3  503    0  0.13713889839E+02 -0.40759019319E+02  0.22615445077E+01  0.43319429981E+02  0.47000000000E+01 0.  1.
         -5    1    3    3    0  503  0.35043244965E+02  0.66187923634E+02  0.11159929713E+03  0.13448183287E+03  0.47000000000E+01 0.  1.
<mgrwt>
<rscale>  0 0.13656172E+03</rscale>
<asrwt>0</asrwt>
<pdfrwt beam="2">  1        5 0.29473446E-01 0.13656184E+03</pdfrwt>
<pdfrwt beam="1">  1       -5 0.26929545E-01 0.13656184E+03</pdfrwt>
<totfact> 0.10552012E+02</totfact>
</mgrwt>
</event>
<event>
 8    1  0.3754098E-007  0.1282555E+03  0.7546771E-02  0.1230068E+00
          5   -1    0    0  501    0  0.00000000000E+00  0.00000000000E+00  0.42683920900E+03  0.42686508447E+03  0.47000000000E+01 0.  1.
         -5   -1    0    0    0  501 -0.00000000000E+00 -0.00000000000E+00 -0.38427741698E+02  0.38714097330E+02  0.47000000000E+01 0.  1.
         25    2    1    2    0    0  0.23585324274E+02 -0.16371297230E+02  0.18500312602E+03  0.22511250951E+03  0.12500079361E+03 0.  0.
         25    2    1    2    0    0 -0.23585324274E+02  0.16371297230E+02  0.20340834128E+03  0.24046667229E+03  0.12499992115E+03 0.  0.
          5    1    4    4  502    0 -0.72378980784E+02  0.27589717837E+02  0.13217516520E+03  0.15327189464E+03  0.47000000000E+01 0. -1.
         -5    1    4    4    0  502  0.48793656510E+02 -0.11218420607E+02  0.71233176077E+02  0.87194777656E+02  0.47000000000E+01 0. -1.
          5    1    3    3  503    0  0.48190132427E+02 -0.49832845671E+02  0.16446610320E+03  0.17854072497E+03  0.47000000000E+01 0.  1.
         -5    1    3    3    0  503 -0.24604808153E+02  0.33461548441E+02  0.20537022820E+02  0.46571784534E+02  0.47000000000E+01 0.  1.
<mgrwt>
<rscale>  0 0.12825533E+03</rscale>
<asrwt>0</asrwt>
<pdfrwt beam="1">  1        5 0.65691588E-01 0.12825555E+03</pdfrwt>
<pdfrwt beam="2">  1       -5 0.59359781E-02 0.12825555E+03</pdfrwt>
<totfact> 0.29147425E+02</totfact>
</mgrwt>
</event>
<event>
 8    1  0.3754098E-007  0.1392808E+03  0.7546771E-02  0.1214301E+00
         -5   -1    0    0    0  501 -0.00000000000E+00  0.00000000000E+00  0.69512100800E+02  0.69670812810E+02  0.47000000000E+01 0.  1.
          5   -1    0    0  501    0  0.00000000000E+00 -0.00000000000E+00 -0.35514698004E+03  0.35517807847E+03  0.47000000000E+01 0.  1.
         25    2    1    2    0    0 -0.34607252964E+02  0.50767745582E+02 -0.44207626486E+02  0.14612818966E+03  0.12499643044E+03 0.  0.
         25    2    1    2    0    0  0.34607252964E+02 -0.50767745582E+02 -0.24142725275E+03  0.27872070163E+03  0.12499234055E+03 0.  0.
          5    1    3    3  502    0 -0.22679399135E+02 -0.20392886544E+02 -0.64094770216E+02  0.71136871844E+02  0.47000000000E+01 0. -1.
         -5    1    3    3    0  502 -0.11927853829E+02  0.71160632126E+02  0.19887143730E+02  0.74991317812E+02  0.47000000000E+01 0. -1.
          5    1    4    4  503    0  0.15380390804E+02  0.41209921487E+02 -0.93036216556E+02  0.10301767635E+03  0.47000000000E+01 0.  1.
         -5    1    4    4    0  503  0.19226862159E+02 -0.91977667069E+02 -0.14839103619E+03  0.17570302527E+03  0.47000000000E+01 0.  1.
<mgrwt>
<rscale>  0 0.13927985E+03</rscale>
<asrwt>0</asrwt>
<pdfrwt beam="2">  1        5 0.54652597E-01 0.13928077E+03</pdfrwt>
<pdfrwt beam="1">  1       -5 0.10708770E-01 0.13928077E+03</pdfrwt>
<totfact> 0.16305927E+02</totfact>
</mgrwt>
</event>
<event>
 8    1  0.3754098E-007  0.1321574E+03  0.7546771E-02  0.1224294E+00
         -5   -1    0    0    0  501 -0.00000000000E+00  0.00000000000E+00  0.15475910524E+03  0.15483045778E+03  0.47000000000E+01 0.  1.
          5   -1    0    0  501    0  0.00000000000E+00 -0.00000000000E+00 -0.11998027827E+03  0.12007229977E+03  0.47000000000E+01 0.  1.
         25    2    1    2    0    0 -0.39449352195E+02  0.16754332192E+02  0.51225195614E+02  0.14173776967E+03  0.12501446176E+03 0.  0.
         25    2    1    2    0    0  0.39449352195E+02 -0.16754332192E+02 -0.16446368638E+02  0.13316498789E+03  0.12500188767E+03 0.  0.
          5    1    3    3  502    0 -0.31007972831E+02  0.24642481262E+02 -0.35937352779E+02  0.53687331714E+02  0.47000000000E+01 0. -1.
         -5    1    3    3    0  502 -0.84413793637E+01 -0.78881490695E+01  0.87162548393E+02  0.88050437953E+02  0.47000000000E+01 0. -1.
          5    1    4    4  503    0  0.22304631993E+02  0.44391205323E+02  0.26360975335E+02  0.56436395517E+02  0.47000000000E+01 0.  1.
         -5    1    4    4    0  503  0.17144720202E+02 -0.61145537516E+02 -0.42807343973E+02  0.76728592369E+02  0.47000000000E+01 0.  1.
<mgrwt>
<rscale>  0 0.13215441E+03</rscale>
<asrwt>0</asrwt>
<pdfrwt beam="2">  1        5 0.18471072E-01 0.13215739E+03</pdfrwt>
<pdfrwt beam="1">  1       -5 0.23821660E-01 0.13215739E+03</pdfrwt>
<totfact> 0.32090088E+02</totfact>
</mgrwt>
</event>
<event>
 8    1  0.3754098E-007  0.1341112E+03  0.7546771E-02  0.1221496E+00
          5   -1    0    0  501    0  0.00000000000E+00  0.00000000000E+00  0.18901722811E+02  0.19477297688E+02  0.47000000000E+01 0.  1.
         -5   -1    0    0    0  501 -0.00000000000E+00 -0.00000000000E+00 -0.93755997064E+03  0.93757175115E+03  0.47000000000E+01 0.  1.
         25    2    1    2    0    0  0.40219713939E+02  0.27277927748E+02 -0.47626010490E+03  0.49476998540E+03  0.12494774988E+03 0.  0.
         25    2    1    2    0    0 -0.40219713939E+02 -0.27277927748E+02 -0.44239814293E+03  0.46227906344E+03  0.12499641952E+03 0.  0.
          5    1    3    3  502    0  0.53366720699E+02  0.58693964750E+02 -0.18310467467E+03  0.19960561180E+03  0.47000000000E+01 0. -1.
         -5    1    3    3    0  502 -0.13147006760E+02 -0.31416037002E+02 -0.29315543023E+03  0.29516437360E+03  0.47000000000E+01 0. -1.
          5    1    4    4  503    0 -0.37211618210E+02  0.18576227753E+02 -0.39076028934E+03  0.39299551460E+03  0.47000000000E+01 0.  1.
         -5    1    4    4    0  503 -0.30080957285E+01 -0.45854155501E+02 -0.51637853588E+02  0.69283548839E+02  0.47000000000E+01 0.  1.
<mgrwt>
<rscale>  0 0.13409986E+03</rscale>
<asrwt>0</asrwt>
<pdfrwt beam="1">  1        5 0.29531393E-02 0.13411121E+03</pdfrwt>
<pdfrwt beam="2">  1       -5 0.14428514E+00 0.13411121E+03</pdfrwt>
<totfact> 0.13813918E+02</totfact>
</mgrwt>
</event>
<event>
 8    1  0.3754098E-007  0.1479276E+03  0.7546771E-02  0.1203044E+00
         -5   -1    0    0    0  501 -0.00000000000E+00  0.00000000000E+00  0.12185488960E+03  0.12194549651E+03  0.47000000000E+01 0. -1.
          5   -1    0    0  501    0  0.00000000000E+00 -0.00000000000E+00 -0.18487978031E+03  0.18493951219E+03  0.47000000000E+01 0. -1.
         25    2    1    2    0    0 -0.10658185548E+02  0.78379196018E+02 -0.50735340902E+01  0.14801456583E+03  0.12500270262E+03 0.  0.
         25    2    1    2    0    0  0.10658185548E+02 -0.78379196018E+02 -0.57951356620E+02  0.15887044287E+03  0.12499825037E+03 0.  0.
          5    1    4    4  502    0 -0.18875550354E+02 -0.85853026131E+02 -0.81589784186E+02  0.12002504481E+03  0.47000000000E+01 0.  1.
         -5    1    4    4    0  502  0.29533735902E+02  0.74738301139E+01  0.23638427565E+02  0.38845398063E+02  0.47000000000E+01 0.  1.
          5    1    3    3  503    0  0.47523871282E+02  0.41821462893E+02  0.30577415911E+02  0.70460069997E+02  0.47000000000E+01 0.  1.
         -5    1    3    3    0  503 -0.58182056831E+02  0.36557733125E+02 -0.35650950001E+02  0.77554495835E+02  0.47000000000E+01 0.  1.
<mgrwt>
<rscale>  0 0.14792665E+03</rscale>
<asrwt>0</asrwt>
<pdfrwt beam="2">  1        5 0.28454608E-01 0.14792759E+03</pdfrwt>
<pdfrwt beam="1">  1       -5 0.18758471E-01 0.14792759E+03</pdfrwt>
<totfact> 0.23009824E+02</totfact>
</mgrwt>
</event>
<event>
 8    1  0.3754098E-007  0.1337428E+03  0.7546771E-02  0.1222007E+00
          5   -1    0    0  501    0  0.00000000000E+00  0.00000000000E+00  0.12692391219E+03  0.12701090302E+03  0.47000000000E+01 0.  1.
         -5   -1    0    0    0  501 -0.00000000000E+00 -0.00000000000E+00 -0.20166486121E+03  0.20171962286E+03  0.47000000000E+01 0.  1.
         25    2    1    2    0    0 -0.36617522315E+02  0.30375270969E+02 -0.12767241159E+03  0.18489830280E+03  0.12499455056E+03 0.  0.
         25    2    1    2    0    0  0.36617522315E+02 -0.30375270969E+02  0.52931462564E+02  0.14383222308E+03  0.12498987415E+03 0.  0.
          5    1    3    3  502    0 -0.67088052657E+02  0.15651204408E+02 -0.13344167734E+03  0.15024825543E+03  0.47000000000E+01 0.  1.
         -5    1    3    3    0  502  0.30470530342E+02  0.14724066561E+02  0.57692657504E+01  0.34650047370E+02  0.47000000000E+01 0.  1.
          5    1    4    4  503    0  0.26882216912E+02 -0.70076207996E+02  0.66621475196E+02  0.10046810176E+03  0.47000000000E+01 0. -1.
         -5    1    4    4    0  503  0.97353054037E+01  0.39700937027E+02 -0.13690012632E+02  0.43364121321E+02  0.47000000000E+01 0. -1.
<mgrwt>
<rscale>  0 0.13374171E+03</rscale>
<asrwt>0</asrwt>
<pdfrwt beam="1">  1        5 0.19537660E-01 0.13374280E+03</pdfrwt>
<pdfrwt beam="2">  1       -5 0.31036267E-01 0.13374280E+03</pdfrwt>
<totfact> 0.17398579E+02</totfact>
</mgrwt>
</event>
<event>
 8    1  0.3754098E-007  0.1619153E+03  0.7546771E-02  0.1186552E+00
         -5   -1    0    0    0  501 -0.00000000000E+00  0.00000000000E+00  0.85338643024E+02  0.85467970569E+02  0.47000000000E+01 0.  1.
          5   -1    0    0  501    0  0.00000000000E+00 -0.00000000000E+00 -0.30715163948E+03  0.30718759681E+03  0.47000000000E+01 0.  1.
         25    2    1    2    0    0 -0.55638601266E+02 -0.86574804527E+02 -0.11732876311E+03  0.19995648834E+03  0.12500283136E+03 0.  0.
         25    2    1    2    0    0  0.55638601266E+02  0.86574804527E+02 -0.10448423335E+03  0.19269907904E+03  0.12500051725E+03 0.  0.
          5    1    4    4  502    0  0.84578175745E+02  0.52130769115E+02 -0.10861711252E+03  0.14727814513E+03  0.47000000000E+01 0.  1.
         -5    1    4    4    0  502 -0.28939574478E+02  0.34444035412E+02  0.41328791755E+01  0.45420933904E+02  0.47000000000E+01 0.  1.
          5    1    3    3  503    0 -0.26465319973E+02  0.30313005371E+02 -0.38631594745E+02  0.55980189071E+02  0.47000000000E+01 0.  1.
         -5    1    3    3    0  503 -0.29173281293E+02 -0.11688780990E+03 -0.78697168363E+02  0.14397629927E+03  0.47000000000E+01 0.  1.
<mgrwt>
<rscale>  0 0.16191484E+03</rscale>
<asrwt>0</asrwt>
<pdfrwt beam="2">  1        5 0.47266812E-01 0.16191528E+03</pdfrwt>
<pdfrwt beam="1">  1       -5 0.13141736E-01 0.16191528E+03</pdfrwt>
<totfact> 0.16220876E+02</totfact>
</mgrwt>
</event>
<event>
 8    1  0.3754098E-007  0.1294912E+03  0.7546771E-02  0.1228213E+00
         -5   -1    0    0    0  501 -0.00000000000E+00  0.00000000000E+00  0.17885936982E+02  0.18493153915E+02  0.47000000000E+01 0. -1.
          5   -1    0    0  501    0  0.00000000000E+00 -0.00000000000E+00 -0.92922938755E+03  0.92924127367E+03  0.47000000000E+01 0. -1.
         25    2    1    2    0    0 -0.58902737985E+01 -0.33296392370E+02 -0.49962170424E+03  0.51612965309E+03  0.12499850550E+03 0.  0.
         25    2    1    2    0    0  0.58902737985E+01  0.33296392370E+02 -0.41172174633E+03  0.43160477450E+03  0.12499815958E+03 0.  0.
          5    1    4    4  502    0 -0.22469366484E+01  0.78417993514E+02 -0.31201833063E+03  0.32176382500E+03  0.47000000000E+01 0. -1.
         -5    1    4    4    0  502  0.81372104469E+01 -0.45121601144E+02 -0.99703415697E+02  0.10984094949E+03  0.47000000000E+01 0. -1.
          5    1    3    3  503    0 -0.14996418963E+01  0.46889835239E+02 -0.22907185774E+03  0.23387370862E+03  0.47000000000E+01 0. -1.
         -5    1    3    3    0  503 -0.43906319021E+01 -0.80186227609E+02 -0.27054984650E+03  0.28225594447E+03  0.47000000000E+01 0. -1.
<mgrwt>
<rscale>  0 0.12949112E+03</rscale>
<asrwt>0</asrwt>
<pdfrwt beam="2">  1        5 0.14300595E+00 0.12949120E+03</pdfrwt>
<pdfrwt beam="1">  1       -5 0.27993066E-02 0.12949120E+03</pdfrwt>
<totfact> 0.15244219E+02</totfact>
</mgrwt>
</event>
<event>
 8    1  0.3754098E-007  0.1868982E+03  0.7546771E-02  0.1161289E+00
          5   -1    0    0  501    0  0.00000000000E+00  0.00000000000E+00  0.19504873215E+03  0.19510535081E+03  0.47000000000E+01 0.  1.
         -5   -1    0    0    0  501 -0.00000000000E+00 -0.00000000000E+00 -0.18016595346E+03  0.18022724762E+03  0.47000000000E+01 0.  1.
         25    2    1    2    0    0  0.96819672307E+02 -0.99658581736E+02  0.22706975061E+02  0.18827251546E+03  0.12500020601E+03 0.  0.
         25    2    1    2    0    0 -0.96819672307E+02  0.99658581736E+02 -0.78241963683E+01  0.18706008297E+03  0.12499749891E+03 0.  0.
          5    1    3    3  502    0  0.22028894204E+02  0.29553068485E+02  0.92837257993E+01  0.38300569205E+02  0.47000000000E+01 0. -1.
         -5    1    3    3    0  502  0.74790778103E+02 -0.12921165022E+03  0.13423249262E+02  0.14997194625E+03  0.47000000000E+01 0. -1.
          5    1    4    4  503    0 -0.28121687367E+02  0.90488100367E+02 -0.48509551722E+02  0.10655605199E+03  0.47000000000E+01 0. -1.
         -5    1    4    4    0  503 -0.68697984939E+02  0.91704813690E+01  0.40685355353E+02  0.80504030977E+02  0.47000000000E+01 0. -1.
<mgrwt>
<rscale>  0 0.18689774E+03</rscale>
<asrwt>0</asrwt>
<pdfrwt beam="1">  1        5 0.30016568E-01 0.18689819E+03</pdfrwt>
<pdfrwt beam="2">  1       -5 0.27726909E-01 0.18689819E+03</pdfrwt>
<totfact> 0.10590269E+02</totfact>
</mgrwt>
</event>
<event>
 8    1  0.3754098E-007  0.2106923E+03  0.7546771E-02  0.1141022E+00
          5   -1    0    0  501    0  0.00000000000E+00  0.00000000000E+00  0.18692488463E+03  0.18698396320E+03  0.47000000000E+01 0. -1.
         -5   -1    0    0    0  501 -0.00000000000E+00 -0.00000000000E+00 -0.29802597759E+03  0.29806303581E+03  0.47000000000E+01 0. -1.
         25    2    1    2    0    0  0.10566138616E+03 -0.13266775190E+03 -0.16496810594E+03  0.26759247521E+03  0.12500478347E+03 0.  0.
         25    2    1    2    0    0 -0.10566138616E+03  0.13266775190E+03  0.53867012979E+02  0.21745452380E+03  0.12497901390E+03 0.  0.
          5    1    3    3  502    0  0.43765021326E+02 -0.11565241891E+03 -0.16106075789E+03  0.20310961775E+03  0.47000000000E+01 0. -1.
         -5    1    3    3    0  502  0.61896364834E+02 -0.17015332998E+02 -0.39073480456E+01  0.64482857454E+02  0.47000000000E+01 0. -1.
          5    1    4    4  503    0 -0.10037155755E+03  0.26063838539E+02  0.28431165778E+02  0.10762989563E+03  0.47000000000E+01 0.  1.
         -5    1    4    4    0  503 -0.52898286064E+01  0.10660391337E+03  0.25435847200E+02  0.10982462818E+03  0.47000000000E+01 0.  1.
<mgrwt>
<rscale>  0 0.21068851E+03</rscale>
<asrwt>0</asrwt>
<pdfrwt beam="1">  1        5 0.28765070E-01 0.21069233E+03</pdfrwt>
<pdfrwt beam="2">  1       -5 0.45857545E-01 0.21069233E+03</pdfrwt>
<totfact> 0.42923130E+01</totfact>
</mgrwt>
</event>
<event>
 8    1  0.3754098E-007  0.1558514E+03  0.7546771E-02  0.1193463E+00
          5   -1    0    0  501    0  0.00000000000E+00  0.00000000000E+00  0.17544602817E+03  0.17550897071E+03  0.47000000000E+01 0. -1.
         -5   -1    0    0    0  501 -0.00000000000E+00 -0.00000000000E+00 -0.13944223397E+03  0.13952141992E+03  0.47000000000E+01 0. -1.
         25    2    1    2    0    0 -0.67110311316E+02  0.64498056428E+02  0.38331538722E+01  0.15589848916E+03  0.12500341070E+03 0.  0.
         25    2    1    2    0    0  0.67110311316E+02 -0.64498056428E+02  0.32170640322E+02  0.15913190147E+03  0.12499687516E+03 0.  0.
          5    1    4    4  502    0  0.42196927629E+01 -0.21176569471E+02 -0.45203708014E+02  0.50316181491E+02  0.47000000000E+01 0.  1.
         -5    1    4    4    0  502  0.62890618554E+02 -0.43321486957E+02  0.77374348336E+02  0.10881571998E+03  0.47000000000E+01 0.  1.
          5    1    3    3  503    0 -0.24230826107E+02  0.94933239041E+02 -0.16228244598E+02  0.99422828020E+02  0.47000000000E+01 0. -1.
         -5    1    3    3    0  503 -0.42879485210E+02 -0.30435182613E+02  0.20061398471E+02  0.56475661140E+02  0.47000000000E+01 0. -1.
<mgrwt>
<rscale>  0 0.15585005E+03</rscale>
<asrwt>0</asrwt>
<pdfrwt beam="1">  1        5 0.27002630E-01 0.15585136E+03</pdfrwt>
<pdfrwt beam="2">  1       -5 0.21463584E-01 0.15585136E+03</pdfrwt>
<totfact> 0.20147236E+02</totfact>
</mgrwt>
</event>
<event>
 8    1  0.3754098E-007  0.1780794E+03  0.7546771E-02  0.1169676E+00
         -5   -1    0    0    0  501 -0.00000000000E+00  0.00000000000E+00  0.84458052383E+02  0.84588726272E+02  0.47000000000E+01 0.  1.
          5   -1    0    0  501    0  0.00000000000E+00 -0.00000000000E+00 -0.39549415240E+03  0.39552207851E+03  0.47000000000E+01 0.  1.
         25    2    1    2    0    0 -0.12468872291E+03 -0.23236737325E+02 -0.10092623078E+03  0.20468674545E+03  0.12499334430E+03 0.  0.
         25    2    1    2    0    0  0.12468872291E+03  0.23236737325E+02 -0.21010986924E+03  0.27542405933E+03  0.12500012690E+03 0.  0.
          5    1    3    3  502    0 -0.10756979734E+03 -0.16016216080E+01 -0.12695060583E+03  0.16647033613E+03  0.47000000000E+01 0.  1.
         -5    1    3    3    0  502 -0.17118925568E+02 -0.21635115717E+02  0.26024375042E+02  0.38216409316E+02  0.47000000000E+01 0.  1.
          5    1    4    4  503    0 -0.48618507135E+01  0.45028575722E+02 -0.68010556329E+02  0.81845806222E+02  0.47000000000E+01 0. -1.
         -5    1    4    4    0  503  0.12955057363E+03 -0.21791838397E+02 -0.14209931291E+03  0.19357825311E+03  0.47000000000E+01 0. -1.
<mgrwt>
<rscale>  0 0.17807816E+03</rscale>
<asrwt>0</asrwt>
<pdfrwt beam="2">  1        5 0.60857453E-01 0.17807935E+03</pdfrwt>
<pdfrwt beam="1">  1       -5 0.13005747E-01 0.17807935E+03</pdfrwt>
<totfact> 0.98627723E+01</totfact>
</mgrwt>
</event>
<event>
 8    1  0.3754098E-007  0.1491261E+03  0.7546771E-02  0.1201555E+00
          5   -1    0    0  501    0  0.00000000000E+00  0.00000000000E+00  0.10137442254E+03  0.10148331659E+03  0.47000000000E+01 0. -1.
         -5   -1    0    0    0  501 -0.00000000000E+00 -0.00000000000E+00 -0.22373299189E+03  0.22378235333E+03  0.47000000000E+01 0. -1.
         25    2    1    2    0    0  0.66372905079E+02  0.46986239379E+02 -0.37789233284E+02  0.15383963074E+03  0.12500214644E+03 0.  0.
         25    2    1    2    0    0 -0.66372905079E+02 -0.46986239379E+02 -0.84569336064E+02  0.17142603918E+03  0.12498737971E+03 0.  0.
          5    1    3    3  502    0 -0.14470404708E+02  0.53386904674E+01  0.34166342344E+02  0.37779930882E+02  0.47000000000E+01 0.  1.
         -5    1    3    3    0  502  0.80843309787E+02  0.41647548911E+02 -0.71955575628E+02  0.11605969986E+03  0.47000000000E+01 0.  1.
          5    1    4    4  503    0 -0.53377241175E+02 -0.58687558917E+02  0.53994839158E+01  0.79653021748E+02  0.47000000000E+01 0.  1.
         -5    1    4    4    0  503 -0.12995663904E+02  0.11701319538E+02 -0.89968819979E+02  0.91773017427E+02  0.47000000000E+01 0.  1.
<mgrwt>
<rscale>  0 0.14912305E+03</rscale>
<asrwt>0</asrwt>
<pdfrwt beam="1">  1        5 0.15608239E-01 0.14912614E+03</pdfrwt>
<pdfrwt beam="2">  1       -5 0.34432634E-01 0.14912614E+03</pdfrwt>
<totfact> 0.22185042E+02</totfact>
</mgrwt>
</event>
<event>
 8    1  0.3754098E-007  0.1324792E+03  0.7546771E-02  0.1223851E+00
         -5   -1    0    0    0  501 -0.00000000000E+00  0.00000000000E+00  0.24654398761E+03  0.24658878285E+03  0.47000000000E+01 0. -1.
          5   -1    0    0  501    0  0.00000000000E+00 -0.00000000000E+00 -0.74903997802E+02  0.75051308361E+02  0.47000000000E+01 0. -1.
         25    2    1    2    0    0 -0.12102283834E+02 -0.42189187023E+02  0.12243209813E+03  0.18038945930E+03  0.12499738237E+03 0.  0.
         25    2    1    2    0    0  0.12102283834E+02  0.42189187023E+02  0.49207891680E+02  0.14125063191E+03  0.12491569812E+03 0.  0.
          5    1    4    4  502    0 -0.46649230492E+02  0.40330930442E+02  0.53979977789E+02  0.82089357763E+02  0.47000000000E+01 0.  1.
         -5    1    4    4    0  502  0.58751514325E+02  0.18582565806E+01 -0.47720861092E+01  0.59161274148E+02  0.47000000000E+01 0.  1.
          5    1    3    3  503    0 -0.66822778624E+02 -0.14159100109E+02  0.47414575285E+02  0.83282626089E+02  0.47000000000E+01 0.  1.
         -5    1    3    3    0  503  0.54720494790E+02 -0.28030086913E+02  0.75017522847E+02  0.97106833213E+02  0.47000000000E+01 0.  1.
<mgrwt>
<rscale>  0 0.13245993E+03</rscale>
<asrwt>0</asrwt>
<pdfrwt beam="2">  1        5 0.11538469E-01 0.13247920E+03</pdfrwt>
<pdfrwt beam="1">  1       -5 0.37944622E-01 0.13247920E+03</pdfrwt>
<totfact> 0.30115472E+02</totfact>
</mgrwt>
</event>
<event>
 8    1  0.3754098E-007  0.1639676E+03  0.7546771E-02  0.1184290E+00
          5   -1    0    0  501    0  0.00000000000E+00  0.00000000000E+00  0.80309434863E+03  0.80310810156E+03  0.47000000000E+01 0. -1.
         -5   -1    0    0    0  501 -0.00000000000E+00 -0.00000000000E+00 -0.33523691134E+02  0.33851556349E+02  0.47000000000E+01 0. -1.
         25    2    1    2    0    0 -0.84304609971E+02  0.64444836844E+02  0.41901036347E+03  0.44995006427E+03  0.12499988554E+03 0.  0.
         25    2    1    2    0    0  0.84304609971E+02 -0.64444836844E+02  0.35056029403E+03  0.38700959364E+03  0.12499400612E+03 0.  0.
          5    1    3    3  502    0 -0.68735537751E+02  0.51075980556E+02  0.10653672318E+03  0.13676802743E+03  0.47000000000E+01 0. -1.
         -5    1    3    3    0  502 -0.15569072220E+02  0.13368856288E+02  0.31247364029E+03  0.31318203684E+03  0.47000000000E+01 0. -1.
          5    1    4    4  503    0  0.16522485439E+02 -0.42879347466E+02  0.22661532850E+02  0.51451589240E+02  0.47000000000E+01 0. -1.
         -5    1    4    4    0  503  0.67782124532E+02 -0.21565489378E+02  0.32789876118E+03  0.33555800440E+03  0.47000000000E+01 0. -1.
<mgrwt>
<rscale>  0 0.16396648E+03</rscale>
<asrwt>0</asrwt>
<pdfrwt beam="1">  1        5 0.12357926E+00 0.16396761E+03</pdfrwt>
<pdfrwt beam="2">  1       -5 0.51837690E-02 0.16396761E+03</pdfrwt>
<totfact> 0.87762164E+01</totfact>
</mgrwt>
</event>
<event>
 8    1  0.3754098E-007  0.1260557E+03  0.7546771E-02  0.1233440E+00
         -5   -1    0    0    0  501 -0.00000000000E+00  0.00000000000E+00  0.41518846993E+03  0.41521507145E+03  0.47000000000E+01 0. -1.
          5   -1    0    0  501    0  0.00000000000E+00 -0.00000000000E+00 -0.40978206569E+02  0.41246859440E+02  0.47000000000E+01 0. -1.
         25    2    1    2    0    0 -0.14190085485E+02 -0.79953173450E+01  0.24744348841E+03  0.27768872364E+03  0.12496985099E+03 0.  0.
         25    2    1    2    0    0  0.14190085485E+02  0.79953173450E+01  0.12676677495E+03  0.17877320725E+03  0.12499904309E+03 0.  0.
          5    1    4    4  502    0 -0.43696912261E+02  0.28984274718E+01  0.57150684856E+01  0.44413658156E+02  0.47000000000E+01 0. -1.
         -5    1    4    4    0  502  0.57886997747E+02  0.50968898732E+01  0.12105170647E+03  0.13435954909E+03  0.47000000000E+01 0. -1.
          5    1    3    3  503    0 -0.63742684860E+02  0.12421937309E+02  0.88392282074E+02  0.10978488024E+03  0.47000000000E+01 0. -1.
         -5    1    3    3    0  503  0.49552599374E+02 -0.20417254654E+02  0.15905120633E+03  0.16790384340E+03  0.47000000000E+01 0. -1.
<mgrwt>
<rscale>  0 0.12604848E+03</rscale>
<asrwt>0</asrwt>
<pdfrwt beam="2">  1        5 0.63270513E-02 0.12605572E+03</pdfrwt>
<pdfrwt beam="1">  1       -5 0.63897862E-01 0.12605572E+03</pdfrwt>
<totfact> 0.27666819E+02</totfact>
</mgrwt>
</event>
<event>
 8    1  0.3754098E-007  0.1437410E+03  0.7546771E-02  0.1208390E+00
          5   -1    0    0  501    0  0.00000000000E+00  0.00000000000E+00  0.88272760620E+02  0.88397795603E+02  0.47000000000E+01 0. -1.
         -5   -1    0    0    0  501 -0.00000000000E+00 -0.00000000000E+00 -0.27498925230E+03  0.27502941457E+03  0.47000000000E+01 0. -1.
         25    2    1    2    0    0 -0.70593072101E+02 -0.71891428519E+01 -0.16373444837E+03  0.21786056904E+03  0.12497676726E+03 0.  0.
         25    2    1    2    0    0  0.70593072101E+02  0.71891428519E+01 -0.22982043308E+02  0.14556664113E+03  0.12500562825E+03 0.  0.
          5    1    4    4  502    0 -0.19114570378E+02  0.28574117580E+02 -0.38612504719E+02  0.51912065234E+02  0.47000000000E+01 0. -1.
         -5    1    4    4    0  502  0.89707642478E+02 -0.21384974728E+02  0.15630461411E+02  0.93654575900E+02  0.47000000000E+01 0. -1.
          5    1    3    3  503    0  0.17584927762E+02  0.85382233641E+01 -0.11307803566E+03  0.11485148276E+03  0.47000000000E+01 0.  1.
         -5    1    3    3    0  503 -0.88177999863E+02 -0.15727366216E+02 -0.50656412706E+02  0.10300908628E+03  0.47000000000E+01 0.  1.
<mgrwt>
<rscale>  0 0.14373472E+03</rscale>
<asrwt>0</asrwt>
<pdfrwt beam="1">  1        5 0.13593132E-01 0.14374099E+03</pdfrwt>
<pdfrwt beam="2">  1       -5 0.42318746E-01 0.14374099E+03</pdfrwt>
<totfact> 0.18499833E+02</totfact>
</mgrwt>
</event>
<event>
 8    1  0.3754098E-007  0.1717723E+03  0.7546771E-02  0.1176014E+00
          5   -1    0    0  501    0  0.00000000000E+00  0.00000000000E+00  0.22535256388E+03  0.22540157064E+03  0.47000000000E+01 0.  1.
         -5   -1    0    0    0  501 -0.00000000000E+00 -0.00000000000E+00 -0.13362654234E+03  0.13370917253E+03  0.47000000000E+01 0.  1.
         25    2    1    2    0    0  0.87460035784E+02  0.78938714457E+02  0.71864488784E+02  0.18619941278E+03  0.12500055228E+03 0.  0.
         25    2    1    2    0    0 -0.87460035784E+02 -0.78938714457E+02  0.19861532755E+02  0.17291133039E+03  0.12499307659E+03 0.  0.
          5    1    3    3  502    0  0.41729800435E+02  0.88562824584E+02  0.92617369215E+02  0.13485109278E+03  0.47000000000E+01 0. -1.
         -5    1    3    3    0  502  0.45730235349E+02 -0.96241101273E+01 -0.20752880431E+02  0.51348320002E+02  0.47000000000E+01 0. -1.
          5    1    4    4  503    0  0.23711386725E+02  0.11847282242E+02  0.10839325980E+02  0.29020147220E+02  0.47000000000E+01 0.  1.
         -5    1    4    4    0  503 -0.11117142251E+03 -0.90785996699E+02  0.90222067750E+01  0.14389118317E+03  0.47000000000E+01 0.  1.
<mgrwt>
<rscale>  0 0.17177092E+03</rscale>
<asrwt>0</asrwt>
<pdfrwt beam="1">  1        5 0.34679751E-01 0.17177228E+03</pdfrwt>
<pdfrwt beam="2">  1       -5 0.20568055E-01 0.17177228E+03</pdfrwt>
<totfact> 0.13727433E+02</totfact>
</mgrwt>
</event>
<event>
 8    1  0.3754098E-007  0.1421305E+03  0.7546771E-02  0.1210491E+00
         -5   -1    0    0    0  501 -0.00000000000E+00  0.00000000000E+00  0.16851030329E+03  0.16857583550E+03  0.47000000000E+01 0.  1.
          5   -1    0    0  501    0  0.00000000000E+00 -0.00000000000E+00 -0.21056944147E+03  0.21062188795E+03  0.47000000000E+01 0.  1.
         25    2    1    2    0    0 -0.59993827580E+02  0.31247841548E+02  0.10344975177E+03  0.17579227596E+03  0.12500154478E+03 0.  0.
         25    2    1    2    0    0  0.59993827580E+02 -0.31247841548E+02 -0.14550888995E+03  0.20340544749E+03  0.12500100825E+03 0.  0.
          5    1    3    3  502    0 -0.10719643547E+02 -0.31596521245E+02  0.88117063178E+02  0.94339587320E+02  0.47000000000E+01 0.  1.
         -5    1    3    3    0  502 -0.49274184034E+02  0.62844362793E+02  0.15332688588E+02  0.81452688638E+02  0.47000000000E+01 0.  1.
          5    1    4    4  503    0  0.73494595390E+02 -0.29794342479E+02 -0.26817811129E+02  0.83847739320E+02  0.47000000000E+01 0. -1.
         -5    1    4    4    0  503 -0.13500767810E+02 -0.14534990692E+01 -0.11869107882E+03  0.11955770817E+03  0.47000000000E+01 0. -1.
<mgrwt>
<rscale>  0 0.14213036E+03</rscale>
<asrwt>0</asrwt>
<pdfrwt beam="2">  1        5 0.32404374E-01 0.14213048E+03</pdfrwt>
<pdfrwt beam="1">  1       -5 0.25933737E-01 0.14213048E+03</pdfrwt>
<totfact> 0.95356924E+01</totfact>
</mgrwt>
</event>
<event>
 8    1  0.3754098E-007  0.1306963E+03  0.7546771E-02  0.1226427E+00
          5   -1    0    0  501    0  0.00000000000E+00  0.00000000000E+00  0.16982303811E+03  0.16988806395E+03  0.47000000000E+01 0. -1.
         -5   -1    0    0    0  501 -0.00000000000E+00 -0.00000000000E+00 -0.11315936743E+03  0.11325693108E+03  0.47000000000E+01 0. -1.
         25    2    1    2    0    0 -0.15154137373E+02 -0.35015233894E+02 -0.19090410749E+02  0.13208314346E+03  0.12500319404E+03 0.  0.
         25    2    1    2    0    0  0.15154137373E+02  0.35015233894E+02  0.75754081427E+02  0.15106185157E+03  0.12500115064E+03 0.  0.
          5    1    3    3  502    0 -0.13086679594E+02 -0.39740563297E+02 -0.69464544909E+02  0.81227991194E+02  0.47000000000E+01 0.  1.
         -5    1    3    3    0  502 -0.20674577789E+01  0.47253294027E+01  0.50374134161E+02  0.50855152267E+02  0.47000000000E+01 0.  1.
          5    1    4    4  503    0 -0.27274179289E+02  0.33296019627E+02  0.94850938495E+02  0.10426550874E+03  0.47000000000E+01 0. -1.
         -5    1    4    4    0  503  0.42428316663E+02  0.17192142667E+01 -0.19096857068E+02  0.46796342831E+02  0.47000000000E+01 0. -1.
<mgrwt>
<rscale>  0 0.13069577E+03</rscale>
<asrwt>0</asrwt>
<pdfrwt beam="1">  1        5 0.26139128E-01 0.13069626E+03</pdfrwt>
<pdfrwt beam="2">  1       -5 0.17421640E-01 0.13069626E+03</pdfrwt>
<totfact> 0.29801524E+02</totfact>
</mgrwt>
</event>
<event>
 8    1  0.3754098E-007  0.1583507E+03  0.7546771E-02  0.1190573E+00
         -5   -1    0    0    0  501 -0.00000000000E+00  0.00000000000E+00  0.14724582701E+03  0.14732081853E+03  0.47000000000E+01 0. -1.
          5   -1    0    0  501    0  0.00000000000E+00 -0.00000000000E+00 -0.17184064442E+03  0.17190490707E+03  0.47000000000E+01 0. -1.
         25    2    1    2    0    0  0.71889728298E+02  0.65427199345E+02  0.35867386887E+01  0.15839133538E+03  0.12500439584E+03 0.  0.
         25    2    1    2    0    0 -0.71889728298E+02 -0.65427199345E+02 -0.28181556095E+02  0.16083439021E+03  0.12499859808E+03 0.  0.
          5    1    4    4  502    0 -0.48316913373E+02 -0.92577187541E+02 -0.52695834846E+02  0.11706408835E+03  0.47000000000E+01 0. -1.
         -5    1    4    4    0  502 -0.23572814925E+02  0.27149988197E+02  0.24514278751E+02  0.43770301864E+02  0.47000000000E+01 0. -1.
          5    1    3    3  503    0 -0.14280047115E+02  0.62222896721E+02 -0.23022431939E+02  0.68027428251E+02  0.47000000000E+01 0. -1.
         -5    1    3    3    0  503  0.86169775413E+02  0.32043026232E+01  0.26609170628E+02  0.90363907129E+02  0.47000000000E+01 0. -1.
<mgrwt>
<rscale>  0 0.15834958E+03</rscale>
<asrwt>0</asrwt>
<pdfrwt beam="2">  1        5 0.26447734E-01 0.15835072E+03</pdfrwt>
<pdfrwt beam="1">  1       -5 0.22663916E-01 0.15835072E+03</pdfrwt>
<totfact> 0.19020620E+02</totfact>
</mgrwt>
</event>
<event>
 8    1  0.3754098E-007  0.1362800E+03  0.7546771E-02  0.1218426E+00
         -5   -1    0    0    0  501 -0.00000000000E+00  0.00000000000E+00  0.61542270963E+03  0.61544065638E+03  0.47000000000E+01 0.  1.
          5   -1    0    0  501    0  0.00000000000E+00 -0.00000000000E+00 -0.31044586084E+02  0.31398349083E+02  0.47000000000E+01 0.  1.
         25    2    1    2    0    0  0.28397641720E+02  0.46262827068E+02  0.35184768667E+03  0.37731602030E+03  0.12499563727E+03 0.  0.
         25    2    1    2    0    0 -0.28397641720E+02 -0.46262827068E+02  0.23253043687E+03  0.26952298516E+03  0.12500224092E+03 0.  0.
          5    1    3    3  502    0  0.50592639894E+02  0.64825175082E+02  0.13246715408E+03  0.15598575398E+03  0.47000000000E+01 0. -1.
         -5    1    3    3    0  502 -0.22194998174E+02 -0.18562348014E+02  0.21938053259E+03  0.22133026632E+03  0.47000000000E+01 0. -1.
          5    1    4    4  503    0 -0.15193631197E+01  0.24707650282E+02  0.16775609248E+03  0.16963777001E+03  0.47000000000E+01 0.  1.
         -5    1    4    4    0  503 -0.26878278600E+02 -0.70970477351E+02  0.64774344388E+02  0.99885215156E+02  0.47000000000E+01 0.  1.
<mgrwt>
<rscale>  0 0.13627847E+03</rscale>
<asrwt>0</asrwt>
<pdfrwt beam="2">  1        5 0.48046837E-02 0.13627999E+03</pdfrwt>
<pdfrwt beam="1">  1       -5 0.94709000E-01 0.13627999E+03</pdfrwt>
<totfact> 0.18210186E+02</totfact>
</mgrwt>
</event>
<event>
 8    1  0.3754098E-007  0.1266427E+03  0.7546771E-02  0.1232527E+00
          5   -1    0    0  501    0  0.00000000000E+00  0.00000000000E+00  0.18900618193E+04  0.18900676630E+04  0.47000000000E+01 0.  1.
         -5   -1    0    0    0  501 -0.00000000000E+00 -0.00000000000E+00 -0.86933127411E+01  0.98824939370E+01  0.47000000000E+01 0.  1.
         25    2    1    2    0    0  0.73133808744E+01 -0.18944590724E+02  0.66045934995E+03  0.67249036204E+03  0.12499740411E+03 0.  0.
         25    2    1    2    0    0 -0.73133808744E+01  0.18944590724E+02  0.12209091566E+04  0.12274597949E+04  0.12500398550E+03 0.  0.
          5    1    4    4  502    0 -0.43596782721E+02 -0.36887639152E+02  0.68895850907E+03  0.69133732331E+03  0.47000000000E+01 0. -1.
         -5    1    4    4    0  502  0.36283401847E+02  0.55832229876E+02  0.53195064757E+03  0.53612247163E+03  0.47000000000E+01 0. -1.
          5    1    3    3  503    0 -0.13881314715E+00 -0.54228277190E+02  0.13201715023E+03  0.14279826074E+03  0.47000000000E+01 0.  1.
         -5    1    3    3    0  503  0.74521940215E+01  0.35283686466E+02  0.52844219973E+03  0.52969210130E+03  0.47000000000E+01 0.  1.
<mgrwt>
<rscale>  0 0.12664110E+03</rscale>
<asrwt>0</asrwt>
<pdfrwt beam="1">  1        5 0.29087085E+00 0.12664272E+03</pdfrwt>
<pdfrwt beam="2">  1       -5 0.14293568E-02 0.12664272E+03</pdfrwt>
<totfact> 0.44086670E+01</totfact>
</mgrwt>
</event>
<event>
 8    1  0.3754098E-007  0.1415578E+03  0.7546771E-02  0.1211250E+00
          5   -1    0    0  501    0  0.00000000000E+00  0.00000000000E+00  0.44763562376E+03  0.44766029717E+03  0.47000000000E+01 0. -1.
         -5   -1    0    0    0  501 -0.00000000000E+00 -0.00000000000E+00 -0.46154724168E+02  0.46393410772E+02  0.47000000000E+01 0. -1.
         25    2    1    2    0    0 -0.51282541415E+02  0.42210007123E+02  0.15573952996E+03  0.21045999564E+03  0.12500809901E+03 0.  0.
         25    2    1    2    0    0  0.51282541415E+02 -0.42210007123E+02  0.24574136964E+03  0.28359371230E+03  0.12499995659E+03 0.  0.
          5    1    3    3  502    0  0.23735640431E+02 -0.28865409370E+02  0.49172331291E+02  0.61940299074E+02  0.47000000000E+01 0. -1.
         -5    1    3    3    0  502 -0.75018181846E+02  0.71075416494E+02  0.10656719866E+03  0.14851969657E+03  0.47000000000E+01 0. -1.
          5    1    4    4  503    0 -0.14797313301E+02 -0.52528603735E+02  0.18564305948E+03  0.19355528984E+03  0.47000000000E+01 0. -1.
         -5    1    4    4    0  503  0.66079854717E+02  0.10318596611E+02  0.60098310158E+02  0.90038422461E+02  0.47000000000E+01 0. -1.
<mgrwt>
<rscale>  0 0.14155599E+03</rscale>
<asrwt>0</asrwt>
<pdfrwt beam="1">  1        5 0.68887281E-01 0.14155779E+03</pdfrwt>
<pdfrwt beam="2">  1       -5 0.71209849E-02 0.14155779E+03</pdfrwt>
<totfact> 0.19939528E+02</totfact>
</mgrwt>
</event>
<event>
 8    1  0.3754098E-007  0.1272264E+03  0.7546771E-02  0.1231633E+00
          5   -1    0    0  501    0  0.00000000000E+00  0.00000000000E+00  0.20309089354E+03  0.20314527078E+03  0.47000000000E+01 0.  1.
         -5   -1    0    0    0  501 -0.00000000000E+00 -0.00000000000E+00 -0.80763651879E+02  0.80900293354E+02  0.47000000000E+01 0.  1.
         25    2    1    2    0    0 -0.22117483500E+02  0.84694813618E+01  0.43863037233E+02  0.13456915437E+03  0.12499590426E+03 0.  0.
         25    2    1    2    0    0  0.22117483500E+02 -0.84694813618E+01  0.78464204432E+02  0.14947640976E+03  0.12500260200E+03 0.  0.
          5    1    3    3  502    0 -0.25596503117E+02 -0.47515378172E+02 -0.11756206921E+02  0.55436364742E+02  0.47000000000E+01 0.  1.
         -5    1    3    3    0  502  0.34790196164E+01  0.55984859534E+02  0.55619244154E+02  0.79132789631E+02  0.47000000000E+01 0.  1.
          5    1    4    4  503    0  0.42841646726E+02  0.42643802578E+02  0.71405272960E+02  0.93673387891E+02  0.47000000000E+01 0.  1.
         -5    1    4    4    0  503 -0.20724163226E+02 -0.51113283939E+02  0.70589314726E+01  0.55803021872E+02  0.47000000000E+01 0.  1.
<mgrwt>
<rscale>  0 0.12722479E+03</rscale>
<asrwt>0</asrwt>
<pdfrwt beam="1">  1        5 0.31259446E-01 0.12722643E+03</pdfrwt>
<pdfrwt beam="2">  1       -5 0.12439871E-01 0.12722643E+03</pdfrwt>
<totfact> 0.38256656E+02</totfact>
</mgrwt>
</event>
<event>
 8    1  0.3754098E-007  0.2074578E+03  0.7546771E-02  0.1143599E+00
          5   -1    0    0  501    0  0.00000000000E+00  0.00000000000E+00  0.54176482310E+03  0.54178520979E+03  0.47000000000E+01 0. -1.
         -5   -1    0    0    0  501 -0.00000000000E+00 -0.00000000000E+00 -0.80927307565E+02  0.81063673182E+02  0.47000000000E+01 0. -1.
         25    2    1    2    0    0 -0.15726173279E+03 -0.51706840545E+02  0.18686524019E+03  0.27919273022E+03  0.12500045064E+03 0.  0.
         25    2    1    2    0    0  0.15726173279E+03  0.51706840545E+02  0.27397227534E+03  0.34365615275E+03  0.12503556976E+03 0.  0.
          5    1    3    3  502    0 -0.10272568169E+03 -0.53832686614E+02  0.40536395385E+02  0.12294638335E+03  0.47000000000E+01 0. -1.
         -5    1    3    3    0  502 -0.54536051094E+02  0.21258460682E+01  0.14632884481E+03  0.15624634688E+03  0.47000000000E+01 0. -1.
          5    1    4    4  503    0  0.16636131226E+03  0.74244417838E+02  0.24822511140E+03  0.30793849342E+03  0.47000000000E+01 0.  1.
         -5    1    4    4    0  503 -0.90995794773E+01 -0.22537577292E+02  0.25747163939E+02  0.35717659326E+02  0.47000000000E+01 0.  1.
<mgrwt>
<rscale>  0 0.20745252E+03</rscale>
<asrwt>0</asrwt>
<pdfrwt beam="1">  1        5 0.83360492E-01 0.20745781E+03</pdfrwt>
<pdfrwt beam="2">  1       -5 0.12462413E-01 0.20745781E+03</pdfrwt>
<totfact> 0.54227865E+01</totfact>
</mgrwt>
</event>
<event>
 8    1  0.3754098E-007  0.1312663E+03  0.7546771E-02  0.1225591E+00
          5   -1    0    0  501    0  0.00000000000E+00  0.00000000000E+00  0.97190371842E+02  0.97303948424E+02  0.47000000000E+01 0.  1.
         -5   -1    0    0    0  501 -0.00000000000E+00 -0.00000000000E+00 -0.24127837643E+03  0.24132414909E+03  0.47000000000E+01 0.  1.
         25    2    1    2    0    0 -0.31406081453E+02  0.24881798245E+02 -0.15938020733E+03  0.20647405415E+03  0.12499615479E+03 0.  0.
         25    2    1    2    0    0  0.31406081453E+02 -0.24881798245E+02  0.15292202741E+02  0.13215404336E+03  0.12500157550E+03 0.  0.
          5    1    3    3  502    0  0.11846967894E+02  0.90262652493E+01 -0.15940405365E+03  0.16016730763E+03  0.47000000000E+01 0.  1.
         -5    1    3    3    0  502 -0.43253049347E+02  0.15855532996E+02  0.23846324535E-01  0.46306746517E+02  0.47000000000E+01 0.  1.
          5    1    4    4  503    0 -0.36324744135E+02 -0.17316252158E+02  0.42412538479E+02  0.58653670350E+02  0.47000000000E+01 0. -1.
         -5    1    4    4    0  503  0.67730825588E+02 -0.75655460873E+01 -0.27120335738E+02  0.73500373013E+02  0.47000000000E+01 0. -1.
<mgrwt>
<rscale>  0 0.13126500E+03</rscale>
<asrwt>0</asrwt>
<pdfrwt beam="1">  1        5 0.14964623E-01 0.13126629E+03</pdfrwt>
<pdfrwt beam="2">  1       -5 0.37132008E-01 0.13126629E+03</pdfrwt>
<totfact> 0.19710054E+02</totfact>
</mgrwt>
</event>
<event>
 8    1  0.3754098E-007  0.1340857E+03  0.7546771E-02  0.1221518E+00
          5   -1    0    0  501    0  0.00000000000E+00  0.00000000000E+00  0.38472640297E+03  0.38475511062E+03  0.47000000000E+01 0.  1.
         -5   -1    0    0    0  501 -0.00000000000E+00 -0.00000000000E+00 -0.48264805800E+02  0.48493107540E+02  0.47000000000E+01 0.  1.
         25    2    1    2    0    0 -0.45101976105E+02 -0.17868091687E+02  0.12788615424E+03  0.18529394509E+03  0.12500208276E+03 0.  0.
         25    2    1    2    0    0  0.45101976105E+02  0.17868091687E+02  0.20857544294E+03  0.24795427306E+03  0.12499659669E+03 0.  0.
          5    1    3    3  502    0 -0.65802973667E+02  0.32555070074E+02  0.99255041647E+02  0.12354560787E+03  0.47000000000E+01 0. -1.
         -5    1    3    3    0  502  0.20700997562E+02 -0.50423161760E+02  0.28631112591E+02  0.61748337226E+02  0.47000000000E+01 0. -1.
          5    1    4    4  503    0 -0.15060908884E+02  0.47599875609E+02  0.33257714328E+02  0.60172624147E+02  0.47000000000E+01 0.  1.
         -5    1    4    4    0  503  0.60162884989E+02 -0.29731783922E+02  0.17531772861E+03  0.18778164892E+03  0.47000000000E+01 0.  1.
<mgrwt>
<rscale>  0 0.13408443E+03</rscale>
<asrwt>0</asrwt>
<pdfrwt beam="1">  1        5 0.59208447E-01 0.13408571E+03</pdfrwt>
<pdfrwt beam="2">  1       -5 0.74451247E-02 0.13408571E+03</pdfrwt>
<totfact> 0.25379312E+02</totfact>
</mgrwt>
</event>
<event>
 8    1  0.3754098E-007  0.1260346E+03  0.7546771E-02  0.1233464E+00
         -5   -1    0    0    0  501 -0.00000000000E+00  0.00000000000E+00  0.32516354460E+02  0.32854273807E+02  0.47000000000E+01 0.  1.
          5   -1    0    0  501    0  0.00000000000E+00 -0.00000000000E+00 -0.49510283546E+03  0.49512514346E+03  0.47000000000E+01 0.  1.
         25    2    1    2    0    0 -0.15481296450E+02 -0.43122255202E+01 -0.19476620325E+03  0.23198835675E+03  0.12500583152E+03 0.  0.
         25    2    1    2    0    0  0.15481296450E+02  0.43122255202E+01 -0.26782027776E+03  0.29599106051E+03  0.12499896358E+03 0.  0.
          5    1    3    3  502    0 -0.95882687449E+01  0.75270720658E+01 -0.21049955897E+03  0.21090458989E+03  0.47000000000E+01 0.  1.
         -5    1    3    3    0  502 -0.58930277051E+01 -0.11839297586E+02  0.15733355721E+02  0.21083766862E+02  0.47000000000E+01 0.  1.
          5    1    4    4  503    0 -0.49832196325E+02 -0.20035333566E+02 -0.14489092276E+03  0.15459667487E+03  0.47000000000E+01 0.  1.
         -5    1    4    4    0  503  0.65313492775E+02  0.24347559086E+02 -0.12292935500E+03  0.14139438565E+03  0.47000000000E+01 0.  1.
<mgrwt>
<rscale>  0 0.12603291E+03</rscale>
<asrwt>0</asrwt>
<pdfrwt beam="2">  1        5 0.76197371E-01 0.12603461E+03</pdfrwt>
<pdfrwt beam="1">  1       -5 0.50302262E-02 0.12603461E+03</pdfrwt>
<totfact> 0.27325705E+02</totfact>
</mgrwt>
</event>
<event>
 8    1  0.3754098E-007  0.1547288E+03  0.7546771E-02  0.1194782E+00
         -5   -1    0    0    0  501 -0.00000000000E+00  0.00000000000E+00  0.11431085977E+03  0.11440744146E+03  0.47000000000E+01 0. -1.
          5   -1    0    0  501    0  0.00000000000E+00 -0.00000000000E+00 -0.23656971687E+03  0.23661640040E+03  0.47000000000E+01 0. -1.
         25    2    1    2    0    0  0.69292519341E+02  0.59276048546E+02 -0.14673951021E+01  0.15472918994E+03  0.12499546314E+03 0.  0.
         25    2    1    2    0    0 -0.69292519341E+02 -0.59276048546E+02 -0.12079146199E+03  0.19629465192E+03  0.12500363960E+03 0.  0.
          5    1    3    3  502    0  0.82602808939E+01  0.78231771581E+01 -0.56390918389E+02  0.57718801253E+02  0.47000000000E+01 0. -1.
         -5    1    3    3    0  502  0.61032238447E+02  0.51452871388E+02  0.54923523287E+02  0.97010388692E+02  0.47000000000E+01 0. -1.
          5    1    4    4  503    0 -0.56734143605E+02 -0.51013586540E+02 -0.14701741990E+03  0.16570262767E+03  0.47000000000E+01 0. -1.
         -5    1    4    4    0  503 -0.12558375736E+02 -0.82624620057E+01  0.26225957908E+02  0.30592024250E+02  0.47000000000E+01 0. -1.
<mgrwt>
<rscale>  0 0.15472719E+03</rscale>
<asrwt>0</asrwt>
<pdfrwt beam="2">  1        5 0.36406361E-01 0.15472884E+03</pdfrwt>
<pdfrwt beam="1">  1       -5 0.17597307E-01 0.15472884E+03</pdfrwt>
<totfact> 0.16113509E+02</totfact>
</mgrwt>
</event>
<event>
 8    1  0.3754098E-007  0.1260669E+03  0.7546771E-02  0.1233412E+00
          5   -1    0    0  501    0  0.00000000000E+00  0.00000000000E+00  0.10943785976E+03  0.10953873812E+03  0.47000000000E+01 0. -1.
         -5   -1    0    0    0  501 -0.00000000000E+00 -0.00000000000E+00 -0.16553500330E+03  0.16560171290E+03  0.47000000000E+01 0. -1.
         25    2    1    2    0    0  0.14890885496E+02  0.67407610448E+01 -0.76461432523E+02  0.14744225861E+03  0.12500277049E+03 0.  0.
         25    2    1    2    0    0 -0.14890885496E+02 -0.67407610448E+01  0.20364288988E+02  0.12769819241E+03  0.12499979100E+03 0.  0.
          5    1    3    3  502    0 -0.22739337048E+02 -0.12043286408E+01 -0.99623643031E+02  0.10230096826E+03  0.47000000000E+01 0.  1.
         -5    1    3    3    0  502  0.37630222544E+02  0.79450896856E+01  0.23162210508E+02  0.45141290350E+02  0.47000000000E+01 0.  1.
          5    1    4    4  503    0 -0.36822434922E+02  0.96782998588E+01 -0.43528586939E+02  0.58020591884E+02  0.47000000000E+01 0.  1.
         -5    1    4    4    0  503  0.21931549425E+02 -0.16419060904E+02  0.63892875927E+02  0.69677600529E+02  0.47000000000E+01 0.  1.
<mgrwt>
<rscale>  0 0.12606618E+03</rscale>
<asrwt>0</asrwt>
<pdfrwt beam="1">  1        5 0.16849485E-01 0.12606692E+03</pdfrwt>
<pdfrwt beam="2">  1       -5 0.25479815E-01 0.12606692E+03</pdfrwt>
<totfact> 0.32839302E+02</totfact>
</mgrwt>
</event>
<event>
 8    1  0.3754098E-007  0.1944330E+03  0.7546771E-02  0.1154524E+00
          5   -1    0    0  501    0  0.00000000000E+00  0.00000000000E+00  0.57243145895E+03  0.57245075351E+03  0.47000000000E+01 0.  1.
         -5   -1    0    0    0  501 -0.00000000000E+00 -0.00000000000E+00 -0.86854163574E+02  0.86981237805E+02  0.47000000000E+01 0.  1.
         25    2    1    2    0    0 -0.44280775006E+02  0.14219528372E+03  0.81134494365E+02  0.21068217758E+03  0.12499555204E+03 0.  0.
         25    2    1    2    0    0  0.44280775006E+02 -0.14219528372E+03  0.40444280101E+03  0.44874981373E+03  0.12498852063E+03 0.  0.
          5    1    4    4  502    0  0.70177237468E+02 -0.14081899173E+03  0.27690524335E+03  0.31851756134E+03  0.47000000000E+01 0. -1.
         -5    1    4    4    0  502 -0.25896462462E+02 -0.13762919846E+01  0.12753755766E+03  0.13023225239E+03  0.47000000000E+01 0. -1.
          5    1    3    3  503    0  0.17857956399E+02  0.30218904423E+02 -0.25769293278E+02  0.43797662807E+02  0.47000000000E+01 0.  1.
         -5    1    3    3    0  503 -0.62138731405E+02  0.11197637929E+03  0.10690378764E+03  0.16688451478E+03  0.47000000000E+01 0.  1.
<mgrwt>
<rscale>  0 0.19443182E+03</rscale>
<asrwt>0</asrwt>
<pdfrwt beam="1">  1        5 0.88077635E-01 0.19443295E+03</pdfrwt>
<pdfrwt beam="2">  1       -5 0.13373438E-01 0.19443295E+03</pdfrwt>
<totfact> 0.41253949E+01</totfact>
</mgrwt>
</event>
<event>
 8    1  0.3754098E-007  0.1517334E+03  0.7546771E-02  0.1198361E+00
          5   -1    0    0  501    0  0.00000000000E+00  0.00000000000E+00  0.48268551888E+02  0.48496835993E+02  0.47000000000E+01 0.  1.
         -5   -1    0    0    0  501 -0.00000000000E+00 -0.00000000000E+00 -0.47634834910E+03  0.47637153535E+03  0.47000000000E+01 0.  1.
         25    2    1    2    0    0  0.85816096015E+02 -0.57720470115E+01 -0.22445533901E+03  0.27092754276E+03  0.12499526133E+03 0.  0.
         25    2    1    2    0    0 -0.85816096015E+02  0.57720470115E+01 -0.20362445820E+03  0.25394082858E+03  0.12500122231E+03 0.  0.
          5    1    4    4  502    0 -0.28367283989E+02 -0.56167311646E+02 -0.11651271620E+03  0.13250197257E+03  0.47000000000E+01 0.  1.
         -5    1    4    4    0  502 -0.57448812025E+02  0.61939358657E+02 -0.87111742005E+02  0.12143885601E+03  0.47000000000E+01 0.  1.
          5    1    3    3  503    0  0.40902643729E+02  0.54014962997E+02 -0.15297685062E+03  0.16737577279E+03  0.47000000000E+01 0.  1.
         -5    1    3    3    0  503  0.44913452286E+02 -0.59787010008E+02 -0.71478488386E+02  0.10355176997E+03  0.47000000000E+01 0.  1.
<mgrwt>
<rscale>  0 0.15173217E+03</rscale>
<asrwt>0</asrwt>
<pdfrwt beam="1">  1        5 0.74452752E-02 0.15173340E+03</pdfrwt>
<pdfrwt beam="2">  1       -5 0.73303702E-01 0.15173340E+03</pdfrwt>
<totfact> 0.16426423E+02</totfact>
</mgrwt>
</event>
<event>
 8    1  0.3754098E-007  0.1511135E+03  0.7546771E-02  0.1199114E+00
          5   -1    0    0  501    0  0.00000000000E+00  0.00000000000E+00  0.13301368052E+03  0.13309669119E+03  0.47000000000E+01 0. -1.
         -5   -1    0    0    0  501 -0.00000000000E+00 -0.00000000000E+00 -0.17988662895E+03  0.17994801826E+03  0.47000000000E+01 0. -1.
         25    2    1    2    0    0 -0.53623521498E+02  0.65816862925E+02  0.10350394943E+02  0.15145939387E+03  0.12500190323E+03 0.  0.
         25    2    1    2    0    0  0.53623521498E+02 -0.65816862925E+02 -0.57223343375E+02  0.16158531558E+03  0.12501184616E+03 0.  0.
          5    1    3    3  502    0 -0.38137815838E+02 -0.33148936677E+01  0.55303513366E+02  0.67424402908E+02  0.47000000000E+01 0. -1.
         -5    1    3    3    0  502 -0.15485705660E+02  0.69131756593E+02 -0.44953118422E+02  0.84034990958E+02  0.47000000000E+01 0. -1.
          5    1    4    4  503    0  0.26713349931E+02  0.31411786487E+02 -0.42712871575E+02  0.59554872119E+02  0.47000000000E+01 0. -1.
         -5    1    4    4    0  503  0.26910171567E+02 -0.97228649412E+02 -0.14510471800E+02  0.10203044346E+03  0.47000000000E+01 0. -1.
<mgrwt>
<rscale>  0 0.15111149E+03</rscale>
<asrwt>0</asrwt>
<pdfrwt beam="1">  1        5 0.20474751E-01 0.15111354E+03</pdfrwt>
<pdfrwt beam="2">  1       -5 0.27685974E-01 0.15111354E+03</pdfrwt>
<totfact> 0.20760557E+02</totfact>
</mgrwt>
</event>
<event>
 8    1  0.3754098E-007  0.1316508E+03  0.7546771E-02  0.1225027E+00
          5   -1    0    0  501    0  0.00000000000E+00  0.00000000000E+00  0.26938798923E+03  0.26942898645E+03  0.47000000000E+01 0.  1.
         -5   -1    0    0    0  501 -0.00000000000E+00 -0.00000000000E+00 -0.80082138661E+02  0.80219940991E+02  0.47000000000E+01 0.  1.
         25    2    1    2    0    0  0.19420802759E+02 -0.36466434415E+02  0.16907126968E+02  0.13273198565E+03  0.12499984261E+03 0.  0.
         25    2    1    2    0    0 -0.19420802759E+02  0.36466434415E+02  0.17239872360E+03  0.21691694180E+03  0.12499868528E+03 0.  0.
          5    1    4    4  502    0 -0.52121152856E+02  0.58882110726E+02  0.64318715313E+02  0.10169908887E+03  0.47000000000E+01 0. -1.
         -5    1    4    4    0  502  0.32700350096E+02 -0.22415676310E+02  0.10808000829E+03  0.11521785292E+03  0.47000000000E+01 0. -1.
          5    1    3    3  503    0  0.71998520906E+02 -0.23479056470E+02  0.19388477372E+02  0.78313831219E+02  0.47000000000E+01 0.  1.
         -5    1    3    3    0  503 -0.52577718147E+02 -0.12987377946E+02 -0.24813504042E+01  0.54418154427E+02  0.47000000000E+01 0.  1.
<mgrwt>
<rscale>  0 0.13165051E+03</rscale>
<asrwt>0</asrwt>
<pdfrwt beam="1">  1        5 0.41458060E-01 0.13165078E+03</pdfrwt>
<pdfrwt beam="2">  1       -5 0.12334083E-01 0.13165078E+03</pdfrwt>
<totfact> 0.22287524E+02</totfact>
</mgrwt>
</event>
<event>
 8    1  0.3754098E-007  0.1549680E+03  0.7546771E-02  0.1194499E+00
          5   -1    0    0  501    0  0.00000000000E+00  0.00000000000E+00  0.14878585007E+03  0.14886006577E+03  0.47000000000E+01 0.  1.
         -5   -1    0    0    0  501 -0.00000000000E+00 -0.00000000000E+00 -0.16278985778E+03  0.16285769186E+03  0.47000000000E+01 0.  1.
         25    2    1    2    0    0  0.41090527454E+02  0.81858319060E+02 -0.22124364090E+02  0.15653719077E+03  0.12500075504E+03 0.  0.
         25    2    1    2    0    0 -0.41090527454E+02 -0.81858319060E+02  0.81203563707E+01  0.15518056686E+03  0.12500340914E+03 0.  0.
          5    1    3    3  502    0 -0.40175748516E+02  0.20083321219E+01 -0.64858406297E+00  0.40504750685E+02  0.47000000000E+01 0.  1.
         -5    1    3    3    0  502  0.81266275970E+02  0.79849986938E+02 -0.21475780027E+02  0.11603244008E+03  0.47000000000E+01 0.  1.
          5    1    4    4  503    0  0.17844607468E+02 -0.87158539363E+02 -0.17046100007E+02  0.90706672991E+02  0.47000000000E+01 0. -1.
         -5    1    4    4    0  503 -0.58935134921E+02  0.53002203033E+01  0.25166456377E+02  0.64473893864E+02  0.47000000000E+01 0. -1.
<mgrwt>
<rscale>  0 0.15496742E+03</rscale>
<asrwt>0</asrwt>
<pdfrwt beam="1">  1        5 0.22901058E-01 0.15496796E+03</pdfrwt>
<pdfrwt beam="2">  1       -5 0.25055520E-01 0.15496796E+03</pdfrwt>
<totfact> 0.20551398E+02</totfact>
</mgrwt>
</event>
<event>
 8    1  0.3754098E-007  0.1305689E+03  0.7546771E-02  0.1226623E+00
         -5   -1    0    0    0  501 -0.00000000000E+00  0.00000000000E+00  0.70748268548E+02  0.70904213574E+02  0.47000000000E+01 0. -1.
          5   -1    0    0  501    0  0.00000000000E+00 -0.00000000000E+00 -0.24977838097E+03  0.24982259625E+03  0.47000000000E+01 0. -1.
         25    2    1    2    0    0  0.92622580543E+01  0.36522209149E+02 -0.58597568211E+02  0.14311499286E+03  0.12501425916E+03 0.  0.
         25    2    1    2    0    0 -0.92622580543E+01 -0.36522209149E+02 -0.12043254421E+03  0.17761181697E+03  0.12498919409E+03 0.  0.
          5    1    3    3  502    0 -0.40351180152E+02 -0.68149316131E+01 -0.64797042431E+02  0.76781558595E+02  0.47000000000E+01 0. -1.
         -5    1    3    3    0  502  0.49613438207E+02  0.43337140762E+02  0.61994742196E+01  0.66333434260E+02  0.47000000000E+01 0. -1.
          5    1    4    4  503    0  0.20239969051E+02  0.27905886990E+02 -0.96644629449E+02  0.10271645086E+03  0.47000000000E+01 0.  1.
         -5    1    4    4    0  503 -0.29502227105E+02 -0.64428096139E+02 -0.23787914756E+02  0.74895366110E+02  0.47000000000E+01 0.  1.
<mgrwt>
<rscale>  0 0.13056286E+03</rscale>
<asrwt>0</asrwt>
<pdfrwt beam="2">  1        5 0.38442840E-01 0.13056886E+03</pdfrwt>
<pdfrwt beam="1">  1       -5 0.10899746E-01 0.13056886E+03</pdfrwt>
<totfact> 0.32250992E+02</totfact>
</mgrwt>
</event>
<event>
 8    1  0.3754098E-007  0.1909727E+03  0.7546771E-02  0.1157591E+00
          5   -1    0    0  501    0  0.00000000000E+00  0.00000000000E+00  0.42372028722E+03  0.42374635314E+03  0.47000000000E+01 0.  1.
         -5   -1    0    0    0  501 -0.00000000000E+00 -0.00000000000E+00 -0.98987907441E+02  0.99099423912E+02  0.47000000000E+01 0.  1.
         25    2    1    2    0    0  0.67966500531E+02 -0.12735767825E+03  0.67630651096E+02  0.20257732201E+03  0.12499697204E+03 0.  0.
         25    2    1    2    0    0 -0.67966500531E+02  0.12735767825E+03  0.25710172868E+03  0.32026845504E+03  0.12502464158E+03 0.  0.
          5    1    4    4  502    0 -0.12375272079E+02  0.33846009865E+02 -0.47754244348E+01  0.36655073610E+02  0.47000000000E+01 0. -1.
         -5    1    4    4    0  502 -0.55591228452E+02  0.93511668386E+02  0.26187715311E+03  0.28361338143E+03  0.47000000000E+01 0. -1.
          5    1    3    3  503    0 -0.27799302013E+02 -0.28264225355E+02 -0.14040049555E+02  0.42318797464E+02  0.47000000000E+01 0. -1.
         -5    1    3    3    0  503  0.95765802544E+02 -0.99093452897E+02  0.81670700652E+02  0.16025852454E+03  0.47000000000E+01 0. -1.
<mgrwt>
<rscale>  0 0.19096820E+03</rscale>
<asrwt>0</asrwt>
<pdfrwt beam="1">  1        5 0.65198319E-01 0.19097273E+03</pdfrwt>
<pdfrwt beam="2">  1       -5 0.15239492E-01 0.19097273E+03</pdfrwt>
<totfact> 0.64816422E+01</totfact>
</mgrwt>
</event>
<event>
 8    1  0.3754098E-007  0.1259144E+03  0.7546771E-02  0.1233652E+00
         -5   -1    0    0    0  501 -0.00000000000E+00  0.00000000000E+00  0.10764079400E+03  0.10774335494E+03  0.47000000000E+01 0.  1.
          5   -1    0    0  501    0  0.00000000000E+00 -0.00000000000E+00 -0.22594630792E+03  0.22599518593E+03  0.47000000000E+01 0.  1.
         25    2    1    2    0    0  0.14575307662E+02 -0.36587033347E+01  0.39410239837E+02  0.13192499955E+03  0.12500085119E+03 0.  0.
         25    2    1    2    0    0 -0.14575307662E+02  0.36587033347E+01 -0.15771575376E+03  0.20181354132E+03  0.12501448225E+03 0.  0.
          5    1    4    4  502    0  0.42928139840E+02  0.32064682952E+02 -0.10755818284E+03  0.12025731487E+03  0.47000000000E+01 0. -1.
         -5    1    4    4    0  502 -0.57503447503E+02 -0.28405979617E+02 -0.50157570916E+02  0.81556226450E+02  0.47000000000E+01 0. -1.
          5    1    3    3  503    0  0.23072599801E+02  0.33574885647E+02  0.71098501594E+02  0.82077431348E+02  0.47000000000E+01 0.  1.
         -5    1    3    3    0  503 -0.84972921392E+01 -0.37233588981E+02 -0.31688261757E+02  0.49847568199E+02  0.47000000000E+01 0.  1.
<mgrwt>
<rscale>  0 0.12591106E+03</rscale>
<asrwt>0</asrwt>
<pdfrwt beam="2">  1        5 0.34772620E-01 0.12591444E+03</pdfrwt>
<pdfrwt beam="1">  1       -5 0.16571771E-01 0.12591444E+03</pdfrwt>
<totfact> 0.18409983E+02</totfact>
</mgrwt>
</event>
<event>
 8    1  0.3754098E-007  0.1357020E+03  0.7546771E-02  0.1219233E+00
         -5   -1    0    0    0  501 -0.00000000000E+00  0.00000000000E+00  0.41949954547E+02  0.42212423366E+02  0.47000000000E+01 0.  1.
          5   -1    0    0  501    0  0.00000000000E+00 -0.00000000000E+00 -0.44621519697E+03  0.44623994892E+03  0.47000000000E+01 0.  1.
         25    2    1    2    0    0  0.23033813007E+02  0.47585777057E+02 -0.16766834649E+03  0.21570135031E+03  0.12497773957E+03 0.  0.
         25    2    1    2    0    0 -0.23033813007E+02 -0.47585777057E+02 -0.23659689593E+03  0.27275102197E+03  0.12498026286E+03 0.  0.
          5    1    3    3  502    0 -0.25080704824E+02  0.12086925684E+02 -0.15076720869E+03  0.15338832010E+03  0.47000000000E+01 0. -1.
         -5    1    3    3    0  502  0.48114517831E+02  0.35498851373E+02 -0.16901137808E+02  0.62313030211E+02  0.47000000000E+01 0. -1.
          5    1    4    4  503    0  0.40532595880E+02 -0.40540238762E+02 -0.52766712544E+02  0.78056506714E+02  0.47000000000E+01 0. -1.
         -5    1    4    4    0  503 -0.63566408887E+02 -0.70455382946E+01 -0.18383018339E+03  0.19469451526E+03  0.47000000000E+01 0. -1.
<mgrwt>
<rscale>  0 0.13570140E+03</rscale>
<asrwt>0</asrwt>
<pdfrwt beam="2">  1        5 0.68670583E-01 0.13570199E+03</pdfrwt>
<pdfrwt beam="1">  1       -5 0.64759334E-02 0.13570199E+03</pdfrwt>
<totfact> 0.23257407E+02</totfact>
</mgrwt>
</event>
<event>
 8    1  0.3754098E-007  0.2646848E+03  0.7546771E-02  0.1104361E+00
          5   -1    0    0  501    0  0.00000000000E+00  0.00000000000E+00  0.27410340698E+04  0.27410380993E+04  0.47000000000E+01 0.  1.
         -5   -1    0    0    0  501 -0.00000000000E+00 -0.00000000000E+00 -0.26729023129E+02  0.27139098685E+02  0.47000000000E+01 0.  1.
         25    2    1    2    0    0 -0.74362655375E+02  0.22114264101E+03  0.10439741738E+04  0.10770051510E+04  0.12499659043E+03 0.  0.
         25    2    1    2    0    0  0.74362655375E+02 -0.22114264101E+03  0.16703308729E+04  0.16911720470E+04  0.12499518109E+03 0.  0.
          5    1    4    4  502    0  0.79722237356E+02 -0.89607526729E+02  0.53929433227E+03  0.55249037168E+03  0.47000000000E+01 0. -1.
         -5    1    4    4    0  502 -0.53595819805E+01 -0.13153511428E+03  0.11310365406E+04  0.11386816753E+04  0.47000000000E+01 0. -1.
          5    1    3    3  503    0 -0.68801501636E+02  0.18928002502E+03  0.62292661611E+03  0.65469094507E+03  0.47000000000E+01 0. -1.
         -5    1    3    3    0  503 -0.55611537395E+01  0.31862615991E+02  0.42104755765E+03  0.42231420593E+03  0.47000000000E+01 0. -1.
<mgrwt>
<rscale>  0 0.26468459E+03</rscale>
<asrwt>0</asrwt>
<pdfrwt beam="1">  1        5 0.42172941E+00 0.26468476E+03</pdfrwt>
<pdfrwt beam="2">  1       -5 0.41440115E-02 0.26468476E+03</pdfrwt>
<totfact> 0.11930309E+00</totfact>
</mgrwt>
</event>
<event>
 8    1  0.3754098E-007  0.1402231E+03  0.7546771E-02  0.1213029E+00
         -5   -1    0    0    0  501 -0.00000000000E+00  0.00000000000E+00  0.46564745416E+03  0.46567117322E+03  0.47000000000E+01 0. -1.
          5   -1    0    0  501    0  0.00000000000E+00 -0.00000000000E+00 -0.46261739178E+02  0.46499876471E+02  0.47000000000E+01 0. -1.
         25    2    1    2    0    0 -0.44736950822E+02  0.45128308976E+02  0.28654764066E+03  0.31901705284E+03  0.12499748236E+03 0.  0.
         25    2    1    2    0    0  0.44736950822E+02 -0.45128308976E+02  0.13283807433E+03  0.19315399685E+03  0.12499821386E+03 0.  0.
          5    1    3    3  502    0 -0.24485251637E+02  0.84187849283E+02  0.23618749586E+03  0.25197965139E+03  0.47000000000E+01 0.  1.
         -5    1    3    3    0  502 -0.20251699185E+02 -0.39059540307E+02  0.50360144800E+02  0.67037401449E+02  0.47000000000E+01 0.  1.
          5    1    4    4  503    0 -0.21589391976E+02 -0.66690951219E+02  0.69544787231E+02  0.98855208519E+02  0.47000000000E+01 0. -1.
         -5    1    4    4    0  503  0.66326342798E+02  0.21562642243E+02  0.63293287096E+02  0.94298788332E+02  0.47000000000E+01 0. -1.
<mgrwt>
<rscale>  0 0.14022292E+03</rscale>
<asrwt>0</asrwt>
<pdfrwt beam="2">  1        5 0.71373337E-02 0.14022308E+03</pdfrwt>
<pdfrwt beam="1">  1       -5 0.71658211E-01 0.14022308E+03</pdfrwt>
<totfact> 0.18114853E+02</totfact>
</mgrwt>
</event>
<event>
 8    1  0.3754098E-007  0.1326085E+03  0.7546771E-02  0.1223636E+00
          5   -1    0    0  501    0  0.00000000000E+00  0.00000000000E+00  0.14264420758E+04  0.14264498188E+04  0.47000000000E+01 0. -1.
         -5   -1    0    0    0  501 -0.00000000000E+00 -0.00000000000E+00 -0.12070391512E+02  0.12953159895E+02  0.47000000000E+01 0. -1.
         25    2    1    2    0    0  0.43128163439E+02  0.99655591159E+01  0.61812409204E+03  0.63218858970E+03  0.12500267572E+03 0.  0.
         25    2    1    2    0    0 -0.43128163439E+02 -0.99655591159E+01  0.79624759223E+03  0.80721438899E+03  0.12500196327E+03 0.  0.
          5    1    4    4  502    0  0.18836649817E+02 -0.21643145669E+02  0.60674471723E+03  0.60744093294E+03  0.47000000000E+01 0. -1.
         -5    1    4    4    0  502 -0.61964813257E+02  0.11677586553E+02  0.18950287500E+03  0.19977345605E+03  0.47000000000E+01 0. -1.
          5    1    3    3  503    0  0.62192666913E+02  0.48926820883E+01  0.60456489729E+03  0.60779327998E+03  0.47000000000E+01 0.  1.
         -5    1    3    3    0  503 -0.19064503473E+02  0.50728770276E+01  0.13559194752E+02  0.24395309720E+02  0.47000000000E+01 0.  1.
<mgrwt>
<rscale>  0 0.13260835E+03</rscale>
<asrwt>0</asrwt>
<pdfrwt beam="1">  1        5 0.21952092E+00 0.13260852E+03</pdfrwt>
<pdfrwt beam="2">  1       -5 0.19254861E-02 0.13260852E+03</pdfrwt>
<totfact> 0.79122645E+01</totfact>
</mgrwt>
</event>
<event>
 8    1  0.3754098E-007  0.1268587E+03  0.7546771E-02  0.1232214E+00
          5   -1    0    0  501    0  0.00000000000E+00  0.00000000000E+00  0.35109755089E+03  0.35112900798E+03  0.47000000000E+01 0. -1.
         -5   -1    0    0    0  501 -0.00000000000E+00 -0.00000000000E+00 -0.55897436536E+02  0.56094682558E+02  0.47000000000E+01 0. -1.
         25    2    1    2    0    0  0.21110618524E+02  0.21694596249E+01  0.60643737457E+02  0.14055946078E+03  0.12501573642E+03 0.  0.
         25    2    1    2    0    0 -0.21110618524E+02 -0.21694596249E+01  0.23455637690E+03  0.26666422975E+03  0.12507099071E+03 0.  0.
          5    1    3    3  502    0 -0.23348110125E+02  0.38313392389E+01  0.85874159301E+02  0.89197952008E+02  0.47000000000E+01 0. -1.
         -5    1    3    3    0  502  0.44458728649E+02 -0.16618796141E+01 -0.25230421845E+02  0.51361508772E+02  0.47000000000E+01 0. -1.
          5    1    4    4  503    0 -0.14226147428E+02  0.39213822326E+02  0.17398453411E+02  0.45441207215E+02  0.47000000000E+01 0. -1.
         -5    1    4    4    0  503 -0.68844710953E+01 -0.41383281951E+02  0.21715792349E+03  0.22122302254E+03  0.47000000000E+01 0. -1.
<mgrwt>
<rscale>  0 0.12684503E+03</rscale>
<asrwt>0</asrwt>
<pdfrwt beam="1">  1        5 0.54032600E-01 0.12685865E+03</pdfrwt>
<pdfrwt beam="2">  1       -5 0.86171983E-02 0.12685865E+03</pdfrwt>
<totfact> 0.23609498E+02</totfact>
</mgrwt>
</event>
<event>
 8    1  0.3754098E-007  0.1530315E+03  0.7546771E-02  0.1196797E+00
         -5   -1    0    0    0  501 -0.00000000000E+00  0.00000000000E+00  0.41277580430E+03  0.41280256130E+03  0.47000000000E+01 0. -1.
          5   -1    0    0  501    0  0.00000000000E+00 -0.00000000000E+00 -0.70228126090E+02  0.70385223550E+02  0.47000000000E+01 0. -1.
         25    2    1    2    0    0  0.28340248736E+02  0.83598026878E+02  0.27751603339E+03  0.31691168453E+03  0.12500426875E+03 0.  0.
         25    2    1    2    0    0 -0.28340248736E+02 -0.83598026878E+02  0.65031644813E+02  0.16627610031E+03  0.12500730743E+03 0.  0.
          5    1    4    4  502    0  0.10570646962E+02 -0.92069750083E+02  0.80942913851E+02  0.12313578992E+03  0.47000000000E+01 0. -1.
         -5    1    4    4    0  502 -0.38910895698E+02  0.84717232045E+01 -0.15911269038E+02  0.43140310389E+02  0.47000000000E+01 0. -1.
          5    1    3    3  503    0 -0.40123894165E+02 -0.52710622925E+01  0.75210292488E+02  0.85535893500E+02  0.47000000000E+01 0. -1.
         -5    1    3    3    0  503  0.68464142900E+02  0.88869089171E+02  0.20230574090E+03  0.23137579103E+03  0.47000000000E+01 0. -1.
<mgrwt>
<rscale>  0 0.15303084E+03</rscale>
<asrwt>0</asrwt>
<pdfrwt beam="2">  1        5 0.10818470E-01 0.15303146E+03</pdfrwt>
<pdfrwt beam="1">  1       -5 0.63518112E-01 0.15303146E+03</pdfrwt>
<totfact> 0.11890802E+02</totfact>
</mgrwt>
</event>
<event>
 8    1  0.3754098E-007  0.1367197E+03  0.7546771E-02  0.1217818E+00
         -5   -1    0    0    0  501 -0.00000000000E+00  0.00000000000E+00  0.37054137200E+03  0.37057117854E+03  0.47000000000E+01 0. -1.
          5   -1    0    0  501    0  0.00000000000E+00 -0.00000000000E+00 -0.54246410115E+02  0.54449637376E+02  0.47000000000E+01 0. -1.
         25    2    1    2    0    0 -0.22525924929E+02  0.50534260174E+02  0.21536253045E+03  0.25509465447E+03  0.12502453547E+03 0.  0.
         25    2    1    2    0    0  0.22525924929E+02 -0.50534260174E+02  0.10093243143E+03  0.16992616145E+03  0.12500566341E+03 0.  0.
          5    1    4    4  502    0  0.37713539973E+02  0.31106068837E+02  0.17551543845E+02  0.52154053602E+02  0.47000000000E+01 0.  1.
         -5    1    4    4    0  502 -0.15187615044E+02 -0.81640329011E+02  0.83380887589E+02  0.11777210785E+03  0.47000000000E+01 0.  1.
          5    1    3    3  503    0 -0.10317523710E+02 -0.20924042222E+02  0.16497977374E+03  0.16668737979E+03  0.47000000000E+01 0.  1.
         -5    1    3    3    0  503 -0.12208401219E+02  0.71458302396E+02  0.50382756714E+02  0.88407274676E+02  0.47000000000E+01 0.  1.
<mgrwt>
<rscale>  0 0.13671534E+03</rscale>
<asrwt>0</asrwt>
<pdfrwt beam="2">  1        5 0.83635275E-02 0.13671965E+03</pdfrwt>
<pdfrwt beam="1">  1       -5 0.57024289E-01 0.13671965E+03</pdfrwt>
<totfact> 0.22716188E+02</totfact>
</mgrwt>
</event>
<event>
 8    1  0.3754098E-007  0.1559825E+03  0.7546771E-02  0.1193310E+00
          5   -1    0    0  501    0  0.00000000000E+00  0.00000000000E+00  0.21879240648E+03  0.21884288230E+03  0.47000000000E+01 0.  1.
         -5   -1    0    0    0  501 -0.00000000000E+00 -0.00000000000E+00 -0.11794497307E+03  0.11803858129E+03  0.47000000000E+01 0.  1.
         25    2    1    2    0    0  0.66958151139E+02  0.64971256250E+02  0.98332001967E+01  0.15628762621E+03  0.12499788853E+03 0.  0.
         25    2    1    2    0    0 -0.66958151139E+02 -0.64971256250E+02  0.91014233215E+02  0.18059383738E+03  0.12500354119E+03 0.  0.
          5    1    3    3  502    0  0.73388484238E+02  0.83690043384E+01  0.47397534416E+02  0.87889283312E+02  0.47000000000E+01 0.  1.
         -5    1    3    3    0  502 -0.64303330991E+01  0.56602251912E+02 -0.37564334219E+02  0.68398342894E+02  0.47000000000E+01 0.  1.
          5    1    4    4  503    0 -0.78363231328E+02 -0.77033660073E+02  0.25578465204E+02  0.11292178129E+03  0.47000000000E+01 0.  1.
         -5    1    4    4    0  503  0.11405080188E+02  0.12062403823E+02  0.65435768011E+02  0.67672056089E+02  0.47000000000E+01 0.  1.
<mgrwt>
<rscale>  0 0.15598138E+03</rscale>
<asrwt>0</asrwt>
<pdfrwt beam="1">  1        5 0.33671453E-01 0.15598251E+03</pdfrwt>
<pdfrwt beam="2">  1       -5 0.18156464E-01 0.15598251E+03</pdfrwt>
<totfact> 0.17839627E+02</totfact>
</mgrwt>
</event>
<event>
 8    1  0.3754098E-007  0.1557582E+03  0.7546771E-02  0.1193571E+00
          5   -1    0    0  501    0  0.00000000000E+00  0.00000000000E+00  0.26421642183E+03  0.26425822137E+03  0.47000000000E+01 0.  1.
         -5   -1    0    0    0  501 -0.00000000000E+00 -0.00000000000E+00 -0.96649351878E+02  0.96763563486E+02  0.47000000000E+01 0.  1.
         25    2    1    2    0    0 -0.74710207127E+02  0.55258829215E+02  0.43013193779E+02  0.16158688087E+03  0.12500012790E+03 0.  0.
         25    2    1    2    0    0  0.74710207127E+02 -0.55258829215E+02  0.12455387617E+03  0.19943490399E+03  0.12500183841E+03 0.  0.
          5    1    3    3  502    0  0.31815292748E+02  0.19054753011E+02 -0.75690865599E+01  0.38140235137E+02  0.47000000000E+01 0.  1.
         -5    1    3    3    0  502 -0.10652549988E+03  0.36204076203E+02  0.50582280339E+02  0.12344664573E+03  0.47000000000E+01 0.  1.
          5    1    4    4  503    0 -0.12994428091E+01 -0.70491507071E+02  0.90020227438E+02  0.11443982029E+03  0.47000000000E+01 0.  1.
         -5    1    4    4    0  503  0.76009649936E+02  0.15232677856E+02  0.34533648730E+02  0.84995083698E+02  0.47000000000E+01 0.  1.
<mgrwt>
<rscale>  0 0.15575784E+03</rscale>
<asrwt>0</asrwt>
<pdfrwt beam="1">  1        5 0.40660680E-01 0.15575819E+03</pdfrwt>
<pdfrwt beam="2">  1       -5 0.14881132E-01 0.15575819E+03</pdfrwt>
<totfact> 0.17515855E+02</totfact>
</mgrwt>
</event>
<event>
 8    1  0.3754098E-007  0.1277497E+03  0.7546771E-02  0.1230836E+00
          5   -1    0    0  501    0  0.00000000000E+00  0.00000000000E+00  0.22084091001E+02  0.22578686307E+02  0.47000000000E+01 0. -1.
         -5   -1    0    0    0  501 -0.00000000000E+00 -0.00000000000E+00 -0.73474129247E+03  0.73475632482E+03  0.47000000000E+01 0. -1.
         25    2    1    2    0    0  0.20013507646E+02 -0.17101445646E+02 -0.38585285098E+03  0.40644890644E+03  0.12500116402E+03 0.  0.
         25    2    1    2    0    0 -0.20013507646E+02  0.17101445646E+02 -0.32680435049E+03  0.35088610468E+03  0.12500789987E+03 0.  0.
          5    1    3    3  502    0 -0.47440091564E+02 -0.20603302996E+02 -0.24128943339E+03  0.24681519209E+03  0.47000000000E+01 0.  1.
         -5    1    3    3    0  502  0.67453599209E+02  0.35018573498E+01 -0.14456341759E+03  0.15963371435E+03  0.47000000000E+01 0.  1.
          5    1    4    4  503    0  0.24027709616E+02 -0.25128613582E+02 -0.25352749917E+02  0.43285447651E+02  0.47000000000E+01 0. -1.
         -5    1    4    4    0  503 -0.44041217261E+02  0.42230059228E+02 -0.30145160057E+03  0.30760065703E+03  0.47000000000E+01 0. -1.
<mgrwt>
<rscale>  0 0.12774801E+03</rscale>
<asrwt>0</asrwt>
<pdfrwt beam="1">  1        5 0.34367551E-02 0.12774966E+03</pdfrwt>
<pdfrwt beam="2">  1       -5 0.11307631E+00 0.12774966E+03</pdfrwt>
<totfact> 0.19984262E+02</totfact>
</mgrwt>
</event>
<event>
 8    1  0.3754098E-007  0.1434614E+03  0.7546771E-02  0.1208748E+00
          5   -1    0    0  501    0  0.00000000000E+00  0.00000000000E+00  0.59078185900E+02  0.59264846657E+02  0.47000000000E+01 0.  1.
         -5   -1    0    0    0  501 -0.00000000000E+00 -0.00000000000E+00 -0.35285155675E+03  0.35288285748E+03  0.47000000000E+01 0.  1.
         25    2    1    2    0    0 -0.38722260497E+02  0.58790640196E+02 -0.17201293634E+03  0.22398084178E+03  0.12499285733E+03 0.  0.
         25    2    1    2    0    0  0.38722260497E+02 -0.58790640196E+02 -0.12176043451E+03  0.18816686235E+03  0.12500164736E+03 0.  0.
          5    1    4    4  502    0 -0.26839501046E+02  0.80642826005E+01 -0.81173664795E+02  0.86003751817E+02  0.47000000000E+01 0.  1.
         -5    1    4    4    0  502  0.65561761543E+02 -0.66854922797E+02 -0.40586769711E+02  0.10216311054E+03  0.47000000000E+01 0.  1.
          5    1    3    3  503    0 -0.66176666138E+02  0.23147858643E+01 -0.39448902724E+02  0.77220562681E+02  0.47000000000E+01 0. -1.
         -5    1    3    3    0  503  0.27454405641E+02  0.56475854332E+02 -0.13256403362E+03  0.14676027910E+03  0.47000000000E+01 0. -1.
<mgrwt>
<rscale>  0 0.14345946E+03</rscale>
<asrwt>0</asrwt>
<pdfrwt beam="1">  1        5 0.91057181E-02 0.14346137E+03</pdfrwt>
<pdfrwt beam="2">  1       -5 0.54301620E-01 0.14346137E+03</pdfrwt>
<totfact> 0.22154531E+02</totfact>
</mgrwt>
</event>
<event>
 8    1  0.3754098E-007  0.1293223E+03  0.7546771E-02  0.1228468E+00
          5   -1    0    0  501    0  0.00000000000E+00  0.00000000000E+00  0.45612509067E+02  0.45854018181E+02  0.47000000000E+01 0. -1.
         -5   -1    0    0    0  501 -0.00000000000E+00 -0.00000000000E+00 -0.38468858541E+03  0.38471729587E+03  0.47000000000E+01 0. -1.
         25    2    1    2    0    0  0.19813720747E+02 -0.26603642530E+02 -0.21771144086E+03  0.25321959895E+03  0.12498622519E+03 0.  0.
         25    2    1    2    0    0 -0.19813720747E+02  0.26603642530E+02 -0.12136463548E+03  0.17735171510E+03  0.12499567503E+03 0.  0.
          5    1    3    3  502    0  0.54878592581E+02 -0.57978071944E+02 -0.11416943319E+03  0.13939105504E+03  0.47000000000E+01 0. -1.
         -5    1    3    3    0  502 -0.35064871834E+02  0.31374429414E+02 -0.10354200767E+03  0.11382854391E+03  0.47000000000E+01 0. -1.
          5    1    4    4  503    0  0.45784479799E+02 -0.13297391145E+02 -0.24964828693E+02  0.54021957327E+02  0.47000000000E+01 0.  1.
         -5    1    4    4    0  503 -0.65598200546E+02  0.39901033675E+02 -0.96399806792E+02  0.12332975777E+03  0.47000000000E+01 0.  1.
<mgrwt>
<rscale>  0 0.12932001E+03</rscale>
<asrwt>0</asrwt>
<pdfrwt beam="1">  1        5 0.70380955E-02 0.12932230E+03</pdfrwt>
<pdfrwt beam="2">  1       -5 0.59203643E-01 0.12932230E+03</pdfrwt>
<totfact> 0.27576076E+02</totfact>
</mgrwt>
</event>
<event>
 8    1  0.3754098E-007  0.1432106E+03  0.7546771E-02  0.1209078E+00
         -5   -1    0    0    0  501 -0.00000000000E+00  0.00000000000E+00  0.55009481674E+03  0.55011489473E+03  0.47000000000E+01 0.  1.
          5   -1    0    0  501    0  0.00000000000E+00 -0.00000000000E+00 -0.53468085249E+02  0.53674259568E+02  0.47000000000E+01 0.  1.
         25    2    1    2    0    0  0.61837031245E+02  0.32496926024E+02  0.41486415522E+03  0.43888195575E+03  0.12500094064E+03 0.  0.
         25    2    1    2    0    0 -0.61837031245E+02 -0.32496926024E+02  0.81762576269E+02  0.16490719855E+03  0.12501758524E+03 0.  0.
          5    1    4    4  502    0 -0.24171432619E+02 -0.73740051450E+02  0.17600847134E+02  0.79710307756E+02  0.47000000000E+01 0.  1.
         -5    1    4    4    0  502 -0.37665598626E+02  0.41243125426E+02  0.64161729135E+02  0.85196890791E+02  0.47000000000E+01 0.  1.
          5    1    3    3  503    0 -0.21830677352E+02  0.51803105617E+02  0.18733600922E+03  0.19564511385E+03  0.47000000000E+01 0.  1.
         -5    1    3    3    0  503  0.83667708597E+02 -0.19306179592E+02  0.22752814601E+03  0.24323684190E+03  0.47000000000E+01 0.  1.
<mgrwt>
<rscale>  0 0.14320693E+03</rscale>
<asrwt>0</asrwt>
<pdfrwt beam="2">  1        5 0.82432628E-02 0.14321056E+03</pdfrwt>
<pdfrwt beam="1">  1       -5 0.84647381E-01 0.14321056E+03</pdfrwt>
<totfact> 0.97140877E+01</totfact>
</mgrwt>
</event>
<event>
 8    1  0.3754098E-007  0.2576500E+03  0.7546771E-02  0.1108564E+00
         -5   -1    0    0    0  501 -0.00000000000E+00  0.00000000000E+00  0.90643926683E+02  0.90765695306E+02  0.47000000000E+01 0.  1.
          5   -1    0    0  501    0  0.00000000000E+00 -0.00000000000E+00 -0.73696067654E+03  0.73697566362E+03  0.47000000000E+01 0.  1.
         25    2    1    2    0    0  0.19893333446E+03 -0.10574517408E+03 -0.28824750763E+03  0.38661368588E+03  0.12500801195E+03 0.  0.
         25    2    1    2    0    0 -0.19893333446E+03  0.10574517408E+03 -0.35806924223E+03  0.44112767305E+03  0.12499411307E+03 0.  0.
          5    1    4    4  502    0 -0.19249069088E+03  0.58327263202E+02 -0.23711801843E+03  0.31096909874E+03  0.47000000000E+01 0. -1.
         -5    1    4    4    0  502 -0.64426435785E+01  0.47417910879E+02 -0.12095122379E+03  0.13015857431E+03  0.47000000000E+01 0. -1.
          5    1    3    3  503    0  0.15933874133E+03 -0.80745924214E+02 -0.28872686710E+03  0.33954974975E+03  0.47000000000E+01 0.  1.
         -5    1    3    3    0  503  0.39594593127E+02 -0.24999249867E+02  0.47935946654E+00  0.47063936133E+02  0.47000000000E+01 0.  1.
<mgrwt>
<rscale>  0 0.25764830E+03</rscale>
<asrwt>0</asrwt>
<pdfrwt beam="2">  1        5 0.11338908E+00 0.25764999E+03</pdfrwt>
<pdfrwt beam="1">  1       -5 0.13955740E-01 0.25764999E+03</pdfrwt>
<totfact> 0.21923303E+01</totfact>
</mgrwt>
</event>
<event>
 8    1  0.3754098E-007  0.1522158E+03  0.7546771E-02  0.1197782E+00
          5   -1    0    0  501    0  0.00000000000E+00  0.00000000000E+00  0.19716642717E+02  0.20269089768E+02  0.47000000000E+01 0.  1.
         -5   -1    0    0    0  501 -0.00000000000E+00 -0.00000000000E+00 -0.13299993118E+04  0.13300076163E+04  0.47000000000E+01 0.  1.
         25    2    1    2    0    0  0.25283087430E+02  0.83089857524E+02 -0.89776820100E+03  0.91058080131E+03  0.12500597611E+03 0.  0.
         25    2    1    2    0    0 -0.25283087430E+02 -0.83089857524E+02 -0.41251446813E+03  0.43969590479E+03  0.12498457240E+03 0.  0.
          5    1    3    3  502    0 -0.59166482461E+01 -0.27712862402E+02 -0.32964013293E+03  0.33088928164E+03  0.47000000000E+01 0.  1.
         -5    1    3    3    0  502  0.31199735676E+02  0.11080271993E+03 -0.56812806807E+03  0.57969151967E+03  0.47000000000E+01 0.  1.
          5    1    4    4  503    0 -0.71061163665E+02 -0.27802793687E+02 -0.26111308055E+03  0.27207501751E+03  0.47000000000E+01 0. -1.
         -5    1    4    4    0  503  0.45778076235E+02 -0.55287063837E+02 -0.15140138758E+03  0.16762088728E+03  0.47000000000E+01 0. -1.
<mgrwt>
<rscale>  0 0.15221142E+03</rscale>
<asrwt>0</asrwt>
<pdfrwt beam="1">  1        5 0.30764654E-02 0.15221581E+03</pdfrwt>
<pdfrwt beam="2">  1       -5 0.20465834E+00 0.15221581E+03</pdfrwt>
<totfact> 0.48717324E+01</totfact>
</mgrwt>
</event>
<event>
 8    1  0.3754098E-007  0.1551558E+03  0.7546771E-02  0.1194277E+00
         -5   -1    0    0    0  501 -0.00000000000E+00  0.00000000000E+00  0.20158827330E+02  0.20699476306E+02  0.47000000000E+01 0.  1.
          5   -1    0    0  501    0  0.00000000000E+00 -0.00000000000E+00 -0.12207433042E+04  0.12207523519E+04  0.47000000000E+01 0.  1.
         25    2    1    2    0    0 -0.35098249803E+02 -0.84951214410E+02 -0.48393664219E+03  0.50820054512E+03  0.12499809774E+03 0.  0.
         25    2    1    2    0    0  0.35098249803E+02  0.84951214410E+02 -0.71664783469E+03  0.73325128312E+03  0.12499891708E+03 0.  0.
          5    1    4    4  502    0  0.98858596392E+01  0.79338789970E+02 -0.69391975623E+03  0.69852637166E+03  0.47000000000E+01 0.  1.
         -5    1    4    4    0  502  0.25212390164E+02  0.56124244399E+01 -0.22728078453E+02  0.34724911462E+02  0.47000000000E+01 0.  1.
          5    1    3    3  503    0 -0.44298926381E+02 -0.11461313633E+03 -0.40457096320E+03  0.42284550389E+03  0.47000000000E+01 0.  1.
         -5    1    3    3    0  503  0.92006765780E+01  0.29661921922E+02 -0.79365678995E+02  0.85355041234E+02  0.47000000000E+01 0.  1.
<mgrwt>
<rscale>  0 0.15515564E+03</rscale>
<asrwt>0</asrwt>
<pdfrwt beam="2">  1        5 0.18784889E+00 0.15515581E+03</pdfrwt>
<pdfrwt beam="1">  1       -5 0.31436434E-02 0.15515581E+03</pdfrwt>
<totfact> 0.61629405E+01</totfact>
</mgrwt>
</event>
<event>
 8    1  0.3754098E-007  0.1283543E+03  0.7546771E-02  0.1229921E+00
         -5   -1    0    0    0  501 -0.00000000000E+00  0.00000000000E+00  0.54221633270E+03  0.54223670241E+03  0.47000000000E+01 0.  1.
          5   -1    0    0  501    0  0.00000000000E+00 -0.00000000000E+00 -0.30883840418E+02  0.31239423794E+02  0.47000000000E+01 0.  1.
         25    2    1    2    0    0 -0.28936189375E+02  0.34028927478E+01  0.29870144653E+03  0.32511134798E+03  0.12500380671E+03 0.  0.
         25    2    1    2    0    0  0.28936189375E+02 -0.34028927478E+01  0.21263104575E+03  0.24836477823E+03  0.12499687481E+03 0.  0.
          5    1    3    3  502    0 -0.62445600465E+02  0.16936507792E+02  0.27278412915E+03  0.28039181413E+03  0.47000000000E+01 0. -1.
         -5    1    3    3    0  502  0.33509411089E+02 -0.13533615044E+02  0.25917317376E+02  0.44719533850E+02  0.47000000000E+01 0. -1.
          5    1    4    4  503    0  0.62730937291E+02  0.23456897570E+01  0.45456419037E+02  0.77646949622E+02  0.47000000000E+01 0. -1.
         -5    1    4    4    0  503 -0.33794747916E+02 -0.57485825048E+01  0.16717462672E+03  0.17071782861E+03  0.47000000000E+01 0. -1.
<mgrwt>
<rscale>  0 0.12835264E+03</rscale>
<asrwt>0</asrwt>
<pdfrwt beam="2">  1        5 0.47802797E-02 0.12835433E+03</pdfrwt>
<pdfrwt beam="1">  1       -5 0.83446815E-01 0.12835433E+03</pdfrwt>
<totfact> 0.24265470E+02</totfact>
</mgrwt>
</event>
<event>
 8    1  0.3754098E-007  0.1303297E+03  0.7546771E-02  0.1226968E+00
         -5   -1    0    0    0  501 -0.00000000000E+00  0.00000000000E+00  0.30989628200E+03  0.30993192091E+03  0.47000000000E+01 0. -1.
          5   -1    0    0  501    0  0.00000000000E+00 -0.00000000000E+00 -0.56819398915E+02  0.57013455368E+02  0.47000000000E+01 0. -1.
         25    2    1    2    0    0  0.20507104686E+02 -0.30649605638E+02  0.16214343530E+03  0.20802803964E+03  0.12500092800E+03 0.  0.
         25    2    1    2    0    0 -0.20507104686E+02  0.30649605638E+02  0.90933447787E+02  0.15891733663E+03  0.12500355310E+03 0.  0.
          5    1    3    3  502    0  0.38186809629E+01  0.48136117969E+02  0.47936529586E+02  0.68203145427E+02  0.47000000000E+01 0.  1.
         -5    1    3    3    0  502  0.16688423723E+02 -0.78785723608E+02  0.11420690571E+03  0.13982489422E+03  0.47000000000E+01 0.  1.
          5    1    4    4  503    0  0.10770751959E+02 -0.55353876667E+01  0.10734842809E+03  0.10813151543E+03  0.47000000000E+01 0.  1.
         -5    1    4    4    0  503 -0.31277856645E+02  0.36184993305E+02 -0.16414980307E+02  0.50785821203E+02  0.47000000000E+01 0.  1.
<mgrwt>
<rscale>  0 0.13032906E+03</rscale>
<asrwt>0</asrwt>
<pdfrwt beam="2">  1        5 0.87591147E-02 0.13032969E+03</pdfrwt>
<pdfrwt beam="1">  1       -5 0.47694021E-01 0.13032969E+03</pdfrwt>
<totfact> 0.30207150E+02</totfact>
</mgrwt>
</event>
<event>
 8    1  0.3754098E-007  0.1639793E+03  0.7546771E-02  0.1184278E+00
          5   -1    0    0  501    0  0.00000000000E+00  0.00000000000E+00  0.14655630505E+04  0.14655705869E+04  0.47000000000E+01 0. -1.
         -5   -1    0    0    0  501 -0.00000000000E+00 -0.00000000000E+00 -0.26148323329E+02  0.26567363681E+02  0.47000000000E+01 0. -1.
         25    2    1    2    0    0 -0.10111471902E+03  0.32210634260E+02  0.30823959855E+03  0.34913909826E+03  0.12499899382E+03 0.  0.
         25    2    1    2    0    0  0.10111471902E+03 -0.32210634260E+02  0.11311751287E+04  0.11429988523E+04  0.12500997276E+03 0.  0.
          5    1    4    4  502    0  0.29098256360E+02  0.16014769007E+02  0.79793596131E+03  0.79864076386E+03  0.47000000000E+01 0.  1.
         -5    1    4    4    0  502  0.72016462656E+02 -0.48225403267E+02  0.33323916735E+03  0.34435808844E+03  0.47000000000E+01 0.  1.
          5    1    3    3  503    0 -0.10676399241E+02 -0.60666889087E+01  0.20910570481E+03  0.20951867697E+03  0.47000000000E+01 0. -1.
         -5    1    3    3    0  503 -0.90438319775E+02  0.38277323169E+02  0.99133893740E+02  0.13962042129E+03  0.47000000000E+01 0. -1.
<mgrwt>
<rscale>  0 0.16397719E+03</rscale>
<asrwt>0</asrwt>
<pdfrwt beam="1">  1        5 0.22550403E+00 0.16397928E+03</pdfrwt>
<pdfrwt beam="2">  1       -5 0.40556329E-02 0.16397928E+03</pdfrwt>
<totfact> 0.23037981E+01</totfact>
</mgrwt>
</event>
<event>
 8    1  0.3754098E-007  0.1293617E+03  0.7546771E-02  0.1228409E+00
          5   -1    0    0  501    0  0.00000000000E+00  0.00000000000E+00  0.10895953119E+04  0.10896054486E+04  0.47000000000E+01 0. -1.
         -5   -1    0    0    0  501 -0.00000000000E+00 -0.00000000000E+00 -0.15008118552E+02  0.15726844009E+02  0.47000000000E+01 0. -1.
         25    2    1    2    0    0  0.27587798934E+02 -0.18662680449E+02  0.51730875224E+03  0.53323801924E+03  0.12500023090E+03 0.  0.
         25    2    1    2    0    0 -0.27587798934E+02  0.18662680449E+02  0.55727844108E+03  0.57209427338E+03  0.12499285763E+03 0.  0.
          5    1    4    4  502    0  0.21272192552E+02  0.76404256906E+00  0.46905127195E+03  0.46955753178E+03  0.47000000000E+01 0.  1.
         -5    1    4    4    0  502 -0.48859991486E+02  0.17898637880E+02  0.88227169130E+02  0.10253674160E+03  0.47000000000E+01 0.  1.
          5    1    3    3  503    0  0.74235442387E+02 -0.21239883555E+02  0.24536864099E+03  0.25727396592E+03  0.47000000000E+01 0.  1.
         -5    1    3    3    0  503 -0.46647643452E+02  0.25772031058E+01  0.27194011125E+03  0.27596405332E+03  0.47000000000E+01 0.  1.
<mgrwt>
<rscale>  0 0.12935988E+03</rscale>
<asrwt>0</asrwt>
<pdfrwt beam="1">  1        5 0.16768612E+00 0.12936166E+03</pdfrwt>
<pdfrwt beam="2">  1       -5 0.23650076E-02 0.12936166E+03</pdfrwt>
<totfact> 0.12865622E+02</totfact>
</mgrwt>
</event>
<event>
 8    1  0.3754098E-007  0.1802045E+03  0.7546771E-02  0.1167620E+00
         -5   -1    0    0    0  501 -0.00000000000E+00  0.00000000000E+00  0.10200490513E+03  0.10211312683E+03  0.47000000000E+01 0.  1.
          5   -1    0    0  501    0  0.00000000000E+00 -0.00000000000E+00 -0.33522397096E+03  0.33525691747E+03  0.47000000000E+01 0.  1.
         25    2    1    2    0    0 -0.83164530346E+02  0.99581305449E+02 -0.66966441624E+02  0.19218926667E+03  0.12497773569E+03 0.  0.
         25    2    1    2    0    0  0.83164530346E+02 -0.99581305449E+02 -0.16625262420E+03  0.24518077762E+03  0.12506359646E+03 0.  0.
          5    1    3    3  502    0 -0.39345244702E+02 -0.12345110262E+02  0.17668973363E+02  0.45108010904E+02  0.47000000000E+01 0.  1.
         -5    1    3    3    0  502 -0.43819285644E+02  0.11192641571E+03 -0.84635414987E+02  0.14708125577E+03  0.47000000000E+01 0.  1.
          5    1    4    4  503    0  0.86630630217E+02 -0.20744176678E+02 -0.43673070171E+02  0.99320763267E+02  0.47000000000E+01 0. -1.
         -5    1    4    4    0  503 -0.34660998709E+01 -0.78837128771E+02 -0.12257955403E+03  0.14586001436E+03  0.47000000000E+01 0. -1.
<mgrwt>
<rscale>  0 0.18018965E+03</rscale>
<asrwt>0</asrwt>
<pdfrwt beam="2">  1        5 0.51583777E-01 0.18020455E+03</pdfrwt>
<pdfrwt beam="1">  1       -5 0.15703922E-01 0.18020455E+03</pdfrwt>
<totfact> 0.10075778E+02</totfact>
</mgrwt>
</event>
<event>
 8    1  0.3754098E-007  0.1270018E+03  0.7546771E-02  0.1231974E+00
         -5   -1    0    0    0  501 -0.00000000000E+00  0.00000000000E+00  0.84406639153E+02  0.84537392514E+02  0.47000000000E+01 0. -1.
          5   -1    0    0  501    0  0.00000000000E+00 -0.00000000000E+00 -0.19285335020E+03  0.19291061319E+03  0.47000000000E+01 0. -1.
         25    2    1    2    0    0  0.10043428361E+02  0.20090384787E+02 -0.39851618852E+02  0.13310553083E+03  0.12499774718E+03 0.  0.
         25    2    1    2    0    0 -0.10043428361E+02 -0.20090384787E+02 -0.68595092190E+02  0.14434247487E+03  0.12499987746E+03 0.  0.
          5    1    3    3  502    0 -0.17275386043E+02  0.44820090001E+02 -0.70163240385E+02  0.85160141686E+02  0.47000000000E+01 0. -1.
         -5    1    3    3    0  502  0.27318814404E+02 -0.24729705214E+02  0.30311621533E+02  0.47945389146E+02  0.47000000000E+01 0. -1.
          5    1    4    4  503    0 -0.54815008914E+02 -0.46409946939E+02 -0.24441240484E+02  0.76013371281E+02  0.47000000000E+01 0. -1.
         -5    1    4    4    0  503  0.44771580553E+02  0.26319562152E+02 -0.44153851707E+02  0.68329103591E+02  0.47000000000E+01 0. -1.
<mgrwt>
<rscale>  0 0.12700130E+03</rscale>
<asrwt>0</asrwt>
<pdfrwt beam="2">  1        5 0.29684209E-01 0.12700182E+03</pdfrwt>
<pdfrwt beam="1">  1       -5 0.13000100E-01 0.12700182E+03</pdfrwt>
<totfact> 0.39127112E+02</totfact>
</mgrwt>
</event>
<event>
 8    1  0.3754098E-007  0.1259882E+03  0.7546771E-02  0.1233534E+00
         -5   -1    0    0    0  501 -0.00000000000E+00  0.00000000000E+00  0.60730830836E+02  0.60912427419E+02  0.47000000000E+01 0.  1.
          5   -1    0    0  501    0  0.00000000000E+00 -0.00000000000E+00 -0.32215305293E+03  0.32218733605E+03  0.47000000000E+01 0.  1.
         25    2    1    2    0    0 -0.65434007839E+01  0.14313814023E+02 -0.47127255096E+02  0.13451392319E+03  0.12500126396E+03 0.  0.
         25    2    1    2    0    0  0.65434007839E+01 -0.14313814023E+02 -0.21429496699E+03  0.24858584028E+03  0.12499954297E+03 0.  0.
          5    1    3    3  502    0  0.55709772032E+02  0.17577332706E+02 -0.43565512784E+01  0.58767430299E+02  0.47000000000E+01 0. -1.
         -5    1    3    3    0  502 -0.62253172816E+02 -0.32635186826E+01 -0.42770703818E+02  0.75746492888E+02  0.47000000000E+01 0. -1.
          5    1    4    4  503    0 -0.39151478437E+02  0.13748540201E+02 -0.18767453684E+02  0.45783926648E+02  0.47000000000E+01 0. -1.
         -5    1    4    4    0  503  0.45694879221E+02 -0.28062354224E+02 -0.19552751331E+03  0.20280191363E+03  0.47000000000E+01 0. -1.
<mgrwt>
<rscale>  0 0.12598774E+03</rscale>
<asrwt>0</asrwt>
<pdfrwt beam="2">  1        5 0.49578613E-01 0.12598816E+03</pdfrwt>
<pdfrwt beam="1">  1       -5 0.93598111E-02 0.12598816E+03</pdfrwt>
<totfact> 0.24519499E+02</totfact>
</mgrwt>
</event>
<event>
 8    1  0.3754098E-007  0.1265558E+03  0.7546771E-02  0.1232661E+00
         -5   -1    0    0    0  501 -0.00000000000E+00  0.00000000000E+00  0.27017450891E+04  0.27017491772E+04  0.47000000000E+01 0.  1.
          5   -1    0    0  501    0  0.00000000000E+00 -0.00000000000E+00 -0.57715951803E+01  0.74432056888E+01  0.47000000000E+01 0.  1.
         25    2    1    2    0    0  0.16232333799E+02 -0.11281429789E+02  0.17836339374E+04  0.17881181123E+04  0.12500240573E+03 0.  0.
         25    2    1    2    0    0 -0.16232333799E+02  0.11281429789E+02  0.91233955649E+03  0.92107427059E+03  0.12499434504E+03 0.  0.
          5    1    3    3  502    0 -0.29351107317E+02 -0.52562099630E+02  0.64691389127E+03  0.64972604576E+03  0.47000000000E+01 0.  1.
         -5    1    3    3    0  502  0.45583441116E+02  0.41280669841E+02  0.11367200461E+04  0.11383920665E+04  0.47000000000E+01 0.  1.
          5    1    4    4  503    0  0.34013246178E+02  0.78561483440E+01  0.82630607981E+02  0.89824981813E+02  0.47000000000E+01 0.  1.
         -5    1    4    4    0  503 -0.50245579976E+02  0.34252814446E+01  0.82970894851E+03  0.83124928878E+03  0.47000000000E+01 0.  1.
<mgrwt>
<rscale>  0 0.12655377E+03</rscale>
<asrwt>0</asrwt>
<pdfrwt beam="2">  1        5 0.10168359E-02 0.12655576E+03</pdfrwt>
<pdfrwt beam="1">  1       -5 0.41578271E+00 0.12655576E+03</pdfrwt>
<totfact> 0.11110609E+01</totfact>
</mgrwt>
</event>
<event>
 8    1  0.3754098E-007  0.1415073E+03  0.7546771E-02  0.1211315E+00
          5   -1    0    0  501    0  0.00000000000E+00  0.00000000000E+00  0.20012309959E+03  0.20017828301E+03  0.47000000000E+01 0. -1.
         -5   -1    0    0    0  501 -0.00000000000E+00 -0.00000000000E+00 -0.10092256828E+03  0.10103194934E+03  0.47000000000E+01 0. -1.
         25    2    1    2    0    0  0.56122096860E+02 -0.35360157081E+02  0.64481681443E+02  0.15550626389E+03  0.12499712158E+03 0.  0.
         25    2    1    2    0    0 -0.56122096860E+02  0.35360157081E+02  0.34718849868E+02  0.14570396846E+03  0.12499686966E+03 0.  0.
          5    1    3    3  502    0  0.75394178058E+02 -0.66453001085E+02  0.29928043845E+02  0.10496695312E+03  0.47000000000E+01 0. -1.
         -5    1    3    3    0  502 -0.19272081199E+02  0.31092844004E+02  0.34553637598E+02  0.50539310771E+02  0.47000000000E+01 0. -1.
          5    1    4    4  503    0 -0.83107057818E+02  0.11916741153E+02  0.58569069870E+02  0.10247544937E+03  0.47000000000E+01 0.  1.
         -5    1    4    4    0  503  0.26984960958E+02  0.23443415928E+02 -0.23850220002E+02  0.43228519087E+02  0.47000000000E+01 0.  1.
<mgrwt>
<rscale>  0 0.14150723E+03</rscale>
<asrwt>0</asrwt>
<pdfrwt beam="1">  1        5 0.30800828E-01 0.14150728E+03</pdfrwt>
<pdfrwt beam="2">  1       -5 0.15539208E-01 0.14150728E+03</pdfrwt>
<totfact> 0.27421312E+02</totfact>
</mgrwt>
</event>
<event>
 8    1  0.3754098E-007  0.1250704E+03  0.7546771E-02  0.1234960E+00
          5   -1    0    0  501    0  0.00000000000E+00  0.00000000000E+00  0.18875137475E+03  0.18880988181E+03  0.47000000000E+01 0.  1.
         -5   -1    0    0    0  501 -0.00000000000E+00 -0.00000000000E+00 -0.82734893367E+02  0.82868284527E+02  0.47000000000E+01 0.  1.
         25    2    1    2    0    0 -0.35309140480E+01  0.21019985624E+01  0.53266670952E+02  0.13593893658E+03  0.12500068196E+03 0.  0.
         25    2    1    2    0    0  0.35309140480E+01 -0.21019985624E+01  0.52749810429E+02  0.13573922976E+03  0.12500284094E+03 0.  0.
          5    1    4    4  502    0  0.47339483810E+02 -0.43096359985E+02  0.20056995755E+02  0.67250992930E+02  0.47000000000E+01 0. -1.
         -5    1    4    4    0  502 -0.43808569762E+02  0.40994361422E+02  0.32692814674E+02  0.68488236832E+02  0.47000000000E+01 0. -1.
          5    1    3    3  503    0  0.32640620639E+02  0.23022489865E+02  0.77566503910E+02  0.87373323641E+02  0.47000000000E+01 0.  1.
         -5    1    3    3    0  503 -0.36171534687E+02 -0.20920491303E+02 -0.24299832957E+02  0.48565612935E+02  0.47000000000E+01 0.  1.
<mgrwt>
<rscale>  0 0.12506982E+03</rscale>
<asrwt>0</asrwt>
<pdfrwt beam="1">  1        5 0.29053435E-01 0.12507036E+03</pdfrwt>
<pdfrwt beam="2">  1       -5 0.12743206E-01 0.12507036E+03</pdfrwt>
<totfact> 0.42039858E+02</totfact>
</mgrwt>
</event>
<event>
 8    1  0.3754098E-007  0.1492999E+03  0.7546771E-02  0.1201337E+00
         -5   -1    0    0    0  501 -0.00000000000E+00  0.00000000000E+00  0.48760091633E+02  0.48986085127E+02  0.47000000000E+01 0. -1.
          5   -1    0    0  501    0  0.00000000000E+00 -0.00000000000E+00 -0.49777155680E+03  0.49779374520E+03  0.47000000000E+01 0. -1.
         25    2    1    2    0    0 -0.76751472288E+02 -0.27813755065E+02 -0.14517109362E+03  0.20823966937E+03  0.12499888002E+03 0.  0.
         25    2    1    2    0    0  0.76751472288E+02  0.27813755065E+02 -0.30384037155E+03  0.33854016096E+03  0.12500430285E+03 0.  0.
          5    1    3    3  502    0  0.44131777909E+00 -0.11570835398E+02  0.20885683773E+02  0.24338873841E+02  0.47000000000E+01 0. -1.
         -5    1    3    3    0  502 -0.77192790067E+02 -0.16242919667E+02 -0.16605677739E+03  0.18390079553E+03  0.47000000000E+01 0. -1.
          5    1    4    4  503    0  0.46780884614E+02  0.52904562853E+02 -0.63785892170E+02  0.95278927239E+02  0.47000000000E+01 0. -1.
         -5    1    4    4    0  503  0.29970587675E+02 -0.25090807788E+02 -0.24005447938E+03  0.24326123372E+03  0.47000000000E+01 0. -1.
<mgrwt>
<rscale>  0 0.14929880E+03</rscale>
<asrwt>0</asrwt>
<pdfrwt beam="2">  1        5 0.76599327E-01 0.14929993E+03</pdfrwt>
<pdfrwt beam="1">  1       -5 0.75206438E-02 0.14929993E+03</pdfrwt>
<totfact> 0.14525164E+02</totfact>
</mgrwt>
</event>
<event>
 8    1  0.3754098E-007  0.1267956E+03  0.7546771E-02  0.1232292E+00
          5   -1    0    0  501    0  0.00000000000E+00  0.00000000000E+00  0.15915036438E+02  0.16594528762E+02  0.47000000000E+01 0. -1.
         -5   -1    0    0    0  501 -0.00000000000E+00 -0.00000000000E+00 -0.14512619207E+04  0.14512695313E+04  0.47000000000E+01 0. -1.
         25    2    1    2    0    0 -0.18281421627E+02 -0.10813968287E+02 -0.11320955918E+04  0.11391740633E+04  0.12500386133E+03 0.  0.
         25    2    1    2    0    0  0.18281421627E+02  0.10813968287E+02 -0.30325129247E+03  0.32868999672E+03  0.12499846108E+03 0.  0.
          5    1    3    3  502    0 -0.54628597999E+01 -0.67540851876E+02 -0.55701619343E+03  0.56114235204E+03  0.47000000000E+01 0.  1.
         -5    1    3    3    0  502 -0.12818561827E+02  0.56726883589E+02 -0.57507939836E+03  0.57803171130E+03  0.47000000000E+01 0.  1.
          5    1    4    4  503    0  0.18228236745E+02 -0.14703418410E+02  0.44205521042E+00  0.23890260371E+02  0.47000000000E+01 0. -1.
         -5    1    4    4    0  503  0.53184881604E-01  0.25517386697E+02 -0.30369334768E+03  0.30479973634E+03  0.47000000000E+01 0. -1.
<mgrwt>
<rscale>  0 0.12679424E+03</rscale>
<asrwt>0</asrwt>
<pdfrwt beam="1">  1        5 0.25013223E-02 0.12679557E+03</pdfrwt>
<pdfrwt beam="2">  1       -5 0.22332382E+00 0.12679557E+03</pdfrwt>
<totfact> 0.48657381E+01</totfact>
</mgrwt>
</event>
<event>
 8    1  0.3754098E-007  0.1283454E+03  0.7546771E-02  0.1229933E+00
          5   -1    0    0  501    0  0.00000000000E+00  0.00000000000E+00  0.32723525961E+03  0.32726901034E+03  0.47000000000E+01 0.  1.
         -5   -1    0    0    0  501 -0.00000000000E+00 -0.00000000000E+00 -0.53307663054E+02  0.53514455433E+02  0.47000000000E+01 0.  1.
         25    2    1    2    0    0  0.99546464951E+01 -0.27355566673E+02  0.91038182995E+02  0.15735463379E+03  0.12500043198E+03 0.  0.
         25    2    1    2    0    0 -0.99546464951E+01  0.27355566673E+02  0.18288941356E+03  0.22342883199E+03  0.12499793342E+03 0.  0.
          5    1    4    4  502    0 -0.12907567135E+02 -0.44155826274E+02  0.31632827480E+02  0.56027386675E+02  0.47000000000E+01 0.  1.
         -5    1    4    4    0  502  0.29529206402E+01  0.71511392947E+02  0.15125658608E+03  0.16740144532E+03  0.47000000000E+01 0.  1.
          5    1    3    3  503    0  0.10193020005E+02  0.39208923370E+02  0.79891565348E+02  0.89699440034E+02  0.47000000000E+01 0. -1.
         -5    1    3    3    0  503 -0.23837351002E+00 -0.66564490043E+02  0.11146617647E+02  0.67655193752E+02  0.47000000000E+01 0. -1.
<mgrwt>
<rscale>  0 0.12834475E+03</rscale>
<asrwt>0</asrwt>
<pdfrwt beam="1">  1        5 0.50362390E-01 0.12834535E+03</pdfrwt>
<pdfrwt beam="2">  1       -5 0.82196822E-02 0.12834535E+03</pdfrwt>
<totfact> 0.29873844E+02</totfact>
</mgrwt>
</event>
<event>
 8    1  0.3754098E-007  0.1327687E+03  0.7546771E-02  0.1223404E+00
         -5   -1    0    0    0  501 -0.00000000000E+00  0.00000000000E+00  0.60132827136E+03  0.60134663875E+03  0.47000000000E+01 0. -1.
          5   -1    0    0  501    0  0.00000000000E+00 -0.00000000000E+00 -0.31615068177E+02  0.31962517670E+02  0.47000000000E+01 0. -1.
         25    2    1    2    0    0 -0.21565311466E+02  0.39210895996E+02  0.37351412905E+03  0.39640915923E+03  0.12499943961E+03 0.  0.
         25    2    1    2    0    0  0.21565311466E+02 -0.39210895996E+02  0.19619907413E+03  0.23689999718E+03  0.12499989981E+03 0.  0.
          5    1    4    4  502    0 -0.41037267224E+02  0.19564299221E+02  0.82839198220E+02  0.94611002886E+02  0.47000000000E+01 0.  1.
         -5    1    4    4    0  502  0.62602578690E+02 -0.58775195217E+02  0.11335987591E+03  0.14228899430E+03  0.47000000000E+01 0.  1.
          5    1    3    3  503    0  0.44887404674E+01 -0.55060427919E+01 -0.78123484724E+01  0.11558031271E+02  0.47000000000E+01 0. -1.
         -5    1    3    3    0  503 -0.26054051934E+02  0.44716938788E+02  0.38132647752E+03  0.38485112796E+03  0.47000000000E+01 0. -1.
<mgrwt>
<rscale>  0 0.13276861E+03</rscale>
<asrwt>0</asrwt>
<pdfrwt beam="2">  1        5 0.48919965E-02 0.13276872E+03</pdfrwt>
<pdfrwt beam="1">  1       -5 0.92540179E-01 0.13276872E+03</pdfrwt>
<totfact> 0.18521358E+02</totfact>
</mgrwt>
</event>
<event>
 8    1  0.3754098E-007  0.1288619E+03  0.7546771E-02  0.1229157E+00
          5   -1    0    0  501    0  0.00000000000E+00  0.00000000000E+00  0.14139988526E+03  0.14147797550E+03  0.47000000000E+01 0.  1.
         -5   -1    0    0    0  501 -0.00000000000E+00 -0.00000000000E+00 -0.12855908813E+03  0.12864497324E+03  0.47000000000E+01 0.  1.
         25    2    1    2    0    0  0.29152836866E+02 -0.11410242250E+02 -0.33572797126E+02  0.13315718712E+03  0.12499448887E+03 0.  0.
         25    2    1    2    0    0 -0.29152836866E+02  0.11410242250E+02  0.46413594258E+02  0.13696576163E+03  0.12500126640E+03 0.  0.
          5    1    4    4  502    0  0.15466020884E+02  0.60327055873E+02  0.23995292172E+02  0.66906020048E+02  0.47000000000E+01 0. -1.
         -5    1    4    4    0  502 -0.44618857750E+02 -0.48916813623E+02  0.22418302086E+02  0.70059741581E+02  0.47000000000E+01 0. -1.
          5    1    3    3  503    0 -0.12430577108E+02 -0.76734815167E+00  0.43128764504E+02  0.45136331243E+02  0.47000000000E+01 0. -1.
         -5    1    3    3    0  503  0.41583413974E+02 -0.10642894098E+02 -0.76701561630E+02  0.88020855875E+02  0.47000000000E+01 0. -1.
<mgrwt>
<rscale>  0 0.12886029E+03</rscale>
<asrwt>0</asrwt>
<pdfrwt beam="1">  1        5 0.21766442E-01 0.12886193E+03</pdfrwt>
<pdfrwt beam="2">  1       -5 0.19790935E-01 0.12886193E+03</pdfrwt>
<totfact> 0.33183191E+02</totfact>
</mgrwt>
</event>
<event>
 8    1  0.3754098E-007  0.2093576E+03  0.7546771E-02  0.1142076E+00
         -5   -1    0    0    0  501 -0.00000000000E+00  0.00000000000E+00  0.14806049009E+03  0.14813506919E+03  0.47000000000E+01 0. -1.
          5   -1    0    0  501    0  0.00000000000E+00 -0.00000000000E+00 -0.29712841310E+03  0.29716558326E+03  0.47000000000E+01 0. -1.
         25    2    1    2    0    0  0.14948759617E+03 -0.76538844182E+02 -0.89072917233E+02  0.22751832093E+03  0.12500346275E+03 0.  0.
         25    2    1    2    0    0 -0.14948759617E+03  0.76538844182E+02 -0.59995005780E+02  0.21778233152E+03  0.12500002851E+03 0.  0.
          5    1    4    4  502    0 -0.16002191031E+03  0.91027568990E+02 -0.36292594749E+02  0.18770261726E+03  0.47000000000E+01 0. -1.
         -5    1    4    4    0  502  0.10534314140E+02 -0.14488724808E+02 -0.23702411030E+02  0.30079714254E+02  0.47000000000E+01 0. -1.
          5    1    3    3  503    0  0.11366598570E+03 -0.10793892183E+03 -0.46795259396E+02  0.16365406641E+03  0.47000000000E+01 0.  1.
         -5    1    3    3    0  503  0.35821610471E+02  0.31400077653E+02 -0.42277657836E+02  0.63864254521E+02  0.47000000000E+01 0.  1.
<mgrwt>
<rscale>  0 0.20935708E+03</rscale>
<asrwt>0</asrwt>
<pdfrwt beam="2">  1        5 0.45720660E-01 0.20935759E+03</pdfrwt>
<pdfrwt beam="1">  1       -5 0.22787133E-01 0.20935759E+03</pdfrwt>
<totfact> 0.67710879E+01</totfact>
</mgrwt>
</event>
<event>
 8    1  0.3754098E-007  0.1447742E+03  0.7546771E-02  0.1207047E+00
         -5   -1    0    0    0  501 -0.00000000000E+00  0.00000000000E+00  0.27470432303E+04  0.27470472510E+04  0.47000000000E+01 0.  1.
          5   -1    0    0  501    0  0.00000000000E+00 -0.00000000000E+00 -0.69723927556E+01  0.84085825642E+01  0.47000000000E+01 0.  1.
         25    2    1    2    0    0  0.31307191804E+02  0.65983064106E+02  0.14964994421E+04  0.15034859987E+04  0.12500265263E+03 0.  0.
         25    2    1    2    0    0 -0.31307191804E+02 -0.65983064106E+02  0.12435713954E+04  0.12519698348E+04  0.12499898687E+03 0.  0.
          5    1    3    3  502    0 -0.28154727211E+02  0.10001718612E+02  0.98684080197E+03  0.98730419906E+03  0.47000000000E+01 0. -1.
         -5    1    3    3    0  502  0.59461919015E+02  0.55981345494E+02  0.50965864011E+03  0.51618179966E+03  0.47000000000E+01 0. -1.
          5    1    4    4  503    0 -0.72038774282E+01  0.74506579164E+01  0.78494494079E+01  0.13824326725E+02  0.47000000000E+01 0. -1.
         -5    1    4    4    0  503 -0.24103314376E+02 -0.73433722023E+02  0.12357219460E+04  0.12381455081E+04  0.47000000000E+01 0. -1.
<mgrwt>
<rscale>  0 0.14477341E+03</rscale>
<asrwt>0</asrwt>
<pdfrwt beam="2">  1        5 0.11834634E-02 0.14477420E+03</pdfrwt>
<pdfrwt beam="1">  1       -5 0.42273206E+00 0.14477420E+03</pdfrwt>
<totfact> 0.80417635E+00</totfact>
</mgrwt>
</event>
<event>
 8    1  0.3754098E-007  0.1379645E+03  0.7546771E-02  0.1216112E+00
         -5   -1    0    0    0  501 -0.00000000000E+00  0.00000000000E+00  0.73638079265E+03  0.73639579153E+03  0.47000000000E+01 0.  1.
          5   -1    0    0  501    0  0.00000000000E+00 -0.00000000000E+00 -0.25787018522E+02  0.26211835575E+02  0.47000000000E+01 0.  1.
         25    2    1    2    0    0  0.50417119843E+02  0.29451466450E+02  0.38670418957E+03  0.41057805403E+03  0.12499973348E+03 0.  0.
         25    2    1    2    0    0 -0.50417119843E+02 -0.29451466450E+02  0.32388958455E+03  0.35202957307E+03  0.12494431754E+03 0.  0.
          5    1    3    3  502    0 -0.36173131721E+02 -0.88041201038E+01  0.63456893555E+02  0.73721606934E+02  0.47000000000E+01 0.  1.
         -5    1    3    3    0  502  0.86590251564E+02  0.38255586554E+02  0.32324729602E+03  0.33685644710E+03  0.47000000000E+01 0.  1.
          5    1    4    4  503    0 -0.91400190022E+02 -0.30452734908E+02  0.21806172392E+03  0.23844154260E+03  0.47000000000E+01 0. -1.
         -5    1    4    4    0  503  0.40983070179E+02  0.10012684577E+01  0.10582786063E+03  0.11358803047E+03  0.47000000000E+01 0. -1.
<mgrwt>
<rscale>  0 0.13795196E+03</rscale>
<asrwt>0</asrwt>
<pdfrwt beam="2">  1        5 0.40010651E-02 0.13796452E+03</pdfrwt>
<pdfrwt beam="1">  1       -5 0.11332320E+00 0.13796452E+03</pdfrwt>
<totfact> 0.15914743E+02</totfact>
</mgrwt>
</event>
<event>
 8    1  0.3754098E-007  0.1443057E+03  0.7546771E-02  0.1207652E+00
          5   -1    0    0  501    0  0.00000000000E+00  0.00000000000E+00  0.10783893082E+03  0.10794130350E+03  0.47000000000E+01 0. -1.
         -5   -1    0    0    0  501 -0.00000000000E+00 -0.00000000000E+00 -0.19651923573E+03  0.19657543085E+03  0.47000000000E+01 0. -1.
         25    2    1    2    0    0  0.45341831656E+01 -0.71946243069E+02 -0.65069255690E+02  0.15829222298E+03  0.12500239642E+03 0.  0.
         25    2    1    2    0    0 -0.45341831656E+01  0.71946243069E+02 -0.23611049221E+02  0.14622451137E+03  0.12500922114E+03 0.  0.
          5    1    4    4  502    0 -0.47547322451E+00  0.40592039449E+02 -0.75170841091E+02  0.85561002166E+02  0.47000000000E+01 0. -1.
         -5    1    4    4    0  502 -0.40587099411E+01  0.31354203619E+02  0.51559791869E+02  0.60663509201E+02  0.47000000000E+01 0. -1.
          5    1    3    3  503    0  0.26591731208E+02 -0.10154820723E+03 -0.36010326122E+02  0.11107651483E+03  0.47000000000E+01 0. -1.
         -5    1    3    3    0  503 -0.22057548042E+02  0.29601964161E+02 -0.29058929568E+02  0.47215708143E+02  0.47000000000E+01 0. -1.
<mgrwt>
<rscale>  0 0.14430419E+03</rscale>
<asrwt>0</asrwt>
<pdfrwt beam="1">  1        5 0.16602802E-01 0.14430567E+03</pdfrwt>
<pdfrwt beam="2">  1       -5 0.30245926E-01 0.14430567E+03</pdfrwt>
<totfact> 0.25354698E+02</totfact>
</mgrwt>
</event>
<event>
 8    1  0.3754098E-007  0.1312412E+03  0.7546771E-02  0.1225626E+00
          5   -1    0    0  501    0  0.00000000000E+00  0.00000000000E+00  0.11818865672E+03  0.11828207208E+03  0.47000000000E+01 0. -1.
         -5   -1    0    0    0  501 -0.00000000000E+00 -0.00000000000E+00 -0.16677495150E+03  0.16684116533E+03  0.47000000000E+01 0. -1.
         25    2    1    2    0    0  0.39396486350E+02  0.67709268582E+01 -0.75131634654E+02  0.15122501805E+03  0.12500525977E+03 0.  0.
         25    2    1    2    0    0 -0.39396486350E+02 -0.67709268582E+01  0.26545339869E+02  0.13389821936E+03  0.12500459788E+03 0.  0.
          5    1    4    4  502    0 -0.29971147930E+02 -0.45282399047E+00 -0.48851919551E+02  0.57507171741E+02  0.47000000000E+01 0. -1.
         -5    1    4    4    0  502 -0.94253384203E+01 -0.63181028677E+01  0.75397259420E+02  0.76391047619E+02  0.47000000000E+01 0. -1.
          5    1    3    3  503    0 -0.42497450007E+02  0.20693893200E+02 -0.33971063603E+02  0.58398575626E+02  0.47000000000E+01 0. -1.
         -5    1    3    3    0  503  0.81893936358E+02 -0.13922966342E+02 -0.41160571051E+02  0.92826442424E+02  0.47000000000E+01 0. -1.
<mgrwt>
<rscale>  0 0.13124101E+03</rscale>
<asrwt>0</asrwt>
<pdfrwt beam="1">  1        5 0.18195149E-01 0.13124117E+03</pdfrwt>
<pdfrwt beam="2">  1       -5 0.25669964E-01 0.13124117E+03</pdfrwt>
<totfact> 0.28529568E+02</totfact>
</mgrwt>
</event>
<event>
 8    1  0.3754098E-007  0.1284447E+03  0.7546771E-02  0.1229782E+00
         -5   -1    0    0    0  501 -0.00000000000E+00  0.00000000000E+00  0.41798863368E+02  0.42062275008E+02  0.47000000000E+01 0. -1.
          5   -1    0    0  501    0  0.00000000000E+00 -0.00000000000E+00 -0.39389812034E+03  0.39392615959E+03  0.47000000000E+01 0. -1.
         25    2    1    2    0    0  0.25814932609E+02  0.14395495684E+02 -0.18533416930E+03  0.22549236503E+03  0.12499764532E+03 0.  0.
         25    2    1    2    0    0 -0.25814932609E+02 -0.14395495684E+02 -0.16676508768E+03  0.21049606957E+03  0.12499743915E+03 0.  0.
          5    1    3    3  502    0 -0.14359832970E+01 -0.14597403071E+02  0.14815795209E+02  0.21371570183E+02  0.47000000000E+01 0. -1.
         -5    1    3    3    0  502  0.27250915906E+02  0.28992898755E+02 -0.20014996451E+03  0.20412079485E+03  0.47000000000E+01 0. -1.
          5    1    4    4  503    0  0.58749523041E+01  0.50188216713E+02 -0.39813337319E+02  0.64502433984E+02  0.47000000000E+01 0.  1.
         -5    1    4    4    0  503 -0.31689884914E+02 -0.64583712397E+02 -0.12695175036E+03  0.14599363559E+03  0.47000000000E+01 0.  1.
<mgrwt>
<rscale>  0 0.12844469E+03</rscale>
<asrwt>0</asrwt>
<pdfrwt beam="2">  1        5 0.60622128E-01 0.12844474E+03</pdfrwt>
<pdfrwt beam="1">  1       -5 0.64530139E-02 0.12844474E+03</pdfrwt>
<totfact> 0.30252707E+02</totfact>
</mgrwt>
</event>
<event>
 8    1  0.3754098E-007  0.1386199E+03  0.7546771E-02  0.1215200E+00
         -5   -1    0    0    0  501 -0.00000000000E+00  0.00000000000E+00  0.43956605404E+02  0.44207161848E+02  0.47000000000E+01 0.  1.
          5   -1    0    0  501    0  0.00000000000E+00 -0.00000000000E+00 -0.64656021303E+03  0.64657729551E+03  0.47000000000E+01 0.  1.
         25    2    1    2    0    0 -0.58183523774E+02 -0.14300289987E+02 -0.10406636369E+03  0.17333579376E+03  0.12500267442E+03 0.  0.
         25    2    1    2    0    0  0.58183523774E+02  0.14300289987E+02 -0.49853724393E+03  0.51744866361E+03  0.12499566050E+03 0.  0.
          5    1    3    3  502    0  0.13217554990E+01  0.29765495334E+02 -0.93682423423E+02  0.98418586702E+02  0.47000000000E+01 0. -1.
         -5    1    3    3    0  502 -0.59505279273E+02 -0.44065785321E+02 -0.10383940269E+02  0.74917207054E+02  0.47000000000E+01 0. -1.
          5    1    4    4  503    0  0.85040495254E+01  0.65777216332E+02 -0.21962199755E+03  0.22946649615E+03  0.47000000000E+01 0.  1.
         -5    1    4    4    0  503  0.49679474248E+02 -0.51476926345E+02 -0.27891524638E+03  0.28798216745E+03  0.47000000000E+01 0.  1.
<mgrwt>
<rscale>  0 0.13861836E+03</rscale>
<asrwt>0</asrwt>
<pdfrwt beam="2">  1        5 0.99491383E-01 0.13861995E+03</pdfrwt>
<pdfrwt beam="1">  1       -5 0.67831427E-02 0.13861995E+03</pdfrwt>
<totfact> 0.91240089E+01</totfact>
</mgrwt>
</event>
<event>
 8    1  0.3754098E-007  0.1320555E+03  0.7546771E-02  0.1224442E+00
         -5   -1    0    0    0  501 -0.00000000000E+00  0.00000000000E+00  0.22417877501E+03  0.22422803831E+03  0.47000000000E+01 0.  1.
          5   -1    0    0  501    0  0.00000000000E+00 -0.00000000000E+00 -0.81597302797E+02  0.81732550577E+02  0.47000000000E+01 0.  1.
         25    2    1    2    0    0 -0.29967383691E+02  0.30184530549E+02  0.10488354907E+03  0.16862965088E+03  0.12500500118E+03 0.  0.
         25    2    1    2    0    0  0.29967383691E+02 -0.30184530549E+02  0.37697923141E+02  0.13733093801E+03  0.12501801132E+03 0.  0.
          5    1    3    3  502    0 -0.24822050303E+02 -0.18966228805E+02  0.11387855648E+03  0.11817896447E+03  0.47000000000E+01 0. -1.
         -5    1    3    3    0  502 -0.51453333885E+01  0.49150759354E+02 -0.89950074140E+01  0.50450686409E+02  0.47000000000E+01 0. -1.
          5    1    4    4  503    0  0.13486796868E+02 -0.40077933994E+02  0.80010616885E+02  0.90619662862E+02  0.47000000000E+01 0. -1.
         -5    1    4    4    0  503  0.16480586824E+02  0.98934034451E+01 -0.42312693744E+02  0.46711275145E+02  0.47000000000E+01 0. -1.
<mgrwt>
<rscale>  0 0.13205241E+03</rscale>
<asrwt>0</asrwt>
<pdfrwt beam="2">  1        5 0.12567625E-01 0.13205549E+03</pdfrwt>
<pdfrwt beam="1">  1       -5 0.34503235E-01 0.13205549E+03</pdfrwt>
<totfact> 0.31308440E+02</totfact>
</mgrwt>
</event>
<event>
 8    1  0.3754098E-007  0.1386322E+03  0.7546771E-02  0.1215182E+00
         -5   -1    0    0    0  501 -0.00000000000E+00  0.00000000000E+00  0.41370383616E+02  0.41636506104E+02  0.47000000000E+01 0.  1.
          5   -1    0    0  501    0  0.00000000000E+00 -0.00000000000E+00 -0.48497347969E+03  0.48499625360E+03  0.47000000000E+01 0.  1.
         25    2    1    2    0    0 -0.57999968753E+02  0.15142158759E+02 -0.16549728729E+03  0.21588891975E+03  0.12500156888E+03 0.  0.
         25    2    1    2    0    0  0.57999968753E+02 -0.15142158759E+02 -0.27810580879E+03  0.31074383996E+03  0.12500244734E+03 0.  0.
          5    1    3    3  502    0  0.87723413627E+01  0.47270501386E+02 -0.19496006921E+02  0.52092596020E+02  0.47000000000E+01 0. -1.
         -5    1    3    3    0  502 -0.66772310116E+02 -0.32128342627E+02 -0.14600128037E+03  0.16379632373E+03  0.47000000000E+01 0. -1.
          5    1    4    4  503    0  0.75205299867E+02 -0.71073167000E+01 -0.74502483425E+02  0.10620292423E+03  0.47000000000E+01 0. -1.
         -5    1    4    4    0  503 -0.17205331114E+02 -0.80348420590E+01 -0.20360332537E+03  0.20454091573E+03  0.47000000000E+01 0. -1.
<mgrwt>
<rscale>  0 0.13863202E+03</rscale>
<asrwt>0</asrwt>
<pdfrwt beam="2">  1        5 0.74633523E-01 0.13863222E+03</pdfrwt>
<pdfrwt beam="1">  1       -5 0.63868976E-02 0.13863222E+03</pdfrwt>
<totfact> 0.19860707E+02</totfact>
</mgrwt>
</event>
<event>
 8    1  0.3754098E-007  0.1496641E+03  0.7546771E-02  0.1200887E+00
          5   -1    0    0  501    0  0.00000000000E+00  0.00000000000E+00  0.54604806440E+03  0.54606829118E+03  0.47000000000E+01 0. -1.
         -5   -1    0    0    0  501 -0.00000000000E+00 -0.00000000000E+00 -0.46507023941E+02  0.46743911645E+02  0.47000000000E+01 0. -1.
         25    2    1    2    0    0 -0.46189469132E+02 -0.68122125917E+02  0.14683348398E+03  0.20966497889E+03  0.12500096103E+03 0.  0.
         25    2    1    2    0    0  0.46189469132E+02  0.68122125917E+02  0.35270755648E+03  0.38314722393E+03  0.12500033486E+03 0.  0.
          5    1    4    4  502    0  0.45351105001E+02 -0.23514974840E+02  0.76606858726E+02  0.92197492214E+02  0.47000000000E+01 0. -1.
         -5    1    4    4    0  502  0.83836413094E+00  0.91637100758E+02  0.27610069775E+03  0.29094973172E+03  0.47000000000E+01 0. -1.
          5    1    3    3  503    0 -0.83099727631E+02 -0.26296342573E+02  0.11776504042E+03  0.14658702913E+03  0.47000000000E+01 0.  1.
         -5    1    3    3    0  503  0.36910258499E+02 -0.41825783344E+02  0.29068443561E+02  0.63077949760E+02  0.47000000000E+01 0.  1.
<mgrwt>
<rscale>  0 0.14966393E+03</rscale>
<asrwt>0</asrwt>
<pdfrwt beam="1">  1        5 0.84027173E-01 0.14966406E+03</pdfrwt>
<pdfrwt beam="2">  1       -5 0.71747047E-02 0.14966406E+03</pdfrwt>
<totfact> 0.12710038E+02</totfact>
</mgrwt>
</event>
<event>
 8    1  0.3754098E-007  0.1252622E+03  0.7546771E-02  0.1234662E+00
         -5   -1    0    0    0  501 -0.00000000000E+00  0.00000000000E+00  0.35624520859E+03  0.35627621116E+03  0.47000000000E+01 0. -1.
          5   -1    0    0  501    0  0.00000000000E+00 -0.00000000000E+00 -0.45381697376E+02  0.45624428290E+02  0.47000000000E+01 0. -1.
         25    2    1    2    0    0 -0.25349437030E+01  0.76394401360E+01  0.19181841096E+03  0.22909333007E+03  0.12499865645E+03 0.  0.
         25    2    1    2    0    0  0.25349437030E+01 -0.76394401360E+01  0.11904510025E+03  0.17280730938E+03  0.12500337314E+03 0.  0.
          5    1    3    3  502    0  0.43261195344E+02  0.88459069554E+01  0.17422451774E+03  0.17979447620E+03  0.47000000000E+01 0. -1.
         -5    1    3    3    0  502 -0.45796139047E+02 -0.12064668193E+01  0.17593893220E+02  0.49298853866E+02  0.47000000000E+01 0. -1.
          5    1    4    4  503    0  0.52258553081E+02  0.22547526523E+02  0.92466891028E+02  0.10868101609E+03  0.47000000000E+01 0.  1.
         -5    1    4    4    0  503 -0.49723609378E+02 -0.30186966659E+02  0.26578209224E+02  0.64126293291E+02  0.47000000000E+01 0.  1.
<mgrwt>
<rscale>  0 0.12526107E+03</rscale>
<asrwt>0</asrwt>
<pdfrwt beam="2">  1        5 0.70028562E-02 0.12526225E+03</pdfrwt>
<pdfrwt beam="1">  1       -5 0.54828010E-01 0.12526225E+03</pdfrwt>
<totfact> 0.32461390E+02</totfact>
</mgrwt>
</event>
<event>
 8    1  0.3754098E-007  0.1623640E+03  0.7546771E-02  0.1186055E+00
         -5   -1    0    0    0  501 -0.00000000000E+00  0.00000000000E+00  0.22102256081E+03  0.22107252743E+03  0.47000000000E+01 0.  1.
          5   -1    0    0  501    0  0.00000000000E+00 -0.00000000000E+00 -0.12687076798E+03  0.12695779522E+03  0.47000000000E+01 0.  1.
         25    2    1    2    0    0 -0.10314348233E+03 -0.98833594881E+01  0.89959138517E+02  0.18561980495E+03  0.12500322654E+03 0.  0.
         25    2    1    2    0    0  0.10314348233E+03  0.98833594881E+01  0.41926543128E+01  0.16241051770E+03  0.12499335650E+03 0.  0.
          5    1    3    3  502    0 -0.10143043606E+03 -0.14146476659E+02  0.11829150957E+03  0.15653506763E+03  0.47000000000E+01 0.  1.
         -5    1    3    3    0  502 -0.17130462682E+01  0.42631171714E+01 -0.28332371054E+02  0.29084737322E+02  0.47000000000E+01 0.  1.
          5    1    4    4  503    0 -0.68848060446E+00  0.40775375188E+02 -0.27536921353E+02  0.49431541195E+02  0.47000000000E+01 0. -1.
         -5    1    4    4    0  503  0.10383196293E+03 -0.30892015700E+02  0.31729575666E+02  0.11297897651E+03  0.47000000000E+01 0. -1.
<mgrwt>
<rscale>  0 0.16236209E+03</rscale>
<asrwt>0</asrwt>
<pdfrwt beam="2">  1        5 0.19529118E-01 0.16236399E+03</pdfrwt>
<pdfrwt beam="1">  1       -5 0.34014009E-01 0.16236399E+03</pdfrwt>
<totfact> 0.15462523E+02</totfact>
</mgrwt>
</event>
<event>
 8    1  0.3754098E-007  0.1504777E+03  0.7546771E-02  0.1199888E+00
         -5   -1    0    0    0  501 -0.00000000000E+00  0.00000000000E+00  0.12359010866E+03  0.12367944436E+03  0.47000000000E+01 0.  1.
          5   -1    0    0  501    0  0.00000000000E+00 -0.00000000000E+00 -0.24375565196E+03  0.24380095952E+03  0.47000000000E+01 0.  1.
         25    2    1    2    0    0 -0.59674956944E+01 -0.83563686704E+02  0.31603827259E+02  0.15375747676E+03  0.12499623603E+03 0.  0.
         25    2    1    2    0    0  0.59674956944E+01  0.83563686704E+02 -0.15176937056E+03  0.21372292713E+03  0.12500018800E+03 0.  0.
          5    1    4    4  502    0  0.43077185247E+00  0.39567228805E+02 -0.16294944546E+03  0.16775089549E+03  0.47000000000E+01 0. -1.
         -5    1    4    4    0  502  0.55367238419E+01  0.43996457899E+02  0.11180074902E+02  0.45972031642E+02  0.47000000000E+01 0. -1.
          5    1    3    3  503    0 -0.90568426265E+01 -0.91989855652E+02 -0.25307360252E+02  0.95951615016E+02  0.47000000000E+01 0.  1.
         -5    1    3    3    0  503  0.30893469322E+01  0.84261689481E+01  0.56911187511E+02  0.57805861740E+02  0.47000000000E+01 0.  1.
<mgrwt>
<rscale>  0 0.15047691E+03</rscale>
<asrwt>0</asrwt>
<pdfrwt beam="2">  1        5 0.37511227E-01 0.15047773E+03</pdfrwt>
<pdfrwt beam="1">  1       -5 0.19024220E-01 0.15047773E+03</pdfrwt>
<totfact> 0.13011266E+02</totfact>
</mgrwt>
</event>
<event>
 8    1  0.3754098E-007  0.1592639E+03  0.7546771E-02  0.1189542E+00
          5   -1    0    0  501    0  0.00000000000E+00  0.00000000000E+00  0.22738351275E+02  0.23219014164E+02  0.47000000000E+01 0. -1.
         -5   -1    0    0    0  501 -0.00000000000E+00 -0.00000000000E+00 -0.13933750796E+04  0.13933830064E+04  0.47000000000E+01 0. -1.
         25    2    1    2    0    0  0.28930871378E+02  0.94348535792E+02 -0.10086228011E+04  0.10211194589E+04  0.12500541128E+03 0.  0.
         25    2    1    2    0    0 -0.28930871378E+02 -0.94348535792E+02 -0.36201392724E+03  0.39548256169E+03  0.12495491811E+03 0.  0.
          5    1    3    3  502    0  0.75175698014E+02  0.75361579261E+02 -0.76423345460E+03  0.77162530825E+03  0.47000000000E+01 0. -1.
         -5    1    3    3    0  502 -0.46244826636E+02  0.18986956531E+02 -0.24438934652E+03  0.24949415064E+03  0.47000000000E+01 0. -1.
          5    1    4    4  503    0 -0.56211491554E+02 -0.76598913161E+01 -0.73555606385E+02  0.93010337858E+02  0.47000000000E+01 0. -1.
         -5    1    4    4    0  503  0.27280620177E+02 -0.86688644476E+02 -0.28845832086E+03  0.30247222383E+03  0.47000000000E+01 0. -1.
<mgrwt>
<rscale>  0 0.15925401E+03</rscale>
<asrwt>0</asrwt>
<pdfrwt beam="1">  1        5 0.35357928E-02 0.15926391E+03</pdfrwt>
<pdfrwt beam="2">  1       -5 0.21440291E+00 0.15926391E+03</pdfrwt>
<totfact> 0.33868200E+01</totfact>
</mgrwt>
</event>
<event>
 8    1  0.3754098E-007  0.1325294E+03  0.7546771E-02  0.1223766E+00
          5   -1    0    0  501    0  0.00000000000E+00  0.00000000000E+00  0.63748474967E+03  0.63750207534E+03  0.47000000000E+01 0. -1.
         -5   -1    0    0    0  501 -0.00000000000E+00 -0.00000000000E+00 -0.30104300006E+02  0.30468982242E+02  0.47000000000E+01 0. -1.
         25    2    1    2    0    0 -0.42954611856E+02 -0.90587745791E+01  0.20291821208E+03  0.24236303318E+03  0.12504750691E+03 0.  0.
         25    2    1    2    0    0  0.42954611856E+02  0.90587745791E+01  0.40446223759E+03  0.42560802440E+03  0.12500131488E+03 0.  0.
          5    1    3    3  502    0  0.47117297619E+01  0.36428905681E+02  0.98672095959E+01  0.38323848863E+02  0.47000000000E+01 0. -1.
         -5    1    3    3    0  502 -0.47666341618E+02 -0.45487680260E+02  0.19305100248E+03  0.20403918432E+03  0.47000000000E+01 0. -1.
          5    1    4    4  503    0 -0.42463887854E+01 -0.53416283654E+02  0.15175313336E+03  0.16100445541E+03  0.47000000000E+01 0.  1.
         -5    1    4    4    0  503  0.47201000641E+02  0.62475058234E+02  0.25270910423E+03  0.26460356899E+03  0.47000000000E+01 0.  1.
<mgrwt>
<rscale>  0 0.13251849E+03</rscale>
<asrwt>0</asrwt>
<pdfrwt beam="1">  1        5 0.98103963E-01 0.13252939E+03</pdfrwt>
<pdfrwt beam="2">  1       -5 0.46608159E-02 0.13252939E+03</pdfrwt>
<totfact> 0.17432015E+02</totfact>
</mgrwt>
</event>
<event>
 8    1  0.3754098E-007  0.1441361E+03  0.7546771E-02  0.1207870E+00
         -5   -1    0    0    0  501 -0.00000000000E+00  0.00000000000E+00  0.93969866482E+02  0.94087330744E+02  0.47000000000E+01 0.  1.
          5   -1    0    0  501    0  0.00000000000E+00 -0.00000000000E+00 -0.22653131452E+03  0.22658006633E+03  0.47000000000E+01 0.  1.
         25    2    1    2    0    0  0.18747479240E+02  0.69271112472E+02 -0.40790000106E+02  0.14979666160E+03  0.12500104287E+03 0.  0.
         25    2    1    2    0    0 -0.18747479240E+02 -0.69271112472E+02 -0.91771447934E+02  0.17087073547E+03  0.12499941833E+03 0.  0.
          5    1    3    3  502    0  0.25430255332E+02 -0.10817835527E+02 -0.60705452702E+02  0.66865278280E+02  0.47000000000E+01 0. -1.
         -5    1    3    3    0  502 -0.66827760921E+01  0.80088947999E+02  0.19915452596E+02  0.82931383324E+02  0.47000000000E+01 0. -1.
          5    1    4    4  503    0 -0.17572167587E+02  0.22998757054E+02 -0.70072073048E+02  0.75959919175E+02  0.47000000000E+01 0. -1.
         -5    1    4    4    0  503 -0.11753116530E+01 -0.92269869526E+02 -0.21699374886E+02  0.94910816298E+02  0.47000000000E+01 0. -1.
<mgrwt>
<rscale>  0 0.14413575E+03</rscale>
<asrwt>0</asrwt>
<pdfrwt beam="2">  1        5 0.34863757E-01 0.14413610E+03</pdfrwt>
<pdfrwt beam="1">  1       -5 0.14469688E-01 0.14413610E+03</pdfrwt>
<totfact> 0.24542938E+02</totfact>
</mgrwt>
</event>
<event>
 8    1  0.3754098E-007  0.1358276E+03  0.7546771E-02  0.1219056E+00
          5   -1    0    0  501    0  0.00000000000E+00  0.00000000000E+00  0.13921332176E+03  0.13929263783E+03  0.47000000000E+01 0.  1.
         -5   -1    0    0    0  501 -0.00000000000E+00 -0.00000000000E+00 -0.13752033960E+03  0.13760063155E+03  0.47000000000E+01 0.  1.
         25    2    1    2    0    0 -0.19893916159E+02  0.49270575116E+02 -0.25943305891E+02  0.13828299045E+03  0.12500309138E+03 0.  0.
         25    2    1    2    0    0  0.19893916159E+02 -0.49270575116E+02  0.27636288051E+02  0.13861027893E+03  0.12500275011E+03 0.  0.
          5    1    4    4  502    0  0.48621935262E+02 -0.77182430128E+02  0.34616671306E+02  0.97681236895E+02  0.47000000000E+01 0. -1.
         -5    1    4    4    0  502 -0.28728019103E+02  0.27911855012E+02 -0.69803832552E+01  0.40929042038E+02  0.47000000000E+01 0. -1.
          5    1    3    3  503    0  0.44698099933E+00 -0.94008167141E+01 -0.64292372217E+02  0.65147327437E+02  0.47000000000E+01 0.  1.
         -5    1    3    3    0  503 -0.20340897159E+02  0.58671391830E+02  0.38349066325E+02  0.73135663014E+02  0.47000000000E+01 0.  1.
<mgrwt>
<rscale>  0 0.13582750E+03</rscale>
<asrwt>0</asrwt>
<pdfrwt beam="1">  1        5 0.21429712E-01 0.13582758E+03</pdfrwt>
<pdfrwt beam="2">  1       -5 0.21169253E-01 0.13582758E+03</pdfrwt>
<totfact> 0.30698837E+02</totfact>
</mgrwt>
</event>
<event>
 8    1  0.3754098E-007  0.1357693E+03  0.7546771E-02  0.1219146E+00
          5   -1    0    0  501    0  0.00000000000E+00  0.00000000000E+00  0.91738347480E+02  0.91858665341E+02  0.47000000000E+01 0. -1.
         -5   -1    0    0    0  501 -0.00000000000E+00 -0.00000000000E+00 -0.22629030213E+03  0.22633910585E+03  0.47000000000E+01 0. -1.
         25    2    1    2    0    0 -0.17674315255E+02  0.49959698160E+02 -0.12084627413E+03  0.18176114930E+03  0.12499976226E+03 0.  0.
         25    2    1    2    0    0  0.17674315255E+02 -0.49959698160E+02 -0.13705680522E+02  0.13643662189E+03  0.12497501052E+03 0.  0.
          5    1    4    4  502    0  0.38888984544E+02 -0.66475595437E+02 -0.49314083929E+02  0.91571429940E+02  0.47000000000E+01 0.  1.
         -5    1    4    4    0  502 -0.21214669288E+02  0.16515897278E+02  0.35608403407E+02  0.44865191954E+02  0.47000000000E+01 0.  1.
          5    1    3    3  503    0  0.14792311256E+02  0.23023259116E+02 -0.13437238127E+03  0.13721118679E+03  0.47000000000E+01 0. -1.
         -5    1    3    3    0  503 -0.32466626511E+02  0.26936439043E+02  0.13526107138E+02  0.44549962510E+02  0.47000000000E+01 0. -1.
<mgrwt>
<rscale>  0 0.13576357E+03</rscale>
<asrwt>0</asrwt>
<pdfrwt beam="1">  1        5 0.14126601E-01 0.13576927E+03</pdfrwt>
<pdfrwt beam="2">  1       -5 0.34826902E-01 0.13576927E+03</pdfrwt>
<totfact> 0.25168555E+02</totfact>
</mgrwt>
</event>
