<event>
 8    1  0.3694627E-007  0.1438843E+03  0.7546771E-02  0.1208198E+00
         -5   -1    0    0    0  501 -0.00000000000E+00  0.00000000000E+00  0.81677972212E+02  0.81813086635E+02  0.47000000000E+01 0.  1.
          5   -1    0    0  501    0  0.00000000000E+00 -0.00000000000E+00 -0.28004988958E+03  0.28008932620E+03  0.47000000000E+01 0.  1.
         25    2    1    2    0    0  0.62421133441E+01  0.70971579068E+02 -0.43059514898E+02  0.15018926242E+03  0.12500705464E+03 0.  0.
         25    2    1    2    0    0 -0.62421133441E+01 -0.70971579068E+02 -0.15531240247E+03  0.21171315042E+03  0.12499834673E+03 0.  0.
          5    1    3    3  502    0 -0.43180910481E+02  0.20199464472E+01  0.16413621890E+02  0.46477609632E+02  0.47000000000E+01 0. -1.
         -5    1    3    3    0  502  0.49423023825E+02  0.68951632621E+02 -0.59473136788E+02  0.10371165279E+03  0.47000000000E+01 0. -1.
          5    1    4    4  503    0 -0.15893930508E+02 -0.85196463304E+02 -0.40947253997E+02  0.95967817503E+02  0.47000000000E+01 0. -1.
         -5    1    4    4    0  503  0.96518171637E+01  0.14224884235E+02 -0.11436514847E+03  0.11574533291E+03  0.47000000000E+01 0. -1.
<mgrwt>
<rscale>  0 0.14388241E+03</rscale>
<asrwt>0</asrwt>
<pdfrwt beam="2">  1        5 0.43098025E-01 0.14388430E+03</pdfrwt>
<pdfrwt beam="1">  1       -5 0.12579269E-01 0.14388430E+03</pdfrwt>
<totfact> 0.20469957E+02</totfact>
</mgrwt>
</event>
<event>
 8    1  0.3694627E-007  0.1302267E+03  0.7546771E-02  0.1227120E+00
         -5   -1    0    0    0  501 -0.00000000000E+00  0.00000000000E+00  0.10451576745E+03  0.10462139192E+03  0.47000000000E+01 0.  1.
          5   -1    0    0  501    0  0.00000000000E+00 -0.00000000000E+00 -0.16543994819E+03  0.16550669611E+03  0.47000000000E+01 0.  1.
         25    2    1    2    0    0  0.36509255617E+02  0.91290176602E+00 -0.11109577785E+02  0.13069896804E+03  0.12500015357E+03 0.  0.
         25    2    1    2    0    0 -0.36509255617E+02 -0.91290176602E+00 -0.49814602949E+02  0.13942911998E+03  0.12500090278E+03 0.  0.
          5    1    3    3  502    0 -0.29201467221E+02  0.41057967103E+02  0.79751228882E+01  0.51226701392E+02  0.47000000000E+01 0.  1.
         -5    1    3    3    0  502  0.65710722838E+02 -0.40145065337E+02 -0.19084700674E+02  0.79472266650E+02  0.47000000000E+01 0.  1.
          5    1    4    4  503    0 -0.22661577846E+02 -0.58608938427E+02 -0.49133825481E+02  0.79904803237E+02  0.47000000000E+01 0. -1.
         -5    1    4    4    0  503 -0.13847677771E+02  0.57696036661E+02 -0.68077746802E+00  0.59524316745E+02  0.47000000000E+01 0. -1.
<mgrwt>
<rscale>  0 0.13022649E+03</rscale>
<asrwt>0</asrwt>
<pdfrwt beam="2">  1        5 0.25465559E-01 0.13022667E+03</pdfrwt>
<pdfrwt beam="1">  1       -5 0.16092608E-01 0.13022667E+03</pdfrwt>
<totfact> 0.36180267E+02</totfact>
</mgrwt>
</event>
<event>
 8    1  0.3694627E-007  0.1355823E+03  0.7546771E-02  0.1219401E+00
          5   -1    0    0  501    0  0.00000000000E+00  0.00000000000E+00  0.10542524056E+03  0.10552995474E+03  0.47000000000E+01 0. -1.
         -5   -1    0    0    0  501 -0.00000000000E+00 -0.00000000000E+00 -0.21436256980E+03  0.21441408846E+03  0.47000000000E+01 0. -1.
         25    2    1    2    0    0 -0.32120856725E+02 -0.41532765081E+02 -0.12373810893E+03  0.18355629024E+03  0.12500028829E+03 0.  0.
         25    2    1    2    0    0  0.32120856725E+02  0.41532765081E+02  0.14800779698E+02  0.13638775297E+03  0.12500334422E+03 0.  0.
          5    1    3    3  502    0 -0.96780941682E+01  0.12472655052E+02 -0.12379363649E+03  0.12488469508E+03  0.47000000000E+01 0. -1.
         -5    1    3    3    0  502 -0.22442762557E+02 -0.54005420134E+02  0.55527556502E-01  0.58671595157E+02  0.47000000000E+01 0. -1.
          5    1    4    4  503    0 -0.18155732519E+01 -0.36439599105E+02  0.32861513105E+02  0.49326562142E+02  0.47000000000E+01 0.  1.
         -5    1    4    4    0  503  0.33936429977E+02  0.77972364187E+02 -0.18060733407E+02  0.87061190824E+02  0.47000000000E+01 0.  1.
<mgrwt>
<rscale>  0 0.13558158E+03</rscale>
<asrwt>0</asrwt>
<pdfrwt beam="1">  1        5 0.16231286E-01 0.13558229E+03</pdfrwt>
<pdfrwt beam="2">  1       -5 0.32990875E-01 0.13558229E+03</pdfrwt>
<totfact> 0.21792975E+02</totfact>
</mgrwt>
</event>
<event>
 8    1  0.3694627E-007  0.1372739E+03  0.7546771E-02  0.1217049E+00
          5   -1    0    0  501    0  0.00000000000E+00  0.00000000000E+00  0.74168674248E+02  0.74317442365E+02  0.47000000000E+01 0. -1.
         -5   -1    0    0    0  501 -0.00000000000E+00 -0.00000000000E+00 -0.40427718017E+03  0.40430449961E+03  0.47000000000E+01 0. -1.
         25    2    1    2    0    0 -0.56726154617E+02 -0.44732543897E-01 -0.31111114645E+03  0.34005040681E+03  0.12500510032E+03 0.  0.
         25    2    1    2    0    0  0.56726154617E+02  0.44732543897E-01 -0.18997359465E+02  0.13857153516E+03  0.12499324810E+03 0.  0.
          5    1    3    3  502    0 -0.82574214155E+02 -0.36295374899E+02 -0.17786298978E+03  0.19948230051E+03  0.47000000000E+01 0.  1.
         -5    1    3    3    0  502  0.25848059537E+02  0.36250642355E+02 -0.13324815667E+03  0.14056810630E+03  0.47000000000E+01 0.  1.
          5    1    4    4  503    0  0.52056386589E+00 -0.55721555975E+02 -0.19588204586E+02  0.59253274559E+02  0.47000000000E+01 0.  1.
         -5    1    4    4    0  503  0.56205590752E+02  0.55766288519E+02  0.59084512130E+00  0.79318260602E+02  0.47000000000E+01 0.  1.
<mgrwt>
<rscale>  0 0.13727124E+03</rscale>
<asrwt>0</asrwt>
<pdfrwt beam="1">  1        5 0.11424111E-01 0.13727394E+03</pdfrwt>
<pdfrwt beam="2">  1       -5 0.62210033E-01 0.13727394E+03</pdfrwt>
<totfact> 0.10924176E+02</totfact>
</mgrwt>
</event>
<event>
 8    1  0.3694627E-007  0.1272059E+03  0.7546771E-02  0.1231666E+00
         -5   -1    0    0    0  501 -0.00000000000E+00  0.00000000000E+00  0.39177724626E+02  0.39458637924E+02  0.47000000000E+01 0.  1.
          5   -1    0    0  501    0  0.00000000000E+00 -0.00000000000E+00 -0.41145348942E+03  0.41148033241E+03  0.47000000000E+01 0.  1.
         25    2    1    2    0    0 -0.23444249412E+02 -0.20922840300E+01 -0.18074376889E+03  0.22101325524E+03  0.12499815405E+03 0.  0.
         25    2    1    2    0    0  0.23444249412E+02  0.20922840300E+01 -0.19153199591E+03  0.22992571509E+03  0.12500927374E+03 0.  0.
          5    1    3    3  502    0  0.12160878490E+02  0.55821091643E+02 -0.10086610249E+03  0.11601698957E+03  0.47000000000E+01 0.  1.
         -5    1    3    3    0  502 -0.35605127902E+02 -0.57913375673E+02 -0.79877666400E+02  0.10499626567E+03  0.47000000000E+01 0.  1.
          5    1    4    4  503    0 -0.49911109376E+02  0.15244903814E+02 -0.84208417576E+02  0.99180005657E+02  0.47000000000E+01 0.  1.
         -5    1    4    4    0  503  0.73355358787E+02 -0.13152619784E+02 -0.10732357833E+03  0.13074570944E+03  0.47000000000E+01 0.  1.
<mgrwt>
<rscale>  0 0.12720312E+03</rscale>
<asrwt>0</asrwt>
<pdfrwt beam="2">  1        5 0.63324207E-01 0.12720585E+03</pdfrwt>
<pdfrwt beam="1">  1       -5 0.60510161E-02 0.12720585E+03</pdfrwt>
<totfact> 0.30522198E+02</totfact>
</mgrwt>
</event>
<event>
 8    1  0.3694627E-007  0.1349929E+03  0.7546771E-02  0.1220243E+00
          5   -1    0    0  501    0  0.00000000000E+00  0.00000000000E+00  0.13810792406E+03  0.13818787460E+03  0.47000000000E+01 0.  1.
         -5   -1    0    0    0  501 -0.00000000000E+00 -0.00000000000E+00 -0.13429268505E+03  0.13437490561E+03  0.47000000000E+01 0.  1.
         25    2    1    2    0    0 -0.18663131004E+02 -0.47302713931E+02  0.20640100401E+02  0.13656172962E+03  0.12504892262E+03 0.  0.
         25    2    1    2    0    0  0.18663131004E+02  0.47302713931E+02 -0.16824861391E+02  0.13600105059E+03  0.12500940203E+03 0.  0.
          5    1    3    3  502    0  0.29883569176E+02 -0.39070773650E+02  0.56803763254E+02  0.75288183536E+02  0.47000000000E+01 0.  1.
         -5    1    3    3    0  502 -0.48546700180E+02 -0.82319402805E+01 -0.36163662853E+02  0.61273546087E+02  0.47000000000E+01 0.  1.
          5    1    4    4  503    0  0.55635899374E+02  0.34071575629E+02 -0.51619993561E+02  0.83324301979E+02  0.47000000000E+01 0.  1.
         -5    1    4    4    0  503 -0.36972768370E+02  0.13231138301E+02  0.34795132170E+02  0.52676748613E+02  0.47000000000E+01 0.  1.
<mgrwt>
<rscale>  0 0.13498378E+03</rscale>
<asrwt>0</asrwt>
<pdfrwt beam="1">  1        5 0.21259848E-01 0.13499293E+03</pdfrwt>
<pdfrwt beam="2">  1       -5 0.20672888E-01 0.13499293E+03</pdfrwt>
<totfact> 0.32510252E+02</totfact>
</mgrwt>
</event>
<event>
 8    1  0.3694627E-007  0.1299021E+03  0.7546771E-02  0.1227606E+00
          5   -1    0    0  501    0  0.00000000000E+00  0.00000000000E+00  0.16416586770E+02  0.17076133086E+02  0.47000000000E+01 0.  1.
         -5   -1    0    0    0  501 -0.00000000000E+00 -0.00000000000E+00 -0.10119527820E+04  0.10119636965E+04  0.47000000000E+01 0.  1.
         25    2    1    2    0    0 -0.25077752987E+02 -0.24813822225E+02 -0.53411753688E+03  0.54968428834E+03  0.12500661654E+03 0.  0.
         25    2    1    2    0    0  0.25077752987E+02  0.24813822225E+02 -0.46141865833E+03  0.47935554121E+03  0.12501974709E+03 0.  0.
          5    1    4    4  502    0  0.48556910583E+02  0.22585037239E+01 -0.63637644307E+02  0.80216670197E+02  0.47000000000E+01 0. -1.
         -5    1    4    4    0  502 -0.23479157596E+02  0.22555318501E+02 -0.39778101403E+03  0.39913887101E+03  0.47000000000E+01 0. -1.
          5    1    3    3  503    0  0.17112522976E+01 -0.49638377741E+01 -0.50534488785E+03  0.50539401831E+03  0.47000000000E+01 0. -1.
         -5    1    3    3    0  503 -0.26789005285E+02 -0.19849984451E+02 -0.28772649026E+02  0.44290270024E+02  0.47000000000E+01 0. -1.
<mgrwt>
<rscale>  0 0.12989894E+03</rscale>
<asrwt>0</asrwt>
<pdfrwt beam="1">  1        5 0.25772034E-02 0.12990210E+03</pdfrwt>
<pdfrwt beam="2">  1       -5 0.15573657E+00 0.12990210E+03</pdfrwt>
<totfact> 0.13819413E+02</totfact>
</mgrwt>
</event>
<event>
 8    1  0.3694627E-007  0.2669153E+03  0.7546771E-02  0.1103058E+00
          5   -1    0    0  501    0  0.00000000000E+00  0.00000000000E+00  0.30398081194E+03  0.30401714430E+03  0.47000000000E+01 0. -1.
         -5   -1    0    0    0  501 -0.00000000000E+00 -0.00000000000E+00 -0.23637666161E+03  0.23642338326E+03  0.47000000000E+01 0. -1.
         25    2    1    2    0    0  0.25500178003E+02  0.23445274948E+03  0.59162458553E+02  0.27339178241E+03  0.12499807745E+03 0.  0.
         25    2    1    2    0    0 -0.25500178003E+02 -0.23445274948E+03  0.84416917779E+01  0.26704874515E+03  0.12500167722E+03 0.  0.
          5    1    3    3  502    0  0.59891275842E+02  0.14950922994E+03 -0.53591443815E+01  0.16121657852E+03  0.47000000000E+01 0. -1.
         -5    1    3    3    0  502 -0.34391097839E+02  0.84943519541E+02  0.64521602934E+02  0.11217520389E+03  0.47000000000E+01 0. -1.
          5    1    4    4  503    0  0.23258001447E+02  0.12991242219E+01  0.11143132466E+02  0.26246557035E+02  0.47000000000E+01 0.  1.
         -5    1    4    4    0  503 -0.48758179450E+02 -0.23575187371E+03 -0.27014406880E+01  0.24080218812E+03  0.47000000000E+01 0.  1.
<mgrwt>
<rscale>  0 0.26691486E+03</rscale>
<asrwt>0</asrwt>
<pdfrwt beam="1">  1        5 0.46772667E-01 0.26691529E+03</pdfrwt>
<pdfrwt beam="2">  1       -5 0.36372029E-01 0.26691529E+03</pdfrwt>
<totfact> 0.27220612E+01</totfact>
</mgrwt>
</event>
<event>
 8    1  0.3694627E-007  0.1476860E+03  0.7546771E-02  0.1203346E+00
          5   -1    0    0  501    0  0.00000000000E+00  0.00000000000E+00  0.77178214049E+03  0.77179645139E+03  0.47000000000E+01 0.  1.
         -5   -1    0    0    0  501 -0.00000000000E+00 -0.00000000000E+00 -0.29688235696E+02  0.30057966311E+02  0.47000000000E+01 0.  1.
         25    2    1    2    0    0 -0.22063051014E+02  0.75497109820E+02  0.27749617402E+03  0.31434831845E+03  0.12499658756E+03 0.  0.
         25    2    1    2    0    0  0.22063051014E+02 -0.75497109820E+02  0.46459773077E+03  0.48750609925E+03  0.12499821423E+03 0.  0.
          5    1    3    3  502    0 -0.70759301032E+02  0.40377631304E+02  0.11467638965E+03  0.14074798804E+03  0.47000000000E+01 0. -1.
         -5    1    3    3    0  502  0.48696250019E+02  0.35119478515E+02  0.16281978437E+03  0.17360033041E+03  0.47000000000E+01 0. -1.
          5    1    4    4  503    0  0.68044144635E+02 -0.12236224639E+02  0.21215659774E+03  0.22318656495E+03  0.47000000000E+01 0.  1.
         -5    1    4    4    0  503 -0.45981093621E+02 -0.63260885181E+02  0.25244113303E+03  0.26431953430E+03  0.47000000000E+01 0.  1.
<mgrwt>
<rscale>  0 0.14768562E+03</rscale>
<asrwt>0</asrwt>
<pdfrwt beam="1">  1        5 0.11876526E+00 0.14768597E+03</pdfrwt>
<pdfrwt beam="2">  1       -5 0.45969625E-02 0.14768597E+03</pdfrwt>
<totfact> 0.11497988E+02</totfact>
</mgrwt>
</event>
<event>
 8    1  0.3694627E-007  0.1404437E+03  0.7546771E-02  0.1212735E+00
          5   -1    0    0  501    0  0.00000000000E+00  0.00000000000E+00  0.19732863993E+03  0.19738460460E+03  0.47000000000E+01 0. -1.
         -5   -1    0    0    0  501 -0.00000000000E+00 -0.00000000000E+00 -0.13340942939E+03  0.13349219397E+03  0.47000000000E+01 0. -1.
         25    2    1    2    0    0  0.26210772890E+02  0.58411936463E+02 -0.50995264613E+02  0.14941115290E+03  0.12499686661E+03 0.  0.
         25    2    1    2    0    0 -0.26210772890E+02 -0.58411936463E+02  0.11491447515E+03  0.18146564567E+03  0.12500194007E+03 0.  0.
          5    1    4    4  502    0 -0.68711486177E+02 -0.54462760292E+02  0.10593903630E+03  0.13759589385E+03  0.47000000000E+01 0. -1.
         -5    1    4    4    0  502  0.42500713288E+02 -0.39491761705E+01  0.89754388495E+01  0.43869751822E+02  0.47000000000E+01 0. -1.
          5    1    3    3  503    0  0.17998224001E+02  0.83127074318E+02 -0.75139796307E+02  0.11358752370E+03  0.47000000000E+01 0. -1.
         -5    1    3    3    0  503  0.82125488887E+01 -0.24715137855E+02  0.24144531694E+02  0.35823629201E+02  0.47000000000E+01 0. -1.
<mgrwt>
<rscale>  0 0.14044261E+03</rscale>
<asrwt>0</asrwt>
<pdfrwt beam="1">  1        5 0.30368924E-01 0.14044374E+03</pdfrwt>
<pdfrwt beam="2">  1       -5 0.20535199E-01 0.14044374E+03</pdfrwt>
<totfact> 0.16818342E+02</totfact>
</mgrwt>
</event>
<event>
 8    1  0.3694627E-007  0.1279816E+03  0.7546771E-02  0.1230482E+00
          5   -1    0    0  501    0  0.00000000000E+00  0.00000000000E+00  0.68308352160E+02  0.68469854497E+02  0.47000000000E+01 0.  1.
         -5   -1    0    0    0  501 -0.00000000000E+00 -0.00000000000E+00 -0.24268328452E+03  0.24272879225E+03  0.47000000000E+01 0.  1.
         25    2    1    2    0    0 -0.24628885320E+02  0.12169124166E+02 -0.10550764488E+03  0.16586488179E+03  0.12499850523E+03 0.  0.
         25    2    1    2    0    0  0.24628885320E+02 -0.12169124166E+02 -0.68867287478E+02  0.14533376495E+03  0.12499812148E+03 0.  0.
          5    1    4    4  502    0  0.34440733344E+02 -0.20765643084E+02 -0.10182388019E+03  0.10957905194E+03  0.47000000000E+01 0.  1.
         -5    1    4    4    0  502 -0.98118480239E+01  0.85965189178E+01  0.32956592715E+02  0.35754713011E+02  0.47000000000E+01 0.  1.
          5    1    3    3  503    0 -0.25119225508E+02  0.51506324362E+02 -0.11182823379E+03  0.12574386988E+03  0.47000000000E+01 0.  1.
         -5    1    3    3    0  503  0.49034018792E+00 -0.39337200196E+02  0.63205889114E+01  0.40121011914E+02  0.47000000000E+01 0.  1.
<mgrwt>
<rscale>  0 0.12798153E+03</rscale>
<asrwt>0</asrwt>
<pdfrwt beam="1">  1        5 0.10524901E-01 0.12798162E+03</pdfrwt>
<pdfrwt beam="2">  1       -5 0.37351813E-01 0.12798162E+03</pdfrwt>
<totfact> 0.36085236E+02</totfact>
</mgrwt>
</event>
<event>
 8    1  0.3694627E-007  0.1274294E+03  0.7546771E-02  0.1231321E+00
         -5   -1    0    0    0  501 -0.00000000000E+00  0.00000000000E+00  0.44827271884E+03  0.44829735718E+03  0.47000000000E+01 0.  1.
          5   -1    0    0  501    0  0.00000000000E+00 -0.00000000000E+00 -0.36064044071E+02  0.36369015312E+02  0.47000000000E+01 0.  1.
         25    2    1    2    0    0 -0.17750814250E+02 -0.17289300048E+02  0.20065304822E+03  0.23769665175E+03  0.12499616470E+03 0.  0.
         25    2    1    2    0    0  0.17750814250E+02  0.17289300048E+02  0.21155562655E+03  0.24696972074E+03  0.12499699411E+03 0.  0.
          5    1    3    3  502    0  0.15119665342E+01 -0.54191830166E+02  0.30331125763E+02  0.62298536817E+02  0.47000000000E+01 0. -1.
         -5    1    3    3    0  502 -0.19262780784E+02  0.36902530118E+02  0.17032192246E+03  0.17539811493E+03  0.47000000000E+01 0. -1.
          5    1    4    4  503    0 -0.32356581639E+02  0.45290685213E+02  0.16072019351E+03  0.17015071303E+03  0.47000000000E+01 0.  1.
         -5    1    4    4    0  503  0.50107395889E+02 -0.28001385165E+02  0.50835433040E+02  0.76819007714E+02  0.47000000000E+01 0.  1.
<mgrwt>
<rscale>  0 0.12742923E+03</rscale>
<asrwt>0</asrwt>
<pdfrwt beam="2">  1        5 0.55736688E-02 0.12742943E+03</pdfrwt>
<pdfrwt beam="1">  1       -5 0.68990392E-01 0.12742943E+03</pdfrwt>
<totfact> 0.28963438E+02</totfact>
</mgrwt>
</event>
<event>
 8    1  0.3694627E-007  0.1479192E+03  0.7546771E-02  0.1203064E+00
         -5   -1    0    0    0  501 -0.00000000000E+00  0.00000000000E+00  0.92825406883E+03  0.92826596743E+03  0.47000000000E+01 0. -1.
          5   -1    0    0  501    0  0.00000000000E+00 -0.00000000000E+00 -0.23330002832E+02  0.23798719128E+02  0.47000000000E+01 0. -1.
         25    2    1    2    0    0  0.54610923090E+02 -0.57131243886E+02  0.46252818683E+03  0.48559474768E+03  0.12499441350E+03 0.  0.
         25    2    1    2    0    0 -0.54610923090E+02  0.57131243886E+02  0.44239587916E+03  0.46646993889E+03  0.12503502724E+03 0.  0.
          5    1    3    3  502    0  0.59838562390E+01 -0.41746594361E+02  0.34990768466E+02  0.55000259582E+02  0.47000000000E+01 0.  1.
         -5    1    3    3    0  502  0.48627066851E+02 -0.15384649525E+02  0.42753741837E+03  0.43059448809E+03  0.47000000000E+01 0.  1.
          5    1    4    4  503    0  0.10607221128E+01  0.68505915449E+02  0.11342905291E+03  0.13259873916E+03  0.47000000000E+01 0. -1.
         -5    1    4    4    0  503 -0.55671645203E+02 -0.11374671563E+02  0.32896682625E+03  0.33387119972E+03  0.47000000000E+01 0. -1.
<mgrwt>
<rscale>  0 0.14791062E+03</rscale>
<asrwt>0</asrwt>
<pdfrwt beam="2">  1        5 0.36262009E-02 0.14791920E+03</pdfrwt>
<pdfrwt beam="1">  1       -5 0.14284532E+00 0.14791920E+03</pdfrwt>
<totfact> 0.10484802E+02</totfact>
</mgrwt>
</event>
<event>
 8    1  0.3694627E-007  0.1261049E+03  0.7546771E-02  0.1233356E+00
          5   -1    0    0  501    0  0.00000000000E+00  0.00000000000E+00  0.83600366903E+02  0.83732379318E+02  0.47000000000E+01 0.  1.
         -5   -1    0    0    0  501 -0.00000000000E+00 -0.00000000000E+00 -0.35346440775E+03  0.35349565421E+03  0.47000000000E+01 0.  1.
         25    2    1    2    0    0 -0.16353857037E+02 -0.29638120616E+01 -0.28361172425E+03  0.31038372581E+03  0.12500485709E+03 0.  0.
         25    2    1    2    0    0  0.16353857037E+02  0.29638120616E+01  0.13747683403E+02  0.12684430772E+03  0.12499698708E+03 0.  0.
          5    1    3    3  502    0  0.20160419823E+02  0.53870770002E+02 -0.14662284055E+03  0.15757172894E+03  0.47000000000E+01 0. -1.
         -5    1    3    3    0  502 -0.36514276860E+02 -0.56834582064E+02 -0.13698888370E+03  0.15281199688E+03  0.47000000000E+01 0. -1.
          5    1    4    4  503    0  0.52575742537E+02  0.43489956104E+02 -0.63851490376E+01  0.68690939093E+02  0.47000000000E+01 0.  1.
         -5    1    4    4    0  503 -0.36221885500E+02 -0.40526144043E+02  0.20132832441E+02  0.58153368623E+02  0.47000000000E+01 0.  1.
<mgrwt>
<rscale>  0 0.12610295E+03</rscale>
<asrwt>0</asrwt>
<pdfrwt beam="1">  1        5 0.12874153E-01 0.12610491E+03</pdfrwt>
<pdfrwt beam="2">  1       -5 0.54391697E-01 0.12610491E+03</pdfrwt>
<totfact> 0.11502968E+02</totfact>
</mgrwt>
</event>
<event>
 8    1  0.3694627E-007  0.3159323E+03  0.7546771E-02  0.1077537E+00
          5   -1    0    0  501    0  0.00000000000E+00  0.00000000000E+00  0.47417703671E+03  0.47420032913E+03  0.47000000000E+01 0. -1.
         -5   -1    0    0    0  501 -0.00000000000E+00 -0.00000000000E+00 -0.21045116299E+03  0.21050363894E+03  0.47000000000E+01 0. -1.
         25    2    1    2    0    0  0.10393288376E+03  0.27089756543E+03  0.13417049685E+03  0.34324176773E+03  0.12500261439E+03 0.  0.
         25    2    1    2    0    0 -0.10393288376E+03 -0.27089756543E+03  0.12955537686E+03  0.34146220033E+03  0.12499721316E+03 0.  0.
          5    1    3    3  502    0  0.13210845243E+03  0.20964704091E+03  0.11326227355E+03  0.27249762857E+03  0.47000000000E+01 0. -1.
         -5    1    3    3    0  502 -0.28175568671E+02  0.61250524524E+02  0.20908223301E+02  0.70744139163E+02  0.47000000000E+01 0. -1.
          5    1    4    4  503    0 -0.67743854268E+02 -0.33651693768E+02  0.34897027476E+02  0.83435956345E+02  0.47000000000E+01 0. -1.
         -5    1    4    4    0  503 -0.36189029488E+02 -0.23724587166E+03  0.94658349388E+02  0.25802624399E+03  0.47000000000E+01 0. -1.
<mgrwt>
<rscale>  0 0.31593172E+03</rscale>
<asrwt>0</asrwt>
<pdfrwt beam="1">  1        5 0.72956141E-01 0.31593225E+03</pdfrwt>
<pdfrwt beam="2">  1       -5 0.32382931E-01 0.31593225E+03</pdfrwt>
<totfact> 0.13347413E+01</totfact>
</mgrwt>
</event>
<event>
 8    1  0.3694627E-007  0.1332394E+03  0.7546771E-02  0.1222728E+00
          5   -1    0    0  501    0  0.00000000000E+00  0.00000000000E+00  0.31074239494E+03  0.31077793682E+03  0.47000000000E+01 0. -1.
         -5   -1    0    0    0  501 -0.00000000000E+00 -0.00000000000E+00 -0.76565898852E+02  0.76710018035E+02  0.47000000000E+01 0. -1.
         25    2    1    2    0    0  0.17586173406E+02 -0.42651412716E+02  0.19259117317E+02  0.13461998925E+03  0.12499284542E+03 0.  0.
         25    2    1    2    0    0 -0.17586173406E+02  0.42651412716E+02  0.21491737877E+03  0.25286796560E+03  0.12499724728E+03 0.  0.
          5    1    3    3  502    0 -0.47453447267E+02 -0.32295332242E+02 -0.15993260662E+02  0.59772004556E+02  0.47000000000E+01 0.  1.
         -5    1    3    3    0  502  0.65039620673E+02 -0.10356080475E+02  0.35252377980E+02  0.74847984698E+02  0.47000000000E+01 0.  1.
          5    1    4    4  503    0 -0.26157937348E+02  0.18238874094E+02 -0.39069399461E+01  0.32469191463E+02  0.47000000000E+01 0.  1.
         -5    1    4    4    0  503  0.85717639413E+01  0.24412538623E+02  0.21882431872E+03  0.22039877414E+03  0.47000000000E+01 0.  1.
<mgrwt>
<rscale>  0 0.13323833E+03</rscale>
<asrwt>0</asrwt>
<pdfrwt beam="1">  1        5 0.47820343E-01 0.13323936E+03</pdfrwt>
<pdfrwt beam="2">  1       -5 0.11793189E-01 0.13323936E+03</pdfrwt>
<totfact> 0.18009974E+02</totfact>
</mgrwt>
</event>
<event>
 8    1  0.3694627E-007  0.1310882E+03  0.7546771E-02  0.1225881E+00
         -5   -1    0    0    0  501 -0.00000000000E+00  0.00000000000E+00  0.10029169607E+03  0.10040176443E+03  0.47000000000E+01 0.  1.
          5   -1    0    0  501    0  0.00000000000E+00 -0.00000000000E+00 -0.26349157242E+03  0.26353348694E+03  0.47000000000E+01 0.  1.
         25    2    1    2    0    0  0.37383308803E+02 -0.12722619222E+02  0.26163456920E+02  0.13367360138E+03  0.12499891364E+03 0.  0.
         25    2    1    2    0    0 -0.37383308803E+02  0.12722619222E+02 -0.18936333328E+03  0.23026164998E+03  0.12491028239E+03 0.  0.
          5    1    4    4  502    0  0.25924498612E+02  0.47502873293E+02 -0.11102311543E+03  0.12359945291E+03  0.47000000000E+01 0. -1.
         -5    1    4    4    0  502 -0.63307807415E+02 -0.34780254072E+02 -0.78340217846E+02  0.10666219708E+03  0.47000000000E+01 0. -1.
          5    1    3    3  503    0 -0.36127401808E+01  0.51802245105E+02 -0.17091711310E+01  0.52168340548E+02  0.47000000000E+01 0. -1.
         -5    1    3    3    0  503  0.40996048983E+02 -0.64524864327E+02  0.27872628051E+02  0.81505260831E+02  0.47000000000E+01 0. -1.
<mgrwt>
<rscale>  0 0.13106703E+03</rscale>
<asrwt>0</asrwt>
<pdfrwt beam="2">  1        5 0.40548856E-01 0.13108816E+03</pdfrwt>
<pdfrwt beam="1">  1       -5 0.15441183E-01 0.13108816E+03</pdfrwt>
<totfact> 0.15562342E+02</totfact>
</mgrwt>
</event>
<event>
 8    1  0.3694627E-007  0.1334413E+03  0.7546771E-02  0.1222442E+00
          5   -1    0    0  501    0  0.00000000000E+00  0.00000000000E+00  0.15105016749E+03  0.15112327120E+03  0.47000000000E+01 0. -1.
         -5   -1    0    0    0  501 -0.00000000000E+00 -0.00000000000E+00 -0.11987766680E+03  0.11996976702E+03  0.47000000000E+01 0. -1.
         25    2    1    2    0    0 -0.38112010578E+02 -0.26945088789E+02 -0.25722041147E+01  0.13345120692E+03  0.12499618088E+03 0.  0.
         25    2    1    2    0    0  0.38112010578E+02  0.26945088789E+02  0.33744704805E+02  0.13764183130E+03  0.12501202127E+03 0.  0.
          5    1    4    4  502    0 -0.67993589085E+01  0.70106030050E+02  0.12690978917E+02  0.71723341227E+02  0.47000000000E+01 0. -1.
         -5    1    4    4    0  502  0.44911369486E+02 -0.43160941261E+02  0.21053725888E+02  0.65918490072E+02  0.47000000000E+01 0. -1.
          5    1    3    3  503    0 -0.56326054996E+02  0.34089656656E+02 -0.16599036118E+02  0.68061348520E+02  0.47000000000E+01 0. -1.
         -5    1    3    3    0  503  0.18214044418E+02 -0.61034745446E+02  0.14026832004E+02  0.65389858401E+02  0.47000000000E+01 0. -1.
<mgrwt>
<rscale>  0 0.13343755E+03</rscale>
<asrwt>0</asrwt>
<pdfrwt beam="1">  1        5 0.23251195E-01 0.13344126E+03</pdfrwt>
<pdfrwt beam="2">  1       -5 0.18455426E-01 0.13344126E+03</pdfrwt>
<totfact> 0.33770598E+02</totfact>
</mgrwt>
</event>
<event>
 8    1  0.3694627E-007  0.1607125E+03  0.7546771E-02  0.1187896E+00
          5   -1    0    0  501    0  0.00000000000E+00  0.00000000000E+00  0.17911883811E+03  0.17918049048E+03  0.47000000000E+01 0.  1.
         -5   -1    0    0    0  501 -0.00000000000E+00 -0.00000000000E+00 -0.14617933271E+03  0.14625487107E+03  0.47000000000E+01 0.  1.
         25    2    1    2    0    0 -0.84545226936E+02  0.55261385472E+02 -0.30746862235E+01  0.16073707615E+03  0.12500095133E+03 0.  0.
         25    2    1    2    0    0  0.84545226936E+02 -0.55261385472E+02  0.36014191628E+02  0.16469828539E+03  0.12500714816E+03 0.  0.
          5    1    3    3  502    0 -0.77209407137E+02  0.25285107099E+02  0.52606123370E+02  0.96902649125E+02  0.47000000000E+01 0. -1.
         -5    1    3    3    0  502 -0.73358197989E+01  0.29976278373E+02 -0.55680809593E+02  0.63834427029E+02  0.47000000000E+01 0. -1.
          5    1    4    4  503    0 -0.15419265062E+02  0.74090716257E+01 -0.25883240525E+02  0.31379614680E+02  0.47000000000E+01 0.  1.
         -5    1    4    4    0  503  0.99964491998E+02 -0.62670457097E+02  0.61897432154E+02  0.13331867071E+03  0.47000000000E+01 0.  1.
<mgrwt>
<rscale>  0 0.16071128E+03</rscale>
<asrwt>0</asrwt>
<pdfrwt beam="1">  1        5 0.27567297E-01 0.16071249E+03</pdfrwt>
<pdfrwt beam="2">  1       -5 0.22499681E-01 0.16071249E+03</pdfrwt>
<totfact> 0.17878886E+02</totfact>
</mgrwt>
</event>
<event>
 8    1  0.3694627E-007  0.1672223E+03  0.7546771E-02  0.1180778E+00
         -5   -1    0    0    0  501 -0.00000000000E+00  0.00000000000E+00  0.34268127628E+03  0.34271350588E+03  0.47000000000E+01 0.  1.
          5   -1    0    0  501    0  0.00000000000E+00 -0.00000000000E+00 -0.82262008549E+02  0.82396165266E+02  0.47000000000E+01 0.  1.
         25    2    1    2    0    0 -0.58309276178E+02 -0.94526992401E+02  0.10968704175E+03  0.19998639368E+03  0.12501194562E+03 0.  0.
         25    2    1    2    0    0  0.58309276178E+02  0.94526992401E+02  0.15073222599E+03  0.22512327747E+03  0.12499984852E+03 0.  0.
          5    1    3    3  502    0 -0.72001421839E+02 -0.55053636529E+02  0.94022486154E+01  0.91244725442E+02  0.47000000000E+01 0.  1.
         -5    1    3    3    0  502  0.13692145661E+02 -0.39473355872E+02  0.10028479313E+03  0.10874166823E+03  0.47000000000E+01 0.  1.
          5    1    4    4  503    0  0.93829803100E+02  0.89238969880E+02  0.12923052178E+03  0.18300339738E+03  0.47000000000E+01 0.  1.
         -5    1    4    4    0  503 -0.35520526922E+02  0.52880225207E+01  0.21501704211E+02  0.42119880092E+02  0.47000000000E+01 0.  1.
<mgrwt>
<rscale>  0 0.16722008E+03</rscale>
<asrwt>0</asrwt>
<pdfrwt beam="2">  1        5 0.12668493E-01 0.16722234E+03</pdfrwt>
<pdfrwt beam="1">  1       -5 0.52732995E-01 0.16722234E+03</pdfrwt>
<totfact> 0.13859806E+02</totfact>
</mgrwt>
</event>
<event>
 8    1  0.3694627E-007  0.1329077E+03  0.7546771E-02  0.1223218E+00
          5   -1    0    0  501    0  0.00000000000E+00  0.00000000000E+00  0.20947102791E+03  0.20952374933E+03  0.47000000000E+01 0.  1.
         -5   -1    0    0    0  501 -0.00000000000E+00 -0.00000000000E+00 -0.84640247673E+02  0.84770640709E+02  0.47000000000E+01 0.  1.
         25    2    1    2    0    0 -0.13589358970E+02  0.42984432168E+02  0.51523853260E+02  0.14254532604E+03  0.12502851849E+03 0.  0.
         25    2    1    2    0    0  0.13589358970E+02 -0.42984432168E+02  0.73306926975E+02  0.15174906400E+03  0.12498616241E+03 0.  0.
          5    1    3    3  502    0 -0.29746518296E+02 -0.38942738497E+02  0.17374204586E+02  0.52204839022E+02  0.47000000000E+01 0.  1.
         -5    1    3    3    0  502  0.16157159326E+02  0.81927170665E+02  0.34149648674E+02  0.90340487021E+02  0.47000000000E+01 0.  1.
          5    1    4    4  503    0  0.13365913223E+02 -0.80620350577E+02  0.16592550854E+02  0.83520604088E+02  0.47000000000E+01 0. -1.
         -5    1    4    4    0  503  0.22344574728E+00  0.37635918409E+02  0.56714376121E+02  0.68228459907E+02  0.47000000000E+01 0. -1.
<mgrwt>
<rscale>  0 0.13289776E+03</rscale>
<asrwt>0</asrwt>
<pdfrwt beam="1">  1        5 0.32240398E-01 0.13290772E+03</pdfrwt>
<pdfrwt beam="2">  1       -5 0.13035662E-01 0.13290772E+03</pdfrwt>
<totfact> 0.33649784E+02</totfact>
</mgrwt>
</event>
<event>
 8    1  0.3694627E-007  0.1320144E+03  0.7546771E-02  0.1224498E+00
          5   -1    0    0  501    0  0.00000000000E+00  0.00000000000E+00  0.30002000667E+03  0.30005681863E+03  0.47000000000E+01 0. -1.
         -5   -1    0    0    0  501 -0.00000000000E+00 -0.00000000000E+00 -0.58398141437E+02  0.58586968886E+02  0.47000000000E+01 0. -1.
         25    2    1    2    0    0 -0.27814970242E+02  0.32079237971E+02  0.10517681174E+03  0.16878967677E+03  0.12500017272E+03 0.  0.
         25    2    1    2    0    0  0.27814970242E+02 -0.32079237971E+02  0.13644505350E+03  0.18985411074E+03  0.12499832264E+03 0.  0.
          5    1    3    3  502    0  0.42979466693E+02  0.27005762834E+02  0.13463113013E+02  0.52724673498E+02  0.47000000000E+01 0.  1.
         -5    1    3    3    0  502 -0.70794436936E+02  0.50734751366E+01  0.91713698727E+02  0.11606500327E+03  0.47000000000E+01 0.  1.
          5    1    4    4  503    0 -0.25859283537E+01  0.41166284057E+02  0.86686464186E+02  0.96114426813E+02  0.47000000000E+01 0. -1.
         -5    1    4    4    0  503  0.30400898596E+02 -0.73245522027E+02  0.49758589311E+02  0.93739683927E+02  0.47000000000E+01 0. -1.
<mgrwt>
<rscale>  0 0.13201393E+03</rscale>
<asrwt>0</asrwt>
<pdfrwt beam="1">  1        5 0.46174280E-01 0.13201437E+03</pdfrwt>
<pdfrwt beam="2">  1       -5 0.90016865E-02 0.13201437E+03</pdfrwt>
<totfact> 0.30982593E+02</totfact>
</mgrwt>
</event>
<event>
 8    1  0.3694627E-007  0.2529073E+03  0.7546771E-02  0.1111483E+00
          5   -1    0    0  501    0  0.00000000000E+00  0.00000000000E+00  0.11173650634E+04  0.11173749482E+04  0.47000000000E+01 0.  1.
         -5   -1    0    0    0  501 -0.00000000000E+00 -0.00000000000E+00 -0.62073612882E+02  0.62251292487E+02  0.47000000000E+01 0.  1.
         25    2    1    2    0    0 -0.74438346061E+02 -0.20687349705E+03  0.69376602750E+03  0.73842630137E+03  0.12499756196E+03 0.  0.
         25    2    1    2    0    0  0.74438346061E+02  0.20687349705E+03  0.36152542297E+03  0.44119993929E+03  0.12497617303E+03 0.  0.
          5    1    3    3  502    0 -0.83388701576E+02 -0.10627269809E+03  0.26003225625E+03  0.29306386028E+03  0.47000000000E+01 0. -1.
         -5    1    3    3    0  502  0.89503555148E+01 -0.10060079897E+03  0.43373377125E+03  0.44536244109E+03  0.47000000000E+01 0. -1.
          5    1    4    4  503    0 -0.13312290715E+01  0.13323633879E+03  0.27085918506E+03  0.30189481989E+03  0.47000000000E+01 0.  1.
         -5    1    4    4    0  503  0.75769575133E+02  0.73637158263E+02  0.90666237907E+02  0.13930511939E+03  0.47000000000E+01 0.  1.
<mgrwt>
<rscale>  0 0.25290466E+03</rscale>
<asrwt>0</asrwt>
<pdfrwt beam="1">  1        5 0.17191673E+00 0.25290730E+03</pdfrwt>
<pdfrwt beam="2">  1       -5 0.95642156E-02 0.25290730E+03</pdfrwt>
<totfact> 0.13830288E+01</totfact>
</mgrwt>
</event>
<event>
 8    1  0.3694627E-007  0.1660476E+03  0.7546771E-02  0.1182034E+00
          5   -1    0    0  501    0  0.00000000000E+00  0.00000000000E+00  0.13856439983E+03  0.13864408714E+03  0.47000000000E+01 0.  1.
         -5   -1    0    0    0  501 -0.00000000000E+00 -0.00000000000E+00 -0.20163525338E+03  0.20169002307E+03  0.47000000000E+01 0.  1.
         25    2    1    2    0    0 -0.10104689188E+03  0.41668780695E+02 -0.51648865918E+02  0.17389480851E+03  0.12500014973E+03 0.  0.
         25    2    1    2    0    0  0.10104689188E+03 -0.41668780695E+02 -0.11421987633E+02  0.16643930170E+03  0.12499927082E+03 0.  0.
          5    1    3    3  502    0 -0.78222821330E+02  0.19005683979E+02  0.29982488148E+02  0.86029444936E+02  0.47000000000E+01 0. -1.
         -5    1    3    3    0  502 -0.22824070550E+02  0.22663096716E+02 -0.81631354067E+02  0.87865363574E+02  0.47000000000E+01 0. -1.
          5    1    4    4  503    0  0.25453769324E+02 -0.57792200874E+02  0.38684970820E+02  0.74205456821E+02  0.47000000000E+01 0.  1.
         -5    1    4    4    0  503  0.75593122557E+02  0.16123420179E+02 -0.50106958454E+02  0.92233844881E+02  0.47000000000E+01 0.  1.
<mgrwt>
<rscale>  0 0.16604742E+03</rscale>
<asrwt>0</asrwt>
<pdfrwt beam="1">  1        5 0.21327943E-01 0.16604758E+03</pdfrwt>
<pdfrwt beam="2">  1       -5 0.31031151E-01 0.16604758E+03</pdfrwt>
<totfact> 0.15840090E+02</totfact>
</mgrwt>
</event>
<event>
 8    1  0.3694627E-007  0.1302836E+03  0.7546771E-02  0.1227037E+00
          5   -1    0    0  501    0  0.00000000000E+00  0.00000000000E+00  0.14589780107E+03  0.14597348511E+03  0.47000000000E+01 0.  1.
         -5   -1    0    0    0  501 -0.00000000000E+00 -0.00000000000E+00 -0.11951747428E+03  0.11960985184E+03  0.47000000000E+01 0.  1.
         25    2    1    2    0    0 -0.13665995279E+02  0.34078217873E+02 -0.89706724095E+01  0.13059204700E+03  0.12500290163E+03 0.  0.
         25    2    1    2    0    0  0.13665995279E+02 -0.34078217873E+02  0.35350999197E+02  0.13499128996E+03  0.12499948344E+03 0.  0.
          5    1    3    3  502    0  0.35964029563E+01  0.26942198097E+01 -0.64237543795E+02  0.64565818879E+02  0.47000000000E+01 0.  1.
         -5    1    3    3    0  502 -0.17262398235E+02  0.31383998063E+02  0.55266871386E+02  0.66026228122E+02  0.47000000000E+01 0.  1.
          5    1    4    4  503    0  0.39501572845E+02 -0.49263001735E+02  0.66283848807E+02  0.91667094477E+02  0.47000000000E+01 0.  1.
         -5    1    4    4    0  503 -0.25835577566E+02  0.15184783862E+02 -0.30932849610E+02  0.43324195481E+02  0.47000000000E+01 0.  1.
<mgrwt>
<rscale>  0 0.13028275E+03</rscale>
<asrwt>0</asrwt>
<pdfrwt beam="1">  1        5 0.22458743E-01 0.13028357E+03</pdfrwt>
<pdfrwt beam="2">  1       -5 0.18400232E-01 0.13028357E+03</pdfrwt>
<totfact> 0.35950533E+02</totfact>
</mgrwt>
</event>
<event>
 8    1  0.3694627E-007  0.1628173E+03  0.7546771E-02  0.1185561E+00
          5   -1    0    0  501    0  0.00000000000E+00  0.00000000000E+00  0.46084152010E+02  0.46323202247E+02  0.47000000000E+01 0. -1.
         -5   -1    0    0    0  501 -0.00000000000E+00 -0.00000000000E+00 -0.59739623847E+03  0.59741472675E+03  0.47000000000E+01 0. -1.
         25    2    1    2    0    0  0.54961590295E+01  0.10413066413E+03 -0.34019030884E+03  0.37714573984E+03  0.12504423166E+03 0.  0.
         25    2    1    2    0    0 -0.54961590295E+01 -0.10413066413E+03 -0.21112177762E+03  0.26659218916E+03  0.12500234942E+03 0.  0.
          5    1    3    3  502    0  0.42487115667E+02  0.74661465139E+01 -0.18862804292E+03  0.19355497130E+03  0.47000000000E+01 0.  1.
         -5    1    3    3    0  502 -0.36990956637E+02  0.96664517612E+02 -0.15156226593E+03  0.18359076853E+03  0.47000000000E+01 0.  1.
          5    1    4    4  503    0 -0.19403176339E+02 -0.89926338445E+02 -0.51234569060E+02  0.10540541099E+03  0.47000000000E+01 0. -1.
         -5    1    4    4    0  503  0.13907017310E+02 -0.14204325681E+02 -0.15988720855E+03  0.16118677817E+03  0.47000000000E+01 0. -1.
<mgrwt>
<rscale>  0 0.16280923E+03</rscale>
<asrwt>0</asrwt>
<pdfrwt beam="1">  1        5 0.71096806E-02 0.16281727E+03</pdfrwt>
<pdfrwt beam="2">  1       -5 0.91926919E-01 0.16281727E+03</pdfrwt>
<totfact> 0.10712567E+02</totfact>
</mgrwt>
</event>
<event>
 8    1  0.3694627E-007  0.1346663E+03  0.7546771E-02  0.1220692E+00
          5   -1    0    0  501    0  0.00000000000E+00  0.00000000000E+00  0.23336307020E+03  0.23341039508E+03  0.47000000000E+01 0.  1.
         -5   -1    0    0    0  501 -0.00000000000E+00 -0.00000000000E+00 -0.79143685104E+02  0.79283118581E+02  0.47000000000E+01 0.  1.
         25    2    1    2    0    0 -0.45343389701E+02 -0.21304736736E+02  0.55187791948E+02  0.14553590804E+03  0.12500037341E+03 0.  0.
         25    2    1    2    0    0  0.45343389701E+02  0.21304736736E+02  0.99031593147E+02  0.16715760562E+03  0.12499797550E+03 0.  0.
          5    1    3    3  502    0 -0.14078508327E+02  0.40631555635E+02  0.62070645390E+02  0.75657007138E+02  0.47000000000E+01 0.  1.
         -5    1    3    3    0  502 -0.31264881374E+02 -0.61936292371E+02 -0.68828534415E+01  0.69878900903E+02  0.47000000000E+01 0.  1.
          5    1    4    4  503    0  0.36591349343E+01 -0.50820982632E+02  0.35276905306E+02  0.62150716747E+02  0.47000000000E+01 0.  1.
         -5    1    4    4    0  503  0.41684254766E+02  0.72125719368E+02  0.63754687841E+02  0.10500688888E+03  0.47000000000E+01 0.  1.
<mgrwt>
<rscale>  0 0.13466573E+03</rscale>
<asrwt>0</asrwt>
<pdfrwt beam="1">  1        5 0.35916376E-01 0.13466628E+03</pdfrwt>
<pdfrwt beam="2">  1       -5 0.12190318E-01 0.13466628E+03</pdfrwt>
<totfact> 0.30703122E+02</totfact>
</mgrwt>
</event>
<event>
 8    1  0.3694627E-007  0.1250339E+03  0.7546771E-02  0.1235018E+00
         -5   -1    0    0    0  501 -0.00000000000E+00  0.00000000000E+00  0.34526908900E+02  0.34845335960E+02  0.47000000000E+01 0.  1.
          5   -1    0    0  501    0  0.00000000000E+00 -0.00000000000E+00 -0.45765201314E+03  0.45767614656E+03  0.47000000000E+01 0.  1.
         25    2    1    2    0    0  0.17788301912E+01 -0.19392182427E+00 -0.18051240523E+03  0.21958646798E+03  0.12502114475E+03 0.  0.
         25    2    1    2    0    0 -0.17788301912E+01  0.19392182427E+00 -0.24261269901E+03  0.27293501454E+03  0.12501759316E+03 0.  0.
          5    1    4    4  502    0  0.31184253452E+01  0.79143552276E+01  0.13489913534E+02  0.16626164995E+02  0.47000000000E+01 0.  1.
         -5    1    4    4    0  502 -0.48972555363E+01 -0.77204334034E+01 -0.25610261255E+03  0.25630884955E+03  0.47000000000E+01 0.  1.
          5    1    3    3  503    0  0.60868572408E+02 -0.13015063172E+02 -0.11090456421E+03  0.12726463507E+03  0.47000000000E+01 0.  1.
         -5    1    3    3    0  503 -0.59089742217E+02  0.12821141348E+02 -0.69607841013E+02  0.92321832907E+02  0.47000000000E+01 0.  1.
<mgrwt>
<rscale>  0 0.12503306E+03</rscale>
<asrwt>0</asrwt>
<pdfrwt beam="2">  1        5 0.70434348E-01 0.12503395E+03</pdfrwt>
<pdfrwt beam="1">  1       -5 0.53381833E-02 0.12503395E+03</pdfrwt>
<totfact> 0.29505755E+02</totfact>
</mgrwt>
</event>
<event>
 8    1  0.3694627E-007  0.1254090E+03  0.7546771E-02  0.1234433E+00
         -5   -1    0    0    0  501 -0.00000000000E+00  0.00000000000E+00  0.84091482378E+02  0.84222725012E+02  0.47000000000E+01 0. -1.
          5   -1    0    0  501    0  0.00000000000E+00 -0.00000000000E+00 -0.21215471268E+03  0.21220676736E+03  0.47000000000E+01 0. -1.
         25    2    1    2    0    0 -0.80724683773E+01 -0.61148586319E+01 -0.12728333096E+02  0.12604887022E+03  0.12499500381E+03 0.  0.
         25    2    1    2    0    0  0.80724683773E+01  0.61148586319E+01 -0.11533489721E+03  0.17038062215E+03  0.12499944660E+03 0.  0.
          5    1    4    4  502    0  0.60454733721E+02  0.28827762476E+02 -0.51563918177E+02  0.84656614488E+02  0.47000000000E+01 0. -1.
         -5    1    4    4    0  502 -0.52382265344E+02 -0.22712903845E+02 -0.63770979032E+02  0.85724007666E+02  0.47000000000E+01 0. -1.
          5    1    3    3  503    0  0.43282514781E+02 -0.37837230553E+02  0.14784134273E+02  0.59545719644E+02  0.47000000000E+01 0.  1.
         -5    1    3    3    0  503 -0.51354983159E+02  0.31722371921E+02 -0.27512467369E+02  0.66503150574E+02  0.47000000000E+01 0.  1.
<mgrwt>
<rscale>  0 0.12540790E+03</rscale>
<asrwt>0</asrwt>
<pdfrwt beam="2">  1        5 0.32653286E-01 0.12540900E+03</pdfrwt>
<pdfrwt beam="1">  1       -5 0.12951251E-01 0.12540900E+03</pdfrwt>
<totfact> 0.32497177E+02</totfact>
</mgrwt>
</event>
<event>
 8    1  0.3694627E-007  0.1320358E+03  0.7546771E-02  0.1224467E+00
         -5   -1    0    0    0  501 -0.00000000000E+00  0.00000000000E+00  0.23885638388E+02  0.24343658747E+02  0.47000000000E+01 0. -1.
          5   -1    0    0  501    0  0.00000000000E+00 -0.00000000000E+00 -0.75657351812E+03  0.75658811669E+03  0.47000000000E+01 0. -1.
         25    2    1    2    0    0 -0.42043348895E+02  0.63321940165E+01 -0.44922761106E+03  0.46822876022E+03  0.12499994200E+03 0.  0.
         25    2    1    2    0    0  0.42043348895E+02 -0.63321940165E+01 -0.28346026867E+03  0.31270301521E+03  0.12500284772E+03 0.  0.
          5    1    3    3  502    0  0.29866338767E+02 -0.29472029513E+01 -0.30716827556E+03  0.30866668707E+03  0.47000000000E+01 0. -1.
         -5    1    3    3    0  502 -0.71909687662E+02  0.92793969678E+01 -0.14205933549E+03  0.15956207315E+03  0.47000000000E+01 0. -1.
          5    1    4    4  503    0 -0.40078804202E+02 -0.21384516907E+02 -0.71465940470E+02  0.84812020120E+02  0.47000000000E+01 0. -1.
         -5    1    4    4    0  503  0.82122153097E+02  0.15052322891E+02 -0.21199432820E+03  0.22789099509E+03  0.47000000000E+01 0. -1.
<mgrwt>
<rscale>  0 0.13203511E+03</rscale>
<asrwt>0</asrwt>
<pdfrwt beam="2">  1        5 0.11643226E+00 0.13203580E+03</pdfrwt>
<pdfrwt beam="1">  1       -5 0.37110695E-02 0.13203580E+03</pdfrwt>
<totfact> 0.16579667E+02</totfact>
</mgrwt>
</event>
<event>
 8    1  0.3694627E-007  0.3986714E+03  0.7546771E-02  0.1044241E+00
         -5   -1    0    0    0  501 -0.00000000000E+00  0.00000000000E+00  0.25766784841E+04  0.25766827706E+04  0.47000000000E+01 0.  1.
          5   -1    0    0  501    0  0.00000000000E+00 -0.00000000000E+00 -0.66653107404E+02  0.66818610630E+02  0.47000000000E+01 0.  1.
         25    2    1    2    0    0  0.36771970080E+03  0.89973619822E+02  0.16188438338E+04  0.16672115117E+04  0.12500334447E+03 0.  0.
         25    2    1    2    0    0 -0.36771970080E+03 -0.89973619822E+02  0.89118154291E+03  0.97628986950E+03  0.12499734492E+03 0.  0.
          5    1    4    4  502    0 -0.22108430986E+02  0.11068532947E+02  0.15758421044E+02  0.29693652117E+02  0.47000000000E+01 0. -1.
         -5    1    4    4    0  502 -0.34561126981E+03 -0.10104215277E+03  0.87542312187E+03  0.94659621738E+03  0.47000000000E+01 0. -1.
          5    1    3    3  503    0  0.11597279636E+03  0.18125571476E+02  0.76971874957E+03  0.77863166471E+03  0.47000000000E+01 0. -1.
         -5    1    3    3    0  503  0.25174690444E+03  0.71848048346E+02  0.84912508419E+03  0.88857984703E+03  0.47000000000E+01 0. -1.
<mgrwt>
<rscale>  0 0.39867091E+03</rscale>
<asrwt>0</asrwt>
<pdfrwt beam="2">  1        5 0.10267386E-01 0.39867138E+03</pdfrwt>
<pdfrwt beam="1">  1       -5 0.39642510E+00 0.39867138E+03</pdfrwt>
<totfact> 0.39563168E-01</totfact>
</mgrwt>
</event>
<event>
 8    1  0.3694627E-007  0.1340525E+03  0.7546771E-02  0.1221581E+00
         -5   -1    0    0    0  501 -0.00000000000E+00  0.00000000000E+00  0.12180673667E+03  0.12189737937E+03  0.47000000000E+01 0.  1.
          5   -1    0    0  501    0  0.00000000000E+00 -0.00000000000E+00 -0.14765308869E+03  0.14772787347E+03  0.47000000000E+01 0.  1.
         25    2    1    2    0    0  0.29238330050E+02  0.38603124261E+02 -0.62694481622E+01  0.13415079845E+03  0.12494818766E+03 0.  0.
         25    2    1    2    0    0 -0.29238330050E+02 -0.38603124261E+02 -0.19576903859E+02  0.13547445438E+03  0.12499996592E+03 0.  0.
          5    1    3    3  502    0  0.16721016650E+02  0.53585467895E+02 -0.56666101458E+02  0.79900762335E+02  0.47000000000E+01 0.  1.
         -5    1    3    3    0  502  0.12517313400E+02 -0.14982343634E+02  0.50396653295E+02  0.54250036119E+02  0.47000000000E+01 0.  1.
          5    1    4    4  503    0 -0.41092190853E+02 -0.55215879584E+02 -0.59037233734E+02  0.90801136966E+02  0.47000000000E+01 0.  1.
         -5    1    4    4    0  503  0.11853860803E+02  0.16612755323E+02  0.39460329875E+02  0.44673317419E+02  0.47000000000E+01 0.  1.
<mgrwt>
<rscale>  0 0.13404043E+03</rscale>
<asrwt>0</asrwt>
<pdfrwt beam="2">  1        5 0.22728585E-01 0.13405250E+03</pdfrwt>
<pdfrwt beam="1">  1       -5 0.18752223E-01 0.13405250E+03</pdfrwt>
<totfact> 0.34286657E+02</totfact>
</mgrwt>
</event>
<event>
 8    1  0.3694627E-007  0.1294486E+03  0.7546771E-02  0.1228278E+00
         -5   -1    0    0    0  501 -0.00000000000E+00  0.00000000000E+00  0.46240485033E+02  0.46478731223E+02  0.47000000000E+01 0. -1.
          5   -1    0    0  501    0  0.00000000000E+00 -0.00000000000E+00 -0.71587488541E+03  0.71589031391E+03  0.47000000000E+01 0. -1.
         25    2    1    2    0    0  0.17593069933E+02  0.28662053120E+02 -0.66553523774E+02  0.14555182836E+03  0.12499973526E+03 0.  0.
         25    2    1    2    0    0 -0.17593069933E+02 -0.28662053120E+02 -0.60308087660E+03  0.61681721677E+03  0.12500362311E+03 0.  0.
          5    1    4    4  502    0  0.27776709844E+02  0.31214478145E+02 -0.35738417939E+03  0.35984917804E+03  0.47000000000E+01 0.  1.
         -5    1    4    4    0  502 -0.45369779777E+02 -0.59876531266E+02 -0.24569669721E+03  0.25696803874E+03  0.47000000000E+01 0.  1.
          5    1    3    3  503    0 -0.15939931990E+02  0.48105259519E+02 -0.87512707622E+02  0.10123616656E+03  0.47000000000E+01 0.  1.
         -5    1    3    3    0  503  0.33533001923E+02 -0.19443206399E+02  0.20959183848E+02  0.44315661798E+02  0.47000000000E+01 0.  1.
<mgrwt>
<rscale>  0 0.12944764E+03</rscale>
<asrwt>0</asrwt>
<pdfrwt beam="2">  1        5 0.11015410E+00 0.12944858E+03</pdfrwt>
<pdfrwt beam="1">  1       -5 0.71334347E-02 0.12944858E+03</pdfrwt>
<totfact> 0.63787765E+01</totfact>
</mgrwt>
</event>
<event>
 8    1  0.3694627E-007  0.1323043E+03  0.7546771E-02  0.1224077E+00
         -5   -1    0    0    0  501 -0.00000000000E+00  0.00000000000E+00  0.19752365827E+03  0.19757956771E+03  0.47000000000E+01 0. -1.
          5   -1    0    0  501    0  0.00000000000E+00 -0.00000000000E+00 -0.89673610903E+02  0.89796695332E+02  0.47000000000E+01 0. -1.
         25    2    1    2    0    0  0.36112133122E+00  0.43347335120E+02  0.70436156893E+02  0.14988363250E+03  0.12499891688E+03 0.  0.
         25    2    1    2    0    0 -0.36112133122E+00 -0.43347335120E+02  0.37413890478E+02  0.13749263055E+03  0.12500120953E+03 0.  0.
          5    1    4    4  502    0  0.34885073287E+02  0.32872765246E+02  0.12107619115E+02  0.49661569386E+02  0.47000000000E+01 0.  1.
         -5    1    4    4    0  502 -0.35246194618E+02 -0.76220100366E+02  0.25306271363E+02  0.87831061164E+02  0.47000000000E+01 0.  1.
          5    1    3    3  503    0  0.52170514619E+01  0.68237646340E+02  0.93036038038E+02  0.11559147191E+03  0.47000000000E+01 0. -1.
         -5    1    3    3    0  503 -0.48559301307E+01 -0.24890311220E+02 -0.22599881145E+02  0.34292160588E+02  0.47000000000E+01 0. -1.
<mgrwt>
<rscale>  0 0.13230375E+03</rscale>
<asrwt>0</asrwt>
<pdfrwt beam="2">  1        5 0.13809709E-01 0.13230429E+03</pdfrwt>
<pdfrwt beam="1">  1       -5 0.30402023E-01 0.13230429E+03</pdfrwt>
<totfact> 0.34019880E+02</totfact>
</mgrwt>
</event>
<event>
 8    1  0.3694627E-007  0.1575667E+03  0.7546771E-02  0.1191474E+00
          5   -1    0    0  501    0  0.00000000000E+00  0.00000000000E+00  0.89328889055E+02  0.89452447813E+02  0.47000000000E+01 0. -1.
         -5   -1    0    0    0  501 -0.00000000000E+00 -0.00000000000E+00 -0.28994083475E+03  0.28997892622E+03  0.47000000000E+01 0. -1.
         25    2    1    2    0    0 -0.41009943953E+02  0.86713918046E+02 -0.13946335410E+03  0.21042168306E+03  0.12500455383E+03 0.  0.
         25    2    1    2    0    0  0.41009943953E+02 -0.86713918046E+02 -0.61148591590E+02  0.16900969098E+03  0.12499602516E+03 0.  0.
          5    1    4    4  502    0  0.51693798025E+02  0.13549303223E+02 -0.37156069132E+02  0.65257151680E+02  0.47000000000E+01 0.  1.
         -5    1    4    4    0  502 -0.10683854072E+02 -0.10026322127E+03 -0.23992522458E+02  0.10375253930E+03  0.47000000000E+01 0.  1.
          5    1    3    3  503    0 -0.64139108547E+02  0.71174451838E+02 -0.34851621835E+02  0.10206053784E+03  0.47000000000E+01 0. -1.
         -5    1    3    3    0  503  0.23129164594E+02  0.15539466207E+02 -0.10461173227E+03  0.10836114522E+03  0.47000000000E+01 0. -1.
<mgrwt>
<rscale>  0 0.15756499E+03</rscale>
<asrwt>0</asrwt>
<pdfrwt beam="1">  1        5 0.13755341E-01 0.15756668E+03</pdfrwt>
<pdfrwt beam="2">  1       -5 0.44618717E-01 0.15756668E+03</pdfrwt>
<totfact> 0.16720130E+02</totfact>
</mgrwt>
</event>
<event>
 8    1  0.3694627E-007  0.1692658E+03  0.7546771E-02  0.1178616E+00
          5   -1    0    0  501    0  0.00000000000E+00  0.00000000000E+00  0.46047173385E+02  0.46286414602E+02  0.47000000000E+01 0. -1.
         -5   -1    0    0    0  501 -0.00000000000E+00 -0.00000000000E+00 -0.64652786873E+03  0.64654495206E+03  0.47000000000E+01 0. -1.
         25    2    1    2    0    0 -0.44457620840E+02 -0.10511741656E+03 -0.36994046791E+03  0.40682486919E+03  0.12499749227E+03 0.  0.
         25    2    1    2    0    0  0.44457620840E+02  0.10511741656E+03 -0.23054022743E+03  0.28600649748E+03  0.12499907529E+03 0.  0.
          5    1    3    3  502    0  0.38436876756E+02 -0.95354368621E+01 -0.60237543648E+02  0.72242437083E+02  0.47000000000E+01 0.  1.
         -5    1    3    3    0  502 -0.82894497597E+02 -0.95581979694E+02 -0.30970292426E+03  0.33458243210E+03  0.47000000000E+01 0.  1.
          5    1    4    4  503    0  0.87621758162E+02  0.79772601862E+02 -0.15267217209E+03  0.19331870743E+03  0.47000000000E+01 0.  1.
         -5    1    4    4    0  503 -0.43164137322E+02  0.25344814694E+02 -0.77868055335E+02  0.92687790050E+02  0.47000000000E+01 0.  1.
<mgrwt>
<rscale>  0 0.16926553E+03</rscale>
<asrwt>0</asrwt>
<pdfrwt beam="1">  1        5 0.71038983E-02 0.16926583E+03</pdfrwt>
<pdfrwt beam="2">  1       -5 0.99485537E-01 0.16926583E+03</pdfrwt>
<totfact> 0.89641283E+01</totfact>
</mgrwt>
</event>
<event>
 8    1  0.3694627E-007  0.1425755E+03  0.7546771E-02  0.1209911E+00
         -5   -1    0    0    0  501 -0.00000000000E+00  0.00000000000E+00  0.16846487497E+04  0.16846553060E+04  0.47000000000E+01 0.  1.
          5   -1    0    0  501    0  0.00000000000E+00 -0.00000000000E+00 -0.11772805885E+02  0.12676314859E+02  0.47000000000E+01 0.  1.
         25    2    1    2    0    0  0.38342637079E+02  0.56845761197E+02  0.93547337595E+03  0.94627597024E+03  0.12500470533E+03 0.  0.
         25    2    1    2    0    0 -0.38342637079E+02 -0.56845761197E+02  0.73740256787E+03  0.75105565057E+03  0.12498177777E+03 0.  0.
          5    1    4    4  502    0 -0.66631689647E+02 -0.41398137116E+02  0.23896834899E+03  0.25155824304E+03  0.47000000000E+01 0. -1.
         -5    1    4    4    0  502  0.28289052568E+02 -0.15447624081E+02  0.49843421888E+03  0.49949740753E+03  0.47000000000E+01 0. -1.
          5    1    3    3  503    0  0.35917277577E+02 -0.34935131972E+02  0.30136183875E+03  0.30553487875E+03  0.47000000000E+01 0.  1.
         -5    1    3    3    0  503  0.24253595023E+01  0.91780893169E+02  0.63411153719E+03  0.64074109149E+03  0.47000000000E+01 0.  1.
<mgrwt>
<rscale>  0 0.14257048E+03</rscale>
<asrwt>0</asrwt>
<pdfrwt beam="2">  1        5 0.18812067E-02 0.14257551E+03</pdfrwt>
<pdfrwt beam="1">  1       -5 0.25924663E+00 0.14257551E+03</pdfrwt>
<totfact> 0.46682899E+01</totfact>
</mgrwt>
</event>
<event>
 8    1  0.3694627E-007  0.1261516E+03  0.7546771E-02  0.1233284E+00
          5   -1    0    0  501    0  0.00000000000E+00  0.00000000000E+00  0.16483527361E+03  0.16490226628E+03  0.47000000000E+01 0. -1.
         -5   -1    0    0    0  501 -0.00000000000E+00 -0.00000000000E+00 -0.10479982857E+03  0.10490516703E+03  0.47000000000E+01 0. -1.
         25    2    1    2    0    0  0.79397233937E+01 -0.15010415438E+02 -0.81539031778E+01  0.12641485226E+03  0.12500350777E+03 0.  0.
         25    2    1    2    0    0 -0.79397233937E+01  0.15010415438E+02  0.68189348214E+02  0.14339258105E+03  0.12499317306E+03 0.  0.
          5    1    4    4  502    0  0.57440131604E+02  0.15912140478E+02  0.40590282567E+02  0.72264970574E+02  0.47000000000E+01 0. -1.
         -5    1    4    4    0  502 -0.65379854997E+02 -0.90172504022E+00  0.27599065647E+02  0.71127610477E+02  0.47000000000E+01 0. -1.
          5    1    3    3  503    0 -0.40832722207E+02  0.33415383941E+02  0.12631869963E+02  0.54456893278E+02  0.47000000000E+01 0.  1.
         -5    1    3    3    0  503  0.48772445601E+02 -0.48425799379E+02 -0.20785773141E+02  0.71957958979E+02  0.47000000000E+01 0.  1.
<mgrwt>
<rscale>  0 0.12614905E+03</rscale>
<asrwt>0</asrwt>
<pdfrwt beam="1">  1        5 0.25372529E-01 0.12615161E+03</pdfrwt>
<pdfrwt beam="2">  1       -5 0.16136307E-01 0.12615161E+03</pdfrwt>
<totfact> 0.35833101E+02</totfact>
</mgrwt>
</event>
<event>
 8    1  0.3694627E-007  0.1321144E+03  0.7546771E-02  0.1224359E+00
         -5   -1    0    0    0  501 -0.00000000000E+00  0.00000000000E+00  0.21870979226E+02  0.22370286818E+02  0.47000000000E+01 0. -1.
          5   -1    0    0  501    0  0.00000000000E+00 -0.00000000000E+00 -0.78935792610E+03  0.78937191836E+03  0.47000000000E+01 0. -1.
         25    2    1    2    0    0 -0.42469769130E+02  0.51230134734E+01 -0.39778907340E+03  0.41915433349E+03  0.12499712722E+03 0.  0.
         25    2    1    2    0    0  0.42469769130E+02 -0.51230134734E+01 -0.36969787347E+03  0.39258787168E+03  0.12497516868E+03 0.  0.
          5    1    3    3  502    0 -0.44249515879E+02  0.41437290186E+02 -0.36481162135E+03  0.36984412628E+03  0.47000000000E+01 0.  1.
         -5    1    3    3    0  502  0.17797467491E+01 -0.36314276713E+02 -0.32977452054E+02  0.49310207216E+02  0.47000000000E+01 0.  1.
          5    1    4    4  503    0 -0.32401545976E+02  0.70456761190E+01 -0.31570918133E+02  0.46025151878E+02  0.47000000000E+01 0. -1.
         -5    1    4    4    0  503  0.74871315106E+02 -0.12168689592E+02 -0.33812695534E+03  0.34656271980E+03  0.47000000000E+01 0. -1.
<mgrwt>
<rscale>  0 0.13210918E+03</rscale>
<asrwt>0</asrwt>
<pdfrwt beam="2">  1        5 0.12147914E+00 0.13211438E+03</pdfrwt>
<pdfrwt beam="1">  1       -5 0.34042512E-02 0.13211438E+03</pdfrwt>
<totfact> 0.17136695E+02</totfact>
</mgrwt>
</event>
<event>
 8    1  0.3694627E-007  0.1296400E+03  0.7546771E-02  0.1227991E+00
         -5   -1    0    0    0  501 -0.00000000000E+00  0.00000000000E+00  0.11620982255E+04  0.11621077298E+04  0.47000000000E+01 0.  1.
          5   -1    0    0  501    0  0.00000000000E+00 -0.00000000000E+00 -0.15424962824E+02  0.16125119476E+02  0.47000000000E+01 0.  1.
         25    2    1    2    0    0  0.33704027490E+02 -0.66840819686E+01  0.74386309669E+03  0.75507538762E+03  0.12500358376E+03 0.  0.
         25    2    1    2    0    0 -0.33704027490E+02  0.66840819686E+01  0.40281016595E+03  0.42315746164E+03  0.12500227649E+03 0.  0.
          5    1    4    4  502    0 -0.61547028198E+02 -0.19553264807E+02  0.10863240683E+03  0.12646523893E+03  0.47000000000E+01 0. -1.
         -5    1    4    4    0  502  0.27843000709E+02  0.26237346775E+02  0.29417775912E+03  0.29669222270E+03  0.47000000000E+01 0. -1.
          5    1    3    3  503    0  0.11726567348E+01 -0.36411143075E+02  0.64172612702E+02  0.73941603207E+02  0.47000000000E+01 0.  1.
         -5    1    3    3    0  503  0.32531370755E+02  0.29727061107E+02  0.67969048399E+03  0.68113378442E+03  0.47000000000E+01 0.  1.
<mgrwt>
<rscale>  0 0.12963970E+03</rscale>
<asrwt>0</asrwt>
<pdfrwt beam="2">  1        5 0.24276604E-02 0.12964002E+03</pdfrwt>
<pdfrwt beam="1">  1       -5 0.17883894E+00 0.12964002E+03</pdfrwt>
<totfact> 0.10253726E+02</totfact>
</mgrwt>
</event>
<event>
 8    1  0.3694627E-007  0.1483443E+03  0.7546771E-02  0.1202523E+00
          5   -1    0    0  501    0  0.00000000000E+00  0.00000000000E+00  0.20397709596E+03  0.20403123702E+03  0.47000000000E+01 0.  1.
         -5   -1    0    0    0  501 -0.00000000000E+00 -0.00000000000E+00 -0.10897817169E+03  0.10907947518E+03  0.47000000000E+01 0.  1.
         25    2    1    2    0    0  0.13069178079E+02  0.78799538990E+02  0.30980843643E+02  0.15154483798E+03  0.12500341789E+03 0.  0.
         25    2    1    2    0    0 -0.13069178079E+02 -0.78799538990E+02  0.64018080627E+02  0.16156587422E+03  0.12500018521E+03 0.  0.
          5    1    3    3  502    0  0.59021486201E+02  0.63765498598E+02 -0.10526506883E+02  0.87649711876E+02  0.47000000000E+01 0.  1.
         -5    1    3    3    0  502 -0.45952308122E+02  0.15034040391E+02  0.41507350526E+02  0.63895126104E+02  0.47000000000E+01 0.  1.
          5    1    4    4  503    0  0.10766169383E+02  0.23913581051E+02  0.47877743389E+02  0.54791770130E+02  0.47000000000E+01 0. -1.
         -5    1    4    4    0  503 -0.23835347462E+02 -0.10271312004E+03  0.16140337238E+02  0.10677410409E+03  0.47000000000E+01 0. -1.
<mgrwt>
<rscale>  0 0.14834360E+03</rscale>
<asrwt>0</asrwt>
<pdfrwt beam="1">  1        5 0.31393049E-01 0.14834428E+03</pdfrwt>
<pdfrwt beam="2">  1       -5 0.16777830E-01 0.14834428E+03</pdfrwt>
<totfact> 0.23326630E+02</totfact>
</mgrwt>
</event>
<event>
 8    1  0.3694627E-007  0.1298688E+03  0.7546771E-02  0.1227653E+00
         -5   -1    0    0    0  501 -0.00000000000E+00  0.00000000000E+00  0.40639928795E+02  0.40910803127E+02  0.47000000000E+01 0.  1.
          5   -1    0    0  501    0  0.00000000000E+00 -0.00000000000E+00 -0.44216920392E+03  0.44219418234E+03  0.47000000000E+01 0.  1.
         25    2    1    2    0    0  0.31514337307E+02  0.15700902086E+02 -0.13909221575E+03  0.19029597068E+03  0.12500496067E+03 0.  0.
         25    2    1    2    0    0 -0.31514337307E+02 -0.15700902086E+02 -0.26243705938E+03  0.29280901479E+03  0.12499694886E+03 0.  0.
          5    1    4    4  502    0  0.45983584725E+02 -0.19435502401E+02 -0.78832625596E+02  0.93428591320E+02  0.47000000000E+01 0. -1.
         -5    1    4    4    0  502 -0.77497922032E+02  0.37346003144E+01 -0.18360443378E+03  0.19938042347E+03  0.47000000000E+01 0. -1.
          5    1    3    3  503    0 -0.28856508571E+02  0.48017479319E+02 -0.89213799788E+02  0.10544936453E+03  0.47000000000E+01 0. -1.
         -5    1    3    3    0  503  0.60370845878E+02 -0.32316577233E+02 -0.49878415959E+02  0.84846606147E+02  0.47000000000E+01 0. -1.
<mgrwt>
<rscale>  0 0.12986690E+03</rscale>
<asrwt>0</asrwt>
<pdfrwt beam="2">  1        5 0.68048786E-01 0.12986883E+03</pdfrwt>
<pdfrwt beam="1">  1       -5 0.62750550E-02 0.12986883E+03</pdfrwt>
<totfact> 0.24653301E+02</totfact>
</mgrwt>
</event>
<event>
 8    1  0.3694627E-007  0.2163026E+03  0.7546771E-02  0.1136670E+00
         -5   -1    0    0    0  501 -0.00000000000E+00  0.00000000000E+00  0.17376209185E+03  0.17382564415E+03  0.47000000000E+01 0. -1.
          5   -1    0    0  501    0  0.00000000000E+00 -0.00000000000E+00 -0.27699396620E+03  0.27703383784E+03  0.47000000000E+01 0. -1.
         25    2    1    2    0    0 -0.10147084099E+03  0.14444875231E+03 -0.13624765208E+02  0.21673073561E+03  0.12499921567E+03 0.  0.
         25    2    1    2    0    0  0.10147084099E+03 -0.14444875231E+03 -0.89607109136E+02  0.23412874638E+03  0.12500024903E+03 0.  0.
          5    1    3    3  502    0 -0.12758349693E+03  0.13421419172E+03 -0.93736023263E-01  0.18523794626E+03  0.47000000000E+01 0.  1.
         -5    1    3    3    0  502  0.26112655938E+02  0.10234560587E+02 -0.13531029185E+02  0.31492789354E+02  0.47000000000E+01 0.  1.
          5    1    4    4  503    0  0.54184066829E+02 -0.13541179975E+03 -0.17039684554E+02  0.14691735588E+03  0.47000000000E+01 0. -1.
         -5    1    4    4    0  503  0.47286774161E+02 -0.90369525609E+01 -0.72567424582E+02  0.87211390498E+02  0.47000000000E+01 0. -1.
<mgrwt>
<rscale>  0 0.21630250E+03</rscale>
<asrwt>0</asrwt>
<pdfrwt beam="2">  1        5 0.42622412E-01 0.21630265E+03</pdfrwt>
<pdfrwt beam="1">  1       -5 0.26740585E-01 0.21630265E+03</pdfrwt>
<totfact> 0.58101805E+01</totfact>
</mgrwt>
</event>
<event>
 8    1  0.3694627E-007  0.1931450E+03  0.7546771E-02  0.1155656E+00
          5   -1    0    0  501    0  0.00000000000E+00  0.00000000000E+00  0.53882909627E+03  0.53884959403E+03  0.47000000000E+01 0.  1.
         -5   -1    0    0    0  501 -0.00000000000E+00 -0.00000000000E+00 -0.69805642917E+02  0.69963689032E+02  0.47000000000E+01 0.  1.
         25    2    1    2    0    0 -0.10007282342E+03 -0.10800104579E+03  0.26442115614E+03  0.32745003839E+03  0.12500473571E+03 0.  0.
         25    2    1    2    0    0  0.10007282342E+03  0.10800104579E+03  0.20460229721E+03  0.28136324467E+03  0.12499751817E+03 0.  0.
          5    1    4    4  502    0  0.48394454400E+01  0.96672521871E+02  0.96169148192E+02  0.13652689032E+03  0.47000000000E+01 0.  1.
         -5    1    4    4    0  502  0.95233377976E+02  0.11328523918E+02  0.10843314902E+03  0.14483635435E+03  0.47000000000E+01 0.  1.
          5    1    3    3  503    0 -0.12194952460E+03 -0.10285324768E+03  0.25839620290E+03  0.30371230595E+03  0.47000000000E+01 0.  1.
         -5    1    3    3    0  503  0.21876701186E+02 -0.51477981085E+01  0.60249532392E+01  0.23737732446E+02  0.47000000000E+01 0.  1.
<mgrwt>
<rscale>  0 0.19314380E+03</rscale>
<asrwt>0</asrwt>
<pdfrwt beam="1">  1        5 0.82910521E-01 0.19314497E+03</pdfrwt>
<pdfrwt beam="2">  1       -5 0.10753063E-01 0.19314497E+03</pdfrwt>
<totfact> 0.70086959E+01</totfact>
</mgrwt>
</event>
<event>
 8    1  0.3694627E-007  0.1691357E+03  0.7546771E-02  0.1178753E+00
          5   -1    0    0  501    0  0.00000000000E+00  0.00000000000E+00  0.26409365407E+03  0.26413547305E+03  0.47000000000E+01 0. -1.
         -5   -1    0    0    0  501 -0.00000000000E+00 -0.00000000000E+00 -0.11754770235E+03  0.11764162668E+03  0.47000000000E+01 0. -1.
         25    2    1    2    0    0  0.67067460328E+02  0.92109412595E+02  0.19527917100E+02  0.17025926459E+03  0.12499875803E+03 0.  0.
         25    2    1    2    0    0 -0.67067460328E+02 -0.92109412595E+02  0.12701803463E+03  0.21151783514E+03  0.12499610128E+03 0.  0.
          5    1    3    3  502    0  0.67668431965E+02  0.10916277379E+03 -0.17027941769E+02  0.12964400745E+03  0.47000000000E+01 0. -1.
         -5    1    3    3    0  502 -0.60097163648E+00 -0.17053361194E+02  0.36555858869E+02  0.40615257141E+02  0.47000000000E+01 0. -1.
          5    1    4    4  503    0 -0.30614792932E+02  0.13536743146E+02 -0.94181214609E+01  0.35089884199E+02  0.47000000000E+01 0. -1.
         -5    1    4    4    0  503 -0.36452667397E+02 -0.10564615574E+03  0.13643615609E+03  0.17642795094E+03  0.47000000000E+01 0. -1.
<mgrwt>
<rscale>  0 0.16913519E+03</rscale>
<asrwt>0</asrwt>
<pdfrwt beam="1">  1        5 0.40640234E-01 0.16913568E+03</pdfrwt>
<pdfrwt beam="2">  1       -5 0.18094704E-01 0.16913568E+03</pdfrwt>
<totfact> 0.12569967E+02</totfact>
</mgrwt>
</event>
<event>
 8    1  0.3694627E-007  0.1596918E+03  0.7546771E-02  0.1189046E+00
          5   -1    0    0  501    0  0.00000000000E+00  0.00000000000E+00  0.29262800140E+02  0.29637838518E+02  0.47000000000E+01 0. -1.
         -5   -1    0    0    0  501 -0.00000000000E+00 -0.00000000000E+00 -0.88273848885E+03  0.88275100096E+03  0.47000000000E+01 0. -1.
         25    2    1    2    0    0 -0.42447408110E+02 -0.89852138563E+02 -0.49045291765E+03  0.51579458967E+03  0.12499922016E+03 0.  0.
         25    2    1    2    0    0  0.42447408110E+02  0.89852138563E+02 -0.36302277106E+03  0.39659424981E+03  0.12500510955E+03 0.  0.
          5    1    4    4  502    0  0.44931623368E+02  0.42501163541E+02 -0.49187634836E+02  0.79162573869E+02  0.47000000000E+01 0.  1.
         -5    1    4    4    0  502 -0.24842152582E+01  0.47350975022E+02 -0.31383513623E+03  0.31743167594E+03  0.47000000000E+01 0.  1.
          5    1    3    3  503    0 -0.45276832249E+02  0.17656470836E+02 -0.20457347629E+03  0.21031913774E+03  0.47000000000E+01 0. -1.
         -5    1    3    3    0  503  0.28294241393E+01 -0.10750860940E+03 -0.28587944136E+03  0.30547545192E+03  0.47000000000E+01 0. -1.
<mgrwt>
<rscale>  0 0.15969063E+03</rscale>
<asrwt>0</asrwt>
<pdfrwt beam="1">  1        5 0.45317815E-02 0.15969179E+03</pdfrwt>
<pdfrwt beam="2">  1       -5 0.13583571E+00 0.15969179E+03</pdfrwt>
<totfact> 0.85085711E+01</totfact>
</mgrwt>
</event>
<event>
 8    1  0.3694627E-007  0.1408556E+03  0.7546771E-02  0.1212205E+00
          5   -1    0    0  501    0  0.00000000000E+00  0.00000000000E+00  0.60367347883E+02  0.60550034603E+02  0.47000000000E+01 0. -1.
         -5   -1    0    0    0  501 -0.00000000000E+00 -0.00000000000E+00 -0.36022879961E+03  0.36025945937E+03  0.47000000000E+01 0. -1.
         25    2    1    2    0    0 -0.52253031247E+02  0.38279414523E+02 -0.21300301763E+03  0.25532629503E+03  0.12500215423E+03 0.  0.
         25    2    1    2    0    0  0.52253031247E+02 -0.38279414523E+02 -0.86858434092E+02  0.16548319894E+03  0.12507841024E+03 0.  0.
          5    1    3    3  502    0 -0.51729130482E+02  0.33627581756E+02 -0.22942089770E+03  0.23761892916E+03  0.47000000000E+01 0. -1.
         -5    1    3    3    0  502 -0.52390076559E+00  0.46518327669E+01  0.16417880067E+02  0.17707365868E+02  0.47000000000E+01 0. -1.
          5    1    4    4  503    0  0.52280557539E+02 -0.78608199631E+02 -0.80959921500E+02  0.12445523145E+03  0.47000000000E+01 0.  1.
         -5    1    4    4    0  503 -0.27526291942E-01  0.40328785107E+02 -0.58985125924E+01  0.41027967495E+02  0.47000000000E+01 0.  1.
<mgrwt>
<rscale>  0 0.14083867E+03</rscale>
<asrwt>0</asrwt>
<pdfrwt beam="1">  1        5 0.93036958E-02 0.14085561E+03</pdfrwt>
<pdfrwt beam="2">  1       -5 0.55436225E-01 0.14085561E+03</pdfrwt>
<totfact> 0.20288893E+02</totfact>
</mgrwt>
</event>
<event>
 8    1  0.3694627E-007  0.1427469E+03  0.7546771E-02  0.1209686E+00
          5   -1    0    0  501    0  0.00000000000E+00  0.00000000000E+00  0.97348915425E+03  0.97350049997E+03  0.47000000000E+01 0. -1.
         -5   -1    0    0    0  501 -0.00000000000E+00 -0.00000000000E+00 -0.21053481045E+02  0.21571719081E+02  0.47000000000E+01 0. -1.
         25    2    1    2    0    0  0.68699716138E+02 -0.55240938243E+01  0.40849689627E+03  0.43271977578E+03  0.12500609377E+03 0.  0.
         25    2    1    2    0    0 -0.68699716138E+02  0.55240938243E+01  0.54393877694E+03  0.56235244328E+03  0.12498284198E+03 0.  0.
          5    1    3    3  502    0  0.73117483018E+02  0.36468105619E+02  0.15110836980E+03  0.17184853352E+03  0.47000000000E+01 0.  1.
         -5    1    3    3    0  502 -0.44177668806E+01 -0.41992199443E+02  0.25738852647E+03  0.26087124225E+03  0.47000000000E+01 0.  1.
          5    1    4    4  503    0  0.21296257150E+02 -0.22570686727E+02  0.46923463399E+02  0.56452350573E+02  0.47000000000E+01 0.  1.
         -5    1    4    4    0  503 -0.89995973287E+02  0.28094780551E+02  0.49701531354E+03  0.50590009270E+03  0.47000000000E+01 0.  1.
<mgrwt>
<rscale>  0 0.14274185E+03</rscale>
<asrwt>0</asrwt>
<pdfrwt beam="1">  1        5 0.14980827E+00 0.14274694E+03</pdfrwt>
<pdfrwt beam="2">  1       -5 0.32797349E-02 0.14274694E+03</pdfrwt>
<totfact> 0.10735350E+02</totfact>
</mgrwt>
</event>
<event>
 8    1  0.3694627E-007  0.1428857E+03  0.7546771E-02  0.1209504E+00
         -5   -1    0    0    0  501 -0.00000000000E+00  0.00000000000E+00  0.36795069862E+03  0.36798071501E+03  0.47000000000E+01 0. -1.
          5   -1    0    0  501    0  0.00000000000E+00 -0.00000000000E+00 -0.56166337868E+02  0.56362642854E+02  0.47000000000E+01 0. -1.
         25    2    1    2    0    0 -0.12620208044E+02 -0.68025979225E+02  0.18147538135E+03  0.23097541796E+03  0.12501810335E+03 0.  0.
         25    2    1    2    0    0  0.12620208044E+02  0.68025979225E+02  0.13030897941E+03  0.19336793990E+03  0.12499570619E+03 0.  0.
          5    1    3    3  502    0  0.55372843834E+02 -0.35046145718E+02  0.67957618324E+02  0.94523605793E+02  0.47000000000E+01 0.  1.
         -5    1    3    3    0  502 -0.67993051878E+02 -0.32979833507E+02  0.11351776303E+03  0.13645181217E+03  0.47000000000E+01 0.  1.
          5    1    4    4  503    0  0.91790990684E+01  0.97421171498E+02  0.55074918680E+02  0.11238539577E+03  0.47000000000E+01 0.  1.
         -5    1    4    4    0  503  0.34411089754E+01 -0.29395192273E+02  0.75234060726E+02  0.80982544126E+02  0.47000000000E+01 0.  1.
<mgrwt>
<rscale>  0 0.14288082E+03</rscale>
<asrwt>0</asrwt>
<pdfrwt beam="2">  1        5 0.86583848E-02 0.14288572E+03</pdfrwt>
<pdfrwt beam="1">  1       -5 0.56625206E-01 0.14288572E+03</pdfrwt>
<totfact> 0.22051215E+02</totfact>
</mgrwt>
</event>
<event>
 8    1  0.3694627E-007  0.1352537E+03  0.7546771E-02  0.1219866E+00
         -5   -1    0    0    0  501 -0.00000000000E+00  0.00000000000E+00  0.49121555506E+02  0.49345893601E+02  0.47000000000E+01 0.  1.
          5   -1    0    0  501    0  0.00000000000E+00 -0.00000000000E+00 -0.37176472993E+03  0.37179443839E+03  0.47000000000E+01 0.  1.
         25    2    1    2    0    0  0.24465494223E+02  0.45462234997E+02 -0.16878466727E+03  0.21628425527E+03  0.12500095981E+03 0.  0.
         25    2    1    2    0    0 -0.24465494223E+02 -0.45462234997E+02 -0.15385850716E+03  0.20485607673E+03  0.12501278626E+03 0.  0.
          5    1    4    4  502    0 -0.10871560450E+02  0.43246387442E+02 -0.42739176601E+02  0.61944879287E+02  0.47000000000E+01 0. -1.
         -5    1    4    4    0  502 -0.13593933773E+02 -0.88708622439E+02 -0.11111933056E+03  0.14291119744E+03  0.47000000000E+01 0. -1.
          5    1    3    3  503    0 -0.18542134247E+02  0.55163136789E+02 -0.16101098908E+03  0.17126999447E+03  0.47000000000E+01 0.  1.
         -5    1    3    3    0  503  0.43007628470E+02 -0.97009017921E+01 -0.77736781877E+01  0.45014260793E+02  0.47000000000E+01 0.  1.
<mgrwt>
<rscale>  0 0.13525100E+03</rscale>
<asrwt>0</asrwt>
<pdfrwt beam="2">  1        5 0.57214114E-01 0.13525373E+03</pdfrwt>
<pdfrwt beam="1">  1       -5 0.75767047E-02 0.13525373E+03</pdfrwt>
<totfact> 0.26616573E+02</totfact>
</mgrwt>
</event>
<event>
 8    1  0.3694627E-007  0.2078250E+03  0.7546771E-02  0.1143301E+00
          5   -1    0    0  501    0  0.00000000000E+00  0.00000000000E+00  0.53428314404E+02  0.53634641605E+02  0.47000000000E+01 0.  1.
         -5   -1    0    0    0  501 -0.00000000000E+00 -0.00000000000E+00 -0.83326445907E+03  0.83327771406E+03  0.47000000000E+01 0.  1.
         25    2    1    2    0    0  0.13624247495E+03 -0.94881222494E+02 -0.46922157094E+03  0.51318624033E+03  0.12500710487E+03 0.  0.
         25    2    1    2    0    0 -0.13624247495E+03  0.94881222494E+02 -0.31061457372E+03  0.37372611533E+03  0.12500135002E+03 0.  0.
          5    1    4    4  502    0  0.46695161050E+01 -0.18751492524E+02 -0.68852999530E+02  0.71667624468E+02  0.47000000000E+01 0. -1.
         -5    1    4    4    0  502 -0.14091199106E+03  0.11363271502E+03 -0.24176157419E+03  0.30205849086E+03  0.47000000000E+01 0. -1.
          5    1    3    3  503    0  0.45038960877E+02 -0.32904199652E+02 -0.33391720117E+03  0.33857640436E+03  0.47000000000E+01 0. -1.
         -5    1    3    3    0  503  0.91203514075E+02 -0.61977022842E+02 -0.13530436977E+03  0.17460983598E+03  0.47000000000E+01 0. -1.
<mgrwt>
<rscale>  0 0.20782414E+03</rscale>
<asrwt>0</asrwt>
<pdfrwt beam="1">  1        5 0.82366322E-02 0.20782501E+03</pdfrwt>
<pdfrwt beam="2">  1       -5 0.12821141E+00 0.20782501E+03</pdfrwt>
<totfact> 0.38676148E+01</totfact>
</mgrwt>
</event>
<event>
 8    1  0.3694627E-007  0.1254182E+03  0.7546771E-02  0.1234418E+00
          5   -1    0    0  501    0  0.00000000000E+00  0.00000000000E+00  0.82931109397E+03  0.82932441215E+03  0.47000000000E+01 0.  1.
         -5   -1    0    0    0  501 -0.00000000000E+00 -0.00000000000E+00 -0.19106270153E+02  0.19675862348E+02  0.47000000000E+01 0.  1.
         25    2    1    2    0    0  0.10178708428E+02  0.92932078343E+00  0.34135979835E+03  0.36367049619E+03  0.12500099250E+03 0.  0.
         25    2    1    2    0    0 -0.10178708428E+02 -0.92932078343E+00  0.46884502547E+03  0.48532977830E+03  0.12499946425E+03 0.  0.
          5    1    4    4  502    0 -0.44840420049E+02 -0.47312670193E+02  0.29052530662E+03  0.29778548625E+03  0.47000000000E+01 0. -1.
         -5    1    4    4    0  502  0.34661711621E+02  0.46383349410E+02  0.17831971884E+03  0.18754429206E+03  0.47000000000E+01 0. -1.
          5    1    3    3  503    0 -0.55545768316E+02 -0.14677665051E+02  0.16251839517E+03  0.17243864126E+03  0.47000000000E+01 0.  1.
         -5    1    3    3    0  503  0.65724476744E+02  0.15606985835E+02  0.17884140318E+03  0.19123185494E+03  0.47000000000E+01 0.  1.
<mgrwt>
<rscale>  0 0.12541779E+03</rscale>
<asrwt>0</asrwt>
<pdfrwt beam="1">  1        5 0.12763118E+00 0.12541817E+03</pdfrwt>
<pdfrwt beam="2">  1       -5 0.29842650E-02 0.12541817E+03</pdfrwt>
<totfact> 0.18344333E+02</totfact>
</mgrwt>
</event>
<event>
 8    1  0.3694627E-007  0.1421529E+03  0.7546771E-02  0.1210465E+00
         -5   -1    0    0    0  501 -0.00000000000E+00  0.00000000000E+00  0.17416721623E+02  0.18039739247E+02  0.47000000000E+01 0.  1.
          5   -1    0    0  501    0  0.00000000000E+00 -0.00000000000E+00 -0.11566987721E+04  0.11567083208E+04  0.47000000000E+01 0.  1.
         25    2    1    2    0    0  0.40684245556E+02  0.54075240245E+02 -0.49729328506E+03  0.51721182401E+03  0.12501247974E+03 0.  0.
         25    2    1    2    0    0 -0.40684245556E+02 -0.54075240245E+02 -0.64198876544E+03  0.65753623604E+03  0.12499994925E+03 0.  0.
          5    1    4    4  502    0 -0.84898366969E+02 -0.23627188703E+02 -0.39667859977E+03  0.40637664583E+03  0.47000000000E+01 0.  1.
         -5    1    4    4    0  502  0.44214121412E+02 -0.30448051542E+02 -0.24531016567E+03  0.25115959021E+03  0.47000000000E+01 0.  1.
          5    1    3    3  503    0  0.23832045415E+02  0.63078212476E+02 -0.10791296799E+03  0.12733470045E+03  0.47000000000E+01 0.  1.
         -5    1    3    3    0  503  0.16852200141E+02 -0.90029722301E+01 -0.38938031707E+03  0.38987712356E+03  0.47000000000E+01 0.  1.
<mgrwt>
<rscale>  0 0.14215019E+03</rscale>
<asrwt>0</asrwt>
<pdfrwt beam="2">  1        5 0.17800226E+00 0.14215294E+03</pdfrwt>
<pdfrwt beam="1">  1       -5 0.27281555E-02 0.14215294E+03</pdfrwt>
<totfact> 0.88677726E+01</totfact>
</mgrwt>
</event>
<event>
 8    1  0.3694627E-007  0.2167936E+03  0.7546771E-02  0.1136297E+00
          5   -1    0    0  501    0  0.00000000000E+00  0.00000000000E+00  0.11568376433E+03  0.11577920076E+03  0.47000000000E+01 0. -1.
         -5   -1    0    0    0  501 -0.00000000000E+00 -0.00000000000E+00 -0.46676894580E+03  0.46679260787E+03  0.47000000000E+01 0. -1.
         25    2    1    2    0    0 -0.66370550938E+02 -0.16422532491E+03 -0.28064289177E+03  0.35462639869E+03  0.12499777027E+03 0.  0.
         25    2    1    2    0    0  0.66370550938E+02  0.16422532491E+03 -0.70442289703E+02  0.22794540994E+03  0.12498794487E+03 0.  0.
          5    1    4    4  502    0  0.99381691995E+02  0.91286930094E+02 -0.57281189790E+02  0.14667395479E+03  0.47000000000E+01 0. -1.
         -5    1    4    4    0  502 -0.33011141057E+02  0.72938394814E+02 -0.13161099913E+02  0.81271455154E+02  0.47000000000E+01 0. -1.
          5    1    3    3  503    0 -0.73597424093E+01 -0.75993526030E+02 -0.29593463234E+02  0.82018564197E+02  0.47000000000E+01 0. -1.
         -5    1    3    3    0  503 -0.59010808528E+02 -0.88231798878E+02 -0.25104942854E+03  0.27260783449E+03  0.47000000000E+01 0. -1.
<mgrwt>
<rscale>  0 0.21679215E+03</rscale>
<asrwt>0</asrwt>
<pdfrwt beam="1">  1        5 0.17806664E-01 0.21679357E+03</pdfrwt>
<pdfrwt beam="2">  1       -5 0.71819767E-01 0.21679357E+03</pdfrwt>
<totfact> 0.40415045E+01</totfact>
</mgrwt>
</event>
<event>
 8    1  0.3694627E-007  0.2129782E+03  0.7546771E-02  0.1139229E+00
          5   -1    0    0  501    0  0.00000000000E+00  0.00000000000E+00  0.51680196430E+02  0.51893474571E+02  0.47000000000E+01 0. -1.
         -5   -1    0    0    0  501 -0.00000000000E+00 -0.00000000000E+00 -0.10232654530E+04  0.10232762468E+04  0.47000000000E+01 0. -1.
         25    2    1    2    0    0  0.53046869362E+02  0.16407309518E+03 -0.68993811774E+03  0.72206236014E+03  0.12500197882E+03 0.  0.
         25    2    1    2    0    0 -0.53046869362E+02 -0.16407309518E+03 -0.28164713882E+03  0.35310736124E+03  0.12500298735E+03 0.  0.
          5    1    3    3  502    0 -0.71810925168E+01  0.29659106427E+02 -0.35249154120E+03  0.35384121764E+03  0.47000000000E+01 0.  1.
         -5    1    3    3    0  502  0.60227961879E+02  0.13441398875E+03 -0.33744657654E+03  0.36822114250E+03  0.47000000000E+01 0.  1.
          5    1    4    4  503    0 -0.85749690814E+02 -0.65946023841E+02 -0.16234467896E+03  0.19514039131E+03  0.47000000000E+01 0. -1.
         -5    1    4    4    0  503  0.32702821452E+02 -0.98127071336E+02 -0.11930245987E+03  0.15796696994E+03  0.47000000000E+01 0. -1.
<mgrwt>
<rscale>  0 0.21297801E+03</rscale>
<asrwt>0</asrwt>
<pdfrwt beam="1">  1        5 0.79680365E-02 0.21297816E+03</pdfrwt>
<pdfrwt beam="2">  1       -5 0.15744268E+00 0.21297816E+03</pdfrwt>
<totfact> 0.23599697E+01</totfact>
</mgrwt>
</event>
<event>
 8    1  0.3694627E-007  0.1428362E+03  0.7546771E-02  0.1209563E+00
          5   -1    0    0  501    0  0.00000000000E+00  0.00000000000E+00  0.33600638509E+02  0.33927760142E+02  0.47000000000E+01 0.  1.
         -5   -1    0    0    0  501 -0.00000000000E+00 -0.00000000000E+00 -0.60700062962E+03  0.60701882537E+03  0.47000000000E+01 0.  1.
         25    2    1    2    0    0  0.35197382790E+02  0.59490444552E+02 -0.30955429891E+03  0.34091869417E+03  0.12499489316E+03 0.  0.
         25    2    1    2    0    0 -0.35197382790E+02 -0.59490444552E+02 -0.26384569220E+03  0.30002789134E+03  0.12499687013E+03 0.  0.
          5    1    3    3  502    0  0.52346977610E+02 -0.62585801878E+00 -0.45483969246E+02  0.69508842758E+02  0.47000000000E+01 0. -1.
         -5    1    3    3    0  502 -0.17149594820E+02  0.60116302571E+02 -0.26407032966E+03  0.27140985142E+03  0.47000000000E+01 0. -1.
          5    1    4    4  503    0  0.17251022784E+02 -0.68517903329E+02 -0.21935632463E+03  0.23050290241E+03  0.47000000000E+01 0.  1.
         -5    1    4    4    0  503 -0.52448405573E+02  0.90274587763E+01 -0.44489367568E+02  0.69524988930E+02  0.47000000000E+01 0.  1.
<mgrwt>
<rscale>  0 0.14283579E+03</rscale>
<asrwt>0</asrwt>
<pdfrwt beam="1">  1        5 0.51958923E-02 0.14283622E+03</pdfrwt>
<pdfrwt beam="2">  1       -5 0.93411267E-01 0.14283622E+03</pdfrwt>
<totfact> 0.16782478E+02</totfact>
</mgrwt>
</event>
<event>
 8    1  0.3694627E-007  0.1330656E+03  0.7546771E-02  0.1222981E+00
         -5   -1    0    0    0  501 -0.00000000000E+00  0.00000000000E+00  0.17276199025E+03  0.17282591031E+03  0.47000000000E+01 0. -1.
          5   -1    0    0  501    0  0.00000000000E+00 -0.00000000000E+00 -0.10243266959E+03  0.10254043983E+03  0.47000000000E+01 0. -1.
         25    2    1    2    0    0  0.38947904762E+02 -0.23766255375E+02  0.39218416826E+02  0.13872470081E+03  0.12499873686E+03 0.  0.
         25    2    1    2    0    0 -0.38947904762E+02  0.23766255375E+02  0.31110903832E+02  0.13664164933E+03  0.12498511037E+03 0.  0.
          5    1    3    3  502    0  0.37388657361E+02  0.38263751474E+02  0.52492703313E+02  0.75097272102E+02  0.47000000000E+01 0.  1.
         -5    1    3    3    0  502  0.15592474011E+01 -0.62030006849E+02 -0.13274286487E+02  0.63627428708E+02  0.47000000000E+01 0.  1.
          5    1    4    4  503    0  0.19027224068E+02 -0.35973156477E+02  0.33964030073E+02  0.53214176508E+02  0.47000000000E+01 0.  1.
         -5    1    4    4    0  503 -0.57975128830E+02  0.59739411852E+02 -0.28531262413E+01  0.83427472817E+02  0.47000000000E+01 0.  1.
<mgrwt>
<rscale>  0 0.13306242E+03</rscale>
<asrwt>0</asrwt>
<pdfrwt beam="2">  1        5 0.15772079E-01 0.13306562E+03</pdfrwt>
<pdfrwt beam="1">  1       -5 0.26591974E-01 0.13306562E+03</pdfrwt>
<totfact> 0.34802341E+02</totfact>
</mgrwt>
</event>
<event>
 8    1  0.3694627E-007  0.1691065E+03  0.7546771E-02  0.1178783E+00
         -5   -1    0    0    0  501 -0.00000000000E+00  0.00000000000E+00  0.89127015218E+03  0.89128254452E+03  0.47000000000E+01 0. -1.
          5   -1    0    0  501    0  0.00000000000E+00 -0.00000000000E+00 -0.33808289340E+02  0.34133420985E+02  0.47000000000E+01 0. -1.
         25    2    1    2    0    0 -0.95606199955E+02 -0.61887963670E+02  0.53808543459E+03  0.56403206148E+03  0.12500226374E+03 0.  0.
         25    2    1    2    0    0  0.95606199955E+02  0.61887963670E+02  0.31937642825E+03  0.36138390402E+03  0.12500543049E+03 0.  0.
          5    1    4    4  502    0  0.13595623595E+02  0.76751497146E+02  0.20814936134E+03  0.22231482164E+03  0.47000000000E+01 0.  1.
         -5    1    4    4    0  502  0.82010576359E+02 -0.14863533476E+02  0.11122706691E+03  0.13906908238E+03  0.47000000000E+01 0.  1.
          5    1    3    3  503    0 -0.79803679627E+02 -0.99734567875E+02  0.40515432354E+03  0.42483847188E+03  0.47000000000E+01 0. -1.
         -5    1    3    3    0  503 -0.15802520327E+02  0.37846604205E+02  0.13293111105E+03  0.13919358959E+03  0.47000000000E+01 0. -1.
<mgrwt>
<rscale>  0 0.16910596E+03</rscale>
<asrwt>0</asrwt>
<pdfrwt beam="2">  1        5 0.52272392E-02 0.16910654E+03</pdfrwt>
<pdfrwt beam="1">  1       -5 0.13714443E+00 0.16910654E+03</pdfrwt>
<totfact> 0.66469671E+01</totfact>
</mgrwt>
</event>
<event>
 8    1  0.3694627E-007  0.1439184E+03  0.7546771E-02  0.1208152E+00
         -5   -1    0    0    0  501 -0.00000000000E+00  0.00000000000E+00  0.56888977111E+03  0.56890918579E+03  0.47000000000E+01 0.  1.
          5   -1    0    0  501    0  0.00000000000E+00 -0.00000000000E+00 -0.46086447684E+02  0.46325486075E+02  0.47000000000E+01 0.  1.
         25    2    1    2    0    0 -0.66246391308E+02 -0.26491303911E+02  0.40316952066E+03  0.42808662667E+03  0.12498849550E+03 0.  0.
         25    2    1    2    0    0  0.66246391308E+02  0.26491303911E+02  0.11963380277E+03  0.18714804519E+03  0.12498708137E+03 0.  0.
          5    1    4    4  502    0  0.72214491376E+02  0.51715703632E+02  0.30229492305E+02  0.93943381736E+02  0.47000000000E+01 0. -1.
         -5    1    4    4    0  502 -0.59681000683E+01 -0.25224399721E+02  0.89404310463E+02  0.93204663452E+02  0.47000000000E+01 0. -1.
          5    1    3    3  503    0 -0.80823837076E+01  0.36025827073E+02  0.38600670513E+02  0.53621701827E+02  0.47000000000E+01 0.  1.
         -5    1    3    3    0  503 -0.58164007600E+02 -0.62517130984E+02  0.36456885014E+03  0.37446492485E+03  0.47000000000E+01 0.  1.
<mgrwt>
<rscale>  0 0.14391806E+03</rscale>
<asrwt>0</asrwt>
<pdfrwt beam="2">  1        5 0.71101040E-02 0.14391837E+03</pdfrwt>
<pdfrwt beam="1">  1       -5 0.87541381E-01 0.14391837E+03</pdfrwt>
<totfact> 0.11577216E+02</totfact>
</mgrwt>
</event>
<event>
 8    1  0.3694627E-007  0.1364557E+03  0.7546771E-02  0.1218184E+00
         -5   -1    0    0    0  501 -0.00000000000E+00  0.00000000000E+00  0.12813460088E+03  0.12822077032E+03  0.47000000000E+01 0. -1.
          5   -1    0    0  501    0  0.00000000000E+00 -0.00000000000E+00 -0.14867297815E+03  0.14874725016E+03  0.47000000000E+01 0. -1.
         25    2    1    2    0    0 -0.36735773259E+02 -0.40483891501E+02  0.11094417813E+02  0.13690596197E+03  0.12502677236E+03 0.  0.
         25    2    1    2    0    0  0.36735773259E+02  0.40483891501E+02 -0.31632795083E+02  0.14006205852E+03  0.12501313533E+03 0.  0.
          5    1    3    3  502    0  0.28170374533E+01 -0.50155246578E+02  0.56491908459E+02  0.75742393550E+02  0.47000000000E+01 0.  1.
         -5    1    3    3    0  502 -0.39552810712E+02  0.96713550762E+01 -0.45397490647E+02  0.61163568415E+02  0.47000000000E+01 0.  1.
          5    1    4    4  503    0 -0.30194837676E+02  0.14338263638E+02 -0.54848017136E+02  0.64402709650E+02  0.47000000000E+01 0. -1.
         -5    1    4    4    0  503  0.66930610935E+02  0.26145627864E+02  0.23215222053E+02  0.75659348870E+02  0.47000000000E+01 0. -1.
<mgrwt>
<rscale>  0 0.13645257E+03</rscale>
<asrwt>0</asrwt>
<pdfrwt beam="2">  1        5 0.22885108E-01 0.13645569E+03</pdfrwt>
<pdfrwt beam="1">  1       -5 0.19725357E-01 0.13645569E+03</pdfrwt>
<totfact> 0.30997441E+02</totfact>
</mgrwt>
</event>
<event>
 8    1  0.3694627E-007  0.1292500E+03  0.7546771E-02  0.1228579E+00
          5   -1    0    0  501    0  0.00000000000E+00  0.00000000000E+00  0.32163170680E+03  0.32166604549E+03  0.47000000000E+01 0. -1.
         -5   -1    0    0    0  501 -0.00000000000E+00 -0.00000000000E+00 -0.51796033673E+02  0.52008836790E+02  0.47000000000E+01 0. -1.
         25    2    1    2    0    0  0.24657512784E+02 -0.21658205434E+02  0.13695798418E+03  0.18830487565E+03  0.12499666382E+03 0.  0.
         25    2    1    2    0    0 -0.24657512784E+02  0.21658205434E+02  0.13287768895E+03  0.18537000663E+03  0.12501395257E+03 0.  0.
          5    1    3    3  502    0  0.13036430782E+02 -0.19839322385E+02 -0.19657624166E+02  0.31177867600E+02  0.47000000000E+01 0.  1.
         -5    1    3    3    0  502  0.11621082002E+02 -0.18188830487E+01  0.15661560835E+03  0.15712700805E+03  0.47000000000E+01 0.  1.
          5    1    4    4  503    0  0.30778749796E+01 -0.49376137541E+02  0.72955420123E+02  0.88272643544E+02  0.47000000000E+01 0. -1.
         -5    1    4    4    0  503 -0.27735387764E+02  0.71034342975E+02  0.59922268828E+02  0.97097363084E+02  0.47000000000E+01 0. -1.
<mgrwt>
<rscale>  0 0.12924581E+03</rscale>
<asrwt>0</asrwt>
<pdfrwt beam="1">  1        5 0.49500813E-01 0.12924999E+03</pdfrwt>
<pdfrwt beam="2">  1       -5 0.79876313E-02 0.12924999E+03</pdfrwt>
<totfact> 0.32627289E+02</totfact>
</mgrwt>
</event>
<event>
 8    1  0.3694627E-007  0.1305550E+03  0.7546771E-02  0.1226635E+00
         -5   -1    0    0    0  501 -0.00000000000E+00  0.00000000000E+00  0.30632730551E+03  0.30636335959E+03  0.47000000000E+01 0. -1.
          5   -1    0    0  501    0  0.00000000000E+00 -0.00000000000E+00 -0.63531367719E+02  0.63704981628E+02  0.47000000000E+01 0. -1.
         25    2    1    2    0    0 -0.36347372791E+02  0.98952403082E+01  0.18705958145E+03  0.22811360221E+03  0.12500192484E+03 0.  0.
         25    2    1    2    0    0  0.36347372791E+02 -0.98952403082E+01  0.55736356346E+02  0.14195473901E+03  0.12500223686E+03 0.  0.
          5    1    4    4  502    0 -0.28576079802E+02 -0.47310069570E+02  0.23074093076E+02  0.60077772852E+02  0.47000000000E+01 0. -1.
         -5    1    4    4    0  502  0.64923452593E+02  0.37414829262E+02  0.32662263270E+02  0.81876966158E+02  0.47000000000E+01 0. -1.
          5    1    3    3  503    0  0.22600630310E+02  0.44358401977E+02  0.34062313815E+02  0.60504442306E+02  0.47000000000E+01 0.  1.
         -5    1    3    3    0  503 -0.58948003101E+02 -0.34463161669E+02  0.15299726763E+03  0.16760915991E+03  0.47000000000E+01 0.  1.
<mgrwt>
<rscale>  0 0.13055492E+03</rscale>
<asrwt>0</asrwt>
<pdfrwt beam="2">  1        5 0.97901847E-02 0.13055499E+03</pdfrwt>
<pdfrwt beam="1">  1       -5 0.47143407E-01 0.13055499E+03</pdfrwt>
<totfact> 0.25540164E+02</totfact>
</mgrwt>
</event>
<event>
 8    1  0.3694627E-007  0.1270688E+03  0.7546771E-02  0.1231873E+00
         -5   -1    0    0    0  501 -0.00000000000E+00  0.00000000000E+00  0.14613248776E+03  0.14620805032E+03  0.47000000000E+01 0. -1.
          5   -1    0    0  501    0  0.00000000000E+00 -0.00000000000E+00 -0.16243442094E+03  0.16250240339E+03  0.47000000000E+01 0. -1.
         25    2    1    2    0    0  0.18414532084E+02  0.13498634133E+02  0.79224593514E+02  0.14973938693E+03  0.12499615860E+03 0.  0.
         25    2    1    2    0    0 -0.18414532084E+02 -0.13498634133E+02 -0.95526526696E+02  0.15897106678E+03  0.12500069862E+03 0.  0.
          5    1    3    3  502    0  0.89948026732E+01  0.63904947722E+02  0.13250979405E+02  0.66048673519E+02  0.47000000000E+01 0. -1.
         -5    1    3    3    0  502  0.94197294107E+01 -0.50406313589E+02  0.65973614110E+02  0.83690713407E+02  0.47000000000E+01 0. -1.
          5    1    4    4  503    0 -0.43318257753E+02 -0.13664416807E+01 -0.11618635236E+03  0.12409551600E+03  0.47000000000E+01 0. -1.
         -5    1    4    4    0  503  0.24903725669E+02 -0.12132192452E+02  0.20659825661E+02  0.34875550780E+02  0.47000000000E+01 0. -1.
<mgrwt>
<rscale>  0 0.12706769E+03</rscale>
<asrwt>0</asrwt>
<pdfrwt beam="2">  1        5 0.25000953E-01 0.12706881E+03</pdfrwt>
<pdfrwt beam="1">  1       -5 0.22492963E-01 0.12706881E+03</pdfrwt>
<totfact> 0.19966968E+02</totfact>
</mgrwt>
</event>
<event>
 8    1  0.3694627E-007  0.1694478E+03  0.7546771E-02  0.1178427E+00
         -5   -1    0    0    0  501 -0.00000000000E+00  0.00000000000E+00  0.55262727057E+03  0.55264725655E+03  0.47000000000E+01 0.  1.
          5   -1    0    0  501    0  0.00000000000E+00 -0.00000000000E+00 -0.52566226193E+02  0.52775923831E+02  0.47000000000E+01 0.  1.
         25    2    1    2    0    0 -0.26654475429E+02 -0.11124952602E+03  0.28584618540E+03  0.33229216507E+03  0.12499249240E+03 0.  0.
         25    2    1    2    0    0  0.26654475429E+02  0.11124952602E+03  0.21421485897E+03  0.27313101531E+03  0.12500251046E+03 0.  0.
          5    1    4    4  502    0 -0.31545752649E+02  0.55546439075E+02  0.16877191347E+03  0.18051756197E+03  0.47000000000E+01 0. -1.
         -5    1    4    4    0  502  0.58200228077E+02  0.55703086949E+02  0.45442945500E+02  0.92613453340E+02  0.47000000000E+01 0. -1.
          5    1    3    3  503    0 -0.26677676533E+02 -0.12812460471E+03  0.16730337241E+03  0.21246204644E+03  0.47000000000E+01 0.  1.
         -5    1    3    3    0  503  0.23201103988E-01  0.16875078684E+02  0.11854281300E+03  0.11983011863E+03  0.47000000000E+01 0.  1.
<mgrwt>
<rscale>  0 0.16944592E+03</rscale>
<asrwt>0</asrwt>
<pdfrwt beam="2">  1        5 0.81047793E-02 0.16944777E+03</pdfrwt>
<pdfrwt beam="1">  1       -5 0.85037252E-01 0.16944777E+03</pdfrwt>
<totfact> 0.10416772E+02</totfact>
</mgrwt>
</event>
<event>
 8    1  0.3694627E-007  0.1511826E+03  0.7546771E-02  0.1199028E+00
          5   -1    0    0  501    0  0.00000000000E+00  0.00000000000E+00  0.11902479696E+03  0.11911755661E+03  0.47000000000E+01 0. -1.
         -5   -1    0    0    0  501 -0.00000000000E+00 -0.00000000000E+00 -0.19327584798E+03  0.19333298584E+03  0.47000000000E+01 0. -1.
         25    2    1    2    0    0  0.51587310288E+02 -0.67606694027E+02 -0.50628537690E+02  0.15943468072E+03  0.12499701168E+03 0.  0.
         25    2    1    2    0    0 -0.51587310288E+02  0.67606694027E+02 -0.23622513327E+02  0.15301586172E+03  0.12499566049E+03 0.  0.
          5    1    4    4  502    0 -0.33139551253E+02  0.77891362672E+02  0.34093687896E+02  0.91377041923E+02  0.47000000000E+01 0.  1.
         -5    1    4    4    0  502 -0.18447759035E+02 -0.10284668646E+02 -0.57716201222E+02  0.61638819798E+02  0.47000000000E+01 0.  1.
          5    1    3    3  503    0  0.84207341790E+02 -0.41011851282E+02 -0.46110652948E+00  0.93782466251E+02  0.47000000000E+01 0.  1.
         -5    1    3    3    0  503 -0.32620031501E+02 -0.26594842745E+02 -0.50167431161E+02  0.65652214472E+02  0.47000000000E+01 0.  1.
<mgrwt>
<rscale>  0 0.15118229E+03</rscale>
<asrwt>0</asrwt>
<pdfrwt beam="1">  1        5 0.18323038E-01 0.15118257E+03</pdfrwt>
<pdfrwt beam="2">  1       -5 0.29746276E-01 0.15118257E+03</pdfrwt>
<totfact> 0.22192925E+02</totfact>
</mgrwt>
</event>
<event>
 8    1  0.3694627E-007  0.1390518E+03  0.7546771E-02  0.1214614E+00
          5   -1    0    0  501    0  0.00000000000E+00  0.00000000000E+00  0.74971122714E+03  0.74972595933E+03  0.47000000000E+01 0. -1.
         -5   -1    0    0    0  501 -0.00000000000E+00 -0.00000000000E+00 -0.34562878542E+02  0.34880977238E+02  0.47000000000E+01 0. -1.
         25    2    1    2    0    0  0.34979324860E+02 -0.49864509017E+02  0.15845281707E+03  0.21080791186E+03  0.12499063180E+03 0.  0.
         25    2    1    2    0    0 -0.34979324860E+02  0.49864509017E+02  0.55669553152E+03  0.57379902471E+03  0.12500153404E+03 0.  0.
          5    1    3    3  502    0  0.49143235779E+02 -0.83483418540E+02  0.13814532854E+03  0.16879206318E+03  0.47000000000E+01 0. -1.
         -5    1    3    3    0  502 -0.14163910919E+02  0.33618909523E+02  0.20307488529E+02  0.42015848681E+02  0.47000000000E+01 0. -1.
          5    1    4    4  503    0 -0.18630539858E+02 -0.28199173470E+02  0.48147525757E+02  0.59013258140E+02  0.47000000000E+01 0.  1.
         -5    1    4    4    0  503 -0.16348785002E+02  0.78063682487E+02  0.50854800577E+03  0.51478576657E+03  0.47000000000E+01 0.  1.
<mgrwt>
<rscale>  0 0.13904936E+03</rscale>
<asrwt>0</asrwt>
<pdfrwt beam="1">  1        5 0.11536578E+00 0.13905181E+03</pdfrwt>
<pdfrwt beam="2">  1       -5 0.53429686E-02 0.13905181E+03</pdfrwt>
<totfact> 0.94566839E+01</totfact>
</mgrwt>
</event>
<event>
 8    1  0.3694627E-007  0.1839308E+03  0.7546771E-02  0.1164053E+00
         -5   -1    0    0    0  501 -0.00000000000E+00  0.00000000000E+00  0.25931077564E+03  0.25935336582E+03  0.47000000000E+01 0. -1.
          5   -1    0    0  501    0  0.00000000000E+00 -0.00000000000E+00 -0.14732017138E+03  0.14739512507E+03  0.47000000000E+01 0. -1.
         25    2    1    2    0    0  0.98799443998E+02  0.91891795800E+02  0.12495884451E+03  0.22236108834E+03  0.12499723404E+03 0.  0.
         25    2    1    2    0    0 -0.98799443998E+02 -0.91891795800E+02 -0.12968240245E+02  0.18438740256E+03  0.12500042679E+03 0.  0.
          5    1    3    3  502    0 -0.28099986663E+02  0.18867632002E+02  0.84736604280E+01  0.35206387330E+02  0.47000000000E+01 0.  1.
         -5    1    3    3    0  502  0.12689943066E+03  0.73024163798E+02  0.11648518408E+03  0.18715470101E+03  0.47000000000E+01 0.  1.
          5    1    4    4  503    0 -0.10032569844E+03 -0.11167386571E+02  0.62912050578E+01  0.10125031137E+03  0.47000000000E+01 0. -1.
         -5    1    4    4    0  503  0.15262544461E+01 -0.80724409229E+02 -0.19259445303E+02  0.83137091189E+02  0.47000000000E+01 0. -1.
<mgrwt>
<rscale>  0 0.18393026E+03</rscale>
<asrwt>0</asrwt>
<pdfrwt beam="2">  1        5 0.22673684E-01 0.18393080E+03</pdfrwt>
<pdfrwt beam="1">  1       -5 0.39903007E-01 0.18393080E+03</pdfrwt>
<totfact> 0.87579571E+01</totfact>
</mgrwt>
</event>
<event>
 8    1  0.3694627E-007  0.1308209E+03  0.7546771E-02  0.1226248E+00
         -5   -1    0    0    0  501 -0.00000000000E+00  0.00000000000E+00  0.16060141042E+04  0.16060209815E+04  0.47000000000E+01 0. -1.
          5   -1    0    0  501    0  0.00000000000E+00 -0.00000000000E+00 -0.10538641092E+02  0.11539192175E+02  0.47000000000E+01 0. -1.
         25    2    1    2    0    0 -0.88408946043E+01  0.37513429591E+02  0.94991563908E+03  0.95888155735E+03  0.12501480243E+03 0.  0.
         25    2    1    2    0    0  0.88408946043E+01 -0.37513429591E+02  0.64555982406E+03  0.65867861633E+03  0.12499845738E+03 0.  0.
          5    1    3    3  502    0 -0.31537904006E+02 -0.39229267504E+02  0.38585192960E+03  0.38914955530E+03  0.47000000000E+01 0. -1.
         -5    1    3    3    0  502  0.22697009402E+02  0.76742697095E+02  0.56406370948E+03  0.56973200204E+03  0.47000000000E+01 0. -1.
          5    1    4    4  503    0 -0.14081625173E+01  0.29719008871E+02  0.46012514457E+03  0.46111000974E+03  0.47000000000E+01 0.  1.
         -5    1    4    4    0  503  0.10249057122E+02 -0.67232438461E+02  0.18543467949E+03  0.19756860659E+03  0.47000000000E+01 0.  1.
<mgrwt>
<rscale>  0 0.13081704E+03</rscale>
<asrwt>0</asrwt>
<pdfrwt beam="2">  1        5 0.16988253E-02 0.13082094E+03</pdfrwt>
<pdfrwt beam="1">  1       -5 0.24715637E+00 0.13082094E+03</pdfrwt>
<totfact> 0.63873527E+01</totfact>
</mgrwt>
</event>
<event>
 8    1  0.3694627E-007  0.1489654E+03  0.7546771E-02  0.1201752E+00
         -5   -1    0    0    0  501 -0.00000000000E+00  0.00000000000E+00  0.70547400785E+02  0.70703788848E+02  0.47000000000E+01 0.  1.
          5   -1    0    0  501    0  0.00000000000E+00 -0.00000000000E+00 -0.37830342680E+03  0.37833262181E+03  0.47000000000E+01 0.  1.
         25    2    1    2    0    0  0.80994013293E+02 -0.23265049384E+01 -0.61350166660E+02  0.16110410958E+03  0.12500099343E+03 0.  0.
         25    2    1    2    0    0 -0.80994013293E+02  0.23265049384E+01 -0.24640585935E+03  0.28793230109E+03  0.12499487858E+03 0.  0.
          5    1    3    3  502    0  0.16124891421E+02  0.20384498499E+02  0.34260486968E+02  0.43259806630E+02  0.47000000000E+01 0.  1.
         -5    1    3    3    0  502  0.64869121872E+02 -0.22711003438E+02 -0.95610653628E+02  0.11784430295E+03  0.47000000000E+01 0.  1.
          5    1    4    4  503    0 -0.17281913426E+02  0.49254159540E+02 -0.37360757328E+02  0.64362667376E+02  0.47000000000E+01 0. -1.
         -5    1    4    4    0  503 -0.63712099867E+02 -0.46927654602E+02 -0.20904510203E+03  0.22356963371E+03  0.47000000000E+01 0. -1.
<mgrwt>
<rscale>  0 0.14896412E+03</rscale>
<asrwt>0</asrwt>
<pdfrwt beam="2">  1        5 0.58214802E-01 0.14896540E+03</pdfrwt>
<pdfrwt beam="1">  1       -5 0.10867722E-01 0.14896540E+03</pdfrwt>
<totfact> 0.14165075E+02</totfact>
</mgrwt>
</event>
<event>
 8    1  0.3694627E-007  0.1301239E+03  0.7546771E-02  0.1227273E+00
          5   -1    0    0  501    0  0.00000000000E+00  0.00000000000E+00  0.13231723770E+02  0.14041670624E+02  0.47000000000E+01 0. -1.
         -5   -1    0    0    0  501 -0.00000000000E+00 -0.00000000000E+00 -0.13274293623E+04  0.13274376829E+04  0.47000000000E+01 0. -1.
         25    2    1    2    0    0 -0.15952500606E+02  0.32432910590E+02 -0.82837575651E+03  0.83853361401E+03  0.12500340750E+03 0.  0.
         25    2    1    2    0    0  0.15952500606E+02 -0.32432910590E+02 -0.48582188206E+03  0.50294573952E+03  0.12500055940E+03 0.  0.
          5    1    4    4  502    0 -0.85727316437E+00  0.16387444428E+01  0.70040214286E+01  0.86352021864E+01  0.47000000000E+01 0.  1.
         -5    1    4    4    0  502  0.16809773770E+02 -0.34071655033E+02 -0.49282590349E+03  0.49431053733E+03  0.47000000000E+01 0.  1.
          5    1    3    3  503    0 -0.31422709466E+02  0.50931055675E+02 -0.79408137004E+03  0.79634707970E+03  0.47000000000E+01 0. -1.
         -5    1    3    3    0  503  0.15470208860E+02 -0.18498145084E+02 -0.34294386470E+02  0.42186534310E+02  0.47000000000E+01 0. -1.
<mgrwt>
<rscale>  0 0.13012321E+03</rscale>
<asrwt>0</asrwt>
<pdfrwt beam="1">  1        5 0.20985945E-02 0.13012389E+03</pdfrwt>
<pdfrwt beam="2">  1       -5 0.20428274E+00 0.13012389E+03</pdfrwt>
<totfact> 0.86497590E+01</totfact>
</mgrwt>
</event>
<event>
 8    1  0.3694627E-007  0.1903851E+03  0.7546771E-02  0.1158116E+00
         -5   -1    0    0    0  501 -0.00000000000E+00  0.00000000000E+00  0.13811711593E+04  0.13811791561E+04  0.47000000000E+01 0. -1.
          5   -1    0    0  501    0  0.00000000000E+00 -0.00000000000E+00 -0.29235012401E+02  0.29610402734E+02  0.47000000000E+01 0. -1.
         25    2    1    2    0    0  0.26642487510E+01 -0.14356808804E+03  0.90813803825E+03  0.92787834151E+03  0.12499850402E+03 0.  0.
         25    2    1    2    0    0 -0.26642487510E+01  0.14356808804E+03  0.44379810869E+03  0.48291121737E+03  0.12501035343E+03 0.  0.
          5    1    3    3  502    0 -0.55143337823E+02 -0.10214675994E+03  0.63832521446E+03  0.64881115719E+03  0.47000000000E+01 0.  1.
         -5    1    3    3    0  502  0.57807586574E+02 -0.41421328102E+02  0.26981282378E+03  0.27906718432E+03  0.47000000000E+01 0.  1.
          5    1    4    4  503    0 -0.12870891568E+02 -0.30666095073E+01  0.18274454329E+03  0.18328317448E+03  0.47000000000E+01 0. -1.
         -5    1    4    4    0  503  0.10206642817E+02  0.14663469755E+03  0.26105356539E+03  0.29962804289E+03  0.47000000000E+01 0. -1.
<mgrwt>
<rscale>  0 0.19038315E+03</rscale>
<asrwt>0</asrwt>
<pdfrwt beam="2">  1        5 0.45271861E-02 0.19038509E+03</pdfrwt>
<pdfrwt beam="1">  1       -5 0.21251734E+00 0.19038509E+03</pdfrwt>
<totfact> 0.24225794E+01</totfact>
</mgrwt>
</event>
<event>
 8    1  0.3694627E-007  0.1862725E+03  0.7546771E-02  0.1161869E+00
         -5   -1    0    0    0  501 -0.00000000000E+00  0.00000000000E+00  0.17389187628E+02  0.18013157590E+02  0.47000000000E+01 0. -1.
          5   -1    0    0  501    0  0.00000000000E+00 -0.00000000000E+00 -0.21304996871E+04  0.21305048713E+04  0.47000000000E+01 0. -1.
         25    2    1    2    0    0  0.14036084835E+02 -0.13739058121E+03 -0.75224735685E+03  0.77496678803E+03  0.12499701264E+03 0.  0.
         25    2    1    2    0    0 -0.14036084835E+02  0.13739058121E+03 -0.13608631426E+04  0.13735512409E+04  0.12498533881E+03 0.  0.
          5    1    3    3  502    0  0.43726669299E+02 -0.70039470613E+02 -0.60133671936E+03  0.60699710799E+03  0.47000000000E+01 0. -1.
         -5    1    3    3    0  502 -0.29690584464E+02 -0.67351110601E+02 -0.15091063749E+03  0.16796968004E+03  0.47000000000E+01 0. -1.
          5    1    4    4  503    0  0.25987652170E+02 -0.45088725544E+01 -0.45217107028E+03  0.45296407672E+03  0.47000000000E+01 0.  1.
         -5    1    4    4    0  503 -0.40023737005E+02  0.14189945377E+03 -0.90869207232E+03  0.92058716416E+03  0.47000000000E+01 0.  1.
<mgrwt>
<rscale>  0 0.18627052E+03</rscale>
<asrwt>0</asrwt>
<pdfrwt beam="2">  1        5 0.32781738E+00 0.18627248E+03</pdfrwt>
<pdfrwt beam="1">  1       -5 0.27236578E-02 0.18627248E+03</pdfrwt>
<totfact> 0.10029648E+01</totfact>
</mgrwt>
</event>
<event>
 8    1  0.3694627E-007  0.1307899E+03  0.7546771E-02  0.1226289E+00
          5   -1    0    0  501    0  0.00000000000E+00  0.00000000000E+00  0.35907739483E+03  0.35910815289E+03  0.47000000000E+01 0. -1.
         -5   -1    0    0    0  501 -0.00000000000E+00 -0.00000000000E+00 -0.50364104074E+02  0.50582931698E+02  0.47000000000E+01 0. -1.
         25    2    1    2    0    0 -0.23832968835E+02 -0.30206912366E+02  0.10554269106E+03  0.16806269714E+03  0.12500137029E+03 0.  0.
         25    2    1    2    0    0  0.23832968835E+02  0.30206912366E+02  0.20317059969E+03  0.24162838746E+03  0.12500206834E+03 0.  0.
          5    1    3    3  502    0  0.26297972611E+02  0.37112531698E+02  0.47313628256E+02  0.65799641270E+02  0.47000000000E+01 0. -1.
         -5    1    3    3    0  502 -0.50130941446E+02 -0.67319444065E+02  0.58229062807E+02  0.10226305587E+03  0.47000000000E+01 0. -1.
          5    1    4    4  503    0 -0.12976990148E+02  0.28862763686E+02 -0.30066218584E+01  0.32133956742E+02  0.47000000000E+01 0. -1.
         -5    1    4    4    0  503  0.36809958984E+02  0.13441486808E+01  0.20617722155E+03  0.20949443072E+03  0.47000000000E+01 0. -1.
<mgrwt>
<rscale>  0 0.13078968E+03</rscale>
<asrwt>0</asrwt>
<pdfrwt beam="1">  1        5 0.55261877E-01 0.13078985E+03</pdfrwt>
<pdfrwt beam="2">  1       -5 0.77675224E-02 0.13078985E+03</pdfrwt>
<totfact> 0.27177202E+02</totfact>
</mgrwt>
</event>
<event>
 8    1  0.3694627E-007  0.2424869E+03  0.7546771E-02  0.1118147E+00
          5   -1    0    0  501    0  0.00000000000E+00  0.00000000000E+00  0.17688496521E+02  0.18302265138E+02  0.47000000000E+01 0. -1.
         -5   -1    0    0    0  501 -0.00000000000E+00 -0.00000000000E+00 -0.36043071428E+04  0.36043102072E+04  0.47000000000E+01 0. -1.
         25    2    1    2    0    0  0.18745765358E+03 -0.89637598903E+02 -0.12391447729E+04  0.12626478863E+04  0.12499858171E+03 0.  0.
         25    2    1    2    0    0 -0.18745765358E+03  0.89637598903E+02 -0.23474738733E+04  0.23599645860E+04  0.12499596119E+03 0.  0.
          5    1    4    4  502    0 -0.26052416691E+02 -0.30445969143E+02 -0.47428163596E+03  0.47599458574E+03  0.47000000000E+01 0.  1.
         -5    1    4    4    0  502 -0.16140523688E+03  0.12008356805E+03 -0.18731922374E+04  0.18839700003E+04  0.47000000000E+01 0.  1.
          5    1    3    3  503    0  0.12124000060E+03 -0.93501395581E+02 -0.57055580632E+03  0.59076024481E+03  0.47000000000E+01 0.  1.
         -5    1    3    3    0  503  0.66217652979E+02  0.38637966787E+01 -0.66858896663E+03  0.67188764149E+03  0.47000000000E+01 0.  1.
<mgrwt>
<rscale>  0 0.24248660E+03</rscale>
<asrwt>0</asrwt>
<pdfrwt beam="1">  1        5 0.27687587E-02 0.24248694E+03</pdfrwt>
<pdfrwt beam="2">  1       -5 0.55455566E+00 0.24248694E+03</pdfrwt>
<totfact> 0.20092117E-01</totfact>
</mgrwt>
</event>
<event>
 8    1  0.3694627E-007  0.1300698E+03  0.7546771E-02  0.1227355E+00
         -5   -1    0    0    0  501 -0.00000000000E+00  0.00000000000E+00  0.76900299148E+02  0.77043792800E+02  0.47000000000E+01 0. -1.
          5   -1    0    0  501    0  0.00000000000E+00 -0.00000000000E+00 -0.23217430842E+03  0.23222187557E+03  0.47000000000E+01 0. -1.
         25    2    1    2    0    0 -0.29725011898E+02 -0.20215047568E+02 -0.41690792836E+02  0.13658796123E+03  0.12500369781E+03 0.  0.
         25    2    1    2    0    0  0.29725011898E+02  0.20215047568E+02 -0.11358321644E+03  0.17267770714E+03  0.12499687598E+03 0.  0.
          5    1    4    4  502    0  0.63189726601E+02 -0.81076561985E+01 -0.16389029449E+02  0.65949722693E+02  0.47000000000E+01 0.  1.
         -5    1    4    4    0  502 -0.33464714703E+02  0.28322703767E+02 -0.97194186990E+02  0.10672798444E+03  0.47000000000E+01 0.  1.
          5    1    3    3  503    0 -0.38380934427E+02 -0.65160321279E+02 -0.48663091486E+02  0.90050819373E+02  0.47000000000E+01 0. -1.
         -5    1    3    3    0  503  0.86559225288E+01  0.44945273711E+02  0.69722986497E+01  0.46537141858E+02  0.47000000000E+01 0. -1.
<mgrwt>
<rscale>  0 0.13006815E+03</rscale>
<asrwt>0</asrwt>
<pdfrwt beam="2">  1        5 0.35733821E-01 0.13006978E+03</pdfrwt>
<pdfrwt beam="1">  1       -5 0.11845512E-01 0.13006978E+03</pdfrwt>
<totfact> 0.32236039E+02</totfact>
</mgrwt>
</event>
<event>
 8    1  0.3694627E-007  0.1307234E+03  0.7546771E-02  0.1226388E+00
          5   -1    0    0  501    0  0.00000000000E+00  0.00000000000E+00  0.12987181735E+03  0.12995683492E+03  0.47000000000E+01 0.  1.
         -5   -1    0    0    0  501 -0.00000000000E+00 -0.00000000000E+00 -0.13486884791E+03  0.13495071744E+03  0.47000000000E+01 0.  1.
         25    2    1    2    0    0  0.29544625295E+02 -0.24266980553E+02 -0.23713130028E+02  0.13285671574E+03  0.12500729240E+03 0.  0.
         25    2    1    2    0    0 -0.29544625295E+02  0.24266980553E+02  0.18716099473E+02  0.13205083662E+03  0.12500143936E+03 0.  0.
          5    1    3    3  502    0 -0.21209532153E+02  0.31279936221E+02 -0.40529394286E+02  0.55614750429E+02  0.47000000000E+01 0.  1.
         -5    1    3    3    0  502  0.50754157448E+02 -0.55546916774E+02  0.16816264257E+02  0.77241965310E+02  0.47000000000E+01 0.  1.
          5    1    4    4  503    0  0.42889574951E+02 -0.17967213316E+02  0.65066540145E+01  0.47188589090E+02  0.47000000000E+01 0.  1.
         -5    1    4    4    0  503 -0.72434200246E+02  0.42234193868E+02  0.12209445459E+02  0.84862247528E+02  0.47000000000E+01 0.  1.
<mgrwt>
<rscale>  0 0.13072195E+03</rscale>
<asrwt>0</asrwt>
<pdfrwt beam="1">  1        5 0.19993117E-01 0.13072335E+03</pdfrwt>
<pdfrwt beam="2">  1       -5 0.20761891E-01 0.13072335E+03</pdfrwt>
<totfact> 0.35768716E+02</totfact>
</mgrwt>
</event>
<event>
 8    1  0.3694627E-007  0.1295367E+03  0.7546771E-02  0.1228150E+00
          5   -1    0    0  501    0  0.00000000000E+00  0.00000000000E+00  0.99335443947E+02  0.99446570701E+02  0.47000000000E+01 0.  1.
         -5   -1    0    0    0  501 -0.00000000000E+00 -0.00000000000E+00 -0.17469219074E+03  0.17475540479E+03  0.47000000000E+01 0.  1.
         25    2    1    2    0    0  0.33619875408E+02  0.46702522608E+01 -0.63134127019E+02  0.14410298378E+03  0.12501057820E+03 0.  0.
         25    2    1    2    0    0 -0.33619875408E+02 -0.46702522608E+01 -0.12222619769E+02  0.13009899171E+03  0.12499699169E+03 0.  0.
          5    1    3    3  502    0  0.80516279136E+02 -0.45099667004E+01 -0.32063467454E+02  0.86910108450E+02  0.47000000000E+01 0. -1.
         -5    1    3    3    0  502 -0.46896403728E+02  0.91802189612E+01 -0.31070659564E+02  0.57192875330E+02  0.47000000000E+01 0. -1.
          5    1    4    4  503    0 -0.41813714733E+02  0.20065466363E+02  0.46400789014E+02  0.65773344914E+02  0.47000000000E+01 0. -1.
         -5    1    4    4    0  503  0.81938393249E+01 -0.24735718624E+02 -0.58623408783E+02  0.64325646798E+02  0.47000000000E+01 0. -1.
<mgrwt>
<rscale>  0 0.12953340E+03</rscale>
<asrwt>0</asrwt>
<pdfrwt beam="1">  1        5 0.15295787E-01 0.12953668E+03</pdfrwt>
<pdfrwt beam="2">  1       -5 0.26889133E-01 0.12953668E+03</pdfrwt>
<totfact> 0.35662543E+02</totfact>
</mgrwt>
</event>
<event>
 8    1  0.3694627E-007  0.1251063E+03  0.7546771E-02  0.1234907E+00
          5   -1    0    0  501    0  0.00000000000E+00  0.00000000000E+00  0.10680705011E+02  0.11669081349E+02  0.47000000000E+01 0.  1.
         -5   -1    0    0    0  501 -0.00000000000E+00 -0.00000000000E+00 -0.15052355587E+04  0.15052428964E+04  0.47000000000E+01 0.  1.
         25    2    1    2    0    0  0.47239672987E+01 -0.98090932632E+00 -0.94824617391E+03  0.95646348036E+03  0.12501321879E+03 0.  0.
         25    2    1    2    0    0 -0.47239672987E+01  0.98090932632E+00 -0.54630867976E+03  0.56044849738E+03  0.12500426625E+03 0.  0.
          5    1    3    3  502    0  0.12971940769E+01  0.34193596757E+01 -0.94910133469E+03  0.94912001783E+03  0.47000000000E+01 0. -1.
         -5    1    3    3    0  502  0.34267732218E+01 -0.44002690021E+01  0.85516077687E+00  0.73434625320E+01  0.47000000000E+01 0. -1.
          5    1    4    4  503    0 -0.15327719570E+02  0.58389101025E+02 -0.36286186853E+03  0.36787912654E+03  0.47000000000E+01 0. -1.
         -5    1    4    4    0  503  0.10603752272E+02 -0.57408191699E+02 -0.18344681123E+03  0.19256937084E+03  0.47000000000E+01 0. -1.
<mgrwt>
<rscale>  0 0.12510405E+03</rscale>
<asrwt>0</asrwt>
<pdfrwt beam="1">  1        5 0.17197800E-02 0.12510629E+03</pdfrwt>
<pdfrwt beam="2">  1       -5 0.23165113E+00 0.12510629E+03</pdfrwt>
<totfact> 0.77585539E+01</totfact>
</mgrwt>
</event>
<event>
 8    1  0.3694627E-007  0.1347272E+03  0.7546771E-02  0.1220608E+00
          5   -1    0    0  501    0  0.00000000000E+00  0.00000000000E+00  0.11541339831E+03  0.11550905812E+03  0.47000000000E+01 0. -1.
         -5   -1    0    0    0  501 -0.00000000000E+00 -0.00000000000E+00 -0.16195198806E+03  0.16202017293E+03  0.47000000000E+01 0. -1.
         25    2    1    2    0    0 -0.22012916374E+02 -0.45174704274E+02 -0.47354062161E+02  0.14280697804E+03  0.12500441345E+03 0.  0.
         25    2    1    2    0    0  0.22012916374E+02  0.45174704274E+02  0.81547241002E+00  0.13472225301E+03  0.12499639222E+03 0.  0.
          5    1    3    3  502    0 -0.49305265156E+02 -0.59244422334E+02 -0.70110656512E+02  0.10430007146E+03  0.47000000000E+01 0. -1.
         -5    1    3    3    0  502  0.27292348782E+02  0.14069718060E+02  0.22756594351E+02  0.38506906585E+02  0.47000000000E+01 0. -1.
          5    1    4    4  503    0  0.28819595979E+02 -0.26717203549E+02 -0.36024469045E+02  0.53518505658E+02  0.47000000000E+01 0.  1.
         -5    1    4    4    0  503 -0.68066796053E+01  0.71891907823E+02  0.36839941455E+02  0.81203747353E+02  0.47000000000E+01 0.  1.
<mgrwt>
<rscale>  0 0.13472537E+03</rscale>
<asrwt>0</asrwt>
<pdfrwt beam="1">  1        5 0.17768511E-01 0.13472723E+03</pdfrwt>
<pdfrwt beam="2">  1       -5 0.24928294E-01 0.13472723E+03</pdfrwt>
<totfact> 0.31820434E+02</totfact>
</mgrwt>
</event>
<event>
 8    1  0.3694627E-007  0.1952348E+03  0.7546771E-02  0.1153826E+00
          5   -1    0    0  501    0  0.00000000000E+00  0.00000000000E+00  0.12680403619E+04  0.12680490722E+04  0.47000000000E+01 0. -1.
         -5   -1    0    0    0  501 -0.00000000000E+00 -0.00000000000E+00 -0.32624398208E+02  0.32961209905E+02  0.47000000000E+01 0. -1.
         25    2    1    2    0    0  0.14802680145E+03  0.24059444519E+02  0.42952026934E+03  0.47180314339E+03  0.12497901234E+03 0.  0.
         25    2    1    2    0    0 -0.14802680145E+03 -0.24059444519E+02  0.80589569439E+03  0.82920713871E+03  0.12500327129E+03 0.  0.
          5    1    3    3  502    0  0.11697573875E+03  0.71665336861E+02  0.28170545160E+03  0.31336766812E+03  0.47000000000E+01 0. -1.
         -5    1    3    3    0  502  0.31051062695E+02 -0.47605892343E+02  0.14781481774E+03  0.15843547527E+03  0.47000000000E+01 0. -1.
          5    1    4    4  503    0 -0.10067894833E+03 -0.71163072640E+01  0.73638448109E+03  0.74328398776E+03  0.47000000000E+01 0. -1.
         -5    1    4    4    0  503 -0.47347853120E+02 -0.16943137255E+02  0.69511213295E+02  0.85923150948E+02  0.47000000000E+01 0. -1.
<mgrwt>
<rscale>  0 0.19523087E+03</rscale>
<asrwt>0</asrwt>
<pdfrwt beam="1">  1        5 0.19510973E+00 0.19523475E+03</pdfrwt>
<pdfrwt beam="2">  1       -5 0.50457164E-02 0.19523475E+03</pdfrwt>
<totfact> 0.26695646E+01</totfact>
</mgrwt>
</event>
<event>
 8    1  0.3694627E-007  0.2409897E+03  0.7546771E-02  0.1119136E+00
          5   -1    0    0  501    0  0.00000000000E+00  0.00000000000E+00  0.93573010081E+02  0.93690971901E+02  0.47000000000E+01 0.  1.
         -5   -1    0    0    0  501 -0.00000000000E+00 -0.00000000000E+00 -0.83290382319E+03  0.83291708392E+03  0.47000000000E+01 0.  1.
         25    2    1    2    0    0 -0.19721554759E+03 -0.59634181815E+02 -0.60381687445E+03  0.65013140040E+03  0.12500324822E+03 0.  0.
         25    2    1    2    0    0  0.19721554759E+03  0.59634181815E+02 -0.13551393866E+03  0.27647665542E+03  0.12500042227E+03 0.  0.
          5    1    4    4  502    0  0.20807688333E+03  0.39609522535E+02 -0.13836051608E+03  0.25304273564E+03  0.47000000000E+01 0. -1.
         -5    1    4    4    0  502 -0.10861335734E+02  0.20024659280E+02  0.28465774180E+01  0.23433919779E+02  0.47000000000E+01 0. -1.
          5    1    3    3  503    0 -0.20626588324E+03 -0.29254382034E+02 -0.50720073319E+03  0.54833940876E+03  0.47000000000E+01 0. -1.
         -5    1    3    3    0  503  0.90503356416E+01 -0.30379799781E+02 -0.96616141255E+02  0.10179199163E+03  0.47000000000E+01 0. -1.
<mgrwt>
<rscale>  0 0.24098930E+03</rscale>
<asrwt>0</asrwt>
<pdfrwt beam="1">  1        5 0.14405942E-01 0.24098967E+03</pdfrwt>
<pdfrwt beam="2">  1       -5 0.12814914E+00 0.24098967E+03</pdfrwt>
<totfact> 0.14866182E+01</totfact>
</mgrwt>
</event>
<event>
 8    1  0.3694627E-007  0.1426916E+03  0.7546771E-02  0.1209755E+00
         -5   -1    0    0    0  501 -0.00000000000E+00  0.00000000000E+00  0.17477026100E+03  0.17483344683E+03  0.47000000000E+01 0.  1.
          5   -1    0    0  501    0  0.00000000000E+00 -0.00000000000E+00 -0.11692805154E+03  0.11702247321E+03  0.47000000000E+01 0.  1.
         25    2    1    2    0    0 -0.49991397483E+02 -0.47297659389E+02  0.39071156282E+02  0.14794406673E+03  0.12499873288E+03 0.  0.
         25    2    1    2    0    0  0.49991397483E+02  0.47297659389E+02  0.18771053178E+02  0.14391185331E+03  0.12498824216E+03 0.  0.
          5    1    4    4  502    0 -0.31644446063E+02  0.25466460434E+02  0.39416652658E+02  0.56795018095E+02  0.47000000000E+01 0. -1.
         -5    1    4    4    0  502  0.81635843547E+02  0.21831198956E+02 -0.20645599479E+02  0.87116835211E+02  0.47000000000E+01 0. -1.
          5    1    3    3  503    0 -0.24657254577E+02 -0.61671950586E+02  0.75761050621E+02  0.10086246320E+03  0.47000000000E+01 0. -1.
         -5    1    3    3    0  503 -0.25334142906E+02  0.14374291197E+02 -0.36689894339E+02  0.47081603528E+02  0.47000000000E+01 0. -1.
<mgrwt>
<rscale>  0 0.14268930E+03</rscale>
<asrwt>0</asrwt>
<pdfrwt beam="2">  1        5 0.18001055E-01 0.14269160E+03</pdfrwt>
<pdfrwt beam="1">  1       -5 0.26899856E-01 0.14269160E+03</pdfrwt>
<totfact> 0.27365104E+02</totfact>
</mgrwt>
</event>
<event>
 8    1  0.3694627E-007  0.1503348E+03  0.7546771E-02  0.1200064E+00
          5   -1    0    0  501    0  0.00000000000E+00  0.00000000000E+00  0.67520722434E+03  0.67522358209E+03  0.47000000000E+01 0. -1.
         -5   -1    0    0    0  501 -0.00000000000E+00 -0.00000000000E+00 -0.33694947299E+02  0.34021162142E+02  0.47000000000E+01 0. -1.
         25    2    1    2    0    0 -0.63795860268E+02 -0.53894054395E+02  0.28204229407E+03  0.31960665154E+03  0.12500430062E+03 0.  0.
         25    2    1    2    0    0  0.63795860268E+02  0.53894054395E+02  0.35946998297E+03  0.38963809269E+03  0.12499877493E+03 0.  0.
          5    1    4    4  502    0  0.42107122853E+02  0.68866176700E+00  0.22898891596E+02  0.48165685776E+02  0.47000000000E+01 0.  1.
         -5    1    4    4    0  502  0.21688737415E+02  0.53205392628E+02  0.33657109138E+03  0.34147240692E+03  0.47000000000E+01 0.  1.
          5    1    3    3  503    0 -0.63732061421E+02 -0.75377917647E+02  0.28068457653E+03  0.29757272661E+03  0.47000000000E+01 0.  1.
         -5    1    3    3    0  503 -0.63798847162E-01  0.21483863252E+02  0.13577175400E+01  0.22033924921E+02  0.47000000000E+01 0.  1.
<mgrwt>
<rscale>  0 0.15033366E+03</rscale>
<asrwt>0</asrwt>
<pdfrwt beam="1">  1        5 0.10390438E+00 0.15033481E+03</pdfrwt>
<pdfrwt beam="2">  1       -5 0.52101900E-02 0.15033481E+03</pdfrwt>
<totfact> 0.13112271E+02</totfact>
</mgrwt>
</event>
<event>
 8    1  0.3694627E-007  0.1360866E+03  0.7546771E-02  0.1218698E+00
         -5   -1    0    0    0  501 -0.00000000000E+00  0.00000000000E+00  0.17838535643E+03  0.17844726221E+03  0.47000000000E+01 0.  1.
          5   -1    0    0  501    0  0.00000000000E+00 -0.00000000000E+00 -0.11153115136E+03  0.11163013806E+03  0.47000000000E+01 0.  1.
         25    2    1    2    0    0  0.53551772013E+02  0.51252178052E+01  0.71888545129E+02  0.15389768154E+03  0.12498989287E+03 0.  0.
         25    2    1    2    0    0 -0.53551772013E+02 -0.51252178052E+01 -0.50343400564E+01  0.13617971872E+03  0.12500204426E+03 0.  0.
          5    1    4    4  502    0  0.25404017678E+02 -0.30101311098E+01 -0.41563220619E+02  0.49030769031E+02  0.47000000000E+01 0.  1.
         -5    1    4    4    0  502 -0.78955789691E+02 -0.21150866954E+01  0.36528880563E+02  0.87148949693E+02  0.47000000000E+01 0.  1.
          5    1    3    3  503    0  0.92151194035E+02 -0.72547092494E+01  0.35203309339E+02  0.99024423032E+02  0.47000000000E+01 0. -1.
         -5    1    3    3    0  503 -0.38599422023E+02  0.12379927055E+02  0.36685235791E+02  0.54873258509E+02  0.47000000000E+01 0. -1.
<mgrwt>
<rscale>  0 0.13608384E+03</rscale>
<asrwt>0</asrwt>
<pdfrwt beam="2">  1        5 0.17171015E-01 0.13608663E+03</pdfrwt>
<pdfrwt beam="1">  1       -5 0.27456277E-01 0.13608663E+03</pdfrwt>
<totfact> 0.28228954E+02</totfact>
</mgrwt>
</event>
<event>
 8    1  0.3694627E-007  0.1263419E+03  0.7546771E-02  0.1232990E+00
         -5   -1    0    0    0  501 -0.00000000000E+00  0.00000000000E+00  0.19294123358E+03  0.19299847050E+03  0.47000000000E+01 0.  1.
          5   -1    0    0  501    0  0.00000000000E+00 -0.00000000000E+00 -0.10512626753E+03  0.10523127921E+03  0.47000000000E+01 0.  1.
         25    2    1    2    0    0 -0.26368862947E+00 -0.18301185837E+02  0.11288984365E+03  0.16942361010E+03  0.12500095970E+03 0.  0.
         25    2    1    2    0    0  0.26368862947E+00  0.18301185837E+02 -0.25074877592E+02  0.12880613961E+03  0.12500907639E+03 0.  0.
          5    1    3    3  502    0 -0.46995311391E+02  0.53839286164E+01  0.30443620029E+01  0.47633015022E+02  0.47000000000E+01 0.  1.
         -5    1    3    3    0  502  0.46731622761E+02 -0.23685114453E+02  0.10984548164E+03  0.12179059508E+03  0.47000000000E+01 0.  1.
          5    1    4    4  503    0 -0.18748243454E+01 -0.27391552098E+02 -0.63204548159E+02  0.69070377157E+02  0.47000000000E+01 0.  1.
         -5    1    4    4    0  503  0.21385129749E+01  0.45692737935E+02  0.38129670567E+02  0.59735762448E+02  0.47000000000E+01 0.  1.
<mgrwt>
<rscale>  0 0.12633988E+03</rscale>
<asrwt>0</asrwt>
<pdfrwt beam="2">  1        5 0.16185753E-01 0.12634189E+03</pdfrwt>
<pdfrwt beam="1">  1       -5 0.29695747E-01 0.12634189E+03</pdfrwt>
<totfact> 0.26290864E+02</totfact>
</mgrwt>
</event>
<event>
 8    1  0.3694627E-007  0.1439104E+03  0.7546771E-02  0.1208162E+00
          5   -1    0    0  501    0  0.00000000000E+00  0.00000000000E+00  0.16536077049E+02  0.17191039648E+02  0.47000000000E+01 0. -1.
         -5   -1    0    0    0  501 -0.00000000000E+00 -0.00000000000E+00 -0.17164203377E+04  0.17164267726E+04  0.47000000000E+01 0. -1.
         25    2    1    2    0    0  0.15459019367E+02 -0.69611870778E+02 -0.13125072531E+04  0.13203732396E+04  0.12500163387E+03 0.  0.
         25    2    1    2    0    0 -0.15459019367E+02  0.69611870778E+02 -0.38737700751E+03  0.41324457264E+03  0.12500134814E+03 0.  0.
          5    1    3    3  502    0  0.82056308779E+01 -0.95878799077E+02 -0.12205945376E+04  0.12243909472E+04  0.47000000000E+01 0. -1.
         -5    1    3    3    0  502  0.72533884893E+01  0.26266928299E+02 -0.91912715593E+02  0.95982292401E+02  0.47000000000E+01 0. -1.
          5    1    4    4  503    0 -0.52694599331E+01  0.53141602032E+02 -0.38952768287E+03  0.39319931688E+03  0.47000000000E+01 0. -1.
         -5    1    4    4    0  503 -0.10189559434E+02  0.16470268746E+02  0.21506753569E+01  0.20045255761E+02  0.47000000000E+01 0. -1.
<mgrwt>
<rscale>  0 0.14391033E+03</rscale>
<asrwt>0</asrwt>
<pdfrwt beam="1">  1        5 0.25948899E-02 0.14391040E+03</pdfrwt>
<pdfrwt beam="2">  1       -5 0.26411541E+00 0.14391040E+03</pdfrwt>
<totfact> 0.26119313E+01</totfact>
</mgrwt>
</event>
<event>
 8    1  0.3694627E-007  0.1375912E+03  0.7546771E-02  0.1216610E+00
          5   -1    0    0  501    0  0.00000000000E+00  0.00000000000E+00  0.42610168871E+02  0.42868595629E+02  0.47000000000E+01 0.  1.
         -5   -1    0    0    0  501 -0.00000000000E+00 -0.00000000000E+00 -0.44265974909E+03  0.44268469983E+03  0.47000000000E+01 0.  1.
         25    2    1    2    0    0 -0.43097238106E+02 -0.38046954812E+02 -0.19940672446E+03  0.24226924634E+03  0.12500561291E+03 0.  0.
         25    2    1    2    0    0  0.43097238106E+02  0.38046954812E+02 -0.20064285575E+03  0.24328404912E+03  0.12499852114E+03 0.  0.
          5    1    4    4  502    0 -0.56185475276E+01 -0.17555535875E+02  0.89236104684E+01  0.21011562055E+02  0.47000000000E+01 0.  1.
         -5    1    4    4    0  502  0.48715785633E+02  0.55602490687E+02 -0.20956646622E+03  0.22227248706E+03  0.47000000000E+01 0.  1.
          5    1    3    3  503    0 -0.31546690591E+02  0.43536347311E+02 -0.94063370972E+02  0.10844636916E+03  0.47000000000E+01 0. -1.
         -5    1    3    3    0  503 -0.11550547514E+02 -0.81583302122E+02 -0.10534335349E+03  0.13382287718E+03  0.47000000000E+01 0. -1.
<mgrwt>
<rscale>  0 0.13758962E+03</rscale>
<asrwt>0</asrwt>
<pdfrwt beam="1">  1        5 0.65772092E-02 0.13759123E+03</pdfrwt>
<pdfrwt beam="2">  1       -5 0.68123295E-01 0.13759123E+03</pdfrwt>
<totfact> 0.23172974E+02</totfact>
</mgrwt>
</event>
<event>
 8    1  0.3694627E-007  0.1487449E+03  0.7546771E-02  0.1202025E+00
          5   -1    0    0  501    0  0.00000000000E+00  0.00000000000E+00  0.16200633834E+03  0.16207450034E+03  0.47000000000E+01 0.  1.
         -5   -1    0    0    0  501 -0.00000000000E+00 -0.00000000000E+00 -0.19249568447E+03  0.19255305383E+03  0.47000000000E+01 0.  1.
         25    2    1    2    0    0  0.83444215064E+01  0.80176895008E+02 -0.11090517068E+03  0.18553660500E+03  0.12500364414E+03 0.  0.
         25    2    1    2    0    0 -0.83444215064E+01 -0.80176895008E+02  0.80415824546E+02  0.16909094918E+03  0.12500832129E+03 0.  0.
          5    1    3    3  502    0 -0.27210749123E+02 -0.25085428825E+02 -0.23471365484E+02  0.44076054779E+02  0.47000000000E+01 0. -1.
         -5    1    3    3    0  502  0.35555170630E+02  0.10526232383E+03 -0.87433805192E+02  0.14146055022E+03  0.47000000000E+01 0. -1.
          5    1    4    4  503    0  0.50285153764E+02 -0.71389304034E+02  0.34704514653E+02  0.94082531624E+02  0.47000000000E+01 0. -1.
         -5    1    4    4    0  503 -0.58629575271E+02 -0.87875909741E+01  0.45711309893E+02  0.75008417552E+02  0.47000000000E+01 0. -1.
<mgrwt>
<rscale>  0 0.14874391E+03</rscale>
<asrwt>0</asrwt>
<pdfrwt beam="1">  1        5 0.24933708E-01 0.14874490E+03</pdfrwt>
<pdfrwt beam="2">  1       -5 0.29624377E-01 0.14874490E+03</pdfrwt>
<totfact> 0.12455581E+02</totfact>
</mgrwt>
</event>
<event>
 8    1  0.3694627E-007  0.1735022E+03  0.7546771E-02  0.1174244E+00
         -5   -1    0    0    0  501 -0.00000000000E+00  0.00000000000E+00  0.11307536640E+03  0.11317300246E+03  0.47000000000E+01 0. -1.
          5   -1    0    0  501    0  0.00000000000E+00 -0.00000000000E+00 -0.26899014779E+03  0.26903120564E+03  0.47000000000E+01 0. -1.
         25    2    1    2    0    0  0.73116512455E+02  0.95563525585E+02 -0.57768530941E+02  0.18286604022E+03  0.12499749471E+03 0.  0.
         25    2    1    2    0    0 -0.73116512455E+02 -0.95563525585E+02 -0.98146250453E+02  0.19933816788E+03  0.12499842752E+03 0.  0.
          5    1    3    3  502    0 -0.20374767954E+01 -0.11426320890E+02 -0.50284342667E+02  0.51820046683E+02  0.47000000000E+01 0. -1.
         -5    1    3    3    0  502  0.75153989250E+02  0.10698984647E+03 -0.74841882741E+01  0.13104599354E+03  0.47000000000E+01 0. -1.
          5    1    4    4  503    0 -0.10121605434E+03 -0.41872537511E+02 -0.44692371385E+02  0.11839551138E+03  0.47000000000E+01 0.  1.
         -5    1    4    4    0  503  0.28099541890E+02 -0.53690988074E+02 -0.53453879068E+02  0.80942656506E+02  0.47000000000E+01 0.  1.
<mgrwt>
<rscale>  0 0.17350205E+03</rscale>
<asrwt>0</asrwt>
<pdfrwt beam="2">  1        5 0.41393768E-01 0.17350222E+03</pdfrwt>
<pdfrwt beam="1">  1       -5 0.17406879E-01 0.17350222E+03</pdfrwt>
<totfact> 0.13100689E+02</totfact>
</mgrwt>
</event>
<event>
 8    1  0.3694627E-007  0.1414284E+03  0.7546771E-02  0.1211422E+00
         -5   -1    0    0    0  501 -0.00000000000E+00  0.00000000000E+00  0.16433623270E+03  0.16440342873E+03  0.47000000000E+01 0.  1.
          5   -1    0    0  501    0  0.00000000000E+00 -0.00000000000E+00 -0.12162221984E+03  0.12171299996E+03  0.47000000000E+01 0.  1.
         25    2    1    2    0    0 -0.61741632681E+02 -0.23761181454E+02  0.18383380111E+02  0.14261819499E+03  0.12500151171E+03 0.  0.
         25    2    1    2    0    0  0.61741632681E+02  0.23761181454E+02  0.24330632750E+02  0.14349823370E+03  0.12499256152E+03 0.  0.
          5    1    3    3  502    0  0.74920623771E+01  0.25799824177E+02  0.45575990604E+02  0.53113301966E+02  0.47000000000E+01 0. -1.
         -5    1    3    3    0  502 -0.69233695058E+02 -0.49561005631E+02 -0.27192610493E+02  0.89504893028E+02  0.47000000000E+01 0. -1.
          5    1    4    4  503    0  0.97582180186E+02  0.24344411911E+02  0.33662507780E+02  0.10616113560E+03  0.47000000000E+01 0.  1.
         -5    1    4    4    0  503 -0.35840547506E+02 -0.58323045679E+00 -0.93318750304E+01  0.37337098104E+02  0.47000000000E+01 0.  1.
<mgrwt>
<rscale>  0 0.14142645E+03</rscale>
<asrwt>0</asrwt>
<pdfrwt beam="2">  1        5 0.18723263E-01 0.14142843E+03</pdfrwt>
<pdfrwt beam="1">  1       -5 0.25294649E-01 0.14142843E+03</pdfrwt>
<totfact> 0.28562448E+02</totfact>
</mgrwt>
</event>
<event>
 8    1  0.3694627E-007  0.1315724E+03  0.7546771E-02  0.1225147E+00
          5   -1    0    0  501    0  0.00000000000E+00  0.00000000000E+00  0.12020796394E+03  0.12029981128E+03  0.47000000000E+01 0. -1.
         -5   -1    0    0    0  501 -0.00000000000E+00 -0.00000000000E+00 -0.16279495988E+03  0.16286279183E+03  0.47000000000E+01 0. -1.
         25    2    1    2    0    0  0.20095829642E+02  0.35756473894E+02 -0.69620397036E+02  0.14885665413E+03  0.12501574302E+03 0.  0.
         25    2    1    2    0    0 -0.20095829642E+02 -0.35756473894E+02  0.27033401096E+02  0.13430594898E+03  0.12499966144E+03 0.  0.
          5    1    4    4  502    0 -0.69535710317E+02 -0.40787460818E+02  0.24235567953E+02  0.84310644187E+02  0.47000000000E+01 0.  1.
         -5    1    4    4    0  502  0.49439880674E+02  0.50309869244E+01  0.27978331429E+01  0.49995304788E+02  0.47000000000E+01 0.  1.
          5    1    3    3  503    0 -0.22152290470E+02  0.38558356863E+02  0.20487079113E+02  0.49186189806E+02  0.47000000000E+01 0. -1.
         -5    1    3    3    0  503  0.42248120112E+02 -0.28018829688E+01 -0.90107476149E+02  0.99670464327E+02  0.47000000000E+01 0. -1.
<mgrwt>
<rscale>  0 0.13156861E+03</rscale>
<asrwt>0</asrwt>
<pdfrwt beam="1">  1        5 0.18505816E-01 0.13157243E+03</pdfrwt>
<pdfrwt beam="2">  1       -5 0.25057661E-01 0.13157243E+03</pdfrwt>
<totfact> 0.28988298E+02</totfact>
</mgrwt>
</event>
<event>
 8    1  0.3694627E-007  0.1355857E+03  0.7546771E-02  0.1219398E+00
         -5   -1    0    0    0  501 -0.00000000000E+00  0.00000000000E+00  0.58751516607E+02  0.58939211935E+02  0.47000000000E+01 0.  1.
          5   -1    0    0  501    0  0.00000000000E+00 -0.00000000000E+00 -0.43461825540E+03  0.43464366776E+03  0.47000000000E+01 0.  1.
         25    2    1    2    0    0 -0.28289426423E+02 -0.44236212667E+02 -0.56980821655E+02  0.14707242661E+03  0.12500540178E+03 0.  0.
         25    2    1    2    0    0  0.28289426423E+02  0.44236212667E+02 -0.31888591714E+03  0.34651045308E+03  0.12499652711E+03 0.  0.
          5    1    4    4  502    0  0.47104107984E+02  0.76324172705E+01 -0.34370966630E+02  0.58995797557E+02  0.47000000000E+01 0.  1.
         -5    1    4    4    0  502 -0.18814681562E+02  0.36603795397E+02 -0.28451495051E+03  0.28751465553E+03  0.47000000000E+01 0.  1.
          5    1    3    3  503    0 -0.72605908616E+02 -0.15279986802E+02 -0.57399191600E+02  0.93924720702E+02  0.47000000000E+01 0. -1.
         -5    1    3    3    0  503  0.44316482193E+02 -0.28956225865E+02  0.41836994512E+00  0.53147705912E+02  0.47000000000E+01 0. -1.
<mgrwt>
<rscale>  0 0.13558366E+03</rscale>
<asrwt>0</asrwt>
<pdfrwt beam="2">  1        5 0.66880738E-01 0.13558571E+03</pdfrwt>
<pdfrwt beam="1">  1       -5 0.90550880E-02 0.13558571E+03</pdfrwt>
<totfact> 0.13908940E+02</totfact>
</mgrwt>
</event>
<event>
 8    1  0.3694627E-007  0.1606720E+03  0.7546771E-02  0.1187941E+00
         -5   -1    0    0    0  501 -0.00000000000E+00  0.00000000000E+00  0.18234247645E+03  0.18240303923E+03  0.47000000000E+01 0.  1.
          5   -1    0    0  501    0  0.00000000000E+00 -0.00000000000E+00 -0.14709174341E+03  0.14716681344E+03  0.47000000000E+01 0.  1.
         25    2    1    2    0    0 -0.89194993679E+02 -0.47278145419E+02  0.49876646776E+02  0.16823357948E+03  0.12499554968E+03 0.  0.
         25    2    1    2    0    0  0.89194993679E+02  0.47278145419E+02 -0.14625913731E+02  0.16133627319E+03  0.12499802303E+03 0.  0.
          5    1    4    4  502    0  0.96781763622E+02  0.50468814319E+02  0.31932777789E+02  0.11382268353E+03  0.47000000000E+01 0. -1.
         -5    1    4    4    0  502 -0.75867699423E+01 -0.31906688999E+01 -0.46558691520E+02  0.47513589659E+02  0.47000000000E+01 0. -1.
          5    1    3    3  503    0  0.13417226346E+01 -0.63884049554E+02  0.13785934358E+01  0.64085587514E+02  0.47000000000E+01 0.  1.
         -5    1    3    3    0  503 -0.90536716314E+02  0.16605904135E+02  0.48498053340E+02  0.10414799197E+03  0.47000000000E+01 0.  1.
<mgrwt>
<rscale>  0 0.16067147E+03</rscale>
<asrwt>0</asrwt>
<pdfrwt beam="2">  1        5 0.22639932E-01 0.16067195E+03</pdfrwt>
<pdfrwt beam="1">  1       -5 0.28063122E-01 0.16067195E+03</pdfrwt>
<totfact> 0.17064811E+02</totfact>
</mgrwt>
</event>
<event>
 8    1  0.3694627E-007  0.1282888E+03  0.7546771E-02  0.1230021E+00
         -5   -1    0    0    0  501 -0.00000000000E+00  0.00000000000E+00  0.47386114117E+02  0.47618628824E+02  0.47000000000E+01 0.  1.
          5   -1    0    0  501    0  0.00000000000E+00 -0.00000000000E+00 -0.35023799239E+03  0.35026952667E+03  0.47000000000E+01 0.  1.
         25    2    1    2    0    0 -0.23029335418E+02 -0.17288902661E+02 -0.13003791949E+03  0.18266113377E+03  0.12500389131E+03 0.  0.
         25    2    1    2    0    0  0.23029335418E+02  0.17288902661E+02 -0.17281395879E+03  0.21522702172E+03  0.12501499943E+03 0.  0.
          5    1    4    4  502    0  0.74648721238E+02  0.57423094429E+01 -0.10658264942E+03  0.13033555485E+03  0.47000000000E+01 0. -1.
         -5    1    4    4    0  502 -0.51619385820E+02  0.11546593218E+02 -0.66231309365E+02  0.84891466871E+02  0.47000000000E+01 0. -1.
          5    1    3    3  503    0 -0.16912428251E+02  0.51089658959E+02 -0.83990142182E+02  0.99862993474E+02  0.47000000000E+01 0. -1.
         -5    1    3    3    0  503 -0.61169071672E+01 -0.68378561619E+02 -0.46047777304E+02  0.82798140300E+02  0.47000000000E+01 0. -1.
<mgrwt>
<rscale>  0 0.12828606E+03</rscale>
<asrwt>0</asrwt>
<pdfrwt beam="2">  1        5 0.53903078E-01 0.12828876E+03</pdfrwt>
<pdfrwt beam="1">  1       -5 0.73104831E-02 0.12828876E+03</pdfrwt>
<totfact> 0.31572504E+02</totfact>
</mgrwt>
</event>
<event>
 8    1  0.3694627E-007  0.1283238E+03  0.7546771E-02  0.1229968E+00
          5   -1    0    0  501    0  0.00000000000E+00  0.00000000000E+00  0.65792860760E+02  0.65960522489E+02  0.47000000000E+01 0. -1.
         -5   -1    0    0    0  501 -0.00000000000E+00 -0.00000000000E+00 -0.49109290366E+03  0.49111539380E+03  0.47000000000E+01 0. -1.
         25    2    1    2    0    0  0.86065191228E+01 -0.27684431404E+02 -0.40786593103E+03  0.42757325791E+03  0.12499509298E+03 0.  0.
         25    2    1    2    0    0 -0.86065191228E+01  0.27684431404E+02 -0.17434111870E+02  0.12950265838E+03  0.12500596128E+03 0.  0.
          5    1    4    4  502    0  0.13937491318E+02 -0.31764303771E+02 -0.47508742051E+02  0.59011822795E+02  0.47000000000E+01 0. -1.
         -5    1    4    4    0  502 -0.22544010441E+02  0.59448735175E+02  0.30074630181E+02  0.70490835583E+02  0.47000000000E+01 0. -1.
          5    1    3    3  503    0 -0.69219729363E+01 -0.71221432807E+02 -0.15922314361E+03  0.17462676101E+03  0.47000000000E+01 0.  1.
         -5    1    3    3    0  503  0.15528492059E+02  0.43537001402E+02 -0.24864278742E+03  0.25294649690E+03  0.47000000000E+01 0.  1.
<mgrwt>
<rscale>  0 0.12832112E+03</rscale>
<asrwt>0</asrwt>
<pdfrwt beam="1">  1        5 0.10136606E-01 0.12832377E+03</pdfrwt>
<pdfrwt beam="2">  1       -5 0.75567379E-01 0.12832377E+03</pdfrwt>
<totfact> 0.85193717E+01</totfact>
</mgrwt>
</event>
<event>
 8    1  0.3694627E-007  0.1329877E+03  0.7546771E-02  0.1223091E+00
          5   -1    0    0  501    0  0.00000000000E+00  0.00000000000E+00  0.22494164407E+02  0.22979935430E+02  0.47000000000E+01 0. -1.
         -5   -1    0    0    0  501 -0.00000000000E+00 -0.00000000000E+00 -0.81610606055E+03  0.81611959422E+03  0.47000000000E+01 0. -1.
         25    2    1    2    0    0 -0.44235634405E+02 -0.10148953790E+02 -0.48825933582E+03  0.50604636024E+03  0.12500378828E+03 0.  0.
         25    2    1    2    0    0  0.44235634405E+02  0.10148953790E+02 -0.30535256032E+03  0.33305316941E+03  0.12499773975E+03 0.  0.
          5    1    4    4  502    0 -0.70574379377E+01 -0.21735250585E+02 -0.24971425445E+03  0.25080176918E+03  0.47000000000E+01 0. -1.
         -5    1    4    4    0  502  0.51293072343E+02  0.31884204375E+02 -0.55638305875E+02  0.82251400229E+02  0.47000000000E+01 0. -1.
          5    1    3    3  503    0 -0.70612427747E+02 -0.47715188421E+02 -0.35144229963E+03  0.36165817304E+03  0.47000000000E+01 0.  1.
         -5    1    3    3    0  503  0.26376793342E+02  0.37566234630E+02 -0.13681703619E+03  0.14438818720E+03  0.47000000000E+01 0.  1.
<mgrwt>
<rscale>  0 0.13298632E+03</rscale>
<asrwt>0</asrwt>
<pdfrwt beam="1">  1        5 0.34990494E-02 0.13298774E+03</pdfrwt>
<pdfrwt beam="2">  1       -5 0.12559316E+00 0.13298774E+03</pdfrwt>
<totfact> 0.15077655E+02</totfact>
</mgrwt>
</event>
<event>
 8    1  0.3694627E-007  0.1901490E+03  0.7546771E-02  0.1158328E+00
          5   -1    0    0  501    0  0.00000000000E+00  0.00000000000E+00  0.25657142292E+03  0.25661446775E+03  0.47000000000E+01 0.  1.
         -5   -1    0    0    0  501 -0.00000000000E+00 -0.00000000000E+00 -0.14698808991E+03  0.14706321286E+03  0.47000000000E+01 0.  1.
         25    2    1    2    0    0 -0.95634679341E+02 -0.10670698976E+03  0.13484198610E+02  0.19062447598E+03  0.12499397454E+03 0.  0.
         25    2    1    2    0    0  0.95634679341E+02  0.10670698976E+03  0.96099134399E+02  0.21305320464E+03  0.12499700323E+03 0.  0.
          5    1    4    4  502    0  0.59262156318E+02 -0.11387012817E+02  0.76320342016E+01  0.61008238611E+02  0.47000000000E+01 0. -1.
         -5    1    4    4    0  502  0.36372523023E+02  0.11809400258E+03  0.88467100198E+02  0.15204496602E+03  0.47000000000E+01 0. -1.
          5    1    3    3  503    0 -0.59042010710E+02  0.87029238927E+01  0.32278012704E+02  0.68012204913E+02  0.47000000000E+01 0. -1.
         -5    1    3    3    0  503 -0.36592668631E+02 -0.11540991365E+03 -0.18793814093E+02  0.12261227106E+03  0.47000000000E+01 0. -1.
<mgrwt>
<rscale>  0 0.19014846E+03</rscale>
<asrwt>0</asrwt>
<pdfrwt beam="1">  1        5 0.39481617E-01 0.19014895E+03</pdfrwt>
<pdfrwt beam="2">  1       -5 0.22622642E-01 0.19014895E+03</pdfrwt>
<totfact> 0.90757748E+01</totfact>
</mgrwt>
</event>
<event>
 8    1  0.3694627E-007  0.1354855E+03  0.7546771E-02  0.1219536E+00
          5   -1    0    0  501    0  0.00000000000E+00  0.00000000000E+00  0.19256194532E+03  0.19261929494E+03  0.47000000000E+01 0. -1.
         -5   -1    0    0    0  501 -0.00000000000E+00 -0.00000000000E+00 -0.14201817601E+03  0.14209592647E+03  0.47000000000E+01 0. -1.
         25    2    1    2    0    0  0.14106535463E+02 -0.50326741448E+02 -0.70769469855E+02  0.15285474278E+03  0.12499791711E+03 0.  0.
         25    2    1    2    0    0 -0.14106535463E+02  0.50326741448E+02  0.12131323916E+03  0.18186047862E+03  0.12499822575E+03 0.  0.
          5    1    3    3  502    0  0.26173325967E+02 -0.79845855076E+02 -0.83166792923E+02  0.11831825307E+03  0.47000000000E+01 0. -1.
         -5    1    3    3    0  502 -0.12066790504E+02  0.29519113627E+02  0.12397323068E+02  0.34536489712E+02  0.47000000000E+01 0. -1.
          5    1    4    4  503    0  0.16644087980E+02 -0.37292954767E+02  0.49716809980E+02  0.64510784638E+02  0.47000000000E+01 0.  1.
         -5    1    4    4    0  503 -0.30750623443E+02  0.87619696216E+02  0.71596429177E+02  0.11734969398E+03  0.47000000000E+01 0.  1.
<mgrwt>
<rscale>  0 0.13548547E+03</rscale>
<asrwt>0</asrwt>
<pdfrwt beam="1">  1        5 0.29635307E-01 0.13548554E+03</pdfrwt>
<pdfrwt beam="2">  1       -5 0.21859342E-01 0.13548554E+03</pdfrwt>
<totfact> 0.15505074E+02</totfact>
</mgrwt>
</event>
<event>
 8    1  0.3694627E-007  0.1434176E+03  0.7546771E-02  0.1208804E+00
          5   -1    0    0  501    0  0.00000000000E+00  0.00000000000E+00  0.78496554558E+03  0.78497961614E+03  0.47000000000E+01 0.  1.
         -5   -1    0    0    0  501 -0.00000000000E+00 -0.00000000000E+00 -0.26001659579E+02  0.26423025960E+02  0.47000000000E+01 0.  1.
         25    2    1    2    0    0  0.46096299660E+00  0.70305616168E+02  0.36725165322E+03  0.39426107705E+03  0.12499971172E+03 0.  0.
         25    2    1    2    0    0 -0.46096299660E+00 -0.70305616168E+02  0.39171223278E+03  0.41714156505E+03  0.12500207929E+03 0.  0.
          5    1    4    4  502    0  0.45484337196E+02 -0.43676542663E+01  0.58698045553E+02  0.74534903808E+02  0.47000000000E+01 0.  1.
         -5    1    4    4    0  502 -0.45945300193E+02 -0.65937961902E+02  0.33301418723E+03  0.34260666124E+03  0.47000000000E+01 0.  1.
          5    1    3    3  503    0  0.35979020462E+02 -0.15880088991E+02  0.51296354354E+02  0.64807971036E+02  0.47000000000E+01 0.  1.
         -5    1    3    3    0  503 -0.35518057466E+02  0.86185705160E+02  0.31595529886E+03  0.32945310601E+03  0.47000000000E+01 0.  1.
<mgrwt>
<rscale>  0 0.14341710E+03</rscale>
<asrwt>0</asrwt>
<pdfrwt beam="1">  1        5 0.12079742E+00 0.14341761E+03</pdfrwt>
<pdfrwt beam="2">  1       -5 0.40337507E-02 0.14341761E+03</pdfrwt>
<totfact> 0.13531229E+02</totfact>
</mgrwt>
</event>
<event>
 8    1  0.3694627E-007  0.1287614E+03  0.7546771E-02  0.1229311E+00
          5   -1    0    0  501    0  0.00000000000E+00  0.00000000000E+00  0.14794102234E+02  0.15522740122E+02  0.47000000000E+01 0. -1.
         -5   -1    0    0    0  501 -0.00000000000E+00 -0.00000000000E+00 -0.12342895573E+04  0.12342985057E+04  0.47000000000E+01 0. -1.
         25    2    1    2    0    0 -0.20988521244E+02 -0.22695721256E+02 -0.82123289421E+03  0.83126588096E+03  0.12499553805E+03 0.  0.
         25    2    1    2    0    0  0.20988521244E+02  0.22695721256E+02 -0.39826256087E+03  0.41855536491E+03  0.12497964761E+03 0.  0.
          5    1    4    4  502    0  0.26921805284E+02  0.50864416247E+01 -0.39841896444E+03  0.39938755203E+03  0.47000000000E+01 0.  1.
         -5    1    4    4    0  502 -0.59332840407E+01  0.17609279631E+02  0.15640356960E+00  0.19167812883E+02  0.47000000000E+01 0.  1.
          5    1    3    3  503    0  0.44073354842E+01  0.40969973524E+02 -0.12608145777E+03  0.13272749274E+03  0.47000000000E+01 0.  1.
         -5    1    3    3    0  503 -0.25395856728E+02 -0.63665694780E+02 -0.69515143644E+03  0.69853838822E+03  0.47000000000E+01 0.  1.
<mgrwt>
<rscale>  0 0.12875754E+03</rscale>
<asrwt>0</asrwt>
<pdfrwt beam="1">  1        5 0.23327541E-02 0.12876140E+03</pdfrwt>
<pdfrwt beam="2">  1       -5 0.18994736E+00 0.12876140E+03</pdfrwt>
<totfact> 0.91157827E+01</totfact>
</mgrwt>
</event>
<event>
 8    1  0.3694627E-007  0.1762111E+03  0.7546771E-02  0.1171522E+00
          5   -1    0    0  501    0  0.00000000000E+00  0.00000000000E+00  0.11870603280E+03  0.11879904134E+03  0.47000000000E+01 0. -1.
         -5   -1    0    0    0  501 -0.00000000000E+00 -0.00000000000E+00 -0.27580393750E+03  0.27584398115E+03  0.47000000000E+01 0. -1.
         25    2    1    2    0    0 -0.70248328612E+02 -0.10242266693E+03 -0.12370755296E+03  0.21529621789E+03  0.12499468951E+03 0.  0.
         25    2    1    2    0    0  0.70248328612E+02  0.10242266693E+03 -0.33390351742E+02  0.17934680460E+03  0.12500052143E+03 0.  0.
          5    1    3    3  502    0 -0.10033255411E+03 -0.49085644716E+02 -0.60297678143E+02  0.12701937616E+03  0.47000000000E+01 0.  1.
         -5    1    3    3    0  502  0.30084225495E+02 -0.53337022213E+02 -0.63409874813E+02  0.88276841731E+02  0.47000000000E+01 0.  1.
          5    1    4    4  503    0 -0.11308489266E+02 -0.55507069558E+01 -0.41584248941E+02  0.43703913293E+02  0.47000000000E+01 0. -1.
         -5    1    4    4    0  503  0.81556817878E+02  0.10797337388E+03  0.81938971984E+01  0.13564289131E+03  0.47000000000E+01 0. -1.
<mgrwt>
<rscale>  0 0.17621009E+03</rscale>
<asrwt>0</asrwt>
<pdfrwt beam="1">  1        5 0.18272701E-01 0.17621113E+03</pdfrwt>
<pdfrwt beam="2">  1       -5 0.42441610E-01 0.17621113E+03</pdfrwt>
<totfact> 0.11423725E+02</totfact>
</mgrwt>
</event>
<event>
 8    1  0.3694627E-007  0.1274478E+03  0.7546771E-02  0.1231293E+00
         -5   -1    0    0    0  501 -0.00000000000E+00  0.00000000000E+00  0.11160550059E+03  0.11170442141E+03  0.47000000000E+01 0. -1.
          5   -1    0    0  501    0  0.00000000000E+00 -0.00000000000E+00 -0.18714461394E+03  0.18720362317E+03  0.47000000000E+01 0. -1.
         25    2    1    2    0    0  0.74922517475E+01  0.23699685058E+02  0.32838184935E+02  0.13161036208E+03  0.12500052844E+03 0.  0.
         25    2    1    2    0    0 -0.74922517475E+01 -0.23699685058E+02 -0.10837729828E+03  0.16729768250E+03  0.12500026751E+03 0.  0.
          5    1    4    4  502    0 -0.73216993796E+01  0.51126143852E+02 -0.36351088418E+02  0.63332310049E+02  0.47000000000E+01 0. -1.
         -5    1    4    4    0  502 -0.17055236794E+00 -0.74825828910E+02 -0.72026209867E+02  0.10396537245E+03  0.47000000000E+01 0. -1.
          5    1    3    3  503    0 -0.57633384898E+02  0.15993115573E+02  0.26401487638E+02  0.65547809651E+02  0.47000000000E+01 0. -1.
         -5    1    3    3    0  503  0.65125636646E+02  0.77065694854E+01  0.64366972971E+01  0.66062552432E+02  0.47000000000E+01 0. -1.
<mgrwt>
<rscale>  0 0.12744773E+03</rscale>
<asrwt>0</asrwt>
<pdfrwt beam="2">  1        5 0.28803627E-01 0.12744780E+03</pdfrwt>
<pdfrwt beam="1">  1       -5 0.17182226E-01 0.12744780E+03</pdfrwt>
<totfact> 0.25098353E+02</totfact>
</mgrwt>
</event>
<event>
 8    1  0.3694627E-007  0.1555164E+03  0.7546771E-02  0.1193854E+00
         -5   -1    0    0    0  501 -0.00000000000E+00  0.00000000000E+00  0.33263440768E+02  0.33593846039E+02  0.47000000000E+01 0. -1.
          5   -1    0    0  501    0  0.00000000000E+00 -0.00000000000E+00 -0.90674376596E+03  0.90675594683E+03  0.47000000000E+01 0. -1.
         25    2    1    2    0    0 -0.82837230566E+02 -0.41208250689E+02 -0.22521628114E+03  0.27369276199E+03  0.12500091193E+03 0.  0.
         25    2    1    2    0    0  0.82837230566E+02  0.41208250689E+02 -0.64826404405E+03  0.66665703088E+03  0.12500079725E+03 0.  0.
          5    1    4    4  502    0 -0.16716458080E+02  0.51759330080E+02 -0.25967025264E+03  0.26534731641E+03  0.47000000000E+01 0. -1.
         -5    1    4    4    0  502  0.99553688647E+02 -0.10551079391E+02 -0.38859379141E+03  0.40130971446E+03  0.47000000000E+01 0. -1.
          5    1    3    3  503    0 -0.85562983973E+02 -0.34298828448E+02 -0.64191075139E+02  0.11242783457E+03  0.47000000000E+01 0. -1.
         -5    1    3    3    0  503  0.27257534065E+01 -0.69094222405E+01 -0.16102520600E+03  0.16126492742E+03  0.47000000000E+01 0. -1.
<mgrwt>
<rscale>  0 0.15551639E+03</rscale>
<asrwt>0</asrwt>
<pdfrwt beam="2">  1        5 0.13952538E+00 0.15551641E+03</pdfrwt>
<pdfrwt beam="1">  1       -5 0.51438059E-02 0.15551641E+03</pdfrwt>
<totfact> 0.63683695E+01</totfact>
</mgrwt>
</event>
<event>
 8    1  0.3694627E-007  0.1493700E+03  0.7546771E-02  0.1201253E+00
          5   -1    0    0  501    0  0.00000000000E+00  0.00000000000E+00  0.49974722296E+02  0.50195247470E+02  0.47000000000E+01 0. -1.
         -5   -1    0    0    0  501 -0.00000000000E+00 -0.00000000000E+00 -0.51496169299E+03  0.51498314074E+03  0.47000000000E+01 0. -1.
         25    2    1    2    0    0 -0.13656801117E+01  0.81762620348E+02 -0.33646788374E+03  0.36812879622E+03  0.12498472968E+03 0.  0.
         25    2    1    2    0    0  0.13656801117E+01 -0.81762620348E+02 -0.12851908695E+03  0.19704959198E+03  0.12499757927E+03 0.  0.
          5    1    3    3  502    0 -0.25411468149E+02  0.72827375945E+02 -0.33296563753E+03  0.34181541097E+03  0.47000000000E+01 0.  1.
         -5    1    3    3    0  502  0.24045788037E+02  0.89352444038E+01 -0.35022462068E+01  0.26313385251E+02  0.47000000000E+01 0.  1.
          5    1    4    4  503    0  0.23936472215E+02 -0.85864827389E+02 -0.14368218370E+03  0.16915195298E+03  0.47000000000E+01 0.  1.
         -5    1    4    4    0  503 -0.22570792103E+02  0.41022070408E+01  0.15163096751E+02  0.27897639001E+02  0.47000000000E+01 0.  1.
<mgrwt>
<rscale>  0 0.14936728E+03</rscale>
<asrwt>0</asrwt>
<pdfrwt beam="1">  1        5 0.77070325E-02 0.14936996E+03</pdfrwt>
<pdfrwt beam="2">  1       -5 0.79243486E-01 0.14936996E+03</pdfrwt>
<totfact> 0.12883184E+02</totfact>
</mgrwt>
</event>
<event>
 8    1  0.3694627E-007  0.1392605E+03  0.7546771E-02  0.1214328E+00
         -5   -1    0    0    0  501 -0.00000000000E+00  0.00000000000E+00  0.13184856697E+02  0.13997515712E+02  0.47000000000E+01 0. -1.
          5   -1    0    0  501    0  0.00000000000E+00 -0.00000000000E+00 -0.14314080149E+04  0.14314157311E+04  0.47000000000E+01 0. -1.
         25    2    1    2    0    0  0.37020602598E+01 -0.61274745208E+02 -0.66510493831E+03  0.67952778296E+03  0.12500051677E+03 0.  0.
         25    2    1    2    0    0 -0.37020602598E+01  0.61274745208E+02 -0.75311821993E+03  0.76588546385E+03  0.12500076359E+03 0.  0.
          5    1    4    4  502    0  0.37966223980E+02  0.36740620773E+02 -0.12366441989E+03  0.13455960064E+03  0.47000000000E+01 0.  1.
         -5    1    4    4    0  502 -0.41668284240E+02  0.24534124434E+02 -0.62945380004E+03  0.63132586321E+03  0.47000000000E+01 0.  1.
          5    1    3    3  503    0  0.33651477505E+02 -0.79943282770E+02 -0.59059376409E+03  0.59694759785E+03  0.47000000000E+01 0.  1.
         -5    1    3    3    0  503 -0.29949417245E+02  0.18668537563E+02 -0.74511174221E+02  0.82580185104E+02  0.47000000000E+01 0.  1.
<mgrwt>
<rscale>  0 0.13926046E+03</rscale>
<asrwt>0</asrwt>
<pdfrwt beam="2">  1        5 0.22027960E+00 0.13926051E+03</pdfrwt>
<pdfrwt beam="1">  1       -5 0.20915464E-02 0.13926051E+03</pdfrwt>
<totfact> 0.69573965E+01</totfact>
</mgrwt>
</event>
<event>
 8    1  0.3694627E-007  0.1297339E+03  0.7546771E-02  0.1227879E+00
         -5   -1    0    0    0  501 -0.00000000000E+00  0.00000000000E+00  0.61413664983E+02  0.61593248385E+02  0.47000000000E+01 0. -1.
          5   -1    0    0  501    0  0.00000000000E+00 -0.00000000000E+00 -0.28161813410E+03  0.28165735115E+03  0.47000000000E+01 0. -1.
         25    2    1    2    0    0 -0.35622101669E-02 -0.34496375152E+02 -0.80651663055E+02  0.15275983654E+03  0.12506349185E+03 0.  0.
         25    2    1    2    0    0  0.35622101669E-02  0.34496375152E+02 -0.13955280607E+03  0.19049076300E+03  0.12498698010E+03 0.  0.
          5    1    4    4  502    0  0.43763948374E+02 -0.18927880873E+02 -0.19127259532E+02  0.51589629858E+02  0.47000000000E+01 0.  1.
         -5    1    4    4    0  502 -0.43760386164E+02  0.53424256026E+02 -0.12042554653E+03  0.13890113314E+03  0.47000000000E+01 0.  1.
          5    1    3    3  503    0  0.34170627436E+02 -0.69830885325E+02 -0.63481713184E+02  0.10047886461E+03  0.47000000000E+01 0.  1.
         -5    1    3    3    0  503 -0.34174189647E+02  0.35334510173E+02 -0.17169949871E+02  0.52280971928E+02  0.47000000000E+01 0.  1.
<mgrwt>
<rscale>  0 0.12971543E+03</rscale>
<asrwt>0</asrwt>
<pdfrwt beam="2">  1        5 0.43342697E-01 0.12973387E+03</pdfrwt>
<pdfrwt beam="1">  1       -5 0.94650872E-02 0.12973387E+03</pdfrwt>
<totfact> 0.32191829E+02</totfact>
</mgrwt>
</event>
<event>
 8    1  0.3694627E-007  0.1301826E+03  0.7546771E-02  0.1227188E+00
          5   -1    0    0  501    0  0.00000000000E+00  0.00000000000E+00  0.23494524055E+02  0.23960022132E+02  0.47000000000E+01 0. -1.
         -5   -1    0    0    0  501 -0.00000000000E+00 -0.00000000000E+00 -0.87973558871E+03  0.87974814353E+03  0.47000000000E+01 0. -1.
         25    2    1    2    0    0 -0.84028383488E+01  0.35361221275E+02 -0.62432889836E+03  0.63775559342E+03  0.12499839982E+03 0.  0.
         25    2    1    2    0    0  0.84028383488E+01 -0.35361221275E+02 -0.23191216630E+03  0.26595257224E+03  0.12500597642E+03 0.  0.
          5    1    3    3  502    0 -0.64140261504E+02  0.37029545106E+02 -0.35333323518E+03  0.36104241501E+03  0.47000000000E+01 0. -1.
         -5    1    3    3    0  502  0.55737423155E+02 -0.16683238313E+01 -0.27099566318E+03  0.27671317841E+03  0.47000000000E+01 0. -1.
          5    1    4    4  503    0  0.39798000241E+02  0.34400276219E+02 -0.10861243194E+03  0.12077255566E+03  0.47000000000E+01 0. -1.
         -5    1    4    4    0  503 -0.31395161892E+02 -0.69761497494E+02 -0.12329973435E+03  0.14518001658E+03  0.47000000000E+01 0. -1.
<mgrwt>
<rscale>  0 0.13018081E+03</rscale>
<asrwt>0</asrwt>
<pdfrwt beam="1">  1        5 0.36513162E-02 0.13018263E+03</pdfrwt>
<pdfrwt beam="2">  1       -5 0.13538068E+00 0.13018263E+03</pdfrwt>
<totfact> 0.11491238E+02</totfact>
</mgrwt>
</event>
<event>
 8    1  0.3694627E-007  0.1448334E+03  0.7546771E-02  0.1206973E+00
         -5   -1    0    0    0  501 -0.00000000000E+00  0.00000000000E+00  0.75392536655E+02  0.75538894506E+02  0.47000000000E+01 0.  1.
          5   -1    0    0  501    0  0.00000000000E+00 -0.00000000000E+00 -0.28306238037E+03  0.28310139735E+03  0.47000000000E+01 0.  1.
         25    2    1    2    0    0 -0.34927853648E+02  0.64279110870E+02 -0.79333103236E+02  0.16512790860E+03  0.12498690281E+03 0.  0.
         25    2    1    2    0    0  0.34927853648E+02 -0.64279110870E+02 -0.12833674048E+03  0.19351238326E+03  0.12499985785E+03 0.  0.
          5    1    3    3  502    0  0.13207682829E+02  0.79603267439E+02 -0.80914118799E+02  0.11436917283E+03  0.47000000000E+01 0.  1.
         -5    1    3    3    0  502 -0.48135536476E+02 -0.15324156570E+02  0.15810155637E+01  0.50758735767E+02  0.47000000000E+01 0.  1.
          5    1    4    4  503    0  0.44663721377E+02 -0.89987114578E+02 -0.13138360319E+03  0.16545775891E+03  0.47000000000E+01 0. -1.
         -5    1    4    4    0  503 -0.97358677299E+01  0.25708003708E+02  0.30468627050E+01  0.28054624351E+02  0.47000000000E+01 0. -1.
<mgrwt>
<rscale>  0 0.14483064E+03</rscale>
<asrwt>0</asrwt>
<pdfrwt beam="2">  1        5 0.43562318E-01 0.14483343E+03</pdfrwt>
<pdfrwt beam="1">  1       -5 0.11613112E-01 0.14483343E+03</pdfrwt>
<totfact> 0.23122133E+02</totfact>
</mgrwt>
</event>
<event>
 8    1  0.3694627E-007  0.2428775E+03  0.7546771E-02  0.1117891E+00
          5   -1    0    0  501    0  0.00000000000E+00  0.00000000000E+00  0.71695182434E+02  0.71849072257E+02  0.47000000000E+01 0.  1.
         -5   -1    0    0    0  501 -0.00000000000E+00 -0.00000000000E+00 -0.84471266728E+03  0.84472574263E+03  0.47000000000E+01 0.  1.
         25    2    1    2    0    0 -0.20792029519E+03 -0.11505555926E+02 -0.31092549388E+03  0.39454298464E+03  0.12500510798E+03 0.  0.
         25    2    1    2    0    0  0.20792029519E+03  0.11505555926E+02 -0.46209199096E+03  0.52203183024E+03  0.12499998682E+03 0.  0.
          5    1    3    3  502    0 -0.74027505679E+02 -0.64852546538E+02 -0.13288235514E+03  0.16542591906E+03  0.47000000000E+01 0. -1.
         -5    1    3    3    0  502 -0.13389278951E+03  0.53346990612E+02 -0.17804313874E+03  0.22911706558E+03  0.47000000000E+01 0. -1.
          5    1    4    4  503    0  0.77127002196E+01 -0.17558987872E+02 -0.14180701749E+03  0.14317515151E+03  0.47000000000E+01 0. -1.
         -5    1    4    4    0  503  0.20020759497E+03  0.29064543798E+02 -0.32028497347E+03  0.37885667873E+03  0.47000000000E+01 0. -1.
<mgrwt>
<rscale>  0 0.24287689E+03</rscale>
<asrwt>0</asrwt>
<pdfrwt beam="1">  1        5 0.11042872E-01 0.24287755E+03</pdfrwt>
<pdfrwt beam="2">  1       -5 0.12996863E+00 0.24287755E+03</pdfrwt>
<totfact> 0.23141347E+01</totfact>
</mgrwt>
</event>
<event>
 8    1  0.3694627E-007  0.1347810E+03  0.7546771E-02  0.1220530E+00
         -5   -1    0    0    0  501 -0.00000000000E+00  0.00000000000E+00  0.87360847446E+03  0.87362111734E+03  0.47000000000E+01 0. -1.
          5   -1    0    0  501    0  0.00000000000E+00 -0.00000000000E+00 -0.22819614531E+02  0.23298600974E+02  0.47000000000E+01 0. -1.
         25    2    1    2    0    0  0.31303245149E+02 -0.39511420052E+02  0.56631321939E+03  0.58213039598E+03  0.12499635991E+03 0.  0.
         25    2    1    2    0    0 -0.31303245149E+02  0.39511420052E+02  0.28447564054E+03  0.31478932233E+03  0.12499952768E+03 0.  0.
          5    1    4    4  502    0  0.60415625942E+01 -0.42782865031E+02  0.10920670646E+03  0.11753752062E+03  0.47000000000E+01 0. -1.
         -5    1    4    4    0  502 -0.37344807743E+02  0.82294285082E+02  0.17526893408E+03  0.19725180171E+03  0.47000000000E+01 0. -1.
          5    1    3    3  503    0  0.66398823285E+02 -0.55932558770E+02  0.28053938348E+03  0.29370340574E+03  0.47000000000E+01 0.  1.
         -5    1    3    3    0  503 -0.35095578136E+02  0.16421138718E+02  0.28577383592E+03  0.28842699023E+03  0.47000000000E+01 0.  1.
<mgrwt>
<rscale>  0 0.13478030E+03</rscale>
<asrwt>0</asrwt>
<pdfrwt beam="2">  1        5 0.35485275E-02 0.13478103E+03</pdfrwt>
<pdfrwt beam="1">  1       -5 0.13443913E+00 0.13478103E+03</pdfrwt>
<totfact> 0.12399989E+02</totfact>
</mgrwt>
</event>
<event>
 8    1  0.3694627E-007  0.1530249E+03  0.7546771E-02  0.1196806E+00
          5   -1    0    0  501    0  0.00000000000E+00  0.00000000000E+00  0.52994757892E+03  0.52996842019E+03  0.47000000000E+01 0.  1.
         -5   -1    0    0    0  501 -0.00000000000E+00 -0.00000000000E+00 -0.44691361337E+02  0.44937821244E+02  0.47000000000E+01 0.  1.
         25    2    1    2    0    0 -0.38964106479E+02  0.79193187718E+02  0.20798229974E+03  0.25820851871E+03  0.12500095821E+03 0.  0.
         25    2    1    2    0    0  0.38964106479E+02 -0.79193187718E+02  0.27727391784E+03  0.31669772273E+03  0.12500743775E+03 0.  0.
          5    1    4    4  502    0 -0.40343553522E+02 -0.12899711391E+02  0.12924782110E+03  0.13609222654E+03  0.47000000000E+01 0.  1.
         -5    1    4    4    0  502  0.79307660001E+02 -0.66293476327E+02  0.14802609674E+03  0.18060549619E+03  0.47000000000E+01 0.  1.
          5    1    3    3  503    0 -0.19969538984E+02 -0.27159096198E+02  0.15433776044E+02  0.37372321797E+02  0.47000000000E+01 0.  1.
         -5    1    3    3    0  503 -0.18994567495E+02  0.10635228392E+03  0.19254852369E+03  0.22083619691E+03  0.47000000000E+01 0.  1.
<mgrwt>
<rscale>  0 0.15302358E+03</rscale>
<asrwt>0</asrwt>
<pdfrwt beam="1">  1        5 0.81550965E-01 0.15302491E+03</pdfrwt>
<pdfrwt beam="2">  1       -5 0.68961551E-02 0.15302491E+03</pdfrwt>
<totfact> 0.14682919E+02</totfact>
</mgrwt>
</event>
<event>
 8    1  0.3694627E-007  0.1266518E+03  0.7546771E-02  0.1232511E+00
          5   -1    0    0  501    0  0.00000000000E+00  0.00000000000E+00  0.52330823924E+02  0.52541461082E+02  0.47000000000E+01 0. -1.
         -5   -1    0    0    0  501 -0.00000000000E+00 -0.00000000000E+00 -0.30679292802E+03  0.30682892739E+03  0.47000000000E+01 0. -1.
         25    2    1    2    0    0 -0.25484423358E+01 -0.20223115852E+02 -0.13806393470E+03  0.18735613477E+03  0.12500080879E+03 0.  0.
         25    2    1    2    0    0  0.25484423358E+01  0.20223115852E+02 -0.11639816940E+03  0.17201425370E+03  0.12499960266E+03 0.  0.
          5    1    4    4  502    0 -0.23279158695E+02 -0.19542609858E+02  0.13547799360E+02  0.33607524412E+02  0.47000000000E+01 0.  1.
         -5    1    4    4    0  502  0.25827601031E+02  0.39765725710E+02 -0.12994596876E+03  0.13840672929E+03  0.47000000000E+01 0.  1.
          5    1    3    3  503    0  0.17301351107E+02  0.18515529774E+02  0.13850340656E+02  0.29258905127E+02  0.47000000000E+01 0.  1.
         -5    1    3    3    0  503 -0.19849793442E+02 -0.38738645626E+02 -0.15191427535E+03  0.15809722964E+03  0.47000000000E+01 0.  1.
<mgrwt>
<rscale>  0 0.12665147E+03</rscale>
<asrwt>0</asrwt>
<pdfrwt beam="1">  1        5 0.80698682E-02 0.12665177E+03</pdfrwt>
<pdfrwt beam="2">  1       -5 0.47217883E-01 0.12665177E+03</pdfrwt>
<totfact> 0.35147003E+02</totfact>
</mgrwt>
</event>
<event>
 8    1  0.3694627E-007  0.1555330E+03  0.7546771E-02  0.1193837E+00
         -5   -1    0    0    0  501 -0.00000000000E+00  0.00000000000E+00  0.74187125641E+02  0.74335856831E+02  0.47000000000E+01 0.  1.
          5   -1    0    0  501    0  0.00000000000E+00 -0.00000000000E+00 -0.38601396270E+03  0.38604257459E+03  0.47000000000E+01 0.  1.
         25    2    1    2    0    0 -0.14866273685E+02 -0.91334887644E+02 -0.64840141709E+02  0.16850014705E+03  0.12499995114E+03 0.  0.
         25    2    1    2    0    0  0.14866273685E+02  0.91334887644E+02 -0.24698669535E+03  0.29187828438E+03  0.12500974929E+03 0.  0.
          5    1    4    4  502    0  0.40611052520E+02  0.32083851752E+01 -0.17355907063E+02  0.44529415359E+02  0.47000000000E+01 0.  1.
         -5    1    4    4    0  502 -0.25744778836E+02  0.88126502469E+02 -0.22963078829E+03  0.24734886902E+03  0.47000000000E+01 0.  1.
          5    1    3    3  503    0  0.41482299524E+02 -0.93643844501E+01  0.99913930337E+01  0.43936212908E+02  0.47000000000E+01 0.  1.
         -5    1    3    3    0  503 -0.56348573209E+02 -0.81970503194E+02 -0.74831534743E+02  0.12456393414E+03  0.47000000000E+01 0.  1.
<mgrwt>
<rscale>  0 0.15553100E+03</rscale>
<asrwt>0</asrwt>
<pdfrwt beam="2">  1        5 0.59400404E-01 0.15553297E+03</pdfrwt>
<pdfrwt beam="1">  1       -5 0.11427046E-01 0.15553297E+03</pdfrwt>
<totfact> 0.12578740E+02</totfact>
</mgrwt>
</event>
<event>
 8    1  0.3694627E-007  0.1271553E+03  0.7546771E-02  0.1231740E+00
          5   -1    0    0  501    0  0.00000000000E+00  0.00000000000E+00  0.40310798648E+03  0.40313538516E+03  0.47000000000E+01 0. -1.
         -5   -1    0    0    0  501 -0.00000000000E+00 -0.00000000000E+00 -0.40700392846E+02  0.40970867428E+02  0.47000000000E+01 0. -1.
         25    2    1    2    0    0  0.15073320155E+02  0.17760322791E+02  0.15100280636E+03  0.19740903012E+03  0.12500337435E+03 0.  0.
         25    2    1    2    0    0 -0.15073320155E+02 -0.17760322791E+02  0.21140478728E+03  0.24669722246E+03  0.12499960576E+03 0.  0.
          5    1    3    3  502    0 -0.19907575661E+02 -0.67274423228E+01  0.15290021150E+03  0.15440898525E+03  0.47000000000E+01 0. -1.
         -5    1    3    3    0  502  0.34980895816E+02  0.24487765114E+02 -0.18974051474E+01  0.43000044868E+02  0.47000000000E+01 0. -1.
          5    1    4    4  503    0  0.46049055630E+02 -0.38537498954E+02  0.79233547803E+02  0.99527380391E+02  0.47000000000E+01 0. -1.
         -5    1    4    4    0  503 -0.61122375786E+02  0.20777176163E+02  0.13217123948E+03  0.14716984207E+03  0.47000000000E+01 0. -1.
<mgrwt>
<rscale>  0 0.12715440E+03</rscale>
<asrwt>0</asrwt>
<pdfrwt beam="1">  1        5 0.62039527E-01 0.12715533E+03</pdfrwt>
<pdfrwt beam="2">  1       -5 0.62845121E-02 0.12715533E+03</pdfrwt>
<totfact> 0.29958100E+02</totfact>
</mgrwt>
</event>
<event>
 8    1  0.3694627E-007  0.1379452E+03  0.7546771E-02  0.1216130E+00
         -5   -1    0    0    0  501 -0.00000000000E+00  0.00000000000E+00  0.46747715749E+02  0.46983389914E+02  0.47000000000E+01 0.  1.
          5   -1    0    0  501    0  0.00000000000E+00 -0.00000000000E+00 -0.43364667146E+03  0.43367214076E+03  0.47000000000E+01 0.  1.
         25    2    1    2    0    0  0.50206403909E+02  0.29600781099E+02 -0.25444888300E+03  0.28943583597E+03  0.12502791629E+03 0.  0.
         25    2    1    2    0    0 -0.50206403909E+02 -0.29600781099E+02 -0.13245007271E+03  0.19121969470E+03  0.12500024257E+03 0.  0.
          5    1    3    3  502    0  0.41640994099E+02  0.76906788186E+02 -0.18678418142E+03  0.20629844132E+03  0.47000000000E+01 0. -1.
         -5    1    3    3    0  502  0.85654098105E+01 -0.47306007087E+02 -0.67664701574E+02  0.83137394659E+02  0.47000000000E+01 0. -1.
          5    1    4    4  503    0  0.16967149619E+02 -0.61089360460E+02 -0.62073876423E+02  0.88854095358E+02  0.47000000000E+01 0.  1.
         -5    1    4    4    0  503 -0.67173553528E+02  0.31488579361E+02 -0.70376196291E+02  0.10236559934E+03  0.47000000000E+01 0.  1.
<mgrwt>
<rscale>  0 0.13793890E+03</rscale>
<asrwt>0</asrwt>
<pdfrwt beam="2">  1        5 0.66734958E-01 0.13794517E+03</pdfrwt>
<pdfrwt beam="1">  1       -5 0.72120445E-02 0.13794517E+03</pdfrwt>
<totfact> 0.20771585E+02</totfact>
</mgrwt>
</event>
<event>
 8    1  0.3694627E-007  0.1272176E+03  0.7546771E-02  0.1231644E+00
          5   -1    0    0  501    0  0.00000000000E+00  0.00000000000E+00  0.31041098976E+02  0.31394901268E+02  0.47000000000E+01 0.  1.
         -5   -1    0    0    0  501 -0.00000000000E+00 -0.00000000000E+00 -0.54524893290E+03  0.54526918932E+03  0.47000000000E+01 0.  1.
         25    2    1    2    0    0  0.23640962828E+02  0.10358264271E+01 -0.32146353796E+03  0.34572106317E+03  0.12499711684E+03 0.  0.
         25    2    1    2    0    0 -0.23640962828E+02 -0.10358264271E+01 -0.19274429596E+03  0.23094302742E+03  0.12499740089E+03 0.  0.
          5    1    4    4  502    0 -0.34848831324E+02 -0.53918138855E+02 -0.14508263838E+03  0.15872198556E+03  0.47000000000E+01 0.  1.
         -5    1    4    4    0  502  0.11207868496E+02  0.52882312428E+02 -0.47661657582E+02  0.72221041861E+02  0.47000000000E+01 0.  1.
          5    1    3    3  503    0  0.72038270110E+02 -0.30918196124E+01 -0.13670789250E+03  0.15462926495E+03  0.47000000000E+01 0. -1.
         -5    1    3    3    0  503 -0.48397307282E+02  0.41276460395E+01 -0.18475564547E+03  0.19109179822E+03  0.47000000000E+01 0. -1.
<mgrwt>
<rscale>  0 0.12721753E+03</rscale>
<asrwt>0</asrwt>
<pdfrwt beam="1">  1        5 0.48043278E-02 0.12721760E+03</pdfrwt>
<pdfrwt beam="2">  1       -5 0.83913218E-01 0.12721760E+03</pdfrwt>
<totfact> 0.23678862E+02</totfact>
</mgrwt>
</event>
<event>
 8    1  0.3694627E-007  0.1288535E+03  0.7546771E-02  0.1229170E+00
         -5   -1    0    0    0  501 -0.00000000000E+00  0.00000000000E+00  0.28146840980E+02  0.28536549497E+02  0.47000000000E+01 0. -1.
          5   -1    0    0  501    0  0.00000000000E+00 -0.00000000000E+00 -0.58545841571E+03  0.58547728097E+03  0.47000000000E+01 0. -1.
         25    2    1    2    0    0  0.82797317007E+00 -0.31274161619E+02 -0.28201654312E+03  0.31005896524E+03  0.12499789042E+03 0.  0.
         25    2    1    2    0    0 -0.82797317007E+00  0.31274161619E+02 -0.27529503162E+03  0.30395486522E+03  0.12498978733E+03 0.  0.
          5    1    3    3  502    0  0.43215346048E+02 -0.27879504812E+02 -0.25335218357E+03  0.25856189171E+03  0.47000000000E+01 0. -1.
         -5    1    3    3    0  502 -0.42387372878E+02 -0.33946568065E+01 -0.28664359546E+02  0.51497073533E+02  0.47000000000E+01 0. -1.
          5    1    4    4  503    0  0.53580053063E+02 -0.32303069317E+01 -0.18663597155E+03  0.19425841770E+03  0.47000000000E+01 0. -1.
         -5    1    4    4    0  503 -0.54408026233E+02  0.34504468550E+02 -0.88659060063E+02  0.10969644753E+03  0.47000000000E+01 0. -1.
<mgrwt>
<rscale>  0 0.12885156E+03</rscale>
<asrwt>0</asrwt>
<pdfrwt beam="2">  1        5 0.90101945E-01 0.12885353E+03</pdfrwt>
<pdfrwt beam="1">  1       -5 0.43617124E-02 0.12885353E+03</pdfrwt>
<totfact> 0.23603709E+02</totfact>
</mgrwt>
</event>
<event>
 8    1  0.3694627E-007  0.1647379E+03  0.7546771E-02  0.1183452E+00
          5   -1    0    0  501    0  0.00000000000E+00  0.00000000000E+00  0.30417135019E+03  0.30420765979E+03  0.47000000000E+01 0.  1.
         -5   -1    0    0    0  501 -0.00000000000E+00 -0.00000000000E+00 -0.93345430211E+02  0.93463679263E+02  0.47000000000E+01 0.  1.
         25    2    1    2    0    0  0.75198386436E+02  0.76536644860E+02  0.63109739633E+02  0.17641261856E+03  0.12500366964E+03 0.  0.
         25    2    1    2    0    0 -0.75198386436E+02 -0.76536644860E+02  0.14771618035E+03  0.22125872049E+03  0.12499078418E+03 0.  0.
          5    1    4    4  502    0 -0.95250177632E+02 -0.68499565089E+02  0.15801926888E+03  0.19686788995E+03  0.47000000000E+01 0. -1.
         -5    1    4    4    0  502  0.20051791196E+02 -0.80370797715E+01 -0.10303088531E+02  0.24390830545E+02  0.47000000000E+01 0. -1.
          5    1    3    3  503    0  0.48262934843E+02  0.84990125303E+02 -0.95541272368E+01  0.98315836089E+02  0.47000000000E+01 0.  1.
         -5    1    3    3    0  503  0.26935451593E+02 -0.84534804432E+01  0.72663866870E+02  0.78096782473E+02  0.47000000000E+01 0.  1.
<mgrwt>
<rscale>  0 0.16473545E+03</rscale>
<asrwt>0</asrwt>
<pdfrwt beam="1">  1        5 0.46807482E-01 0.16473789E+03</pdfrwt>
<pdfrwt beam="2">  1       -5 0.14372724E-01 0.16473789E+03</pdfrwt>
<totfact> 0.14166184E+02</totfact>
</mgrwt>
</event>
<event>
 8    1  0.3694627E-007  0.1279845E+03  0.7546771E-02  0.1230480E+00
         -5   -1    0    0    0  501 -0.00000000000E+00  0.00000000000E+00  0.26379604678E+02  0.26795028326E+02  0.47000000000E+01 0.  1.
          5   -1    0    0  501    0  0.00000000000E+00 -0.00000000000E+00 -0.62599282541E+03  0.62601046913E+03  0.47000000000E+01 0.  1.
         25    2    1    2    0    0 -0.79113948623E+01  0.26294619434E+02 -0.25782141896E+03  0.28783744631E+03  0.12499805697E+03 0.  0.
         25    2    1    2    0    0  0.79113948623E+01 -0.26294619434E+02 -0.34179180178E+03  0.36496805115E+03  0.12500418161E+03 0.  0.
          5    1    4    4  502    0 -0.22789465393E+02 -0.37798466023E+02 -0.35354458792E+02  0.56746026496E+02  0.47000000000E+01 0. -1.
         -5    1    4    4    0  502  0.30700860256E+02  0.11503846589E+02 -0.30643734299E+03  0.30822202466E+03  0.47000000000E+01 0. -1.
          5    1    3    3  503    0 -0.63447469739E+02  0.46077792347E+01 -0.17011896371E+03  0.18168479534E+03  0.47000000000E+01 0.  1.
         -5    1    3    3    0  503  0.55536074877E+02  0.21686840199E+02 -0.87702455246E+02  0.10615265096E+03  0.47000000000E+01 0.  1.
<mgrwt>
<rscale>  0 0.12798304E+03</rscale>
<asrwt>0</asrwt>
<pdfrwt beam="2">  1        5 0.96339890E-01 0.12798454E+03</pdfrwt>
<pdfrwt beam="1">  1       -5 0.40917141E-02 0.12798454E+03</pdfrwt>
<totfact> 0.22291663E+02</totfact>
</mgrwt>
</event>
<event>
 8    1  0.3694627E-007  0.1566883E+03  0.7546771E-02  0.1192491E+00
          5   -1    0    0  501    0  0.00000000000E+00  0.00000000000E+00  0.42181090761E+02  0.42442130222E+02  0.47000000000E+01 0. -1.
         -5   -1    0    0    0  501 -0.00000000000E+00 -0.00000000000E+00 -0.72330162449E+03  0.72331689458E+03  0.47000000000E+01 0. -1.
         25    2    1    2    0    0 -0.74871992388E+02 -0.57621453958E+02 -0.51100462190E+03  0.53448755107E+03  0.12500068578E+03 0.  0.
         25    2    1    2    0    0  0.74871992388E+02  0.57621453958E+02 -0.17011591183E+03  0.23127147373E+03  0.12498409461E+03 0.  0.
          5    1    4    4  502    0  0.10369980778E+03  0.33701064814E+02 -0.85591999527E+02  0.13869928726E+03  0.47000000000E+01 0. -1.
         -5    1    4    4    0  502 -0.28827815396E+02  0.23920389144E+02 -0.84523912302E+02  0.92572186472E+02  0.47000000000E+01 0. -1.
          5    1    3    3  503    0  0.43630298993E+01 -0.28471956696E+02 -0.36190308475E+03  0.36307798212E+03  0.47000000000E+01 0. -1.
         -5    1    3    3    0  503 -0.79235022287E+02 -0.29149497261E+02 -0.14910153714E+03  0.17140956895E+03  0.47000000000E+01 0. -1.
<mgrwt>
<rscale>  0 0.15668498E+03</rscale>
<asrwt>0</asrwt>
<pdfrwt beam="1">  1        5 0.65106537E-02 0.15668828E+03</pdfrwt>
<pdfrwt beam="2">  1       -5 0.11129842E+00 0.15668828E+03</pdfrwt>
<totfact> 0.76996287E+01</totfact>
</mgrwt>
</event>
<event>
 8    1  0.3694627E-007  0.2232314E+03  0.7546771E-02  0.1131498E+00
         -5   -1    0    0    0  501 -0.00000000000E+00  0.00000000000E+00  0.44316848490E+03  0.44319340701E+03  0.47000000000E+01 0.  1.
          5   -1    0    0  501    0  0.00000000000E+00 -0.00000000000E+00 -0.23215930469E+03  0.23220687491E+03  0.47000000000E+01 0.  1.
         25    2    1    2    0    0  0.18316319221E+03  0.25661410476E+02  0.34803426157E+03  0.41347324159E+03  0.12500004529E+03 0.  0.
         25    2    1    2    0    0 -0.18316319221E+03 -0.25661410476E+02 -0.13702508135E+03  0.26192704032E+03  0.12499055390E+03 0.  0.
          5    1    4    4  502    0 -0.22937415777E+02 -0.29009480488E+02  0.15744475942E+02  0.40467932038E+02  0.47000000000E+01 0.  1.
         -5    1    4    4    0  502 -0.16022577643E+03  0.33480700116E+01 -0.15276955729E+03  0.22145910828E+03  0.47000000000E+01 0.  1.
          5    1    3    3  503    0 -0.35407584129E+01 -0.65927825875E-01 -0.83972203810E+01  0.10254005400E+02  0.47000000000E+01 0. -1.
         -5    1    3    3    0  503  0.18670395062E+03  0.25727338302E+02  0.35643148195E+03  0.40321923619E+03  0.47000000000E+01 0. -1.
<mgrwt>
<rscale>  0 0.22323011E+03</rscale>
<asrwt>0</asrwt>
<pdfrwt beam="2">  1        5 0.35722393E-01 0.22323144E+03</pdfrwt>
<pdfrwt beam="1">  1       -5 0.68185343E-01 0.22323144E+03</pdfrwt>
<totfact> 0.11888968E+01</totfact>
</mgrwt>
</event>
<event>
 8    1  0.3694627E-007  0.1262036E+03  0.7546771E-02  0.1233202E+00
          5   -1    0    0  501    0  0.00000000000E+00  0.00000000000E+00  0.56981110616E+02  0.57174618206E+02  0.47000000000E+01 0.  1.
         -5   -1    0    0    0  501 -0.00000000000E+00 -0.00000000000E+00 -0.33920955769E+03  0.33924211712E+03  0.47000000000E+01 0.  1.
         25    2    1    2    0    0 -0.16787648752E+02  0.44944901779E+01 -0.22471361362E+03  0.25772530750E+03  0.12499640150E+03 0.  0.
         25    2    1    2    0    0  0.16787648752E+02 -0.44944901779E+01 -0.57514833456E+02  0.13869142783E+03  0.12500132196E+03 0.  0.
          5    1    4    4  502    0 -0.41913726421E+02 -0.24274474397E+02  0.69598758781E+01  0.49158320170E+02  0.47000000000E+01 0.  1.
         -5    1    4    4    0  502  0.58701375173E+02  0.19779984219E+02 -0.64474709334E+02  0.89533107657E+02  0.47000000000E+01 0.  1.
          5    1    3    3  503    0 -0.88538926931E+01  0.41141409441E+02 -0.21441700201E+03  0.21855833944E+03  0.47000000000E+01 0.  1.
         -5    1    3    3    0  503 -0.79337560591E+01 -0.36646919263E+02 -0.10296611609E+02  0.39166968064E+02  0.47000000000E+01 0.  1.
<mgrwt>
<rscale>  0 0.12620241E+03</rscale>
<asrwt>0</asrwt>
<pdfrwt beam="1">  1        5 0.87837147E-02 0.12620363E+03</pdfrwt>
<pdfrwt beam="2">  1       -5 0.52203474E-01 0.12620363E+03</pdfrwt>
<totfact> 0.24543025E+02</totfact>
</mgrwt>
</event>
<event>
 8    1  0.3694627E-007  0.2409492E+03  0.7546771E-02  0.1119163E+00
          5   -1    0    0  501    0  0.00000000000E+00  0.00000000000E+00  0.86099985251E+02  0.86228170920E+02  0.47000000000E+01 0.  1.
         -5   -1    0    0    0  501 -0.00000000000E+00 -0.00000000000E+00 -0.90281671882E+03  0.90282895267E+03  0.47000000000E+01 0.  1.
         25    2    1    2    0    0  0.19776973270E+03  0.57616352426E+02 -0.65749258808E+03  0.70025125595E+03  0.12499122708E+03 0.  0.
         25    2    1    2    0    0 -0.19776973270E+03 -0.57616352426E+02 -0.15922414549E+03  0.28880586764E+03  0.12499595768E+03 0.  0.
          5    1    4    4  502    0  0.15692858501E+02 -0.16311196334E+02 -0.20147348176E+02  0.30664744778E+02  0.47000000000E+01 0. -1.
         -5    1    4    4    0  502 -0.21346259120E+03 -0.41305156092E+02 -0.13907679731E+03  0.25814112286E+03  0.47000000000E+01 0. -1.
          5    1    3    3  503    0  0.18912092976E+03  0.35095976252E+02 -0.64417783788E+03  0.67229876576E+03  0.47000000000E+01 0.  1.
         -5    1    3    3    0  503  0.86488029397E+01  0.22520376174E+02 -0.13314750199E+02  0.27952490196E+02  0.47000000000E+01 0.  1.
<mgrwt>
<rscale>  0 0.24094855E+03</rscale>
<asrwt>0</asrwt>
<pdfrwt beam="1">  1        5 0.13256954E-01 0.24094917E+03</pdfrwt>
<pdfrwt beam="2">  1       -5 0.13890567E+00 0.24094917E+03</pdfrwt>
<totfact> 0.13947267E+01</totfact>
</mgrwt>
</event>
<event>
 8    1  0.3694627E-007  0.1468325E+03  0.7546771E-02  0.1204435E+00
          5   -1    0    0  501    0  0.00000000000E+00  0.00000000000E+00  0.12370024421E+03  0.12378950044E+03  0.47000000000E+01 0.  1.
         -5   -1    0    0    0  501 -0.00000000000E+00 -0.00000000000E+00 -0.18254054196E+03  0.18260103904E+03  0.47000000000E+01 0.  1.
         25    2    1    2    0    0  0.72121809582E+02  0.27079469799E+02 -0.62449857701E+02  0.15956114156E+03  0.12499968026E+03 0.  0.
         25    2    1    2    0    0 -0.72121809582E+02 -0.27079469799E+02  0.36095599596E+01  0.14682939792E+03  0.12494394771E+03 0.  0.
          5    1    4    4  502    0 -0.10302902088E+03  0.28636080321E+01  0.69640029357E+01  0.10341067030E+03  0.47000000000E+01 0.  1.
         -5    1    4    4    0  502  0.30907211301E+02 -0.29943077831E+02 -0.33544429761E+01  0.43418727619E+02  0.47000000000E+01 0.  1.
          5    1    3    3  503    0 -0.12703519380E+01  0.18011780552E+02  0.33490418588E+02  0.38337138259E+02  0.47000000000E+01 0. -1.
         -5    1    3    3    0  503  0.73392161521E+02  0.90676892466E+01 -0.95940276288E+02  0.12122400330E+03  0.47000000000E+01 0. -1.
<mgrwt>
<rscale>  0 0.14682060E+03</rscale>
<asrwt>0</asrwt>
<pdfrwt beam="1">  1        5 0.19042326E-01 0.14683247E+03</pdfrwt>
<pdfrwt beam="2">  1       -5 0.28094680E-01 0.14683247E+03</pdfrwt>
<totfact> 0.22882454E+02</totfact>
</mgrwt>
</event>
<event>
 8    1  0.3694627E-007  0.1272318E+03  0.7546771E-02  0.1231624E+00
         -5   -1    0    0    0  501 -0.00000000000E+00  0.00000000000E+00  0.68546775067E+02  0.68707716976E+02  0.47000000000E+01 0.  1.
          5   -1    0    0  501    0  0.00000000000E+00 -0.00000000000E+00 -0.23621948190E+03  0.23626623463E+03  0.47000000000E+01 0.  1.
         25    2    1    2    0    0 -0.15300425075E+02  0.18116866247E+02 -0.76600494030E+02  0.14851114685E+03  0.12500240479E+03 0.  0.
         25    2    1    2    0    0  0.15300425075E+02 -0.18116866247E+02 -0.91072212801E+02  0.15646280476E+03  0.12499654987E+03 0.  0.
          5    1    3    3  502    0  0.36018140683E+02  0.39433392609E+02 -0.75666611487E+02  0.92735241440E+02  0.47000000000E+01 0.  1.
         -5    1    3    3    0  502 -0.51318565758E+02 -0.21316526362E+02 -0.93388254309E+00  0.55775905410E+02  0.47000000000E+01 0.  1.
          5    1    4    4  503    0  0.43433309392E+02 -0.39194271988E+02 -0.10341637043E+03  0.11891038220E+03  0.47000000000E+01 0.  1.
         -5    1    4    4    0  503 -0.28132884317E+02  0.21077405741E+02  0.12344157630E+02  0.37552422563E+02  0.47000000000E+01 0.  1.
<mgrwt>
<rscale>  0 0.12723034E+03</rscale>
<asrwt>0</asrwt>
<pdfrwt beam="2">  1        5 0.36357435E-01 0.12723178E+03</pdfrwt>
<pdfrwt beam="1">  1       -5 0.10561634E-01 0.12723178E+03</pdfrwt>
<totfact> 0.37789723E+02</totfact>
</mgrwt>
</event>
<event>
 8    1  0.3694627E-007  0.1272618E+03  0.7546771E-02  0.1231576E+00
          5   -1    0    0  501    0  0.00000000000E+00  0.00000000000E+00  0.48982917743E+02  0.49207887890E+02  0.47000000000E+01 0. -1.
         -5   -1    0    0    0  501 -0.00000000000E+00 -0.00000000000E+00 -0.33470131826E+03  0.33473431620E+03  0.47000000000E+01 0. -1.
         25    2    1    2    0    0 -0.17199423738E+02  0.16558157296E+02 -0.16646223479E+03  0.20953576467E+03  0.12500227324E+03 0.  0.
         25    2    1    2    0    0  0.17199423738E+02 -0.16558157296E+02 -0.11925616572E+03  0.17440643942E+03  0.12500232117E+03 0.  0.
          5    1    3    3  502    0 -0.71459803740E+02  0.98828171092E+01 -0.98683713189E+02  0.12233044949E+03  0.47000000000E+01 0. -1.
         -5    1    3    3    0  502  0.54260380002E+02  0.66753401866E+01 -0.67778521602E+02  0.87205315177E+02  0.47000000000E+01 0. -1.
          5    1    4    4  503    0 -0.50445472323E+02 -0.16585177451E+02 -0.26568304439E+02  0.59563231861E+02  0.47000000000E+01 0. -1.
         -5    1    4    4    0  503  0.67644896061E+02  0.27020155234E-01 -0.92687861286E+02  0.11484320756E+03  0.47000000000E+01 0. -1.
<mgrwt>
<rscale>  0 0.12726182E+03</rscale>
<asrwt>0</asrwt>
<pdfrwt beam="1">  1        5 0.75556774E-02 0.12726183E+03</pdfrwt>
<pdfrwt beam="2">  1       -5 0.51512353E-01 0.12726183E+03</pdfrwt>
<totfact> 0.32786974E+02</totfact>
</mgrwt>
</event>
<event>
 8    1  0.3694627E-007  0.1785836E+03  0.7546771E-02  0.1169182E+00
          5   -1    0    0  501    0  0.00000000000E+00  0.00000000000E+00  0.12845525976E+03  0.12854121424E+03  0.47000000000E+01 0. -1.
         -5   -1    0    0    0  501 -0.00000000000E+00 -0.00000000000E+00 -0.25383774859E+03  0.25388125691E+03  0.47000000000E+01 0. -1.
         25    2    1    2    0    0  0.29939604199E+02  0.12397572154E+03 -0.91484276321E+02  0.20065013531E+03  0.12499897822E+03 0.  0.
         25    2    1    2    0    0 -0.29939604199E+02 -0.12397572154E+03 -0.33898212515E+02  0.18177233584E+03  0.12500293530E+03 0.  0.
          5    1    4    4  502    0  0.25639183505E+01  0.40777679693E+01 -0.48323428600E+02  0.48789810623E+02  0.47000000000E+01 0. -1.
         -5    1    4    4    0  502 -0.32503522549E+02 -0.12805348951E+03  0.14425216085E+02  0.13298252522E+03  0.47000000000E+01 0. -1.
          5    1    3    3  503    0  0.71902513434E+02  0.77678303248E+02 -0.24150157857E+02  0.10867019075E+03  0.47000000000E+01 0.  1.
         -5    1    3    3    0  503 -0.41962909236E+02  0.46297418293E+02 -0.67334118464E+02  0.91979944561E+02  0.47000000000E+01 0.  1.
<mgrwt>
<rscale>  0 0.17858288E+03</rscale>
<asrwt>0</asrwt>
<pdfrwt beam="1">  1        5 0.19772306E-01 0.17858358E+03</pdfrwt>
<pdfrwt beam="2">  1       -5 0.39061920E-01 0.17858358E+03</pdfrwt>
<totfact> 0.11746810E+02</totfact>
</mgrwt>
</event>
<event>
 8    1  0.3694627E-007  0.1941802E+03  0.7546771E-02  0.1154745E+00
         -5   -1    0    0    0  501 -0.00000000000E+00  0.00000000000E+00  0.69816235471E+03  0.69817817463E+03  0.47000000000E+01 0. -1.
          5   -1    0    0  501    0  0.00000000000E+00 -0.00000000000E+00 -0.66221864658E+02  0.66388442961E+02  0.47000000000E+01 0. -1.
         25    2    1    2    0    0  0.14834044976E+03 -0.86632887328E+01  0.48070265447E+03  0.51843895528E+03  0.12499586684E+03 0.  0.
         25    2    1    2    0    0 -0.14834044976E+03  0.86632887328E+01  0.15123783558E+03  0.24612766231E+03  0.12500400649E+03 0.  0.
          5    1    4    4  502    0 -0.35167120369E+02  0.18886895677E+02 -0.16516352824E+02  0.43454816695E+02  0.47000000000E+01 0.  1.
         -5    1    4    4    0  502 -0.11317332939E+03 -0.10223606944E+02  0.16775418840E+03  0.20267284562E+03  0.47000000000E+01 0.  1.
          5    1    3    3  503    0  0.12776271408E+03 -0.23822673618E+02  0.47411752764E+03  0.49163029900E+03  0.47000000000E+01 0.  1.
         -5    1    3    3    0  503  0.20577735684E+02  0.15159384885E+02  0.65851268381E+01  0.26808656278E+02  0.47000000000E+01 0.  1.
<mgrwt>
<rscale>  0 0.19417887E+03</rscale>
<asrwt>0</asrwt>
<pdfrwt beam="2">  1        5 0.10202011E-01 0.19418018E+03</pdfrwt>
<pdfrwt beam="1">  1       -5 0.10742362E+00 0.19418018E+03</pdfrwt>
<totfact> 0.41144329E+01</totfact>
</mgrwt>
</event>
<event>
 8    1  0.3694627E-007  0.1277806E+03  0.7546771E-02  0.1230789E+00
         -5   -1    0    0    0  501 -0.00000000000E+00  0.00000000000E+00  0.19983276855E+03  0.19988803212E+03  0.47000000000E+01 0.  1.
          5   -1    0    0  501    0  0.00000000000E+00 -0.00000000000E+00 -0.13365650531E+03  0.13373911699E+03  0.47000000000E+01 0.  1.
         25    2    1    2    0    0  0.19504547908E+02  0.17913402123E+02  0.13715929771E+03  0.18745443648E+03  0.12500070176E+03 0.  0.
         25    2    1    2    0    0 -0.19504547908E+02 -0.17913402123E+02 -0.70983034477E+02  0.14617271264E+03  0.12500621333E+03 0.  0.
          5    1    4    4  502    0  0.11406547453E+02 -0.57760160207E+02 -0.11176096327E+00  0.59063084261E+02  0.47000000000E+01 0.  1.
         -5    1    4    4    0  502 -0.30911095362E+02  0.39846758083E+02 -0.70871273514E+02  0.87109628375E+02  0.47000000000E+01 0.  1.
          5    1    3    3  503    0 -0.23060887683E+02  0.28864237093E+02  0.13831085216E+03  0.14323732247E+03  0.47000000000E+01 0.  1.
         -5    1    3    3    0  503  0.42565435591E+02 -0.10950834970E+02 -0.11515544416E+01  0.44217114008E+02  0.47000000000E+01 0.  1.
<mgrwt>
<rscale>  0 0.12777921E+03</rscale>
<asrwt>0</asrwt>
<pdfrwt beam="2">  1        5 0.20573145E-01 0.12778056E+03</pdfrwt>
<pdfrwt beam="1">  1       -5 0.30754109E-01 0.12778056E+03</pdfrwt>
<totfact> 0.15833130E+02</totfact>
</mgrwt>
</event>
<event>
 8    1  0.3694627E-007  0.1266572E+03  0.7546771E-02  0.1232503E+00
          5   -1    0    0  501    0  0.00000000000E+00  0.00000000000E+00  0.31569012119E+03  0.31572510609E+03  0.47000000000E+01 0.  1.
         -5   -1    0    0    0  501 -0.00000000000E+00 -0.00000000000E+00 -0.69044464432E+02  0.69204248921E+02  0.47000000000E+01 0.  1.
         25    2    1    2    0    0  0.18548488975E+02 -0.84183218807E+01  0.24187954838E+02  0.12894209997E+03  0.12500437352E+03 0.  0.
         25    2    1    2    0    0 -0.18548488975E+02  0.84183218807E+01  0.22245770192E+03  0.25598725504E+03  0.12500852377E+03 0.  0.
          5    1    3    3  502    0  0.37879857546E+02  0.29884109202E+02 -0.32003000092E+02  0.58088084883E+02  0.47000000000E+01 0.  1.
         -5    1    3    3    0  502 -0.19331368571E+02 -0.38302431083E+02  0.56190954930E+02  0.70854015084E+02  0.47000000000E+01 0.  1.
          5    1    4    4  503    0  0.17393231817E+02 -0.34149181103E+02  0.15491788418E+02  0.41602603181E+02  0.47000000000E+01 0. -1.
         -5    1    4    4    0  503 -0.35941720792E+02  0.42567502983E+02  0.20696591350E+03  0.21438465186E+03  0.47000000000E+01 0. -1.
<mgrwt>
<rscale>  0 0.12665617E+03</rscale>
<asrwt>0</asrwt>
<pdfrwt beam="1">  1        5 0.48582692E-01 0.12665720E+03</pdfrwt>
<pdfrwt beam="2">  1       -5 0.10637208E-01 0.12665720E+03</pdfrwt>
<totfact> 0.20517883E+02</totfact>
</mgrwt>
</event>
<event>
 8    1  0.3694627E-007  0.1261259E+03  0.7546771E-02  0.1233326E+00
          5   -1    0    0  501    0  0.00000000000E+00  0.00000000000E+00  0.38389619496E+02  0.38676257381E+02  0.47000000000E+01 0.  1.
         -5   -1    0    0    0  501 -0.00000000000E+00 -0.00000000000E+00 -0.47441456723E+03  0.47443784798E+03  0.47000000000E+01 0.  1.
         25    2    1    2    0    0 -0.86919733771E+01  0.14380293221E+02 -0.31066449198E+03  0.33528556360E+03  0.12498655666E+03 0.  0.
         25    2    1    2    0    0  0.86919733771E+01 -0.14380293221E+02 -0.12536045575E+03  0.17782854176E+03  0.12500161265E+03 0.  0.
          5    1    3    3  502    0 -0.43760039289E+02 -0.46976272332E+01 -0.28311410881E+03  0.28655313181E+03  0.47000000000E+01 0. -1.
         -5    1    3    3    0  502  0.35068065912E+02  0.19077920454E+02 -0.27550383168E+02  0.48732431792E+02  0.47000000000E+01 0. -1.
          5    1    4    4  503    0 -0.57263819416E+02  0.12494021359E+01 -0.66897595044E+02  0.88193447844E+02  0.47000000000E+01 0.  1.
         -5    1    4    4    0  503  0.65955792793E+02 -0.15629695357E+02 -0.58462860707E+02  0.89635093920E+02  0.47000000000E+01 0.  1.
<mgrwt>
<rscale>  0 0.12612218E+03</rscale>
<asrwt>0</asrwt>
<pdfrwt beam="1">  1        5 0.59299356E-02 0.12612591E+03</pdfrwt>
<pdfrwt beam="2">  1       -5 0.73010692E-01 0.12612591E+03</pdfrwt>
<totfact> 0.22895755E+02</totfact>
</mgrwt>
</event>
<event>
 8    1  0.3694627E-007  0.1287556E+03  0.7546771E-02  0.1229315E+00
         -5   -1    0    0    0  501 -0.00000000000E+00  0.00000000000E+00  0.95572126976E+02  0.95687624355E+02  0.47000000000E+01 0.  1.
          5   -1    0    0  501    0  0.00000000000E+00 -0.00000000000E+00 -0.17335990156E+03  0.17342360125E+03  0.47000000000E+01 0.  1.
         25    2    1    2    0    0  0.29167566584E+02  0.10110056010E+02 -0.34875106142E+02  0.13339516325E+03  0.12500014551E+03 0.  0.
         25    2    1    2    0    0 -0.29167566584E+02 -0.10110056010E+02 -0.42912668443E+02  0.13571606235E+03  0.12499756915E+03 0.  0.
          5    1    4    4  502    0 -0.40300466062E+02 -0.60475298696E+02 -0.41675399303E+02  0.83906604176E+02  0.47000000000E+01 0. -1.
         -5    1    4    4    0  502  0.11132899478E+02  0.50365242687E+02 -0.12372691397E+01  0.51809458177E+02  0.47000000000E+01 0. -1.
          5    1    3    3  503    0  0.74559293682E+02  0.54035044532E+01  0.13910874429E+01  0.74915360635E+02  0.47000000000E+01 0. -1.
         -5    1    3    3    0  503 -0.45391727098E+02  0.47065515563E+01 -0.36266193585E+02  0.58479802613E+02  0.47000000000E+01 0. -1.
<mgrwt>
<rscale>  0 0.12875494E+03</rscale>
<asrwt>0</asrwt>
<pdfrwt beam="2">  1        5 0.26684538E-01 0.12875557E+03</pdfrwt>
<pdfrwt beam="1">  1       -5 0.14717189E-01 0.12875557E+03</pdfrwt>
<totfact> 0.38719487E+02</totfact>
</mgrwt>
</event>
<event>
 8    1  0.3694627E-007  0.1342972E+03  0.7546771E-02  0.1221216E+00
          5   -1    0    0  501    0  0.00000000000E+00  0.00000000000E+00  0.17516510259E+03  0.17522814605E+03  0.47000000000E+01 0. -1.
         -5   -1    0    0    0  501 -0.00000000000E+00 -0.00000000000E+00 -0.10327620368E+03  0.10338309459E+03  0.47000000000E+01 0. -1.
         25    2    1    2    0    0  0.43828695230E+02  0.22105037418E+02  0.45111612098E+02  0.14167140663E+03  0.12500457073E+03 0.  0.
         25    2    1    2    0    0 -0.43828695230E+02 -0.22105037418E+02  0.26777286815E+02  0.13693983401E+03  0.12500363132E+03 0.  0.
          5    1    4    4  502    0 -0.17503905967E+02  0.15753427149E+02 -0.45285211703E+02  0.51258146572E+02  0.47000000000E+01 0.  1.
         -5    1    4    4    0  502 -0.26324789263E+02 -0.37858464567E+02  0.72062498518E+02  0.85681687435E+02  0.47000000000E+01 0.  1.
          5    1    3    3  503    0 -0.31831165969E+02  0.29704444051E+02  0.48583590061E+02  0.65406668976E+02  0.47000000000E+01 0.  1.
         -5    1    3    3    0  503  0.75659861199E+02 -0.75994066336E+01 -0.34719779638E+01  0.76264737650E+02  0.47000000000E+01 0.  1.
<mgrwt>
<rscale>  0 0.13429695E+03</rscale>
<asrwt>0</asrwt>
<pdfrwt beam="1">  1        5 0.26961549E-01 0.13429717E+03</pdfrwt>
<pdfrwt beam="2">  1       -5 0.15901719E-01 0.13429717E+03</pdfrwt>
<totfact> 0.33492790E+02</totfact>
</mgrwt>
</event>
<event>
 8    1  0.3694627E-007  0.1353189E+03  0.7546771E-02  0.1219773E+00
          5   -1    0    0  501    0  0.00000000000E+00  0.00000000000E+00  0.20723097043E+03  0.20728426159E+03  0.47000000000E+01 0.  1.
         -5   -1    0    0    0  501 -0.00000000000E+00 -0.00000000000E+00 -0.88601089486E+02  0.88725661779E+02  0.47000000000E+01 0.  1.
         25    2    1    2    0    0 -0.45044956523E+02  0.25610089697E+02  0.49730793463E+02  0.14416778108E+03  0.12500508982E+03 0.  0.
         25    2    1    2    0    0  0.45044956523E+02 -0.25610089697E+02  0.68899087477E+02  0.15184214229E+03  0.12499610841E+03 0.  0.
          5    1    4    4  502    0  0.30477352126E+02  0.47267657772E+02  0.10965384087E+02  0.57492870097E+02  0.47000000000E+01 0. -1.
         -5    1    4    4    0  502  0.14567604397E+02 -0.72877747469E+02  0.57933703391E+02  0.94349272189E+02  0.47000000000E+01 0. -1.
          5    1    3    3  503    0 -0.62778385804E+02  0.64807432088E+02  0.44055315475E+02  0.10051910167E+03  0.47000000000E+01 0.  1.
         -5    1    3    3    0  503  0.17733429281E+02 -0.39197342392E+02  0.56754779883E+01  0.43648679419E+02  0.47000000000E+01 0.  1.
<mgrwt>
<rscale>  0 0.13531680E+03</rscale>
<asrwt>0</asrwt>
<pdfrwt beam="1">  1        5 0.31895369E-01 0.13531887E+03</pdfrwt>
<pdfrwt beam="2">  1       -5 0.13644619E-01 0.13531887E+03</pdfrwt>
<totfact> 0.31875188E+02</totfact>
</mgrwt>
</event>
<event>
 8    1  0.3694627E-007  0.1313555E+03  0.7546771E-02  0.1225459E+00
         -5   -1    0    0    0  501 -0.00000000000E+00  0.00000000000E+00  0.48084466453E+02  0.48313620379E+02  0.47000000000E+01 0. -1.
          5   -1    0    0  501    0  0.00000000000E+00 -0.00000000000E+00 -0.55111551948E+03  0.55113556028E+03  0.47000000000E+01 0. -1.
         25    2    1    2    0    0  0.34550822600E+02 -0.20854720202E+02 -0.74008731412E+02  0.15076843519E+03  0.12500060011E+03 0.  0.
         25    2    1    2    0    0 -0.34550822600E+02  0.20854720202E+02 -0.42902232161E+03  0.44868074547E+03  0.12500232084E+03 0.  0.
          5    1    4    4  502    0 -0.32338030071E+02 -0.45399633200E+02 -0.11732528875E+03  0.12997764525E+03  0.47000000000E+01 0.  1.
         -5    1    4    4    0  502 -0.22127925281E+01  0.66254353403E+02 -0.31169703286E+03  0.31870310022E+03  0.47000000000E+01 0.  1.
          5    1    3    3  503    0  0.17598314391E+02  0.39909211147E+02 -0.75692796101E+02  0.87486771488E+02  0.47000000000E+01 0. -1.
         -5    1    3    3    0  503  0.16952508209E+02 -0.60763931349E+02  0.16840646895E+01  0.63281663706E+02  0.47000000000E+01 0. -1.
<mgrwt>
<rscale>  0 0.13135506E+03</rscale>
<asrwt>0</asrwt>
<pdfrwt beam="2">  1        5 0.84806167E-01 0.13135547E+03</pdfrwt>
<pdfrwt beam="1">  1       -5 0.74167794E-02 0.13135547E+03</pdfrwt>
<totfact> 0.11271002E+02</totfact>
</mgrwt>
</event>
<event>
 8    1  0.3694627E-007  0.1270367E+03  0.7546771E-02  0.1231923E+00
          5   -1    0    0  501    0  0.00000000000E+00  0.00000000000E+00  0.16764983278E+02  0.17411337235E+02  0.47000000000E+01 0. -1.
         -5   -1    0    0    0  501 -0.00000000000E+00 -0.00000000000E+00 -0.95705337094E+03  0.95706491150E+03  0.47000000000E+01 0. -1.
         25    2    1    2    0    0  0.22159384775E+02 -0.44506411625E+01 -0.52768132601E+03  0.54275769195E+03  0.12500993484E+03 0.  0.
         25    2    1    2    0    0 -0.22159384775E+02  0.44506411625E+01 -0.41260706165E+03  0.43171855678E+03  0.12500191362E+03 0.  0.
          5    1    3    3  502    0  0.65725644704E+02 -0.11553927273E+02 -0.17599538861E+03  0.18828122695E+03  0.47000000000E+01 0.  1.
         -5    1    3    3    0  502 -0.43566259929E+02  0.71032861100E+01 -0.35168593740E+03  0.35447646500E+03  0.47000000000E+01 0.  1.
          5    1    4    4  503    0 -0.18056432380E+01 -0.34629172472E+02 -0.36502383970E+03  0.36669733226E+03  0.47000000000E+01 0.  1.
         -5    1    4    4    0  503 -0.20353741537E+02  0.39079813634E+02 -0.47583221946E+02  0.65021224528E+02  0.47000000000E+01 0.  1.
<mgrwt>
<rscale>  0 0.12703475E+03</rscale>
<asrwt>0</asrwt>
<pdfrwt beam="1">  1        5 0.26298362E-02 0.12703673E+03</pdfrwt>
<pdfrwt beam="2">  1       -5 0.14728955E+00 0.12703673E+03</pdfrwt>
<totfact> 0.15463097E+02</totfact>
</mgrwt>
</event>
<event>
 8    1  0.3694627E-007  0.1262249E+03  0.7546771E-02  0.1233168E+00
          5   -1    0    0  501    0  0.00000000000E+00  0.00000000000E+00  0.83976907764E+01  0.96234718463E+01  0.47000000000E+01 0. -1.
         -5   -1    0    0    0  501 -0.00000000000E+00 -0.00000000000E+00 -0.18352109012E+04  0.18352169195E+04  0.47000000000E+01 0. -1.
         25    2    1    2    0    0  0.41053492263E+01 -0.17034224904E+02 -0.10912301714E+04  0.10985059312E+04  0.12499990111E+03 0.  0.
         25    2    1    2    0    0 -0.41053492263E+01  0.17034224904E+02 -0.73558303898E+03  0.74633446014E+03  0.12500280175E+03 0.  0.
          5    1    4    4  502    0  0.87882852198E+01 -0.22810657604E+02 -0.27871746384E+02  0.37369563872E+02  0.47000000000E+01 0. -1.
         -5    1    4    4    0  502 -0.12893634446E+02  0.39844882509E+02 -0.70771129259E+03  0.70896489626E+03  0.47000000000E+01 0. -1.
          5    1    3    3  503    0  0.46903149695E+02 -0.13610186681E+02 -0.18971299418E+03  0.19595472129E+03  0.47000000000E+01 0.  1.
         -5    1    3    3    0  503 -0.42797800469E+02 -0.34240382229E+01 -0.90151717722E+03  0.90255120995E+03  0.47000000000E+01 0.  1.
<mgrwt>
<rscale>  0 0.12622416E+03</rscale>
<asrwt>0</asrwt>
<pdfrwt beam="1">  1        5 0.13867077E-02 0.12622488E+03</pdfrwt>
<pdfrwt beam="2">  1       -5 0.28243460E+00 0.12622488E+03</pdfrwt>
<totfact> 0.52164893E+01</totfact>
</mgrwt>
</event>
<event>
 8    1  0.3694627E-007  0.1382496E+03  0.7546771E-02  0.1215704E+00
         -5   -1    0    0    0  501 -0.00000000000E+00  0.00000000000E+00  0.50354594442E+02  0.50573463213E+02  0.47000000000E+01 0.  1.
          5   -1    0    0  501    0  0.00000000000E+00 -0.00000000000E+00 -0.39918401572E+03  0.39921168371E+03  0.47000000000E+01 0.  1.
         25    2    1    2    0    0 -0.45167607386E+02 -0.38051428082E+02 -0.12325078889E+03  0.18521252468E+03  0.12499959360E+03 0.  0.
         25    2    1    2    0    0  0.45167607386E+02  0.38051428082E+02 -0.22557863239E+03  0.26457262224E+03  0.12499971644E+03 0.  0.
          5    1    3    3  502    0 -0.32331280227E+02  0.29245156277E+02 -0.10555210540E+03  0.11429754066E+03  0.47000000000E+01 0.  1.
         -5    1    3    3    0  502 -0.12836327158E+02 -0.67296584360E+02 -0.17698683488E+02  0.70914984020E+02  0.47000000000E+01 0.  1.
          5    1    4    4  503    0 -0.26667850961E+01 -0.42467665766E+02 -0.52681245605E+02  0.67882383701E+02  0.47000000000E+01 0.  1.
         -5    1    4    4    0  503  0.47834392482E+02  0.80519093849E+02 -0.17289738679E+03  0.19669023854E+03  0.47000000000E+01 0.  1.
<mgrwt>
<rscale>  0 0.13824958E+03</rscale>
<asrwt>0</asrwt>
<pdfrwt beam="2">  1        5 0.61431888E-01 0.13824960E+03</pdfrwt>
<pdfrwt beam="1">  1       -5 0.77658253E-02 0.13824960E+03</pdfrwt>
<totfact> 0.22009678E+02</totfact>
</mgrwt>
</event>
<event>
 8    1  0.3694627E-007  0.1418501E+03  0.7546771E-02  0.1210878E+00
          5   -1    0    0  501    0  0.00000000000E+00  0.00000000000E+00  0.11167444223E+03  0.11177330204E+03  0.47000000000E+01 0. -1.
         -5   -1    0    0    0  501 -0.00000000000E+00 -0.00000000000E+00 -0.20060820300E+03  0.20066325302E+03  0.47000000000E+01 0. -1.
         25    2    1    2    0    0 -0.29753614389E+02  0.59938838352E+02 -0.94639594215E+02  0.17052305613E+03  0.12507404993E+03 0.  0.
         25    2    1    2    0    0  0.29753614389E+02 -0.59938838352E+02  0.57058334461E+01  0.14191349892E+03  0.12501576992E+03 0.  0.
          5    1    4    4  502    0 -0.24929522299E+02 -0.74960580860E+02 -0.16486050209E+02  0.80835942603E+02  0.47000000000E+01 0.  1.
         -5    1    4    4    0  502  0.54683136688E+02  0.15021742508E+02  0.22191883656E+02  0.61077556321E+02  0.47000000000E+01 0.  1.
          5    1    3    3  503    0 -0.52138269473E+02  0.61837419094E+02 -0.11443573545E+03  0.14021374074E+03  0.47000000000E+01 0.  1.
         -5    1    3    3    0  503  0.22384655085E+02 -0.18985807413E+01  0.19796141231E+02  0.30309315395E+02  0.47000000000E+01 0.  1.
<mgrwt>
<rscale>  0 0.14183728E+03</rscale>
<asrwt>0</asrwt>
<pdfrwt beam="1">  1        5 0.17192523E-01 0.14185013E+03</pdfrwt>
<pdfrwt beam="2">  1       -5 0.30874640E-01 0.14185013E+03</pdfrwt>
<totfact> 0.22707763E+02</totfact>
</mgrwt>
</event>
<event>
 8    1  0.3694627E-007  0.1754877E+03  0.7546771E-02  0.1172244E+00
          5   -1    0    0  501    0  0.00000000000E+00  0.00000000000E+00  0.26710503088E+02  0.27120858674E+02  0.47000000000E+01 0.  1.
         -5   -1    0    0    0  501 -0.00000000000E+00 -0.00000000000E+00 -0.11595181779E+04  0.11595277034E+04  0.47000000000E+01 0.  1.
         25    2    1    2    0    0  0.10290426664E+03  0.67683718857E+02 -0.63568107041E+03  0.65945912744E+03  0.12500217432E+03 0.  0.
         25    2    1    2    0    0 -0.10290426664E+03 -0.67683718857E+02 -0.49712660439E+03  0.52718943459E+03  0.12499386092E+03 0.  0.
          5    1    4    4  502    0  0.29206302055E+02 -0.10168649168E+02 -0.84574778045E+02  0.90174234608E+02  0.47000000000E+01 0.  1.
         -5    1    4    4    0  502 -0.13211056870E+03 -0.57515069689E+02 -0.41255182634E+03  0.43701519999E+03  0.47000000000E+01 0.  1.
          5    1    3    3  503    0  0.18233322537E+02  0.80110214140E+02 -0.40719048057E+03  0.41542301083E+03  0.47000000000E+01 0.  1.
         -5    1    3    3    0  503  0.84670944106E+02 -0.12426495283E+02 -0.22849058984E+03  0.24403611660E+03  0.47000000000E+01 0.  1.
<mgrwt>
<rscale>  0 0.17548618E+03</rscale>
<asrwt>0</asrwt>
<pdfrwt beam="1">  1        5 0.41416076E-02 0.17548766E+03</pdfrwt>
<pdfrwt beam="2">  1       -5 0.17841967E+00 0.17548766E+03</pdfrwt>
<totfact> 0.47316087E+01</totfact>
</mgrwt>
</event>
<event>
 8    1  0.3694627E-007  0.1323877E+03  0.7546771E-02  0.1223969E+00
         -5   -1    0    0    0  501 -0.00000000000E+00  0.00000000000E+00  0.10767983284E+03  0.10778235663E+03  0.47000000000E+01 0. -1.
          5   -1    0    0  501    0  0.00000000000E+00 -0.00000000000E+00 -0.16343307913E+03  0.16350064634E+03  0.47000000000E+01 0. -1.
         25    2    1    2    0    0  0.31630227801E+02  0.29859687980E+02 -0.17651842396E+02  0.13352158255E+03  0.12499741273E+03 0.  0.
         25    2    1    2    0    0 -0.31630227801E+02 -0.29859687980E+02 -0.38101403897E+02  0.13776142042E+03  0.12503767313E+03 0.  0.
          5    1    3    3  502    0 -0.46743654088E+02  0.25741738017E+02 -0.39601718207E+01  0.53715726137E+02  0.47000000000E+01 0. -1.
         -5    1    3    3    0  502  0.78373881889E+02  0.41179499625E+01 -0.13691670575E+02  0.79805856410E+02  0.47000000000E+01 0. -1.
          5    1    4    4  503    0 -0.45457829001E+02  0.26675698883E+02  0.18871608600E+02  0.56180376819E+02  0.47000000000E+01 0.  1.
         -5    1    4    4    0  503  0.13827601200E+02 -0.56535386863E+02 -0.56973012497E+02  0.81581043605E+02  0.47000000000E+01 0.  1.
<mgrwt>
<rscale>  0 0.13237815E+03</rscale>
<asrwt>0</asrwt>
<pdfrwt beam="2">  1        5 0.25156635E-01 0.13238766E+03</pdfrwt>
<pdfrwt beam="1">  1       -5 0.16579212E-01 0.13238766E+03</pdfrwt>
<totfact> 0.35290332E+02</totfact>
</mgrwt>
</event>
<event>
 8    1  0.3694627E-007  0.1770309E+03  0.7546771E-02  0.1170710E+00
          5   -1    0    0  501    0  0.00000000000E+00  0.00000000000E+00  0.10467723056E+03  0.10478269226E+03  0.47000000000E+01 0. -1.
         -5   -1    0    0    0  501 -0.00000000000E+00 -0.00000000000E+00 -0.30391771178E+03  0.30395405168E+03  0.47000000000E+01 0. -1.
         25    2    1    2    0    0 -0.19967744699E+02 -0.12374349263E+03 -0.12532551254E+03  0.21689474872E+03  0.12500274050E+03 0.  0.
         25    2    1    2    0    0  0.19967744699E+02  0.12374349263E+03 -0.73914968683E+02  0.19184199522E+03  0.12501506204E+03 0.  0.
          5    1    4    4  502    0 -0.41048624461E+02  0.17197556458E+02  0.61703972981E+01  0.45176424395E+02  0.47000000000E+01 0. -1.
         -5    1    4    4    0  502  0.61016369161E+02  0.10654593617E+03 -0.80085365981E+02  0.14666557082E+03  0.47000000000E+01 0. -1.
          5    1    3    3  503    0 -0.71342174064E+02 -0.69529718556E+02 -0.53533663259E+02  0.11319024103E+03  0.47000000000E+01 0. -1.
         -5    1    3    3    0  503  0.51374429365E+02 -0.54213774077E+02 -0.71791849281E+02  0.10370450769E+03  0.47000000000E+01 0. -1.
<mgrwt>
<rscale>  0 0.17702869E+03</rscale>
<asrwt>0</asrwt>
<pdfrwt beam="1">  1        5 0.16115097E-01 0.17703087E+03</pdfrwt>
<pdfrwt beam="2">  1       -5 0.46767478E-01 0.17703087E+03</pdfrwt>
<totfact> 0.11773257E+02</totfact>
</mgrwt>
</event>
<event>
 8    1  0.3694627E-007  0.1272738E+03  0.7546771E-02  0.1231559E+00
          5   -1    0    0  501    0  0.00000000000E+00  0.00000000000E+00  0.40742788083E+02  0.41012983076E+02  0.47000000000E+01 0. -1.
         -5   -1    0    0    0  501 -0.00000000000E+00 -0.00000000000E+00 -0.46485032022E+03  0.46487407995E+03  0.47000000000E+01 0. -1.
         25    2    1    2    0    0 -0.14214349979E+01  0.23892965647E+02 -0.30938725216E+03  0.33454311151E+03  0.12500290946E+03 0.  0.
         25    2    1    2    0    0  0.14214349979E+01 -0.23892965647E+02 -0.11472027998E+03  0.17134395152E+03  0.12500045119E+03 0.  0.
          5    1    3    3  502    0  0.54537935498E+02 -0.57401776672E+01 -0.84346361621E+02  0.10071610977E+03  0.47000000000E+01 0.  1.
         -5    1    3    3    0  502 -0.55959370495E+02  0.29633143314E+02 -0.22504089053E+03  0.23382700174E+03  0.47000000000E+01 0.  1.
          5    1    4    4  503    0 -0.36717277458E+02 -0.59715313850E+02 -0.42758522230E+02  0.82246327549E+02  0.47000000000E+01 0.  1.
         -5    1    4    4    0  503  0.38138712456E+02  0.35822348203E+02 -0.71961757752E+02  0.89097623971E+02  0.47000000000E+01 0.  1.
<mgrwt>
<rscale>  0 0.12727320E+03</rscale>
<asrwt>0</asrwt>
<pdfrwt beam="1">  1        5 0.62907335E-02 0.12727381E+03</pdfrwt>
<pdfrwt beam="2">  1       -5 0.71538042E-01 0.12727381E+03</pdfrwt>
<totfact> 0.21781899E+02</totfact>
</mgrwt>
</event>
<event>
 8    1  0.3694627E-007  0.1522817E+03  0.7546771E-02  0.1197704E+00
          5   -1    0    0  501    0  0.00000000000E+00  0.00000000000E+00  0.67482490555E+02  0.67645964636E+02  0.47000000000E+01 0. -1.
         -5   -1    0    0    0  501 -0.00000000000E+00 -0.00000000000E+00 -0.35407149889E+03  0.35410269178E+03  0.47000000000E+01 0. -1.
         25    2    1    2    0    0  0.83893692071E+02  0.22836055868E+02 -0.18057340172E+03  0.23619805391E+03  0.12499252076E+03 0.  0.
         25    2    1    2    0    0 -0.83893692071E+02 -0.22836055868E+02 -0.10601560662E+03  0.18555060251E+03  0.12502031926E+03 0.  0.
          5    1    4    4  502    0 -0.51354928884E+02  0.33853195731E+02 -0.91743716528E+00  0.61695212722E+02  0.47000000000E+01 0. -1.
         -5    1    4    4    0  502 -0.32538763187E+02 -0.56689251599E+02 -0.10509816945E+03  0.12385538978E+03  0.47000000000E+01 0. -1.
          5    1    3    3  503    0  0.22092272860E+02 -0.31824424529E+02 -0.15896923705E+01  0.39057389039E+02  0.47000000000E+01 0.  1.
         -5    1    3    3    0  503  0.61801419211E+02  0.54660480396E+02 -0.17898370935E+03  0.19714066487E+03  0.47000000000E+01 0.  1.
<mgrwt>
<rscale>  0 0.15227600E+03</rscale>
<asrwt>0</asrwt>
<pdfrwt beam="1">  1        5 0.10396896E-01 0.15228170E+03</pdfrwt>
<pdfrwt beam="2">  1       -5 0.54487512E-01 0.15228170E+03</pdfrwt>
<totfact> 0.17798713E+02</totfact>
</mgrwt>
</event>
<event>
 8    1  0.3694627E-007  0.2065499E+03  0.7546771E-02  0.1144332E+00
          5   -1    0    0  501    0  0.00000000000E+00  0.00000000000E+00  0.79056542478E+02  0.79196129379E+02  0.47000000000E+01 0. -1.
         -5   -1    0    0    0  501 -0.00000000000E+00 -0.00000000000E+00 -0.71425644991E+03  0.71427191337E+03  0.47000000000E+01 0. -1.
         25    2    1    2    0    0  0.10988074389E+03 -0.12228850472E+03 -0.51410636617E+03  0.55403850999E+03  0.12500023417E+03 0.  0.
         25    2    1    2    0    0 -0.10988074389E+03  0.12228850472E+03 -0.12109354125E+03  0.23942953276E+03  0.12503839076E+03 0.  0.
          5    1    4    4  502    0 -0.11679977020E+02 -0.73759149460E+01  0.19519449649E+02  0.24370574451E+02  0.47000000000E+01 0.  1.
         -5    1    4    4    0  502 -0.98200766870E+02  0.12966441966E+03 -0.14061299090E+03  0.21505895831E+03  0.47000000000E+01 0.  1.
          5    1    3    3  503    0  0.99531067853E+02 -0.14739773888E+03 -0.42414443145E+03  0.45994903590E+03  0.47000000000E+01 0. -1.
         -5    1    3    3    0  503  0.10349676037E+02  0.25109234165E+02 -0.89961934726E+02  0.94089474087E+02  0.47000000000E+01 0. -1.
<mgrwt>
<rscale>  0 0.20654411E+03</rscale>
<asrwt>0</asrwt>
<pdfrwt beam="1">  1        5 0.12174472E-01 0.20654989E+03</pdfrwt>
<pdfrwt beam="2">  1       -5 0.10989753E+00 0.20654989E+03</pdfrwt>
<totfact> 0.28845504E+01</totfact>
</mgrwt>
</event>
<event>
 8    1  0.3694627E-007  0.1510450E+03  0.7546771E-02  0.1199197E+00
         -5   -1    0    0    0  501 -0.00000000000E+00  0.00000000000E+00  0.49963235426E+03  0.49965446003E+03  0.47000000000E+01 0.  1.
          5   -1    0    0  501    0  0.00000000000E+00 -0.00000000000E+00 -0.53503873205E+02  0.53709910147E+02  0.47000000000E+01 0.  1.
         25    2    1    2    0    0 -0.14542576697E+02 -0.83528129217E+02  0.32972363674E+03  0.36267376238E+03  0.12500458545E+03 0.  0.
         25    2    1    2    0    0  0.14542576697E+02  0.83528129217E+02  0.11640484431E+03  0.19069060780E+03  0.12499754083E+03 0.  0.
          5    1    4    4  502    0 -0.35887587809E+02  0.87860025571E+02  0.98324484489E+02  0.13673732959E+03  0.47000000000E+01 0.  1.
         -5    1    4    4    0  502  0.50430164507E+02 -0.43318963547E+01  0.18080359824E+02  0.53953278210E+02  0.47000000000E+01 0.  1.
          5    1    3    3  503    0 -0.43220994567E+02  0.16462876228E+02  0.89517052449E+02  0.10086859444E+03  0.47000000000E+01 0.  1.
         -5    1    3    3    0  503  0.28678417869E+02 -0.99991005445E+02  0.24020658429E+03  0.26180516794E+03  0.47000000000E+01 0.  1.
<mgrwt>
<rscale>  0 0.15104351E+03</rscale>
<asrwt>0</asrwt>
<pdfrwt beam="2">  1        5 0.82489144E-02 0.15104496E+03</pdfrwt>
<pdfrwt beam="1">  1       -5 0.76884067E-01 0.15104496E+03</pdfrwt>
<totfact> 0.12336026E+02</totfact>
</mgrwt>
</event>
<event>
 8    1  0.3694627E-007  0.1425803E+03  0.7546771E-02  0.1209899E+00
         -5   -1    0    0    0  501 -0.00000000000E+00  0.00000000000E+00  0.17307482019E+03  0.17313862476E+03  0.47000000000E+01 0. -1.
          5   -1    0    0  501    0  0.00000000000E+00 -0.00000000000E+00 -0.11998790927E+03  0.12007992493E+03  0.47000000000E+01 0. -1.
         25    2    1    2    0    0 -0.29501542076E+01 -0.68524010182E+02  0.47206758796E+01  0.14265845379E+03  0.12499962510E+03 0.  0.
         25    2    1    2    0    0  0.29501542076E+01  0.68524010182E+02  0.48366235042E+02  0.15056009589E+03  0.12499922561E+03 0.  0.
          5    1    3    3  502    0  0.34965594076E+02  0.23624604313E+02 -0.32619550296E+01  0.42584563502E+02  0.47000000000E+01 0. -1.
         -5    1    3    3    0  502 -0.37915748283E+02 -0.92148614495E+02  0.79826309092E+01  0.10007389029E+03  0.47000000000E+01 0. -1.
          5    1    4    4  503    0  0.63532119460E+02  0.34045798295E+02  0.18391728090E+02  0.74537187006E+02  0.47000000000E+01 0.  1.
         -5    1    4    4    0  503 -0.60581965252E+02  0.34478211887E+02  0.29974506953E+02  0.76022908888E+02  0.47000000000E+01 0.  1.
<mgrwt>
<rscale>  0 0.14258024E+03</rscale>
<asrwt>0</asrwt>
<pdfrwt beam="2">  1        5 0.18471665E-01 0.14258033E+03</pdfrwt>
<pdfrwt beam="1">  1       -5 0.26638881E-01 0.14258033E+03</pdfrwt>
<totfact> 0.26580124E+02</totfact>
</mgrwt>
</event>
<event>
 8    1  0.3694627E-007  0.1991231E+03  0.7546771E-02  0.1150482E+00
         -5   -1    0    0    0  501 -0.00000000000E+00  0.00000000000E+00  0.29790410232E+03  0.29794117571E+03  0.47000000000E+01 0. -1.
          5   -1    0    0  501    0  0.00000000000E+00 -0.00000000000E+00 -0.13714482145E+03  0.13722533312E+03  0.47000000000E+01 0. -1.
         25    2    1    2    0    0 -0.14870592142E+03  0.43709959643E+02  0.11815231925E+03  0.23153604292E+03  0.12499982795E+03 0.  0.
         25    2    1    2    0    0  0.14870592142E+03 -0.43709959643E+02  0.42606961620E+02  0.20363046591E+03  0.12500400725E+03 0.  0.
          5    1    3    3  502    0 -0.15885711967E+03  0.19960690696E+02  0.66177644997E+02  0.17330777345E+03  0.47000000000E+01 0.  1.
         -5    1    3    3    0  502  0.10151198244E+02  0.23749268946E+02  0.51974674255E+02  0.58228269468E+02  0.47000000000E+01 0.  1.
          5    1    4    4  503    0  0.16165949377E+03 -0.64417966967E+02  0.34514891442E+02  0.17747347442E+03  0.47000000000E+01 0. -1.
         -5    1    4    4    0  503 -0.12953572342E+02  0.20708007324E+02  0.80920701774E+01  0.26156991485E+02  0.47000000000E+01 0. -1.
<mgrwt>
<rscale>  0 0.19912246E+03</rscale>
<asrwt>0</asrwt>
<pdfrwt beam="2">  1        5 0.21108248E-01 0.19912311E+03</pdfrwt>
<pdfrwt beam="1">  1       -5 0.45840445E-01 0.19912311E+03</pdfrwt>
<totfact> 0.76852445E+01</totfact>
</mgrwt>
</event>
<event>
 8    1  0.3694627E-007  0.1298567E+03  0.7546771E-02  0.1227670E+00
         -5   -1    0    0    0  501 -0.00000000000E+00  0.00000000000E+00  0.87370814608E+02  0.87497138497E+02  0.47000000000E+01 0.  1.
          5   -1    0    0  501    0  0.00000000000E+00 -0.00000000000E+00 -0.19272553294E+03  0.19278283391E+03  0.47000000000E+01 0.  1.
         25    2    1    2    0    0 -0.32239160319E+02  0.14030801205E+02 -0.51164948501E+02  0.13957296912E+03  0.12500613951E+03 0.  0.
         25    2    1    2    0    0  0.32239160319E+02 -0.14030801205E+02 -0.54189769836E+02  0.14070700328E+03  0.12500281108E+03 0.  0.
          5    1    4    4  502    0  0.67047542585E+02  0.13877315837E+02 -0.65038831209E+02  0.94552061990E+02  0.47000000000E+01 0. -1.
         -5    1    4    4    0  502 -0.34808382267E+02 -0.27908117042E+02  0.10849061373E+02  0.46154941290E+02  0.47000000000E+01 0. -1.
          5    1    3    3  503    0 -0.30543913583E+02  0.65140663167E+02 -0.50834642183E+02  0.88218407947E+02  0.47000000000E+01 0.  1.
         -5    1    3    3    0  503 -0.16952467356E+01 -0.51109861962E+02 -0.33030631862E+00  0.51354561176E+02  0.47000000000E+01 0.  1.
<mgrwt>
<rscale>  0 0.12985590E+03</rscale>
<asrwt>0</asrwt>
<pdfrwt beam="2">  1        5 0.29664207E-01 0.12985670E+03</pdfrwt>
<pdfrwt beam="1">  1       -5 0.13455789E-01 0.12985670E+03</pdfrwt>
<totfact> 0.37143945E+02</totfact>
</mgrwt>
</event>
<event>
 8    1  0.3694627E-007  0.1490433E+03  0.7546771E-02  0.1201654E+00
         -5   -1    0    0    0  501 -0.00000000000E+00  0.00000000000E+00  0.96515038538E+02  0.96629408899E+02  0.47000000000E+01 0.  1.
          5   -1    0    0  501    0  0.00000000000E+00 -0.00000000000E+00 -0.23614354820E+03  0.23619031597E+03  0.47000000000E+01 0.  1.
         25    2    1    2    0    0 -0.18600755805E+02 -0.79009346745E+02 -0.42730146906E+02  0.15504687681E+03  0.12500081426E+03 0.  0.
         25    2    1    2    0    0  0.18600755805E+02  0.79009346745E+02 -0.96898362757E+02  0.17777284806E+03  0.12500171123E+03 0.  0.
          5    1    3    3  502    0  0.46337048337E+02 -0.49378667929E+02  0.65324042622E+01  0.68191914481E+02  0.47000000000E+01 0.  1.
         -5    1    3    3    0  502 -0.64937804142E+02 -0.29630678816E+02 -0.49262551168E+02  0.86854962331E+02  0.47000000000E+01 0.  1.
          5    1    4    4  503    0 -0.15436143616E+02  0.10297441648E+03 -0.52411911997E+02  0.11666663404E+03  0.47000000000E+01 0. -1.
         -5    1    4    4    0  503  0.34036899422E+02 -0.23965069737E+02 -0.44486450760E+02  0.61106214013E+02  0.47000000000E+01 0. -1.
<mgrwt>
<rscale>  0 0.14904307E+03</rscale>
<asrwt>0</asrwt>
<pdfrwt beam="2">  1        5 0.36342172E-01 0.14904326E+03</pdfrwt>
<pdfrwt beam="1">  1       -5 0.14860863E-01 0.14904326E+03</pdfrwt>
<totfact> 0.21753871E+02</totfact>
</mgrwt>
</event>
<event>
 8    1  0.3694627E-007  0.1640935E+03  0.7546771E-02  0.1184152E+00
         -5   -1    0    0    0  501 -0.00000000000E+00  0.00000000000E+00  0.10726073721E+02  0.11710621566E+02  0.47000000000E+01 0. -1.
          5   -1    0    0  501    0  0.00000000000E+00 -0.00000000000E+00 -0.30690298435E+04  0.30690334423E+04  0.47000000000E+01 0.  1.
         25    2    1    2    0    0  0.16818749429E+02  0.10496461621E+03 -0.80963217334E+03  0.82609317576E+03  0.12500095173E+03 0.  0.
         25    2    1    2    0    0 -0.16818749429E+02 -0.10496461621E+03 -0.22486715964E+04  0.22546508882E+04  0.12500495145E+03 0.  0.
          5    1    4    4  502    0 -0.16288961847E+02  0.20675482301E+02 -0.82653230265E+03  0.82696465654E+03  0.47000000000E+01 0. -1.
         -5    1    4    4    0  502 -0.52978758197E+00 -0.12564009851E+03 -0.14221392938E+04  0.14276862316E+04  0.47000000000E+01 0. -1.
          5    1    3    3  503    0 -0.29224267216E+02  0.72312740285E+01 -0.48220832267E+02  0.57041106081E+02  0.47000000000E+01 0. -1.
         -5    1    3    3    0  503  0.46043016644E+02  0.97733342185E+02 -0.76141134108E+03  0.76905206968E+03  0.47000000000E+01 0. -1.
<mgrwt>
<rscale>  0 0.16409274E+03</rscale>
<asrwt>0</asrwt>
<pdfrwt beam="2">  1        5 0.47223378E+00 0.16409351E+03</pdfrwt>
<pdfrwt beam="1">  1       -5 0.17261789E-02 0.16409351E+03</pdfrwt>
<totfact> 0.19346808E+00</totfact>
</mgrwt>
</event>
<event>
 8    1  0.3694627E-007  0.1355645E+03  0.7546771E-02  0.1219451E+00
         -5   -1    0    0    0  501 -0.00000000000E+00  0.00000000000E+00  0.65416239471E+02  0.65584864004E+02  0.47000000000E+01 0. -1.
          5   -1    0    0  501    0  0.00000000000E+00 -0.00000000000E+00 -0.31928465691E+03  0.31931924800E+03  0.47000000000E+01 0. -1.
         25    2    1    2    0    0 -0.32065624371E+02 -0.41539167390E+02 -0.59619848293E+02  0.14802812020E+03  0.12491633746E+03 0.  0.
         25    2    1    2    0    0  0.32065624371E+02  0.41539167390E+02 -0.19424856915E+03  0.23687599180E+03  0.12499608866E+03 0.  0.
          5    1    3    3  502    0 -0.67260421085E+02 -0.26551047168E+02  0.51630212325E+01  0.72647568015E+02  0.47000000000E+01 0.  1.
         -5    1    3    3    0  502  0.35194796715E+02 -0.14988120222E+02 -0.64782869526E+02  0.75380552184E+02  0.47000000000E+01 0.  1.
          5    1    4    4  503    0  0.33147312467E+02 -0.39481158269E+02 -0.53782036067E+02  0.74646524269E+02  0.47000000000E+01 0. -1.
         -5    1    4    4    0  503 -0.10816880964E+01  0.81020325659E+02 -0.14046653308E+03  0.16222946753E+03  0.47000000000E+01 0. -1.
<mgrwt>
<rscale>  0 0.13554610E+03</rscale>
<asrwt>0</asrwt>
<pdfrwt beam="2">  1        5 0.49136348E-01 0.13556448E+03</pdfrwt>
<pdfrwt beam="1">  1       -5 0.10079669E-01 0.13556448E+03</pdfrwt>
<totfact> 0.22541915E+02</totfact>
</mgrwt>
</event>
<event>
 8    1  0.3694627E-007  0.1375288E+03  0.7546771E-02  0.1216694E+00
          5   -1    0    0  501    0  0.00000000000E+00  0.00000000000E+00  0.85722215436E+02  0.85850965162E+02  0.47000000000E+01 0. -1.
         -5   -1    0    0    0  501 -0.00000000000E+00 -0.00000000000E+00 -0.23125638889E+03  0.23130414481E+03  0.47000000000E+01 0. -1.
         25    2    1    2    0    0 -0.22863038798E+02  0.52596564899E+02 -0.10723174829E+03  0.17439274263E+03  0.12500025463E+03 0.  0.
         25    2    1    2    0    0  0.22863038798E+02 -0.52596564899E+02 -0.38302425167E+02  0.14276236734E+03  0.12499960229E+03 0.  0.
          5    1    3    3  502    0 -0.62117453370E+02  0.70080128159E+02 -0.66091050211E+02  0.11471669144E+03  0.47000000000E+01 0. -1.
         -5    1    3    3    0  502  0.39254414572E+02 -0.17483563260E+02 -0.41140698081E+02  0.59676051195E+02  0.47000000000E+01 0. -1.
          5    1    4    4  503    0  0.24333296984E+02 -0.84816623706E+01 -0.78575491254E+02  0.82826600585E+02  0.47000000000E+01 0.  1.
         -5    1    4    4    0  503 -0.14702581864E+01 -0.44114902528E+02  0.40273066086E+02  0.59935766752E+02  0.47000000000E+01 0.  1.
<mgrwt>
<rscale>  0 0.13752869E+03</rscale>
<asrwt>0</asrwt>
<pdfrwt beam="1">  1        5 0.13201611E-01 0.13752884E+03</pdfrwt>
<pdfrwt beam="2">  1       -5 0.35591483E-01 0.13752884E+03</pdfrwt>
<totfact> 0.27327434E+02</totfact>
</mgrwt>
</event>
<event>
 8    1  0.3694627E-007  0.1792638E+03  0.7546771E-02  0.1168518E+00
          5   -1    0    0  501    0  0.00000000000E+00  0.00000000000E+00  0.22463602911E+03  0.22468519215E+03  0.47000000000E+01 0.  1.
         -5   -1    0    0    0  501 -0.00000000000E+00 -0.00000000000E+00 -0.15187191112E+03  0.15194461947E+03  0.47000000000E+01 0.  1.
         25    2    1    2    0    0 -0.22692030648E+02 -0.12647870908E+03 -0.92374480831E+01  0.17950099890E+03  0.12499394407E+03 0.  0.
         25    2    1    2    0    0  0.22692030648E+02  0.12647870908E+03  0.82001566068E+02  0.19712881273E+03  0.12499487936E+03 0.  0.
          5    1    4    4  502    0 -0.21092987144E+02  0.10142144286E+03  0.35752395776E+01  0.10375979720E+03  0.47000000000E+01 0. -1.
         -5    1    4    4    0  502  0.43785017792E+02  0.25057266219E+02  0.78426326491E+02  0.93369015526E+02  0.47000000000E+01 0. -1.
          5    1    3    3  503    0  0.46285256138E+02 -0.30953559270E+02 -0.23700121973E+02  0.60697887515E+02  0.47000000000E+01 0. -1.
         -5    1    3    3    0  503 -0.68977286786E+02 -0.95525149806E+02  0.14462673890E+02  0.11880311138E+03  0.47000000000E+01 0. -1.
<mgrwt>
<rscale>  0 0.17926364E+03</rscale>
<asrwt>0</asrwt>
<pdfrwt beam="1">  1        5 0.34568764E-01 0.17926381E+03</pdfrwt>
<pdfrwt beam="2">  1       -5 0.23374284E-01 0.17926381E+03</pdfrwt>
<totfact> 0.10981054E+02</totfact>
</mgrwt>
</event>
<event>
 8    1  0.3694627E-007  0.1397924E+03  0.7546771E-02  0.1213609E+00
         -5   -1    0    0    0  501 -0.00000000000E+00  0.00000000000E+00  0.10366353046E+03  0.10377002240E+03  0.47000000000E+01 0.  1.
          5   -1    0    0  501    0  0.00000000000E+00 -0.00000000000E+00 -0.19421789040E+03  0.19427475120E+03  0.47000000000E+01 0.  1.
         25    2    1    2    0    0 -0.38277351739E+02 -0.49530533106E+02 -0.19229969119E+02  0.14110884144E+03  0.12499393607E+03 0.  0.
         25    2    1    2    0    0  0.38277351739E+02  0.49530533106E+02 -0.71324390822E+02  0.15693593216E+03  0.12499315465E+03 0.  0.
          5    1    3    3  502    0  0.23146184504E+02  0.14464245264E+02 -0.41163876451E+02  0.49613657117E+02  0.47000000000E+01 0. -1.
         -5    1    3    3    0  502 -0.61423536243E+02 -0.63994778370E+02  0.21933907332E+02  0.91495184321E+02  0.47000000000E+01 0. -1.
          5    1    4    4  503    0  0.20537031259E+02  0.90044684761E+02 -0.62433761893E+02  0.11157902819E+03  0.47000000000E+01 0.  1.
         -5    1    4    4    0  503  0.17740320480E+02 -0.40514151655E+02 -0.88906289291E+01  0.45356903971E+02  0.47000000000E+01 0.  1.
<mgrwt>
<rscale>  0 0.13979222E+03</rscale>
<asrwt>0</asrwt>
<pdfrwt beam="2">  1        5 0.29892241E-01 0.13979239E+03</pdfrwt>
<pdfrwt beam="1">  1       -5 0.15960801E-01 0.13979239E+03</pdfrwt>
<totfact> 0.27586865E+02</totfact>
</mgrwt>
</event>
<event>
 8    1  0.3694627E-007  0.1540801E+03  0.7546771E-02  0.1195552E+00
          5   -1    0    0  501    0  0.00000000000E+00  0.00000000000E+00  0.15520441206E+03  0.15527555997E+03  0.47000000000E+01 0. -1.
         -5   -1    0    0    0  501 -0.00000000000E+00 -0.00000000000E+00 -0.16013068681E+03  0.16019964687E+03  0.47000000000E+01 0. -1.
         25    2    1    2    0    0 -0.19060977942E+02  0.88039642229E+02 -0.36188547118E+02  0.15825560540E+03  0.12498370379E+03 0.  0.
         25    2    1    2    0    0  0.19060977942E+02 -0.88039642229E+02  0.31262272370E+02  0.15721960144E+03  0.12500549556E+03 0.  0.
          5    1    4    4  502    0 -0.47462359004E+02 -0.10362229135E+02  0.24519285358E+02  0.54619929232E+02  0.47000000000E+01 0.  1.
         -5    1    4    4    0  502  0.66523336946E+02 -0.77677413093E+02  0.67429870124E+01  0.10259967221E+03  0.47000000000E+01 0.  1.
          5    1    3    3  503    0  0.10912331184E+02 -0.28975108180E+02  0.22770506833E+01  0.31399216961E+02  0.47000000000E+01 0. -1.
         -5    1    3    3    0  503 -0.29973309126E+02  0.11701475041E+03 -0.38465597802E+02  0.12685638844E+03  0.47000000000E+01 0. -1.
<mgrwt>
<rscale>  0 0.15407567E+03</rscale>
<asrwt>0</asrwt>
<pdfrwt beam="1">  1        5 0.23888379E-01 0.15408009E+03</pdfrwt>
<pdfrwt beam="2">  1       -5 0.24646268E-01 0.15408009E+03</pdfrwt>
<totfact> 0.19535853E+02</totfact>
</mgrwt>
</event>
<event>
 8    1  0.3694627E-007  0.1314640E+03  0.7546771E-02  0.1225301E+00
         -5   -1    0    0    0  501 -0.00000000000E+00  0.00000000000E+00  0.21168510948E+02  0.21683999994E+02  0.47000000000E+01 0. -1.
          5   -1    0    0  501    0  0.00000000000E+00 -0.00000000000E+00 -0.80673017809E+03  0.80674386904E+03  0.47000000000E+01 0. -1.
         25    2    1    2    0    0 -0.37864919487E+02  0.14988176134E+02 -0.40464715356E+03  0.42546551352E+03  0.12499274683E+03 0.  0.
         25    2    1    2    0    0  0.37864919487E+02 -0.14988176134E+02 -0.38091451358E+03  0.40296235551E+03  0.12499758299E+03 0.  0.
          5    1    4    4  502    0  0.55614729993E+02 -0.15323478507E+02 -0.38020385428E+03  0.38458401943E+03  0.47000000000E+01 0. -1.
         -5    1    4    4    0  502 -0.17749810506E+02  0.33530237282E+00 -0.71065929432E+00  0.18378336086E+02  0.47000000000E+01 0. -1.
          5    1    3    3  503    0  0.19840643912E+02  0.36782441371E+02 -0.49422377749E+02  0.64894225987E+02  0.47000000000E+01 0. -1.
         -5    1    3    3    0  503 -0.57705563400E+02 -0.21794265237E+02 -0.35522477581E+03  0.36057128754E+03  0.47000000000E+01 0. -1.
<mgrwt>
<rscale>  0 0.13146289E+03</rscale>
<asrwt>0</asrwt>
<pdfrwt beam="2">  1        5 0.12415302E+00 0.13146404E+03</pdfrwt>
<pdfrwt beam="1">  1       -5 0.32974008E-02 0.13146404E+03</pdfrwt>
<totfact> 0.17037882E+02</totfact>
</mgrwt>
</event>
<event>
 8    1  0.3694627E-007  0.1472865E+03  0.7546771E-02  0.1203854E+00
         -5   -1    0    0    0  501 -0.00000000000E+00  0.00000000000E+00  0.17287543621E+02  0.17915054129E+02  0.47000000000E+01 0. -1.
          5   -1    0    0  501    0  0.00000000000E+00 -0.00000000000E+00 -0.14145096078E+04  0.14145174161E+04  0.47000000000E+01 0. -1.
         25    2    1    2    0    0 -0.45097905821E+02  0.63466714216E+02 -0.44122343853E+03  0.46515742682E+03  0.12502585370E+03 0.  0.
         25    2    1    2    0    0  0.45097905821E+02 -0.63466714216E+02 -0.95599862566E+03  0.96727504346E+03  0.12500317000E+03 0.  0.
          5    1    3    3  502    0  0.26918684912E+02 -0.18004662086E+02 -0.16599613604E+03  0.16919098863E+03  0.47000000000E+01 0. -1.
         -5    1    3    3    0  502 -0.72016590733E+02  0.81471376302E+02 -0.27522730249E+03  0.29596643819E+03  0.47000000000E+01 0. -1.
          5    1    4    4  503    0  0.67205058690E+02 -0.80430877351E+02 -0.52674466773E+03  0.53709187382E+03  0.47000000000E+01 0. -1.
         -5    1    4    4    0  503 -0.22107152870E+02  0.16964163135E+02 -0.42925395793E+03  0.43018316963E+03  0.47000000000E+01 0. -1.
<mgrwt>
<rscale>  0 0.14728167E+03</rscale>
<asrwt>0</asrwt>
<pdfrwt beam="2">  1        5 0.21766564E+00 0.14728649E+03</pdfrwt>
<pdfrwt beam="1">  1       -5 0.27084939E-02 0.14728649E+03</pdfrwt>
<totfact> 0.48620742E+01</totfact>
</mgrwt>
</event>
<event>
 8    1  0.3694627E-007  0.1303553E+03  0.7546771E-02  0.1226932E+00
          5   -1    0    0  501    0  0.00000000000E+00  0.00000000000E+00  0.79188479846E+03  0.79189874607E+03  0.47000000000E+01 0.  1.
         -5   -1    0    0    0  501 -0.00000000000E+00 -0.00000000000E+00 -0.21187257541E+02  0.21702301309E+02  0.47000000000E+01 0.  1.
         25    2    1    2    0    0 -0.32676868160E+02 -0.17329071316E+02  0.38921282195E+03  0.41046209929E+03  0.12499775902E+03 0.  0.
         25    2    1    2    0    0  0.32676868160E+02  0.17329071316E+02  0.38148471897E+03  0.40313894809E+03  0.12498938449E+03 0.  0.
          5    1    4    4  502    0 -0.30924857408E+02  0.10257911696E+02  0.26106574325E+02  0.42014459190E+02  0.47000000000E+01 0.  1.
         -5    1    4    4    0  502  0.63601725567E+02  0.70711596203E+01  0.35537814464E+03  0.36112448890E+03  0.47000000000E+01 0.  1.
          5    1    3    3  503    0 -0.17154677544E+02  0.43888112489E+02  0.66764967898E+02  0.81854140506E+02  0.47000000000E+01 0.  1.
         -5    1    3    3    0  503 -0.15522190615E+02 -0.61217183805E+02  0.32244785405E+03  0.32860795878E+03  0.47000000000E+01 0.  1.
<mgrwt>
<rscale>  0 0.13035333E+03</rscale>
<asrwt>0</asrwt>
<pdfrwt beam="1">  1        5 0.12186912E+00 0.13035534E+03</pdfrwt>
<pdfrwt beam="2">  1       -5 0.33002698E-02 0.13035534E+03</pdfrwt>
<totfact> 0.17792125E+02</totfact>
</mgrwt>
</event>
<event>
 8    1  0.3694627E-007  0.1255294E+03  0.7546771E-02  0.1234245E+00
         -5   -1    0    0    0  501 -0.00000000000E+00  0.00000000000E+00  0.59909896553E+02  0.60093973949E+02  0.47000000000E+01 0.  1.
          5   -1    0    0  501    0  0.00000000000E+00 -0.00000000000E+00 -0.26291410428E+03  0.26295611084E+03  0.47000000000E+01 0.  1.
         25    2    1    2    0    0  0.66641109513E+01  0.94040411560E+01 -0.10857494341E+03  0.16597030261E+03  0.12499910659E+03 0.  0.
         25    2    1    2    0    0 -0.66641109513E+01 -0.94040411560E+01 -0.94429264319E+02  0.15707978218E+03  0.12499730255E+03 0.  0.
          5    1    4    4  502    0  0.56793118616E+02 -0.14993120987E+02 -0.29130133294E+02  0.65733603771E+02  0.47000000000E+01 0.  1.
         -5    1    4    4    0  502 -0.63457229567E+02  0.55890798311E+01 -0.65299131024E+02  0.91346178410E+02  0.47000000000E+01 0.  1.
          5    1    3    3  503    0 -0.17191730279E+02  0.31716213645E+01 -0.13104018776E+03  0.13228467629E+03  0.47000000000E+01 0.  1.
         -5    1    3    3    0  503  0.23855841230E+02  0.62324197916E+01  0.22465244349E+02  0.33685626325E+02  0.47000000000E+01 0.  1.
<mgrwt>
<rscale>  0 0.12552892E+03</rscale>
<asrwt>0</asrwt>
<pdfrwt beam="2">  1        5 0.40465714E-01 0.12552937E+03</pdfrwt>
<pdfrwt beam="1">  1       -5 0.92342984E-02 0.12552937E+03</pdfrwt>
<totfact> 0.38231320E+02</totfact>
</mgrwt>
</event>
<event>
 8    1  0.3694627E-007  0.1337268E+03  0.7546771E-02  0.1222029E+00
          5   -1    0    0  501    0  0.00000000000E+00  0.00000000000E+00  0.32627657875E+02  0.32964436267E+02  0.47000000000E+01 0. -1.
         -5   -1    0    0    0  501 -0.00000000000E+00 -0.00000000000E+00 -0.55165151364E+03  0.55167153498E+03  0.47000000000E+01 0. -1.
         25    2    1    2    0    0  0.15774263384E+02  0.44808333209E+02 -0.29179606423E+03  0.32097839857E+03  0.12500230055E+03 0.  0.
         25    2    1    2    0    0 -0.15774263384E+02 -0.44808333209E+02 -0.22722779154E+03  0.26365757267E+03  0.12500492897E+03 0.  0.
          5    1    3    3  502    0 -0.27143198859E+01  0.81577710010E+02 -0.24598577333E+03  0.25921686092E+03  0.47000000000E+01 0.  1.
         -5    1    3    3    0  502  0.18488583269E+02 -0.36769376801E+02 -0.45810290894E+02  0.61761537654E+02  0.47000000000E+01 0.  1.
          5    1    4    4  503    0 -0.54496155505E+02 -0.68119565504E+02 -0.13429949656E+03  0.16021407849E+03  0.47000000000E+01 0. -1.
         -5    1    4    4    0  503  0.38721892121E+02  0.23311232295E+02 -0.92928294977E+02  0.10344349418E+03  0.47000000000E+01 0. -1.
<mgrwt>
<rscale>  0 0.13372615E+03</rscale>
<asrwt>0</asrwt>
<pdfrwt beam="1">  1        5 0.50470862E-02 0.13372676E+03</pdfrwt>
<pdfrwt beam="2">  1       -5 0.84896903E-01 0.13372676E+03</pdfrwt>
<totfact> 0.21610101E+02</totfact>
</mgrwt>
</event>
<event>
 8    1  0.3694627E-007  0.1434859E+03  0.7546771E-02  0.1208727E+00
         -5   -1    0    0    0  501 -0.00000000000E+00  0.00000000000E+00  0.49939843023E+02  0.50160521540E+02  0.47000000000E+01 0.  1.
          5   -1    0    0  501    0  0.00000000000E+00 -0.00000000000E+00 -0.45388128348E+03  0.45390561738E+03  0.47000000000E+01 0.  1.
         25    2    1    2    0    0  0.69761694151E+02  0.94767888856E+01 -0.12450252756E+03  0.18994145188E+03  0.12498148772E+03 0.  0.
         25    2    1    2    0    0 -0.69761694151E+02 -0.94767888856E+01 -0.27943891289E+03  0.31412468705E+03  0.12502683502E+03 0.  0.
          5    1    3    3  502    0  0.89612609549E+02  0.23669445340E+02 -0.13428549360E+03  0.16323402287E+03  0.47000000000E+01 0.  1.
         -5    1    3    3    0  502 -0.19850915397E+02 -0.14192656454E+02  0.97829660389E+01  0.26707429001E+02  0.47000000000E+01 0.  1.
          5    1    4    4  503    0 -0.85946075521E+02  0.17991881355E+02 -0.26425203557E+03  0.27849894792E+03  0.47000000000E+01 0.  1.
         -5    1    4    4    0  503  0.16184381369E+02 -0.27468670241E+02 -0.15186877323E+02  0.35625739121E+02  0.47000000000E+01 0.  1.
<mgrwt>
<rscale>  0 0.14347605E+03</rscale>
<asrwt>0</asrwt>
<pdfrwt beam="2">  1        5 0.69846734E-01 0.14348593E+03</pdfrwt>
<pdfrwt beam="1">  1       -5 0.77019002E-02 0.14348593E+03</pdfrwt>
<totfact> 0.16983380E+02</totfact>
</mgrwt>
</event>
<event>
 8    1  0.3694627E-007  0.1503166E+03  0.7546771E-02  0.1200085E+00
          5   -1    0    0  501    0  0.00000000000E+00  0.00000000000E+00  0.15066202708E+02  0.15782283233E+02  0.47000000000E+01 0. -1.
         -5   -1    0    0    0  501 -0.00000000000E+00 -0.00000000000E+00 -0.15234767927E+04  0.15234840426E+04  0.47000000000E+01 0. -1.
         25    2    1    2    0    0  0.71575253557E+02  0.42969404448E+02 -0.90601366256E+03  0.91839851962E+03  0.12500278973E+03 0.  0.
         25    2    1    2    0    0 -0.71575253557E+02 -0.42969404448E+02 -0.60239692747E+03  0.62086780620E+03  0.12500155166E+03 0.  0.
          5    1    4    4  502    0 -0.63064220299E+02 -0.36733235093E+02 -0.60468601642E+03  0.60909251752E+03  0.47000000000E+01 0.  1.
         -5    1    4    4    0  502 -0.85110332584E+01 -0.62361693545E+01  0.22890889540E+01  0.11775288684E+02  0.47000000000E+01 0.  1.
          5    1    3    3  503    0  0.34870003838E+02 -0.32022763871E+02 -0.57573962365E+03  0.57770198097E+03  0.47000000000E+01 0. -1.
         -5    1    3    3    0  503  0.36705249719E+02  0.74992168319E+02 -0.33027403891E+03  0.34069653865E+03  0.47000000000E+01 0. -1.
<mgrwt>
<rscale>  0 0.15031636E+03</rscale>
<asrwt>0</asrwt>
<pdfrwt beam="1">  1        5 0.23735193E-02 0.15031661E+03</pdfrwt>
<pdfrwt beam="2">  1       -5 0.23443657E+00 0.15031661E+03</pdfrwt>
<totfact> 0.47031727E+01</totfact>
</mgrwt>
</event>
<event>
 8    1  0.3694627E-007  0.1309765E+03  0.7546771E-02  0.1226020E+00
          5   -1    0    0  501    0  0.00000000000E+00  0.00000000000E+00  0.18734985286E+03  0.18740879747E+03  0.47000000000E+01 0. -1.
         -5   -1    0    0    0  501 -0.00000000000E+00 -0.00000000000E+00 -0.91531217720E+02  0.91651807496E+02  0.47000000000E+01 0. -1.
         25    2    1    2    0    0 -0.36922353378E+02 -0.12874715413E+02  0.43055733895E+02  0.13785589313E+03  0.12498572948E+03 0.  0.
         25    2    1    2    0    0  0.36922353378E+02  0.12874715413E+02  0.52762901249E+02  0.14120471184E+03  0.12500331364E+03 0.  0.
          5    1    4    4  502    0 -0.96082712692E+01 -0.39218507807E+01  0.82507626281E+02  0.83290444740E+02  0.47000000000E+01 0. -1.
         -5    1    4    4    0  502  0.46530624647E+02  0.16796566194E+02 -0.29744725032E+02  0.57914267096E+02  0.47000000000E+01 0. -1.
          5    1    3    3  503    0  0.27253530973E+02 -0.41549068682E+02 -0.84051833950E+01  0.50614396833E+02  0.47000000000E+01 0.  1.
         -5    1    3    3    0  503 -0.64175884351E+02  0.28674353268E+02  0.51460917290E+02  0.87241496296E+02  0.47000000000E+01 0.  1.
<mgrwt>
<rscale>  0 0.13097232E+03</rscale>
<asrwt>0</asrwt>
<pdfrwt beam="1">  1        5 0.28836865E-01 0.13097651E+03</pdfrwt>
<pdfrwt beam="2">  1       -5 0.14095536E-01 0.13097651E+03</pdfrwt>
<totfact> 0.36230641E+02</totfact>
</mgrwt>
</event>
<event>
 8    1  0.3694627E-007  0.1305189E+03  0.7546771E-02  0.1226699E+00
         -5   -1    0    0    0  501 -0.00000000000E+00  0.00000000000E+00  0.74822210537E+03  0.74823686688E+03  0.47000000000E+01 0.  1.
          5   -1    0    0  501    0  0.00000000000E+00 -0.00000000000E+00 -0.30584899131E+02  0.30943917897E+02  0.47000000000E+01 0.  1.
         25    2    1    2    0    0 -0.26421459297E+01 -0.37461810532E+02  0.55761999413E+03  0.57268454009E+03  0.12496862173E+03 0.  0.
         25    2    1    2    0    0  0.26421459297E+01  0.37461810532E+02  0.16001721210E+03  0.20649624469E+03  0.12499929087E+03 0.  0.
          5    1    3    3  502    0 -0.44134935842E+02  0.15740327020E+02  0.10549463546E+03  0.11552860497E+03  0.47000000000E+01 0.  1.
         -5    1    3    3    0  502  0.41492789912E+02 -0.53202137552E+02  0.45212535867E+03  0.45715593512E+03  0.47000000000E+01 0.  1.
          5    1    4    4  503    0  0.17892599324E+02  0.36370744470E+01  0.16732911896E+03  0.16838793744E+03  0.47000000000E+01 0. -1.
         -5    1    4    4    0  503 -0.15250453394E+02  0.33824736085E+02 -0.73119068585E+01  0.38108307255E+02  0.47000000000E+01 0. -1.
<mgrwt>
<rscale>  0 0.13051159E+03</rscale>
<asrwt>0</asrwt>
<pdfrwt beam="2">  1        5 0.47341220E-02 0.13051893E+03</pdfrwt>
<pdfrwt beam="1">  1       -5 0.11513983E+00 0.13051893E+03</pdfrwt>
<totfact> 0.11384985E+02</totfact>
</mgrwt>
</event>
<event>
 8    1  0.3694627E-007  0.1274428E+03  0.7546771E-02  0.1231301E+00
         -5   -1    0    0    0  501 -0.00000000000E+00  0.00000000000E+00  0.22737441729E+02  0.23218123446E+02  0.47000000000E+01 0.  1.
          5   -1    0    0  501    0  0.00000000000E+00 -0.00000000000E+00 -0.73292352012E+03  0.73293858976E+03  0.47000000000E+01 0.  1.
         25    2    1    2    0    0 -0.81156635647E+01  0.23426682333E+02 -0.28311186990E+03  0.31047384637E+03  0.12500801958E+03 0.  0.
         25    2    1    2    0    0  0.81156635647E+01 -0.23426682333E+02 -0.42707420850E+03  0.44568286683E+03  0.12500465905E+03 0.  0.
          5    1    3    3  502    0  0.26525281758E+02  0.20714585615E+02 -0.27138076401E+03  0.27350007990E+03  0.47000000000E+01 0. -1.
         -5    1    3    3    0  502 -0.34640945323E+02  0.27120967180E+01 -0.11731105887E+02  0.36973766467E+02  0.47000000000E+01 0. -1.
          5    1    4    4  503    0  0.37298311086E+02  0.41339144055E+02 -0.17108309739E+03  0.17997667920E+03  0.47000000000E+01 0.  1.
         -5    1    4    4    0  503 -0.29182647521E+02 -0.64765826389E+02 -0.25599111110E+03  0.26570618764E+03  0.47000000000E+01 0.  1.
<mgrwt>
<rscale>  0 0.12744202E+03</rscale>
<asrwt>0</asrwt>
<pdfrwt beam="2">  1        5 0.11279558E+00 0.12744284E+03</pdfrwt>
<pdfrwt beam="1">  1       -5 0.35362032E-02 0.12744284E+03</pdfrwt>
<totfact> 0.19181448E+02</totfact>
</mgrwt>
</event>
<event>
 8    1  0.3694627E-007  0.1340963E+03  0.7546771E-02  0.1221516E+00
         -5   -1    0    0    0  501 -0.00000000000E+00  0.00000000000E+00  0.27683826884E+03  0.27687816290E+03  0.47000000000E+01 0.  1.
          5   -1    0    0  501    0  0.00000000000E+00 -0.00000000000E+00 -0.65268091750E+02  0.65437098046E+02  0.47000000000E+01 0.  1.
         25    2    1    2    0    0  0.47824207232E+02 -0.76537791604E+01  0.12021502338E+03  0.18009296970E+03  0.12504435516E+03 0.  0.
         25    2    1    2    0    0 -0.47824207232E+02  0.76537791604E+01  0.91355153705E+02  0.16222229124E+03  0.12499829013E+03 0.  0.
          5    1    4    4  502    0  0.33257771796E+02 -0.59406595418E-01 -0.71281014908E+01  0.34336318161E+02  0.47000000000E+01 0.  1.
         -5    1    4    4    0  502 -0.81081979028E+02  0.77131857558E+01  0.98483255196E+02  0.12788597308E+03  0.47000000000E+01 0.  1.
          5    1    3    3  503    0  0.69078278178E+02 -0.48491473154E+02  0.57834650546E+02  0.10242152258E+03  0.47000000000E+01 0.  1.
         -5    1    3    3    0  503 -0.21254070946E+02  0.40837693994E+02  0.62380372836E+02  0.77671447120E+02  0.47000000000E+01 0.  1.
<mgrwt>
<rscale>  0 0.13408559E+03</rscale>
<asrwt>0</asrwt>
<pdfrwt beam="2">  1        5 0.10057314E-01 0.13409633E+03</pdfrwt>
<pdfrwt beam="1">  1       -5 0.42606573E-01 0.13409633E+03</pdfrwt>
<totfact> 0.30365265E+02</totfact>
</mgrwt>
</event>
<event>
 8    1  0.3694627E-007  0.1273977E+03  0.7546771E-02  0.1231373E+00
          5   -1    0    0  501    0  0.00000000000E+00  0.00000000000E+00  0.11761211469E+03  0.11770598762E+03  0.47000000000E+01 0.  1.
         -5   -1    0    0    0  501 -0.00000000000E+00 -0.00000000000E+00 -0.13871555823E+03  0.13879515876E+03  0.47000000000E+01 0.  1.
         25    2    1    2    0    0  0.72643530864E+01  0.23490043471E+02 -0.12964096112E+00  0.12739779460E+03  0.12500251315E+03 0.  0.
         25    2    1    2    0    0 -0.72643530864E+01 -0.23490043471E+02 -0.20973802580E+02  0.12910335178E+03  0.12499288811E+03 0.  0.
          5    1    3    3  502    0  0.13767465981E+02 -0.50644644490E+02  0.28606600145E+01  0.52770223713E+02  0.47000000000E+01 0. -1.
         -5    1    3    3    0  502 -0.65031128944E+01  0.74134687961E+02 -0.29903009756E+01  0.74627570886E+02  0.47000000000E+01 0. -1.
          5    1    4    4  503    0 -0.44359238180E+02 -0.29731927108E+02 -0.55976575655E+02  0.77506106363E+02  0.47000000000E+01 0. -1.
         -5    1    4    4    0  503  0.37094885094E+02  0.62418836367E+01  0.35002773076E+02  0.51597245415E+02  0.47000000000E+01 0. -1.
<mgrwt>
<rscale>  0 0.12739537E+03</rscale>
<asrwt>0</asrwt>
<pdfrwt beam="1">  1        5 0.18107516E-01 0.12739773E+03</pdfrwt>
<pdfrwt beam="2">  1       -5 0.21354199E-01 0.12739773E+03</pdfrwt>
<totfact> 0.40384368E+02</totfact>
</mgrwt>
</event>
<event>
 8    1  0.3694627E-007  0.1507439E+03  0.7546771E-02  0.1199570E+00
         -5   -1    0    0    0  501 -0.00000000000E+00  0.00000000000E+00  0.23223897310E+03  0.23228652700E+03  0.47000000000E+01 0.  1.
          5   -1    0    0  501    0  0.00000000000E+00 -0.00000000000E+00 -0.97986666766E+02  0.98099321425E+02  0.47000000000E+01 0.  1.
         25    2    1    2    0    0 -0.54528047881E+02  0.64233640650E+02  0.58445348149E+02  0.16165407562E+03  0.12496764720E+03 0.  0.
         25    2    1    2    0    0  0.54528047881E+02 -0.64233640650E+02  0.75806958188E+02  0.16873177281E+03  0.12499779058E+03 0.  0.
          5    1    4    4  502    0  0.14306630815E+02  0.21211453211E+02 -0.20982774282E+02  0.33421134768E+02  0.47000000000E+01 0.  1.
         -5    1    4    4    0  502  0.40221417065E+02 -0.85445093861E+02  0.96789732470E+02  0.13531063804E+03  0.47000000000E+01 0.  1.
          5    1    3    3  503    0 -0.15894937198E+02  0.96076499232E+02  0.53280326007E+02  0.11110457179E+03  0.47000000000E+01 0.  1.
         -5    1    3    3    0  503 -0.38633110682E+02 -0.31842858582E+02  0.51650221421E+01  0.50549503830E+02  0.47000000000E+01 0.  1.
<mgrwt>
<rscale>  0 0.15073763E+03</rscale>
<asrwt>0</asrwt>
<pdfrwt beam="2">  1        5 0.15087196E-01 0.15074388E+03</pdfrwt>
<pdfrwt beam="1">  1       -5 0.35741396E-01 0.15074388E+03</pdfrwt>
<totfact> 0.21971804E+02</totfact>
</mgrwt>
</event>
<event>
 8    1  0.3694627E-007  0.1283827E+03  0.7546771E-02  0.1229893E+00
         -5   -1    0    0    0  501 -0.00000000000E+00  0.00000000000E+00  0.16688256857E+03  0.16694873971E+03  0.47000000000E+01 0.  1.
          5   -1    0    0  501    0  0.00000000000E+00 -0.00000000000E+00 -0.12300043196E+03  0.12309019563E+03  0.47000000000E+01 0.  1.
         25    2    1    2    0    0  0.28703071304E+02  0.57075984313E+01  0.86508119007E+02  0.15480880264E+03  0.12500267093E+03 0.  0.
         25    2    1    2    0    0 -0.28703071304E+02 -0.57075984313E+01 -0.42625982395E+02  0.13523013271E+03  0.12495507767E+03 0.  0.
          5    1    4    4  502    0  0.47695226966E+02 -0.16867151753E+02 -0.13441148197E+02  0.52555589126E+02  0.47000000000E+01 0. -1.
         -5    1    4    4    0  502 -0.76398298270E+02  0.11159553322E+02 -0.29184834198E+02  0.82674543579E+02  0.47000000000E+01 0. -1.
          5    1    3    3  503    0  0.63148570958E+02  0.27760978671E+02  0.12704090117E+02  0.70298633390E+02  0.47000000000E+01 0. -1.
         -5    1    3    3    0  503 -0.34445499654E+02 -0.22053380240E+02  0.73804028889E+02  0.84510169250E+02  0.47000000000E+01 0. -1.
<mgrwt>
<rscale>  0 0.12837109E+03</rscale>
<asrwt>0</asrwt>
<pdfrwt beam="2">  1        5 0.18935138E-01 0.12838267E+03</pdfrwt>
<pdfrwt beam="1">  1       -5 0.25686236E-01 0.12838267E+03</pdfrwt>
<totfact> 0.26259929E+02</totfact>
</mgrwt>
</event>
<event>
 8    1  0.3694627E-007  0.2083779E+03  0.7546771E-02  0.1142861E+00
          5   -1    0    0  501    0  0.00000000000E+00  0.00000000000E+00  0.14375644661E+03  0.14383325743E+03  0.47000000000E+01 0.  1.
         -5   -1    0    0    0  501 -0.00000000000E+00 -0.00000000000E+00 -0.49552732170E+03  0.49554961059E+03  0.47000000000E+01 0.  1.
         25    2    1    2    0    0 -0.39389015399E+02  0.16198209424E+03 -0.37573575833E+03  0.42964953839E+03  0.12502668662E+03 0.  0.
         25    2    1    2    0    0  0.39389015399E+02 -0.16198209424E+03  0.23964883233E+02  0.20973332962E+03  0.12499624209E+03 0.  0.
          5    1    4    4  502    0 -0.13062302663E+02 -0.51257064243E+02  0.61739900134E+02  0.81435960449E+02  0.47000000000E+01 0.  1.
         -5    1    4    4    0  502  0.52451318062E+02 -0.11072503000E+03 -0.37775016901E+02  0.12829736917E+03  0.47000000000E+01 0.  1.
          5    1    3    3  503    0 -0.21969600668E+02  0.18076223436E+03 -0.33443930423E+03  0.38082724028E+03  0.47000000000E+01 0.  1.
         -5    1    3    3    0  503 -0.17419414731E+02 -0.18780140114E+02 -0.41296454094E+02  0.48822298113E+02  0.47000000000E+01 0.  1.
<mgrwt>
<rscale>  0 0.20837337E+03</rscale>
<asrwt>0</asrwt>
<pdfrwt beam="1">  1        5 0.22124000E-01 0.20837794E+03</pdfrwt>
<pdfrwt beam="2">  1       -5 0.76242595E-01 0.20837794E+03</pdfrwt>
<totfact> 0.23201351E+01</totfact>
</mgrwt>
</event>
<event>
 8    1  0.3694627E-007  0.1374457E+03  0.7546771E-02  0.1216808E+00
         -5   -1    0    0    0  501 -0.00000000000E+00  0.00000000000E+00  0.61198853985E+02  0.61379065886E+02  0.47000000000E+01 0. -1.
          5   -1    0    0  501    0  0.00000000000E+00 -0.00000000000E+00 -0.45884733366E+03  0.45887140422E+03  0.47000000000E+01 0. -1.
         25    2    1    2    0    0  0.52154470073E+02 -0.23364510132E+02 -0.49726340948E+02  0.14616339466E+03  0.12500015948E+03 0.  0.
         25    2    1    2    0    0 -0.52154470073E+02  0.23364510132E+02 -0.34792213873E+03  0.37408707545E+03  0.12500134526E+03 0.  0.
          5    1    4    4  502    0 -0.40325549082E+02 -0.47818787366E+02 -0.19679411454E+03  0.20654975151E+03  0.47000000000E+01 0. -1.
         -5    1    4    4    0  502 -0.11828920991E+02  0.71183297499E+02 -0.15112802419E+03  0.16753732393E+03  0.47000000000E+01 0. -1.
          5    1    3    3  503    0  0.64073628208E+02 -0.98393904929E+01  0.24632614780E+02  0.69506108709E+02  0.47000000000E+01 0. -1.
         -5    1    3    3    0  503 -0.11919158135E+02 -0.13525119639E+02 -0.74358955729E+02  0.76657285948E+02  0.47000000000E+01 0. -1.
<mgrwt>
<rscale>  0 0.13744545E+03</rscale>
<asrwt>0</asrwt>
<pdfrwt beam="2">  1        5 0.70607609E-01 0.13744572E+03</pdfrwt>
<pdfrwt beam="1">  1       -5 0.94309227E-02 0.13744572E+03</pdfrwt>
<totfact> 0.11527653E+02</totfact>
</mgrwt>
</event>
<event>
 8    1  0.3694627E-007  0.2200451E+03  0.7546771E-02  0.1133849E+00
         -5   -1    0    0    0  501 -0.00000000000E+00  0.00000000000E+00  0.12418198319E+03  0.12427089341E+03  0.47000000000E+01 0. -1.
          5   -1    0    0  501    0  0.00000000000E+00 -0.00000000000E+00 -0.39939474889E+03  0.39942240228E+03  0.47000000000E+01 0. -1.
         25    2    1    2    0    0  0.43825173933E+02 -0.17570969153E+03 -0.96748947601E+02  0.24037515609E+03  0.12500126095E+03 0.  0.
         25    2    1    2    0    0 -0.43825173933E+02  0.17570969153E+03 -0.17846381810E+03  0.28331813959E+03  0.12500116913E+03 0.  0.
          5    1    3    3  502    0 -0.33826053936E+02 -0.83393646791E+02 -0.78601152849E+01  0.90457579352E+02  0.47000000000E+01 0.  1.
         -5    1    3    3    0  502  0.77651227869E+02 -0.92316044736E+02 -0.88888832316E+02  0.14991757674E+03  0.47000000000E+01 0.  1.
          5    1    4    4  503    0  0.41254616690E+02  0.31259192198E+02 -0.35464087003E+02  0.62919567402E+02  0.47000000000E+01 0.  1.
         -5    1    4    4    0  503 -0.85079790623E+02  0.14445049933E+03 -0.14299973110E+03  0.22039857219E+03  0.47000000000E+01 0.  1.
<mgrwt>
<rscale>  0 0.22004511E+03</rscale>
<asrwt>0</asrwt>
<pdfrwt beam="2">  1        5 0.61454312E-01 0.22004512E+03</pdfrwt>
<pdfrwt beam="1">  1       -5 0.19113887E-01 0.22004512E+03</pdfrwt>
<totfact> 0.50485998E+01</totfact>
</mgrwt>
</event>
<event>
 8    1  0.3694627E-007  0.1393884E+03  0.7546771E-02  0.1214155E+00
         -5   -1    0    0    0  501 -0.00000000000E+00  0.00000000000E+00  0.37024829006E+03  0.37027812019E+03  0.47000000000E+01 0.  1.
          5   -1    0    0  501    0  0.00000000000E+00 -0.00000000000E+00 -0.64637041146E+02  0.64807693125E+02  0.47000000000E+01 0.  1.
         25    2    1    2    0    0  0.60558483293E+02  0.11662576623E+02  0.24753795122E+03  0.28408370092E+03  0.12500066497E+03 0.  0.
         25    2    1    2    0    0 -0.60558483293E+02 -0.11662576623E+02  0.58073297689E+02  0.15100211239E+03  0.12500313776E+03 0.  0.
          5    1    4    4  502    0  0.68653674313E+00  0.17093458054E+02 -0.32989559756E+02  0.37457425083E+02  0.47000000000E+01 0. -1.
         -5    1    4    4    0  502 -0.61245020036E+02 -0.28756034677E+02  0.91062857445E+02  0.11354468731E+03  0.47000000000E+01 0. -1.
          5    1    3    3  503    0  0.81276430818E+02 -0.23611293335E+02  0.10093611761E+03  0.13180872967E+03  0.47000000000E+01 0. -1.
         -5    1    3    3    0  503 -0.20717947525E+02  0.35273869957E+02  0.14660183361E+03  0.15227497125E+03  0.47000000000E+01 0. -1.
<mgrwt>
<rscale>  0 0.13938786E+03</rscale>
<asrwt>0</asrwt>
<pdfrwt beam="2">  1        5 0.99595819E-02 0.13938841E+03</pdfrwt>
<pdfrwt beam="1">  1       -5 0.56976697E-01 0.13938841E+03</pdfrwt>
<totfact> 0.16924373E+02</totfact>
</mgrwt>
</event>
<event>
 8    1  0.3694627E-007  0.1823974E+03  0.7546771E-02  0.1165504E+00
          5   -1    0    0  501    0  0.00000000000E+00  0.00000000000E+00  0.47609373725E+02  0.47840803364E+02  0.47000000000E+01 0. -1.
         -5   -1    0    0    0  501 -0.00000000000E+00 -0.00000000000E+00 -0.69842981641E+03  0.69844563027E+03  0.47000000000E+01 0. -1.
         25    2    1    2    0    0 -0.94034230675E+02 -0.93810306764E+02 -0.30760302074E+03  0.35761301424E+03  0.12499855755E+03 0.  0.
         25    2    1    2    0    0  0.94034230675E+02  0.93810306764E+02 -0.34321742194E+03  0.38867341940E+03  0.12500407204E+03 0.  0.
          5    1    3    3  502    0 -0.21664910385E+02 -0.77083562327E+02 -0.25271086300E+03  0.26513414379E+03  0.47000000000E+01 0. -1.
         -5    1    3    3    0  502 -0.72369320291E+02 -0.16726744437E+02 -0.54892157740E+02  0.92478870452E+02  0.47000000000E+01 0. -1.
          5    1    4    4  503    0  0.11439953331E+03  0.78418285598E+02 -0.33303260094E+03  0.36079008305E+03  0.47000000000E+01 0. -1.
         -5    1    4    4    0  503 -0.20365302633E+02  0.15392021166E+02 -0.10184820996E+02  0.27883336343E+02  0.47000000000E+01 0. -1.
<mgrwt>
<rscale>  0 0.18239650E+03</rscale>
<asrwt>0</asrwt>
<pdfrwt beam="1">  1        5 0.73435383E-02 0.18239745E+03</pdfrwt>
<pdfrwt beam="2">  1       -5 0.10746975E+00 0.18239745E+03</pdfrwt>
<totfact> 0.71477318E+01</totfact>
</mgrwt>
</event>
<event>
 8    1  0.3694627E-007  0.1443317E+03  0.7546771E-02  0.1207619E+00
          5   -1    0    0  501    0  0.00000000000E+00  0.00000000000E+00  0.11715134117E+03  0.11724558302E+03  0.47000000000E+01 0. -1.
         -5   -1    0    0    0  501 -0.00000000000E+00 -0.00000000000E+00 -0.18198395173E+03  0.18204463377E+03  0.47000000000E+01 0. -1.
         25    2    1    2    0    0  0.68246365452E+02  0.23320135806E+02 -0.55598757711E+02  0.15466340013E+03  0.12501260076E+03 0.  0.
         25    2    1    2    0    0 -0.68246365452E+02 -0.23320135806E+02 -0.92338528440E+01  0.14462681667E+03  0.12502102595E+03 0.  0.
          5    1    4    4  502    0 -0.72936033723E+02 -0.62704009144E+02  0.15660131951E+02  0.97564273741E+02  0.47000000000E+01 0. -1.
         -5    1    4    4    0  502  0.46896682707E+01  0.39383873338E+02 -0.24893984795E+02  0.47062542925E+02  0.47000000000E+01 0. -1.
          5    1    3    3  503    0  0.98267176633E+02  0.43212991147E+02 -0.47336629759E+02  0.11741655388E+03  0.47000000000E+01 0. -1.
         -5    1    3    3    0  503 -0.30020811181E+02 -0.19892855341E+02 -0.82621279521E+01  0.37246846254E+02  0.47000000000E+01 0. -1.
<mgrwt>
<rscale>  0 0.14432992E+03</rscale>
<asrwt>0</asrwt>
<pdfrwt beam="1">  1        5 0.18035200E-01 0.14433174E+03</pdfrwt>
<pdfrwt beam="2">  1       -5 0.28009448E-01 0.14433174E+03</pdfrwt>
<totfact> 0.25309454E+02</totfact>
</mgrwt>
</event>
<event>
 8    1  0.3694627E-007  0.1411843E+03  0.7546771E-02  0.1211745E+00
         -5   -1    0    0    0  501 -0.00000000000E+00  0.00000000000E+00  0.30803631444E+03  0.30807216851E+03  0.47000000000E+01 0.  1.
          5   -1    0    0  501    0  0.00000000000E+00 -0.00000000000E+00 -0.65033418614E+02  0.65203033185E+02  0.47000000000E+01 0.  1.
         25    2    1    2    0    0 -0.65477386029E+02  0.44954439462E+01  0.13699245802E+03  0.19672303657E+03  0.12500208984E+03 0.  0.
         25    2    1    2    0    0  0.65477386029E+02 -0.44954439462E+01  0.10601043780E+03  0.17655216513E+03  0.12499982796E+03 0.  0.
          5    1    3    3  502    0  0.18174192500E+02  0.42002346499E+02  0.26569287482E+02  0.53127350976E+02  0.47000000000E+01 0.  1.
         -5    1    3    3    0  502 -0.83651578528E+02 -0.37506902553E+02  0.11042317054E+03  0.14359568559E+03  0.47000000000E+01 0.  1.
          5    1    4    4  503    0 -0.20667796601E+00 -0.28593374867E+02 -0.17982573298E+02  0.34104057596E+02  0.47000000000E+01 0. -1.
         -5    1    4    4    0  503  0.65684063995E+02  0.24097930921E+02  0.12399301110E+03  0.14244810753E+03  0.47000000000E+01 0. -1.
<mgrwt>
<rscale>  0 0.14118385E+03</rscale>
<asrwt>0</asrwt>
<pdfrwt beam="2">  1        5 0.10020947E-01 0.14118435E+03</pdfrwt>
<pdfrwt beam="1">  1       -5 0.47406008E-01 0.14118435E+03</pdfrwt>
<totfact> 0.24898652E+02</totfact>
</mgrwt>
</event>
<event>
 8    1  0.3694627E-007  0.1362734E+03  0.7546771E-02  0.1218436E+00
         -5   -1    0    0    0  501 -0.00000000000E+00  0.00000000000E+00  0.13490240073E+03  0.13498424991E+03  0.47000000000E+01 0. -1.
          5   -1    0    0  501    0  0.00000000000E+00 -0.00000000000E+00 -0.13909444404E+03  0.13917382786E+03  0.47000000000E+01 0. -1.
         25    2    1    2    0    0  0.10364594796E+02 -0.53225850438E+02  0.12636103082E+02  0.13684960353E+03  0.12501090715E+03 0.  0.
         25    2    1    2    0    0 -0.10364594796E+02  0.53225850438E+02 -0.16828146387E+02  0.13730847424E+03  0.12502005682E+03 0.  0.
          5    1    4    4  502    0 -0.46080392372E+02  0.66374430475E+02 -0.42246777783E+02  0.91300864263E+02  0.47000000000E+01 0. -1.
         -5    1    4    4    0  502  0.35715797576E+02 -0.13148580037E+02  0.25418631396E+02  0.46007609974E+02  0.47000000000E+01 0. -1.
          5    1    3    3  503    0  0.17671101411E+02  0.97457778356E+01 -0.45947473680E+02  0.50403455717E+02  0.47000000000E+01 0. -1.
         -5    1    3    3    0  503 -0.73065066149E+01 -0.62971628274E+02  0.58583576762E+02  0.86446147818E+02  0.47000000000E+01 0. -1.
<mgrwt>
<rscale>  0 0.13627127E+03</rscale>
<asrwt>0</asrwt>
<pdfrwt beam="2">  1        5 0.21411548E-01 0.13627337E+03</pdfrwt>
<pdfrwt beam="1">  1       -5 0.20766618E-01 0.13627337E+03</pdfrwt>
<totfact> 0.31911675E+02</totfact>
</mgrwt>
</event>
<event>
 8    1  0.3694627E-007  0.1263479E+03  0.7546771E-02  0.1232979E+00
          5   -1    0    0  501    0  0.00000000000E+00  0.00000000000E+00  0.26886202167E+03  0.26890309908E+03  0.47000000000E+01 0. -1.
         -5   -1    0    0    0  501 -0.00000000000E+00 -0.00000000000E+00 -0.74703854222E+02  0.74851558672E+02  0.47000000000E+01 0. -1.
         25    2    1    2    0    0  0.22160951972E+01  0.18261916450E+02  0.18972346062E+02  0.12775958592E+03  0.12499661279E+03 0.  0.
         25    2    1    2    0    0 -0.22160951972E+01 -0.18261916450E+02  0.17518582139E+03  0.21599507184E+03  0.12500156148E+03 0.  0.
          5    1    3    3  502    0 -0.47521723926E+02 -0.24940815928E+02 -0.11391972970E+02  0.55065648023E+02  0.47000000000E+01 0. -1.
         -5    1    3    3    0  502  0.49737819123E+02  0.43202732378E+02  0.30364319032E+02  0.72693937893E+02  0.47000000000E+01 0. -1.
          5    1    4    4  503    0  0.13856624697E+02  0.49052828390E+02  0.10755869944E+03  0.11911821794E+03  0.47000000000E+01 0. -1.
         -5    1    4    4    0  503 -0.16072719894E+02 -0.67314744840E+02  0.67627121949E+02  0.96876853896E+02  0.47000000000E+01 0. -1.
<mgrwt>
<rscale>  0 0.12634670E+03</rscale>
<asrwt>0</asrwt>
<pdfrwt beam="1">  1        5 0.41377910E-01 0.12634793E+03</pdfrwt>
<pdfrwt beam="2">  1       -5 0.11507422E-01 0.12634793E+03</pdfrwt>
<totfact> 0.24926661E+02</totfact>
</mgrwt>
</event>
<event>
 8    1  0.3694627E-007  0.1264861E+03  0.7546771E-02  0.1232766E+00
          5   -1    0    0  501    0  0.00000000000E+00  0.00000000000E+00  0.13018808878E+04  0.13018893716E+04  0.47000000000E+01 0. -1.
         -5   -1    0    0    0  501 -0.00000000000E+00 -0.00000000000E+00 -0.11840261281E+02  0.12738986898E+02  0.47000000000E+01 0. -1.
         25    2    1    2    0    0 -0.18896489897E+02  0.41854421184E+01  0.62663586670E+03  0.63927317814E+03  0.12499236616E+03 0.  0.
         25    2    1    2    0    0  0.18896489897E+02 -0.41854421184E+01  0.66340475981E+03  0.67535518040E+03  0.12499659635E+03 0.  0.
          5    1    3    3  502    0 -0.62195701086E+02  0.35518351666E+02  0.31713112625E+03  0.32515242545E+03  0.47000000000E+01 0.  1.
         -5    1    3    3    0  502  0.43299211190E+02 -0.31332909548E+02  0.30950474045E+03  0.31412075269E+03  0.47000000000E+01 0.  1.
          5    1    4    4  503    0 -0.35861958175E+02 -0.24358566940E+02  0.10232273126E+03  0.11122702532E+03  0.47000000000E+01 0.  1.
         -5    1    4    4    0  503  0.54758448072E+02  0.20173124822E+02  0.56108202855E+03  0.56412815508E+03  0.47000000000E+01 0.  1.
<mgrwt>
<rscale>  0 0.12648510E+03</rscale>
<asrwt>0</asrwt>
<pdfrwt beam="1">  1        5 0.20035900E+00 0.12648614E+03</pdfrwt>
<pdfrwt beam="2">  1       -5 0.18913655E-02 0.12648614E+03</pdfrwt>
<totfact> 0.10737718E+02</totfact>
</mgrwt>
</event>
<event>
 8    1  0.3694627E-007  0.1387122E+03  0.7546771E-02  0.1215073E+00
          5   -1    0    0  501    0  0.00000000000E+00  0.00000000000E+00  0.13310182665E+02  0.14115628310E+02  0.47000000000E+01 0. -1.
         -5   -1    0    0    0  501 -0.00000000000E+00 -0.00000000000E+00 -0.17778492713E+04  0.17778554838E+04  0.47000000000E+01 0. -1.
         25    2    1    2    0    0  0.13890081734E+02 -0.58503427703E+02 -0.12939685587E+04  0.13013822302E+04  0.12500197162E+03 0.  0.
         25    2    1    2    0    0 -0.13890081734E+02  0.58503427703E+02 -0.47057052992E+03  0.49058888188E+03  0.12500096790E+03 0.  0.
          5    1    4    4  502    0  0.24337515349E+02 -0.29901593376E+02 -0.18941762719E+03  0.19335859802E+03  0.47000000000E+01 0.  1.
         -5    1    4    4    0  502 -0.38227597083E+02  0.88405021079E+02 -0.28115290273E+03  0.29723028386E+03  0.47000000000E+01 0.  1.
          5    1    3    3  503    0  0.40087906928E+02 -0.57767692889E+02 -0.34927076028E+03  0.35630927663E+03  0.47000000000E+01 0.  1.
         -5    1    3    3    0  503 -0.26197825194E+02 -0.73573481360E+00 -0.94469779840E+03  0.94507295362E+03  0.47000000000E+01 0.  1.
<mgrwt>
<rscale>  0 0.13871199E+03</rscale>
<asrwt>0</asrwt>
<pdfrwt beam="1">  1        5 0.21101571E-02 0.13871221E+03</pdfrwt>
<pdfrwt beam="2">  1       -5 0.27357753E+00 0.13871221E+03</pdfrwt>
<totfact> 0.31391192E+01</totfact>
</mgrwt>
</event>
<event>
 8    1  0.3694627E-007  0.1491935E+03  0.7546771E-02  0.1201471E+00
         -5   -1    0    0    0  501 -0.00000000000E+00  0.00000000000E+00  0.16742265166E+03  0.16748860943E+03  0.47000000000E+01 0.  1.
          5   -1    0    0  501    0  0.00000000000E+00 -0.00000000000E+00 -0.13464176339E+03  0.13472377092E+03  0.47000000000E+01 0.  1.
         25    2    1    2    0    0 -0.81332502394E+02  0.38510921100E+01  0.34025369813E+02  0.15302429372E+03  0.12501560632E+03 0.  0.
         25    2    1    2    0    0  0.81332502394E+02 -0.38510921100E+01 -0.12444815480E+01  0.14918808662E+03  0.12500291836E+03 0.  0.
          5    1    3    3  502    0 -0.11461191087E+03 -0.11627575687E+01  0.20936180960E+02  0.11660898675E+03  0.47000000000E+01 0.  1.
         -5    1    3    3    0  502  0.33279408475E+02  0.50138496787E+01  0.13089188853E+02  0.36415306973E+02  0.47000000000E+01 0.  1.
          5    1    4    4  503    0  0.65880638965E+02 -0.35845584642E+02  0.47338802334E+02  0.88815633394E+02  0.47000000000E+01 0.  1.
         -5    1    4    4    0  503  0.15451863429E+02  0.31994492532E+02 -0.48583283882E+02  0.60372453227E+02  0.47000000000E+01 0.  1.
<mgrwt>
<rscale>  0 0.14919087E+03</rscale>
<asrwt>0</asrwt>
<pdfrwt beam="2">  1        5 0.20725499E-01 0.14919353E+03</pdfrwt>
<pdfrwt beam="1">  1       -5 0.25768713E-01 0.14919353E+03</pdfrwt>
<totfact> 0.23216676E+02</totfact>
</mgrwt>
</event>
<event>
 8    1  0.3694627E-007  0.1400059E+03  0.7546771E-02  0.1213322E+00
          5   -1    0    0  501    0  0.00000000000E+00  0.00000000000E+00  0.39885522942E+03  0.39888292021E+03  0.47000000000E+01 0.  1.
         -5   -1    0    0    0  501 -0.00000000000E+00 -0.00000000000E+00 -0.56481330488E+02  0.56676544475E+02  0.47000000000E+01 0.  1.
         25    2    1    2    0    0  0.29169679872E+02  0.55894687242E+02  0.88466928604E+02  0.16561050442E+03  0.12500142171E+03 0.  0.
         25    2    1    2    0    0 -0.29169679872E+02 -0.55894687242E+02  0.25390697032E+03  0.28994896026E+03  0.12500625462E+03 0.  0.
          5    1    3    3  502    0  0.18077244409E+02  0.94442764894E+02  0.44977243603E+02  0.10626036443E+03  0.47000000000E+01 0. -1.
         -5    1    3    3    0  502  0.11092435463E+02 -0.38548077652E+02  0.43489685002E+02  0.59350139989E+02  0.47000000000E+01 0. -1.
          5    1    4    4  503    0  0.30533906948E+02 -0.59770187435E+02  0.19322092543E+03  0.20460012415E+03  0.47000000000E+01 0.  1.
         -5    1    4    4    0  503 -0.59703586820E+02  0.38755001922E+01  0.60686044897E+02  0.85348836115E+02  0.47000000000E+01 0.  1.
<mgrwt>
<rscale>  0 0.14000481E+03</rscale>
<asrwt>0</asrwt>
<pdfrwt beam="1">  1        5 0.61379492E-01 0.14000589E+03</pdfrwt>
<pdfrwt beam="2">  1       -5 0.87065817E-02 0.14000589E+03</pdfrwt>
<totfact> 0.18193412E+02</totfact>
</mgrwt>
</event>
<event>
 8    1  0.3694627E-007  0.1314135E+03  0.7546771E-02  0.1225374E+00
         -5   -1    0    0    0  501 -0.00000000000E+00  0.00000000000E+00  0.22698767801E+02  0.23180251501E+02  0.47000000000E+01 0.  1.
          5   -1    0    0  501    0  0.00000000000E+00 -0.00000000000E+00 -0.75424574673E+03  0.75426039036E+03  0.47000000000E+01 0.  1.
         25    2    1    2    0    0 -0.90034796649E+00 -0.40542307916E+02 -0.34620346043E+03  0.37030535276E+03  0.12499891565E+03 0.  0.
         25    2    1    2    0    0  0.90034796649E+00  0.40542307916E+02 -0.38534351850E+03  0.40713528910E+03  0.12500010807E+03 0.  0.
          5    1    3    3  502    0 -0.17279525781E+02 -0.35136115335E+02 -0.21129279847E+02  0.44739971825E+02  0.47000000000E+01 0.  1.
         -5    1    3    3    0  502  0.16379177815E+02 -0.54061925804E+01 -0.32507418058E+03  0.32556538093E+03  0.47000000000E+01 0.  1.
          5    1    4    4  503    0  0.29528354527E+02  0.17783394467E+02 -0.20390218599E+02  0.40323986092E+02  0.47000000000E+01 0. -1.
         -5    1    4    4    0  503 -0.28628006561E+02  0.22758913448E+02 -0.36495329991E+03  0.36681130301E+03  0.47000000000E+01 0. -1.
<mgrwt>
<rscale>  0 0.13141325E+03</rscale>
<asrwt>0</asrwt>
<pdfrwt beam="2">  1        5 0.11607595E+00 0.13141353E+03</pdfrwt>
<pdfrwt beam="1">  1       -5 0.35302823E-02 0.13141353E+03</pdfrwt>
<totfact> 0.18094655E+02</totfact>
</mgrwt>
</event>
<event>
 8    1  0.3694627E-007  0.1293842E+03  0.7546771E-02  0.1228374E+00
         -5   -1    0    0    0  501 -0.00000000000E+00  0.00000000000E+00  0.73554840354E+02  0.73704847463E+02  0.47000000000E+01 0.  1.
          5   -1    0    0  501    0  0.00000000000E+00 -0.00000000000E+00 -0.22997880850E+03  0.23002682965E+03  0.47000000000E+01 0.  1.
         25    2    1    2    0    0  0.31901614012E+02 -0.98703628974E+01 -0.61457713840E+02  0.14323865836E+03  0.12500050247E+03 0.  0.
         25    2    1    2    0    0 -0.31901614012E+02  0.98703628974E+01 -0.94966254307E+02  0.16049301875E+03  0.12499713025E+03 0.  0.
          5    1    4    4  502    0 -0.57038797809E+01  0.86505900762E+01  0.30330671652E+02  0.32394545776E+02  0.47000000000E+01 0.  1.
         -5    1    4    4    0  502 -0.26197734231E+02  0.12197728212E+01 -0.12529692596E+03  0.12809847298E+03  0.47000000000E+01 0.  1.
          5    1    3    3  503    0  0.47185531503E+02 -0.58201997945E+02 -0.52346759497E+02  0.91521692389E+02  0.47000000000E+01 0.  1.
         -5    1    3    3    0  503 -0.15283917491E+02  0.48331635047E+02 -0.91109543429E+01  0.51716965971E+02  0.47000000000E+01 0.  1.
<mgrwt>
<rscale>  0 0.12938335E+03</rscale>
<asrwt>0</asrwt>
<pdfrwt beam="2">  1        5 0.35396588E-01 0.12938417E+03</pdfrwt>
<pdfrwt beam="1">  1       -5 0.11331362E-01 0.12938417E+03</pdfrwt>
<totfact> 0.35463457E+02</totfact>
</mgrwt>
</event>
<event>
 8    1  0.3694627E-007  0.1327580E+03  0.7546771E-02  0.1223420E+00
          5   -1    0    0  501    0  0.00000000000E+00  0.00000000000E+00  0.63444620211E+03  0.63446361075E+03  0.47000000000E+01 0.  1.
         -5   -1    0    0    0  501 -0.00000000000E+00 -0.00000000000E+00 -0.31219514280E+02  0.31571317234E+02  0.47000000000E+01 0.  1.
         25    2    1    2    0    0  0.37076082711E+02 -0.25012462245E+02  0.18834828021E+03  0.23043382861E+03  0.12499766210E+03 0.  0.
         25    2    1    2    0    0 -0.37076082711E+02  0.25012462245E+02  0.41487840762E+03  0.43560109938E+03  0.12499586192E+03 0.  0.
          5    1    4    4  502    0 -0.63503976249E+02 -0.87605597416E+01  0.36051323393E+03  0.36619855849E+03  0.47000000000E+01 0. -1.
         -5    1    4    4    0  502  0.26427893538E+02  0.33773021987E+02  0.54365173691E+02  0.69402540886E+02  0.47000000000E+01 0. -1.
          5    1    3    3  503    0  0.78048842118E+02 -0.15001252329E+01  0.78695529969E+02  0.11094570099E+03  0.47000000000E+01 0. -1.
         -5    1    3    3    0  503 -0.40972759407E+02 -0.23512337013E+02  0.10965275024E+03  0.11948812761E+03  0.47000000000E+01 0. -1.
<mgrwt>
<rscale>  0 0.13275753E+03</rscale>
<asrwt>0</asrwt>
<pdfrwt beam="1">  1        5 0.97635509E-01 0.13275796E+03</pdfrwt>
<pdfrwt beam="2">  1       -5 0.48314031E-02 0.13275796E+03</pdfrwt>
<totfact> 0.16625817E+02</totfact>
</mgrwt>
</event>
<event>
 8    1  0.3694627E-007  0.1259955E+03  0.7546771E-02  0.1233523E+00
         -5   -1    0    0    0  501 -0.00000000000E+00  0.00000000000E+00  0.21863360898E+02  0.22362838589E+02  0.47000000000E+01 0.  1.
          5   -1    0    0  501    0  0.00000000000E+00 -0.00000000000E+00 -0.71743756570E+03  0.71745296060E+03  0.47000000000E+01 0.  1.
         25    2    1    2    0    0  0.10070067418E+02 -0.12089872674E+02 -0.35157344110E+03  0.37346708166E+03  0.12500482119E+03 0.  0.
         25    2    1    2    0    0 -0.10070067418E+02  0.12089872674E+02 -0.34400076370E+03  0.36634871753E+03  0.12500914417E+03 0.  0.
          5    1    3    3  502    0 -0.24134071883E+02 -0.44695247214E+02 -0.63242228469E+02  0.81251387748E+02  0.47000000000E+01 0. -1.
         -5    1    3    3    0  502  0.34204139301E+02  0.32605374540E+02 -0.28833121263E+03  0.29221569392E+03  0.47000000000E+01 0. -1.
          5    1    4    4  503    0 -0.57170141200E+02  0.15462710928E+02 -0.89247863895E+02  0.10721376630E+03  0.47000000000E+01 0.  1.
         -5    1    4    4    0  503  0.47100073782E+02 -0.33728382545E+01 -0.25475289981E+03  0.25913495123E+03  0.47000000000E+01 0.  1.
<mgrwt>
<rscale>  0 0.12599439E+03</rscale>
<asrwt>0</asrwt>
<pdfrwt beam="2">  1        5 0.11041460E+00 0.12599547E+03</pdfrwt>
<pdfrwt beam="1">  1       -5 0.34032001E-02 0.12599547E+03</pdfrwt>
<totfact> 0.21441225E+02</totfact>
</mgrwt>
</event>
<event>
 8    1  0.3694627E-007  0.1523910E+03  0.7546771E-02  0.1197567E+00
         -5   -1    0    0    0  501 -0.00000000000E+00  0.00000000000E+00  0.68834164486E+03  0.68835769048E+03  0.47000000000E+01 0.  1.
          5   -1    0    0  501    0  0.00000000000E+00 -0.00000000000E+00 -0.34642896651E+02  0.34960267282E+02  0.47000000000E+01 0.  1.
         25    2    1    2    0    0  0.56472766330E+02 -0.66396392816E+02  0.39059299948E+03  0.41926591847E+03  0.12499345917E+03 0.  0.
         25    2    1    2    0    0 -0.56472766330E+02  0.66396392816E+02  0.26310574873E+03  0.30405203929E+03  0.12500141306E+03 0.  0.
          5    1    4    4  502    0 -0.76231885861E+01  0.64361501519E+02  0.41579041552E+02  0.77145463757E+02  0.47000000000E+01 0.  1.
         -5    1    4    4    0  502 -0.48849577744E+02  0.20348912970E+01  0.22152670718E+03  0.22690657553E+03  0.47000000000E+01 0.  1.
          5    1    3    3  503    0  0.27418735888E+02  0.35815751178E+02  0.99462196623E+02  0.10931319073E+03  0.47000000000E+01 0.  1.
         -5    1    3    3    0  503  0.29054030441E+02 -0.10221214399E+03  0.29113080285E+03  0.30995272774E+03  0.47000000000E+01 0.  1.
<mgrwt>
<rscale>  0 0.15238934E+03</rscale>
<asrwt>0</asrwt>
<pdfrwt beam="2">  1        5 0.53553244E-02 0.15239097E+03</pdfrwt>
<pdfrwt beam="1">  1       -5 0.10592435E+00 0.15239097E+03</pdfrwt>
<totfact> 0.11993450E+02</totfact>
</mgrwt>
</event>
<event>
 8    1  0.3694627E-007  0.1338852E+03  0.7546771E-02  0.1221804E+00
         -5   -1    0    0    0  501 -0.00000000000E+00  0.00000000000E+00  0.19504730250E+02  0.20063013286E+02  0.47000000000E+01 0. -1.
          5   -1    0    0  501    0  0.00000000000E+00 -0.00000000000E+00 -0.10029082824E+04  0.10029192953E+04  0.47000000000E+01 0. -1.
         25    2    1    2    0    0  0.44030335308E+02  0.18993350530E+02 -0.33230786469E+03  0.35826494404E+03  0.12500334158E+03 0.  0.
         25    2    1    2    0    0 -0.44030335308E+02 -0.18993350530E+02 -0.65109568745E+03  0.66471736455E+03  0.12499665082E+03 0.  0.
          5    1    4    4  502    0 -0.20432603970E+02 -0.59774830687E+02 -0.17211143795E+03  0.18339836085E+03  0.47000000000E+01 0. -1.
         -5    1    4    4    0  502 -0.23597731337E+02  0.40781480157E+02 -0.47898424950E+03  0.48131900369E+03  0.47000000000E+01 0. -1.
          5    1    3    3  503    0  0.44066895733E+02 -0.39756142015E+02 -0.25025186848E+03  0.25723633064E+03  0.47000000000E+01 0.  1.
         -5    1    3    3    0  503 -0.36560424750E-01  0.58749492545E+02 -0.82055996212E+02  0.10102861340E+03  0.47000000000E+01 0.  1.
<mgrwt>
<rscale>  0 0.13388366E+03</rscale>
<asrwt>0</asrwt>
<pdfrwt beam="2">  1        5 0.15433733E+00 0.13388522E+03</pdfrwt>
<pdfrwt beam="1">  1       -5 0.30445205E-02 0.13388522E+03</pdfrwt>
<totfact> 0.10943616E+02</totfact>
</mgrwt>
</event>
<event>
 8    1  0.3694627E-007  0.1387606E+03  0.7546771E-02  0.1215007E+00
         -5   -1    0    0    0  501 -0.00000000000E+00  0.00000000000E+00  0.29292692043E+03  0.29296462365E+03  0.47000000000E+01 0. -1.
          5   -1    0    0  501    0  0.00000000000E+00 -0.00000000000E+00 -0.67182738575E+02  0.67346940260E+02  0.47000000000E+01 0. -1.
         25    2    1    2    0    0 -0.55353668120E+02 -0.23765572064E+02  0.14044073744E+03  0.19742874085E+03  0.12500270394E+03 0.  0.
         25    2    1    2    0    0  0.55353668120E+02  0.23765572064E+02  0.85303444413E+02  0.16288282306E+03  0.12500122171E+03 0.  0.
          5    1    3    3  502    0  0.27885946787E+02  0.11980562172E+02  0.86731399286E+02  0.92008616555E+02  0.47000000000E+01 0.  1.
         -5    1    3    3    0  502 -0.83239614907E+02 -0.35746134237E+02  0.53709338151E+02  0.10542012430E+03  0.47000000000E+01 0.  1.
          5    1    4    4  503    0 -0.38511558514E+02 -0.61747679066E+00  0.40038680304E+02  0.55755782993E+02  0.47000000000E+01 0.  1.
         -5    1    4    4    0  503  0.93865226634E+02  0.24383048855E+02  0.45264764109E+02  0.10712704006E+03  0.47000000000E+01 0.  1.
<mgrwt>
<rscale>  0 0.13876028E+03</rscale>
<asrwt>0</asrwt>
<pdfrwt beam="2">  1        5 0.10351337E-01 0.13876061E+03</pdfrwt>
<pdfrwt beam="1">  1       -5 0.45081211E-01 0.13876061E+03</pdfrwt>
<totfact> 0.25984514E+02</totfact>
</mgrwt>
</event>
<event>
 8    1  0.3694627E-007  0.1571380E+03  0.7546771E-02  0.1191968E+00
         -5   -1    0    0    0  501 -0.00000000000E+00  0.00000000000E+00  0.17231535816E+03  0.17237944383E+03  0.47000000000E+01 0. -1.
          5   -1    0    0  501    0  0.00000000000E+00 -0.00000000000E+00 -0.14501503721E+03  0.14509118173E+03  0.47000000000E+01 0. -1.
         25    2    1    2    0    0  0.68198908228E+02  0.66456068080E+02  0.31575244082E+02  0.16027900182E+03  0.12499944926E+03 0.  0.
         25    2    1    2    0    0 -0.68198908228E+02 -0.66456068080E+02 -0.42749231316E+01  0.15719162375E+03  0.12499372601E+03 0.  0.
          5    1    3    3  502    0 -0.36364891187E+02  0.12059418263E+02  0.13770787636E+02  0.40982428820E+02  0.47000000000E+01 0.  1.
         -5    1    3    3    0  502  0.10456379942E+03  0.54396649818E+02  0.17804456446E+02  0.11929657300E+03  0.47000000000E+01 0.  1.
          5    1    4    4  503    0 -0.42955866992E+02 -0.22530663043E+02  0.58660099927E+02  0.76262275141E+02  0.47000000000E+01 0. -1.
         -5    1    4    4    0  503 -0.25243041236E+02 -0.43925405037E+02 -0.62935023059E+02  0.80929348607E+02  0.47000000000E+01 0. -1.
<mgrwt>
<rscale>  0 0.15713690E+03</rscale>
<asrwt>0</asrwt>
<pdfrwt beam="2">  1        5 0.22320793E-01 0.15713804E+03</pdfrwt>
<pdfrwt beam="1">  1       -5 0.26520842E-01 0.15713804E+03</pdfrwt>
<totfact> 0.19425906E+02</totfact>
</mgrwt>
</event>
<event>
 8    1  0.3694627E-007  0.1269931E+03  0.7546771E-02  0.1231987E+00
          5   -1    0    0  501    0  0.00000000000E+00  0.00000000000E+00  0.35977610382E+02  0.36283308129E+02  0.47000000000E+01 0. -1.
         -5   -1    0    0    0  501 -0.00000000000E+00 -0.00000000000E+00 -0.52853291413E+03  0.52855381119E+03  0.47000000000E+01 0. -1.
         25    2    1    2    0    0  0.17841626928E+02  0.13540310041E+02 -0.35781810597E+03  0.37968544683E+03  0.12500231171E+03 0.  0.
         25    2    1    2    0    0 -0.17841626928E+02 -0.13540310041E+02 -0.13473719779E+03  0.18515167248E+03  0.12500146283E+03 0.  0.
          5    1    3    3  502    0  0.25605596507E+02  0.66718944871E+02 -0.17541591328E+03  0.18947268090E+03  0.47000000000E+01 0.  1.
         -5    1    3    3    0  502 -0.77639695796E+01 -0.53178634830E+02 -0.18240219269E+03  0.19021276593E+03  0.47000000000E+01 0.  1.
          5    1    4    4  503    0 -0.59620489773E+02  0.27522989854E+02 -0.88890635752E+02  0.11061533752E+03  0.47000000000E+01 0.  1.
         -5    1    4    4    0  503  0.41778862846E+02 -0.41063299895E+02 -0.45846562034E+02  0.74536334960E+02  0.47000000000E+01 0.  1.
<mgrwt>
<rscale>  0 0.12699287E+03</rscale>
<asrwt>0</asrwt>
<pdfrwt beam="1">  1        5 0.55601400E-02 0.12699308E+03</pdfrwt>
<pdfrwt beam="2">  1       -5 0.81337873E-01 0.12699308E+03</pdfrwt>
<totfact> 0.19956815E+02</totfact>
</mgrwt>
</event>
<event>
 8    1  0.3694627E-007  0.1486665E+03  0.7546771E-02  0.1202121E+00
         -5   -1    0    0    0  501 -0.00000000000E+00  0.00000000000E+00  0.50604235158E+02  0.50822028845E+02  0.47000000000E+01 0.  1.
          5   -1    0    0  501    0  0.00000000000E+00 -0.00000000000E+00 -0.57004246385E+03  0.57006183927E+03  0.47000000000E+01 0.  1.
         25    2    1    2    0    0  0.11781802171E+02 -0.79610450847E+02 -0.10898052332E+03  0.18433249920E+03  0.12500032421E+03 0.  0.
         25    2    1    2    0    0 -0.11781802171E+02  0.79610450847E+02 -0.41045770537E+03  0.43655136891E+03  0.12499974022E+03 0.  0.
          5    1    3    3  502    0 -0.23774266256E+02  0.24343047731E+02 -0.85294488471E+01  0.35392671649E+02  0.47000000000E+01 0.  1.
         -5    1    3    3    0  502  0.35556068427E+02 -0.10395349858E+03 -0.10045107448E+03  0.14893982755E+03  0.47000000000E+01 0.  1.
          5    1    4    4  503    0 -0.37324241255E+02 -0.81693077813E+01 -0.24000711330E+03  0.24307476424E+03  0.47000000000E+01 0.  1.
         -5    1    4    4    0  503  0.25542439084E+02  0.87779758628E+02 -0.17045059207E+03  0.19347660467E+03  0.47000000000E+01 0.  1.
<mgrwt>
<rscale>  0 0.14866634E+03</rscale>
<asrwt>0</asrwt>
<pdfrwt beam="2">  1        5 0.87717080E-01 0.14866646E+03</pdfrwt>
<pdfrwt beam="1">  1       -5 0.78035111E-02 0.14866646E+03</pdfrwt>
<totfact> 0.99309458E+01</totfact>
</mgrwt>
</event>
<event>
 8    1  0.3694627E-007  0.1275780E+03  0.7546771E-02  0.1231098E+00
          5   -1    0    0  501    0  0.00000000000E+00  0.00000000000E+00  0.30535438868E+03  0.30539055763E+03  0.47000000000E+01 0.  1.
         -5   -1    0    0    0  501 -0.00000000000E+00 -0.00000000000E+00 -0.55792595194E+02  0.55990210559E+02  0.47000000000E+01 0.  1.
         25    2    1    2    0    0 -0.17639198941E+02 -0.18403594870E+02  0.85586580826E+02  0.15362680892E+03  0.12500519973E+03 0.  0.
         25    2    1    2    0    0  0.17639198941E+02  0.18403594870E+02  0.16397521266E+03  0.20775395926E+03  0.12499601425E+03 0.  0.
          5    1    4    4  502    0  0.13263849618E+02  0.68391808570E+00 -0.19087365769E+02  0.23723721939E+02  0.47000000000E+01 0. -1.
         -5    1    4    4    0  502  0.43753493231E+01  0.17719676784E+02  0.18306257843E+03  0.18403023732E+03  0.47000000000E+01 0. -1.
          5    1    3    3  503    0  0.14741461881E+02  0.37209543135E+02 -0.68712517803E+01  0.40879883803E+02  0.47000000000E+01 0. -1.
         -5    1    3    3    0  503 -0.32380660822E+02 -0.55613138005E+02  0.92457832606E+02  0.11274692512E+03  0.47000000000E+01 0. -1.
<mgrwt>
<rscale>  0 0.12757570E+03</rscale>
<asrwt>0</asrwt>
<pdfrwt beam="1">  1        5 0.46995582E-01 0.12757795E+03</pdfrwt>
<pdfrwt beam="2">  1       -5 0.86014596E-02 0.12757795E+03</pdfrwt>
<totfact> 0.31898065E+02</totfact>
</mgrwt>
</event>
<event>
 8    1  0.3694627E-007  0.1395240E+03  0.7546771E-02  0.1213973E+00
          5   -1    0    0  501    0  0.00000000000E+00  0.00000000000E+00  0.20344666139E+03  0.20350094356E+03  0.47000000000E+01 0. -1.
         -5   -1    0    0    0  501 -0.00000000000E+00 -0.00000000000E+00 -0.95558775881E+02  0.95674289377E+02  0.47000000000E+01 0. -1.
         25    2    1    2    0    0  0.20579679559E+02  0.58464923079E+02  0.53430706984E+02  0.14940033318E+03  0.12499579459E+03 0.  0.
         25    2    1    2    0    0 -0.20579679559E+02 -0.58464923079E+02  0.54457178525E+02  0.14977489976E+03  0.12500106345E+03 0.  0.
          5    1    3    3  502    0 -0.49026730626E+01 -0.21022647861E+02  0.61557407881E+02  0.65401776667E+02  0.47000000000E+01 0. -1.
         -5    1    3    3    0  502  0.25482352622E+02  0.79487570940E+02 -0.81267008972E+01  0.83998556515E+02  0.47000000000E+01 0. -1.
          5    1    4    4  503    0 -0.69421905310E+02 -0.55688591358E+02  0.25355283838E+02  0.92658515868E+02  0.47000000000E+01 0.  1.
         -5    1    4    4    0  503  0.48842225751E+02 -0.27763317205E+01  0.29101894687E+02  0.57116383888E+02  0.47000000000E+01 0.  1.
<mgrwt>
<rscale>  0 0.13952278E+03</rscale>
<asrwt>0</asrwt>
<pdfrwt beam="1">  1        5 0.31312547E-01 0.13952396E+03</pdfrwt>
<pdfrwt beam="2">  1       -5 0.14714411E-01 0.13952396E+03</pdfrwt>
<totfact> 0.29162138E+02</totfact>
</mgrwt>
</event>
<event>
 8    1  0.3694627E-007  0.1304976E+03  0.7546771E-02  0.1226719E+00
          5   -1    0    0  501    0  0.00000000000E+00  0.00000000000E+00  0.46823613034E+02  0.47058907101E+02  0.47000000000E+01 0. -1.
         -5   -1    0    0    0  501 -0.00000000000E+00 -0.00000000000E+00 -0.36268082137E+03  0.36271127386E+03  0.47000000000E+01 0. -1.
         25    2    1    2    0    0 -0.29557283830E+02 -0.23054712068E+02 -0.15381549963E+03  0.20171471863E+03  0.12499786803E+03 0.  0.
         25    2    1    2    0    0  0.29557283830E+02  0.23054712068E+02 -0.16204170871E+03  0.20805546233E+03  0.12499762906E+03 0.  0.
          5    1    3    3  502    0  0.26682516074E+02  0.32033189194E+02 -0.20207975358E+02  0.46567522395E+02  0.47000000000E+01 0. -1.
         -5    1    3    3    0  502 -0.56239799904E+02 -0.55087901262E+02 -0.13360752427E+03  0.15514719624E+03  0.47000000000E+01 0. -1.
          5    1    4    4  503    0  0.52805736798E+02 -0.17060231770E+02 -0.21009376337E+02  0.59522947179E+02  0.47000000000E+01 0. -1.
         -5    1    4    4    0  503 -0.23248452968E+02  0.40114943838E+02 -0.14103233237E+03  0.14853251515E+03  0.47000000000E+01 0. -1.
<mgrwt>
<rscale>  0 0.13049753E+03</rscale>
<asrwt>0</asrwt>
<pdfrwt beam="1">  1        5 0.72240750E-02 0.13049759E+03</pdfrwt>
<pdfrwt beam="2">  1       -5 0.55817490E-01 0.13049759E+03</pdfrwt>
<totfact> 0.30073936E+02</totfact>
</mgrwt>
</event>
<event>
 8    1  0.3694627E-007  0.1384055E+03  0.7546771E-02  0.1215492E+00
          5   -1    0    0  501    0  0.00000000000E+00  0.00000000000E+00  0.30284788339E+02  0.30647322962E+02  0.47000000000E+01 0. -1.
         -5   -1    0    0    0  501 -0.00000000000E+00 -0.00000000000E+00 -0.63170146314E+03  0.63171894743E+03  0.47000000000E+01 0. -1.
         25    2    1    2    0    0 -0.55417085471E+02 -0.21411071682E+02 -0.27668830579E+03  0.30937435662E+03  0.12500634632E+03 0.  0.
         25    2    1    2    0    0  0.55417085471E+02  0.21411071682E+02 -0.32472836902E+03  0.35299191377E+03  0.12500116076E+03 0.  0.
          5    1    3    3  502    0 -0.91999069328E+02 -0.21200548761E+02 -0.14890742997E+03  0.17637688263E+03  0.47000000000E+01 0. -1.
         -5    1    3    3    0  502  0.36581983857E+02 -0.21052292108E+00 -0.12778087582E+03  0.13299747399E+03  0.47000000000E+01 0. -1.
          5    1    4    4  503    0  0.91448541191E+02  0.20250163813E+02 -0.17105181753E+03  0.19507362482E+03  0.47000000000E+01 0.  1.
         -5    1    4    4    0  503 -0.36031455720E+02  0.11609078693E+01 -0.15367655148E+03  0.15791828895E+03  0.47000000000E+01 0.  1.
<mgrwt>
<rscale>  0 0.13840430E+03</rscale>
<asrwt>0</asrwt>
<pdfrwt beam="1">  1        5 0.46884309E-02 0.13840547E+03</pdfrwt>
<pdfrwt beam="2">  1       -5 0.97214063E-01 0.13840547E+03</pdfrwt>
<totfact> 0.17899884E+02</totfact>
</mgrwt>
</event>
<event>
 8    1  0.3694627E-007  0.1368829E+03  0.7546771E-02  0.1217587E+00
          5   -1    0    0  501    0  0.00000000000E+00  0.00000000000E+00  0.94211094757E+02  0.94328258625E+02  0.47000000000E+01 0.  1.
         -5   -1    0    0    0  501 -0.00000000000E+00 -0.00000000000E+00 -0.23585497720E+03  0.23590180218E+03  0.47000000000E+01 0.  1.
         25    2    1    2    0    0 -0.36029892699E+02 -0.42570812571E+02 -0.13641231670E+03  0.19324719375E+03  0.12500292194E+03 0.  0.
         25    2    1    2    0    0  0.36029892699E+02  0.42570812571E+02 -0.52315657433E+01  0.13698286705E+03  0.12500603720E+03 0.  0.
          5    1    4    4  502    0  0.14213294570E+02 -0.16057033913E+02 -0.53500923427E+02  0.57829792393E+02  0.47000000000E+01 0. -1.
         -5    1    4    4    0  502  0.21816598128E+02  0.58627846484E+02  0.48269357684E+02  0.79153074662E+02  0.47000000000E+01 0. -1.
          5    1    3    3  503    0 -0.73204307892E+02  0.69054793565E-01 -0.10583501510E+03  0.12877117645E+03  0.47000000000E+01 0. -1.
         -5    1    3    3    0  503  0.37174415193E+02 -0.42639867364E+02 -0.30577301602E+02  0.64476017301E+02  0.47000000000E+01 0. -1.
<mgrwt>
<rscale>  0 0.13688222E+03</rscale>
<asrwt>0</asrwt>
<pdfrwt beam="1">  1        5 0.14506629E-01 0.13688293E+03</pdfrwt>
<pdfrwt beam="2">  1       -5 0.36297995E-01 0.13688293E+03</pdfrwt>
<totfact> 0.22140669E+02</totfact>
</mgrwt>
</event>
<event>
 8    1  0.3694627E-007  0.1397194E+03  0.7546771E-02  0.1213710E+00
          5   -1    0    0  501    0  0.00000000000E+00  0.00000000000E+00  0.17054326322E+04  0.17054391085E+04  0.47000000000E+01 0. -1.
         -5   -1    0    0    0  501 -0.00000000000E+00 -0.00000000000E+00 -0.12669057449E+02  0.13512772352E+02  0.47000000000E+01 0. -1.
         25    2    1    2    0    0  0.62310362987E+02  0.37498786052E+01  0.54120545653E+03  0.55894979137E+03  0.12499952069E+03 0.  0.
         25    2    1    2    0    0 -0.62310362987E+02 -0.37498786052E+01  0.11515581182E+04  0.11600020895E+04  0.12498842005E+03 0.  0.
          5    1    4    4  502    0 -0.81859482830E+02 -0.25623577145E+02  0.46931515610E+03  0.47711251124E+03  0.47000000000E+01 0. -1.
         -5    1    4    4    0  502  0.19549119843E+02  0.21873698539E+02  0.68224296212E+03  0.68288957829E+03  0.47000000000E+01 0. -1.
          5    1    3    3  503    0 -0.38081938589E+02  0.74147989469E+01  0.14365070864E+03  0.14887185557E+03  0.47000000000E+01 0.  1.
         -5    1    3    3    0  503  0.10039230158E+03 -0.36649203417E+01  0.39755474789E+03  0.41007793580E+03  0.47000000000E+01 0.  1.
<mgrwt>
<rscale>  0 0.13971696E+03</rscale>
<asrwt>0</asrwt>
<pdfrwt beam="1">  1        5 0.26243966E+00 0.13971944E+03</pdfrwt>
<pdfrwt beam="2">  1       -5 0.20144850E-02 0.13971944E+03</pdfrwt>
<totfact> 0.39781420E+01</totfact>
</mgrwt>
</event>
<event>
 8    1  0.3694627E-007  0.1672499E+03  0.7546771E-02  0.1180757E+00
         -5   -1    0    0    0  501 -0.00000000000E+00  0.00000000000E+00  0.76314316170E+03  0.76315763460E+03  0.47000000000E+01 0.  1.
          5   -1    0    0  501    0  0.00000000000E+00 -0.00000000000E+00 -0.40765870566E+02  0.41035913575E+02  0.47000000000E+01 0.  1.
         25    2    1    2    0    0 -0.10144701122E+03 -0.45340442289E+02  0.49105110337E+03  0.51873894618E+03  0.12494661409E+03 0.  0.
         25    2    1    2    0    0  0.10144701122E+03  0.45340442289E+02  0.23132618776E+03  0.28545460199E+03  0.12500109144E+03 0.  0.
          5    1    3    3  502    0 -0.97739343485E+02  0.31538364138E+01  0.42754179146E+03  0.43860802477E+03  0.47000000000E+01 0. -1.
         -5    1    3    3    0  502 -0.37076677360E+01 -0.48494278703E+02  0.63509311908E+02  0.80130921410E+02  0.47000000000E+01 0. -1.
          5    1    4    4  503    0  0.12559686874E+03  0.12931859060E+02  0.16865234297E+03  0.21073089286E+03  0.47000000000E+01 0. -1.
         -5    1    4    4    0  503 -0.24149857520E+02  0.32408583230E+02  0.62673844796E+02  0.74723709134E+02  0.47000000000E+01 0. -1.
<mgrwt>
<rscale>  0 0.16723971E+03</rscale>
<asrwt>0</asrwt>
<pdfrwt beam="2">  1        5 0.62935579E-02 0.16724989E+03</pdfrwt>
<pdfrwt beam="1">  1       -5 0.11742853E+00 0.16724989E+03</pdfrwt>
<totfact> 0.72616141E+01</totfact>
</mgrwt>
</event>
<event>
 8    1  0.3694627E-007  0.1395650E+03  0.7546771E-02  0.1213918E+00
          5   -1    0    0  501    0  0.00000000000E+00  0.00000000000E+00  0.41455423471E+03  0.41458087693E+03  0.47000000000E+01 0. -1.
         -5   -1    0    0    0  501 -0.00000000000E+00 -0.00000000000E+00 -0.20200604446E+03  0.20206071365E+03  0.47000000000E+01 0.  1.
         25    2    1    2    0    0  0.53685697796E+02  0.31181342939E+02 -0.16383463821E+03  0.21521611234E+03  0.12498702347E+03 0.  0.
         25    2    1    2    0    0 -0.53685697796E+02 -0.31181342939E+02  0.37638282846E+03  0.40142547824E+03  0.12499580283E+03 0.  0.
          5    1    3    3  502    0  0.13771397236E+02  0.40100114696E+02 -0.16847115669E+03  0.17378806408E+03  0.47000000000E+01 0.  1.
         -5    1    3    3    0  502  0.39914300560E+02 -0.89187717569E+01  0.46365184777E+01  0.41428048258E+02  0.47000000000E+01 0.  1.
          5    1    4    4  503    0 -0.41236912827E+02  0.29857996326E+02  0.29195086080E+03  0.29639395750E+03  0.47000000000E+01 0.  1.
         -5    1    4    4    0  503 -0.12448784969E+02 -0.61039339265E+02  0.84431967664E+02  0.10503152074E+03  0.47000000000E+01 0.  1.
<mgrwt>
<rscale>  0 0.13956300E+03</rscale>
<asrwt>0</asrwt>
<pdfrwt beam="1">  1        5 0.63783828E-01 0.13956497E+03</pdfrwt>
<pdfrwt beam="2">  1       -5 0.31084108E-01 0.13956497E+03</pdfrwt>
<totfact> 0.16164430E+01</totfact>
</mgrwt>
</event>
<event>
 8    1  0.3694627E-007  0.1812468E+03  0.7546771E-02  0.1166602E+00
          5   -1    0    0  501    0  0.00000000000E+00  0.00000000000E+00  0.64065737161E+02  0.64237906862E+02  0.47000000000E+01 0.  1.
         -5   -1    0    0    0  501 -0.00000000000E+00 -0.00000000000E+00 -0.51894748757E+03  0.51896877060E+03  0.47000000000E+01 0.  1.
         25    2    1    2    0    0 -0.63951133961E+02  0.11460894316E+03 -0.26145354476E+03  0.31813262629E+03  0.12500181782E+03 0.  0.
         25    2    1    2    0    0  0.63951133961E+02 -0.11460894316E+03 -0.19342820565E+03  0.26507405117E+03  0.12499929789E+03 0.  0.
          5    1    3    3  502    0 -0.83707918868E+02  0.68915099128E+02 -0.24061967094E+03  0.26396254017E+03  0.47000000000E+01 0.  1.
         -5    1    3    3    0  502  0.19756784907E+02  0.45693844035E+02 -0.20833873820E+02  0.54170086126E+02  0.47000000000E+01 0.  1.
          5    1    4    4  503    0 -0.32976424122E+02 -0.13726470988E+02 -0.16933492905E+02  0.39808211912E+02  0.47000000000E+01 0.  1.
         -5    1    4    4    0  503  0.96927558083E+02 -0.10088247218E+03 -0.17649471275E+03  0.22526583926E+03  0.47000000000E+01 0.  1.
<mgrwt>
<rscale>  0 0.18124639E+03</rscale>
<asrwt>0</asrwt>
<pdfrwt beam="1">  1        5 0.98711485E-02 0.18124683E+03</pdfrwt>
<pdfrwt beam="2">  1       -5 0.79852954E-01 0.18124683E+03</pdfrwt>
<totfact> 0.87368515E+01</totfact>
</mgrwt>
</event>
<event>
 8    1  0.3694627E-007  0.1299403E+03  0.7546771E-02  0.1227558E+00
         -5   -1    0    0    0  501 -0.00000000000E+00  0.00000000000E+00  0.36082882627E+02  0.36387695979E+02  0.47000000000E+01 0. -1.
          5   -1    0    0  501    0  0.00000000000E+00 -0.00000000000E+00 -0.46559693002E+03  0.46562065165E+03  0.47000000000E+01 0. -1.
         25    2    1    2    0    0  0.24511256335E+02 -0.25342403424E+02 -0.21800643046E+03  0.25377468433E+03  0.12502698743E+03 0.  0.
         25    2    1    2    0    0 -0.24511256335E+02  0.25342403424E+02 -0.21150761693E+03  0.24823366330E+03  0.12506574462E+03 0.  0.
          5    1    3    3  502    0  0.71299815285E+02 -0.38271705449E+02 -0.14026884686E+03  0.16200563724E+03  0.47000000000E+01 0.  1.
         -5    1    3    3    0  502 -0.46788558951E+02  0.12929302025E+02 -0.77737583599E+02  0.91769047087E+02  0.47000000000E+01 0.  1.
          5    1    4    4  503    0 -0.50717270327E+02  0.25933101125E+02 -0.29560777031E+02  0.64348246146E+02  0.47000000000E+01 0. -1.
         -5    1    4    4    0  503  0.26206013992E+02 -0.59069770077E+00 -0.18194683990E+03  0.18388541716E+03  0.47000000000E+01 0. -1.
<mgrwt>
<rscale>  0 0.12993097E+03</rscale>
<asrwt>0</asrwt>
<pdfrwt beam="2">  1        5 0.71655565E-01 0.12994029E+03</pdfrwt>
<pdfrwt beam="1">  1       -5 0.55764850E-02 0.12994029E+03</pdfrwt>
<totfact> 0.26759548E+02</totfact>
</mgrwt>
</event>
<event>
 8    1  0.3694627E-007  0.1419387E+03  0.7546771E-02  0.1210745E+00
          5   -1    0    0  501    0  0.00000000000E+00  0.00000000000E+00  0.16810788398E+02  0.17455446330E+02  0.47000000000E+01 0. -1.
         -5   -1    0    0    0  501 -0.00000000000E+00 -0.00000000000E+00 -0.12950583546E+04  0.12950668831E+04  0.47000000000E+01 0. -1.
         25    2    1    2    0    0 -0.15118152750E+02  0.65519368950E+02 -0.83871151512E+03  0.85063716734E+03  0.12500095452E+03 0.  0.
         25    2    1    2    0    0  0.15118152750E+02 -0.65519368950E+02 -0.43953605109E+03  0.46188516213E+03  0.12499846616E+03 0.  0.
          5    1    4    4  502    0  0.10626661003E+02 -0.90506847727E+02 -0.41920667581E+03  0.42902300924E+03  0.47000000000E+01 0.  1.
         -5    1    4    4    0  502  0.44914917466E+01  0.24987478777E+02 -0.20329375275E+02  0.32862152893E+02  0.47000000000E+01 0.  1.
          5    1    3    3  503    0 -0.57514709266E+02  0.14906911226E+02 -0.20529209729E+03  0.21376878395E+03  0.47000000000E+01 0.  1.
         -5    1    3    3    0  503  0.42396556517E+02  0.50612457724E+02 -0.63341941783E+03  0.63686838339E+03  0.47000000000E+01 0.  1.
<mgrwt>
<rscale>  0 0.14193812E+03</rscale>
<asrwt>0</asrwt>
<pdfrwt beam="1">  1        5 0.26365213E-02 0.14193867E+03</pdfrwt>
<pdfrwt beam="2">  1       -5 0.19928991E+00 0.14193867E+03</pdfrwt>
<totfact> 0.66598816E+01</totfact>
</mgrwt>
</event>
<event>
 8    1  0.3694627E-007  0.1269556E+03  0.7546771E-02  0.1232047E+00
          5   -1    0    0  501    0  0.00000000000E+00  0.00000000000E+00  0.72371715844E+02  0.72524170138E+02  0.47000000000E+01 0.  1.
         -5   -1    0    0    0  501 -0.00000000000E+00 -0.00000000000E+00 -0.30001276604E+03  0.30004957888E+03  0.47000000000E+01 0.  1.
         25    2    1    2    0    0  0.11968758164E+02  0.18674213899E+02 -0.20860923091E+03  0.24419957317E+03  0.12499457138E+03 0.  0.
         25    2    1    2    0    0 -0.11968758164E+02 -0.18674213899E+02 -0.19031819279E+02  0.12837417585E+03  0.12500296574E+03 0.  0.
          5    1    4    4  502    0  0.45350653382E+02  0.48663728007E+01  0.24988367206E+02  0.52219458462E+02  0.47000000000E+01 0. -1.
         -5    1    4    4    0  502 -0.57319411546E+02 -0.23540586699E+02 -0.44020186485E+02  0.76154717387E+02  0.47000000000E+01 0. -1.
          5    1    3    3  503    0  0.62643105437E+02  0.32605986980E+02 -0.14651641665E+03  0.16271588550E+03  0.47000000000E+01 0. -1.
         -5    1    3    3    0  503 -0.50674347273E+02 -0.13931773081E+02 -0.62092814265E+02  0.81483687669E+02  0.47000000000E+01 0. -1.
<mgrwt>
<rscale>  0 0.12695351E+03</rscale>
<asrwt>0</asrwt>
<pdfrwt beam="1">  1        5 0.11148669E-01 0.12695558E+03</pdfrwt>
<pdfrwt beam="2">  1       -5 0.46170368E-01 0.12695558E+03</pdfrwt>
<totfact> 0.21042325E+02</totfact>
</mgrwt>
</event>
<event>
 8    1  0.3694627E-007  0.1341682E+03  0.7546771E-02  0.1221399E+00
          5   -1    0    0  501    0  0.00000000000E+00  0.00000000000E+00  0.19385461673E+02  0.19947083102E+02  0.47000000000E+01 0.  1.
         -5   -1    0    0    0  501 -0.00000000000E+00 -0.00000000000E+00 -0.95590311049E+03  0.95591466493E+03  0.47000000000E+01 0.  1.
         25    2    1    2    0    0  0.27969732542E+02  0.39916660916E+02 -0.56945786966E+03  0.58504978618E+03  0.12500136490E+03 0.  0.
         25    2    1    2    0    0 -0.27969732542E+02 -0.39916660916E+02 -0.36705977915E+03  0.39081196186E+03  0.12500184921E+03 0.  0.
          5    1    3    3  502    0  0.75969172841E+02  0.14513634341E+02 -0.28105184014E+03  0.29153762648E+03  0.47000000000E+01 0.  1.
         -5    1    3    3    0  502 -0.47999440299E+02  0.25403026576E+02 -0.28840602952E+03  0.29351215970E+03  0.47000000000E+01 0.  1.
          5    1    4    4  503    0 -0.41016667059E+02 -0.80446702516E+02 -0.26941690210E+03  0.28418584775E+03  0.47000000000E+01 0. -1.
         -5    1    4    4    0  503  0.13046934517E+02  0.40530041600E+02 -0.97642877048E+02  0.10662611411E+03  0.47000000000E+01 0. -1.
<mgrwt>
<rscale>  0 0.13416810E+03</rscale>
<asrwt>0</asrwt>
<pdfrwt beam="1">  1        5 0.30264699E-02 0.13416821E+03</pdfrwt>
<pdfrwt beam="2">  1       -5 0.14710607E+00 0.13416821E+03</pdfrwt>
<totfact> 0.12602958E+02</totfact>
</mgrwt>
</event>
<event>
 8    1  0.3694627E-007  0.1455588E+03  0.7546771E-02  0.1206041E+00
          5   -1    0    0  501    0  0.00000000000E+00  0.00000000000E+00  0.23241930801E+02  0.23712388057E+02  0.47000000000E+01 0.  1.
         -5   -1    0    0    0  501 -0.00000000000E+00 -0.00000000000E+00 -0.90260612486E+03  0.90261836157E+03  0.47000000000E+01 0.  1.
         25    2    1    2    0    0 -0.19469196448E+02 -0.71994893668E+02 -0.45215212384E+03  0.47500410634E+03  0.12500017448E+03 0.  0.
         25    2    1    2    0    0  0.19469196448E+02  0.71994893668E+02 -0.42721207022E+03  0.45132664328E+03  0.12499308650E+03 0.  0.
          5    1    4    4  502    0 -0.75123232995E+01 -0.33825272559E+02 -0.13113007943E+03  0.13571209157E+03  0.47000000000E+01 0. -1.
         -5    1    4    4    0  502  0.26981519747E+02  0.10582016623E+03 -0.29608199078E+03  0.31561455171E+03  0.47000000000E+01 0. -1.
          5    1    3    3  503    0 -0.56540150801E+02 -0.77846013091E+02 -0.22542006929E+03  0.24513891581E+03  0.47000000000E+01 0. -1.
         -5    1    3    3    0  503  0.37070954354E+02  0.58511194237E+01 -0.22673205456E+03  0.22986519053E+03  0.47000000000E+01 0. -1.
<mgrwt>
<rscale>  0 0.14555726E+03</rscale>
<asrwt>0</asrwt>
<pdfrwt beam="1">  1        5 0.36128127E-02 0.14555878E+03</pdfrwt>
<pdfrwt beam="2">  1       -5 0.13889958E+00 0.14555878E+03</pdfrwt>
<totfact> 0.11314996E+02</totfact>
</mgrwt>
</event>
<event>
 8    1  0.3694627E-007  0.1532303E+03  0.7546771E-02  0.1196562E+00
          5   -1    0    0  501    0  0.00000000000E+00  0.00000000000E+00  0.15384321231E+03  0.15391498944E+03  0.47000000000E+01 0.  1.
         -5   -1    0    0    0  501 -0.00000000000E+00 -0.00000000000E+00 -0.17388148253E+03  0.17394499121E+03  0.47000000000E+01 0.  1.
         25    2    1    2    0    0  0.75088609430E+02  0.47078103364E+02 -0.67524456755E+02  0.16744869339E+03  0.12499946230E+03 0.  0.
         25    2    1    2    0    0 -0.75088609430E+02 -0.47078103364E+02  0.47486186535E+02  0.16041128727E+03  0.12498878385E+03 0.  0.
          5    1    3    3  502    0  0.19143152880E+02  0.83829275337E+02 -0.39033232710E+02  0.94548881334E+02  0.47000000000E+01 0. -1.
         -5    1    3    3    0  502  0.55945456549E+02 -0.36751171973E+02 -0.28491224045E+02  0.72899812054E+02  0.47000000000E+01 0. -1.
          5    1    4    4  503    0 -0.29564231813E+02 -0.79598901094E+02 -0.27311544324E+01  0.85085710096E+02  0.47000000000E+01 0.  1.
         -5    1    4    4    0  503 -0.45524377616E+02  0.32520797730E+02  0.50217340968E+02  0.75325577172E+02  0.47000000000E+01 0.  1.
<mgrwt>
<rscale>  0 0.15322808E+03</rscale>
<asrwt>0</asrwt>
<pdfrwt beam="1">  1        5 0.23678593E-01 0.15323026E+03</pdfrwt>
<pdfrwt beam="2">  1       -5 0.26761404E-01 0.15323026E+03</pdfrwt>
<totfact> 0.16922998E+02</totfact>
</mgrwt>
</event>
<event>
 8    1  0.3694627E-007  0.1419455E+03  0.7546771E-02  0.1210736E+00
         -5   -1    0    0    0  501 -0.00000000000E+00  0.00000000000E+00  0.95922919369E+02  0.96037994878E+02  0.47000000000E+01 0.  1.
          5   -1    0    0  501    0  0.00000000000E+00 -0.00000000000E+00 -0.21317064264E+03  0.21322244929E+03  0.47000000000E+01 0.  1.
         25    2    1    2    0    0 -0.56551872342E+02 -0.36390693422E+02 -0.39115410566E+02  0.14723631591E+03  0.12500448210E+03 0.  0.
         25    2    1    2    0    0  0.56551872342E+02  0.36390693422E+02 -0.78132312704E+02  0.16202412827E+03  0.12499905207E+03 0.  0.
          5    1    4    4  502    0  0.94820969405E+01  0.77859852750E+02 -0.49823771103E+02  0.93040663151E+02  0.47000000000E+01 0. -1.
         -5    1    4    4    0  502  0.47069775401E+02 -0.41469159328E+02 -0.28308541601E+02  0.68983465115E+02  0.47000000000E+01 0. -1.
          5    1    3    3  503    0 -0.40753966124E+02  0.14046101588E+02 -0.72549002397E+02  0.84519976772E+02  0.47000000000E+01 0. -1.
         -5    1    3    3    0  503 -0.15797906217E+02 -0.50436795010E+02  0.33433591831E+02  0.62716339135E+02  0.47000000000E+01 0. -1.
<mgrwt>
<rscale>  0 0.14194428E+03</rscale>
<asrwt>0</asrwt>
<pdfrwt beam="2">  1        5 0.32808320E-01 0.14194547E+03</pdfrwt>
<pdfrwt beam="1">  1       -5 0.14770209E-01 0.14194547E+03</pdfrwt>
<totfact> 0.26560737E+02</totfact>
</mgrwt>
</event>
<event>
 8    1  0.3694627E-007  0.1392393E+03  0.7546771E-02  0.1214358E+00
         -5   -1    0    0    0  501 -0.00000000000E+00  0.00000000000E+00  0.48725497081E+03  0.48727763808E+03  0.47000000000E+01 0. -1.
          5   -1    0    0  501    0  0.00000000000E+00 -0.00000000000E+00 -0.43989417442E+02  0.44239788052E+02  0.47000000000E+01 0. -1.
         25    2    1    2    0    0  0.44109284095E+02 -0.42588613795E+02  0.30507157718E+03  0.33534497287E+03  0.12501265799E+03 0.  0.
         25    2    1    2    0    0 -0.44109284095E+02  0.42588613795E+02  0.13819397618E+03  0.19617245326E+03  0.12500654942E+03 0.  0.
          5    1    4    4  502    0 -0.76670671797E+02  0.49496807831E+02  0.13414616347E+03  0.16231330528E+03  0.47000000000E+01 0. -1.
         -5    1    4    4    0  502  0.32561387703E+02 -0.69081940369E+01  0.40478127156E+01  0.33859147977E+02  0.47000000000E+01 0. -1.
          5    1    3    3  503    0  0.48309356991E+02 -0.82233764589E+02  0.24638810141E+03  0.26424491013E+03  0.47000000000E+01 0. -1.
         -5    1    3    3    0  503 -0.42000728958E+01  0.39645150795E+02  0.58683475769E+02  0.71100062744E+02  0.47000000000E+01 0. -1.
<mgrwt>
<rscale>  0 0.13923793E+03</rscale>
<asrwt>0</asrwt>
<pdfrwt beam="2">  1        5 0.67886055E-02 0.13923930E+03</pdfrwt>
<pdfrwt beam="1">  1       -5 0.74983307E-01 0.13923930E+03</pdfrwt>
<totfact> 0.17749220E+02</totfact>
</mgrwt>
</event>
<event>
 8    1  0.3694627E-007  0.1908421E+03  0.7546771E-02  0.1157705E+00
          5   -1    0    0  501    0  0.00000000000E+00  0.00000000000E+00  0.27503717582E+02  0.27902409947E+02  0.47000000000E+01 0. -1.
         -5   -1    0    0    0  501 -0.00000000000E+00 -0.00000000000E+00 -0.20902036628E+04  0.20902089470E+04  0.47000000000E+01 0. -1.
         25    2    1    2    0    0 -0.14293249562E+03  0.19110937935E+02 -0.16765639020E+04  0.16873906530E+04  0.12500308870E+03 0.  0.
         25    2    1    2    0    0  0.14293249562E+03 -0.19110937935E+02 -0.38613604329E+03  0.43072070396E+03  0.12499741853E+03 0.  0.
          5    1    4    4  502    0 -0.10413378542E+02 -0.11698495182E+02 -0.13455120192E+01  0.16407121771E+02  0.47000000000E+01 0. -1.
         -5    1    4    4    0  502  0.15334587416E+03 -0.74124427521E+01 -0.38479053127E+03  0.41431358219E+03  0.47000000000E+01 0. -1.
          5    1    3    3  503    0 -0.10118372599E+03 -0.42961658978E+02 -0.78365265411E+03  0.79133900627E+03  0.47000000000E+01 0. -1.
         -5    1    3    3    0  503 -0.41748769627E+02  0.62072596912E+02 -0.89291124785E+03  0.89605164672E+03  0.47000000000E+01 0. -1.
<mgrwt>
<rscale>  0 0.19084115E+03</rscale>
<asrwt>0</asrwt>
<pdfrwt beam="1">  1        5 0.42624179E-02 0.19084208E+03</pdfrwt>
<pdfrwt beam="2">  1       -5 0.32160075E+00 0.19084208E+03</pdfrwt>
<totfact> 0.53174917E+00</totfact>
</mgrwt>
</event>
<event>
 8    1  0.3694627E-007  0.1519320E+03  0.7546771E-02  0.1198122E+00
          5   -1    0    0  501    0  0.00000000000E+00  0.00000000000E+00  0.20819044755E+03  0.20824349318E+03  0.47000000000E+01 0.  1.
         -5   -1    0    0    0  501 -0.00000000000E+00 -0.00000000000E+00 -0.11084999478E+03  0.11094958920E+03  0.47000000000E+01 0.  1.
         25    2    1    2    0    0  0.51530546487E+01  0.86195702911E+02  0.53431131043E+02  0.16104327642E+03  0.12499519168E+03 0.  0.
         25    2    1    2    0    0 -0.51530546487E+01 -0.86195702911E+02  0.43909321725E+02  0.15814980596E+03  0.12500831739E+03 0.  0.
          5    1    3    3  502    0 -0.42450170624E+02 -0.10164126983E+02  0.21105382975E+02  0.48711945700E+02  0.47000000000E+01 0. -1.
         -5    1    3    3    0  502  0.47603225273E+02  0.96359829894E+02  0.32325748068E+02  0.11233133072E+03  0.47000000000E+01 0. -1.
          5    1    4    4  503    0 -0.51387854481E+02 -0.21703799442E+02  0.54290726024E+02  0.77982943203E+02  0.47000000000E+01 0.  1.
         -5    1    4    4    0  503  0.46234799833E+02 -0.64491903470E+02 -0.10381404299E+02  0.80166862755E+02  0.47000000000E+01 0.  1.
<mgrwt>
<rscale>  0 0.15192930E+03</rscale>
<asrwt>0</asrwt>
<pdfrwt beam="1">  1        5 0.32041041E-01 0.15193200E+03</pdfrwt>
<pdfrwt beam="2">  1       -5 0.17065587E-01 0.15193200E+03</pdfrwt>
<totfact> 0.21886110E+02</totfact>
</mgrwt>
</event>
<event>
 8    1  0.3694627E-007  0.2073453E+03  0.7546771E-02  0.1143689E+00
          5   -1    0    0  501    0  0.00000000000E+00  0.00000000000E+00  0.15532188581E+03  0.15539297993E+03  0.47000000000E+01 0.  1.
         -5   -1    0    0    0  501 -0.00000000000E+00 -0.00000000000E+00 -0.37260295732E+03  0.37263259896E+03  0.47000000000E+01 0.  1.
         25    2    1    2    0    0 -0.16539820967E+03  0.16156921827E+01 -0.24262698476E+03  0.31915502262E+03  0.12503158205E+03 0.  0.
         25    2    1    2    0    0  0.16539820967E+03 -0.16156921827E+01  0.25345913251E+02  0.20887055627E+03  0.12500126293E+03 0.  0.
          5    1    3    3  502    0  0.21094179385E+01  0.10655337187E+02 -0.94732940801E+02  0.95469397858E+02  0.47000000000E+01 0. -1.
         -5    1    3    3    0  502 -0.16750762760E+03 -0.90396450040E+01 -0.14789404396E+03  0.22368562476E+03  0.47000000000E+01 0. -1.
          5    1    4    4  503    0 -0.14704999178E+01 -0.15278886185E+01 -0.31960132782E+02  0.32373398047E+02  0.47000000000E+01 0.  1.
         -5    1    4    4    0  503  0.16686870958E+03 -0.87803564199E-01  0.57306046033E+02  0.17649715822E+03  0.47000000000E+01 0.  1.
<mgrwt>
<rscale>  0 0.20734073E+03</rscale>
<asrwt>0</asrwt>
<pdfrwt beam="1">  1        5 0.23903424E-01 0.20734530E+03</pdfrwt>
<pdfrwt beam="2">  1       -5 0.57331281E-01 0.20734530E+03</pdfrwt>
<totfact> 0.37932352E+01</totfact>
</mgrwt>
</event>
<event>
 8    1  0.3694627E-007  0.1491988E+03  0.7546771E-02  0.1201462E+00
          5   -1    0    0  501    0  0.00000000000E+00  0.00000000000E+00  0.19005674619E+02  0.19578193679E+02  0.47000000000E+01 0. -1.
         -5   -1    0    0    0  501 -0.00000000000E+00 -0.00000000000E+00 -0.12993419686E+04  0.12993504691E+04  0.47000000000E+01 0. -1.
         25    2    1    2    0    0 -0.11456201648E+02 -0.80644042634E+02 -0.86124120671E+03  0.87406904353E+03  0.12500228219E+03 0.  0.
         25    2    1    2    0    0  0.11456201648E+02  0.80644042634E+02 -0.41909508731E+03  0.44485961922E+03  0.12499872973E+03 0.  0.
          5    1    3    3  502    0 -0.43755986994E+02  0.93922014301E+01 -0.15618281358E+03  0.16253603017E+03  0.47000000000E+01 0.  1.
         -5    1    3    3    0  502  0.32299785345E+02 -0.90036244064E+02 -0.70505839312E+03  0.71153301335E+03  0.47000000000E+01 0.  1.
          5    1    4    4  503    0 -0.15200174386E+02  0.10460595923E+03 -0.36315574350E+03  0.37825604562E+03  0.47000000000E+01 0. -1.
         -5    1    4    4    0  503  0.26656376034E+02 -0.23961916601E+02 -0.55939343812E+02  0.66603573602E+02  0.47000000000E+01 0. -1.
<mgrwt>
<rscale>  0 0.14919804E+03</rscale>
<asrwt>0</asrwt>
<pdfrwt beam="1">  1        5 0.29686448E-02 0.14919878E+03</pdfrwt>
<pdfrwt beam="2">  1       -5 0.19994339E+00 0.14919878E+03</pdfrwt>
<totfact> 0.55226323E+01</totfact>
</mgrwt>
</event>
<event>
 8    1  0.3694627E-007  0.1623349E+03  0.7546771E-02  0.1186086E+00
          5   -1    0    0  501    0  0.00000000000E+00  0.00000000000E+00  0.35978028940E+03  0.35981098738E+03  0.47000000000E+01 0. -1.
         -5   -1    0    0    0  501 -0.00000000000E+00 -0.00000000000E+00 -0.74668799452E+02  0.74816573108E+02  0.47000000000E+01 0. -1.
         25    2    1    2    0    0  0.33351260761E+02 -0.98060894874E+02  0.11146641155E+03  0.19691924607E+03  0.12499673145E+03 0.  0.
         25    2    1    2    0    0 -0.33351260761E+02  0.98060894874E+02  0.17364507840E+03  0.23770831442E+03  0.12499753515E+03 0.  0.
          5    1    4    4  502    0 -0.66157146726E+02  0.10568535362E+03  0.11379356600E+03  0.16887044649E+03  0.47000000000E+01 0. -1.
         -5    1    4    4    0  502  0.32805885965E+02 -0.76244587471E+01  0.59851512398E+02  0.68837867932E+02  0.47000000000E+01 0. -1.
          5    1    3    3  503    0  0.63261313286E+02 -0.41462122594E+02  0.94243746171E+01  0.76367599187E+02  0.47000000000E+01 0.  1.
         -5    1    3    3    0  503 -0.29910052525E+02 -0.56598772280E+02  0.10204203693E+03  0.12055164689E+03  0.47000000000E+01 0.  1.
<mgrwt>
<rscale>  0 0.16233478E+03</rscale>
<asrwt>0</asrwt>
<pdfrwt beam="1">  1        5 0.55364542E-01 0.16233493E+03</pdfrwt>
<pdfrwt beam="2">  1       -5 0.11501236E-01 0.16233493E+03</pdfrwt>
<totfact> 0.14688759E+02</totfact>
</mgrwt>
</event>
<event>
 8    1  0.3694627E-007  0.1349585E+03  0.7546771E-02  0.1220283E+00
          5   -1    0    0  501    0  0.00000000000E+00  0.00000000000E+00  0.14304482003E+04  0.14304559216E+04  0.47000000000E+01 0. -1.
         -5   -1    0    0    0  501 -0.00000000000E+00 -0.00000000000E+00 -0.12965140275E+02  0.13790752784E+02  0.47000000000E+01 0. -1.
         25    2    1    2    0    0  0.23895994065E+02 -0.44891140178E+02  0.54907613761E+03  0.56541542177E+03  0.12499504503E+03 0.  0.
         25    2    1    2    0    0 -0.23895994065E+02  0.44891140178E+02  0.86840692241E+03  0.87883125265E+03  0.12501021854E+03 0.  0.
          5    1    4    4  502    0  0.32778252254E+02 -0.16933017545E+01  0.58845109087E+03  0.58938447336E+03  0.47000000000E+01 0. -1.
         -5    1    4    4    0  502 -0.56674246319E+02  0.46584441932E+02  0.27995583155E+03  0.28944677929E+03  0.47000000000E+01 0. -1.
          5    1    3    3  503    0  0.69009523455E+02 -0.27797372130E+02  0.43691014443E+03  0.44322406583E+03  0.47000000000E+01 0.  1.
         -5    1    3    3    0  503 -0.45113529390E+02 -0.17093768047E+02  0.11216599318E+03  0.12219135594E+03  0.47000000000E+01 0.  1.
<mgrwt>
<rscale>  0 0.13495495E+03</rscale>
<asrwt>0</asrwt>
<pdfrwt beam="1">  1        5 0.22013294E+00 0.13495847E+03</pdfrwt>
<pdfrwt beam="2">  1       -5 0.20587407E-02 0.13495847E+03</pdfrwt>
<totfact> 0.70869489E+01</totfact>
</mgrwt>
</event>
<event>
 8    1  0.3694627E-007  0.2390737E+03  0.7546771E-02  0.1120414E+00
          5   -1    0    0  501    0  0.00000000000E+00  0.00000000000E+00  0.29459161844E+03  0.29462910863E+03  0.47000000000E+01 0. -1.
         -5   -1    0    0    0  501 -0.00000000000E+00 -0.00000000000E+00 -0.22070565829E+03  0.22075569664E+03  0.47000000000E+01 0. -1.
         25    2    1    2    0    0 -0.19912681519E+03 -0.43370543832E+02 -0.52795642493E+02  0.24482159554E+03  0.12497096134E+03 0.  0.
         25    2    1    2    0    0  0.19912681519E+03  0.43370543832E+02  0.12668160264E+03  0.27056320974E+03  0.12499491756E+03 0.  0.
          5    1    3    3  502    0 -0.16931905992E+03 -0.10774336794E+02 -0.85130127322E+02  0.18987959069E+03  0.47000000000E+01 0.  1.
         -5    1    3    3    0  502 -0.29807755270E+02 -0.32596207038E+02  0.32334484830E+02  0.54942004848E+02  0.47000000000E+01 0.  1.
          5    1    4    4  503    0 -0.79840115527E+01  0.21111051698E+02  0.37287678444E+02  0.43839273580E+02  0.47000000000E+01 0.  1.
         -5    1    4    4    0  503  0.20711082674E+03  0.22259492134E+02  0.89393924199E+02  0.22672393616E+03  0.47000000000E+01 0.  1.
<mgrwt>
<rscale>  0 0.23907054E+03</rscale>
<asrwt>0</asrwt>
<pdfrwt beam="1">  1        5 0.45328520E-01 0.23907367E+03</pdfrwt>
<pdfrwt beam="2">  1       -5 0.33961450E-01 0.23907367E+03</pdfrwt>
<totfact> 0.32601427E+01</totfact>
</mgrwt>
</event>
<event>
 8    1  0.3694627E-007  0.1481684E+03  0.7546771E-02  0.1202746E+00
         -5   -1    0    0    0  501 -0.00000000000E+00  0.00000000000E+00  0.85957313788E+02  0.86085711902E+02  0.47000000000E+01 0.  1.
          5   -1    0    0  501    0  0.00000000000E+00 -0.00000000000E+00 -0.29783234968E+03  0.29786943200E+03  0.47000000000E+01 0.  1.
         25    2    1    2    0    0 -0.79435525067E+02 -0.40003993356E+01 -0.33195541623E+02  0.15184146941E+03  0.12501152752E+03 0.  0.
         25    2    1    2    0    0  0.79435525067E+02  0.40003993356E+01 -0.17867949427E+03  0.23211367449E+03  0.12499756147E+03 0.  0.
          5    1    3    3  502    0  0.74939061941E+00 -0.25972455958E+02 -0.59018462511E+02  0.64656004918E+02  0.47000000000E+01 0. -1.
         -5    1    3    3    0  502 -0.80184915687E+02  0.21972056623E+02  0.25822920887E+02  0.87185464494E+02  0.47000000000E+01 0. -1.
          5    1    4    4  503    0  0.79632572206E+02  0.22610322893E+02 -0.39902788216E+02  0.92015736506E+02  0.47000000000E+01 0. -1.
         -5    1    4    4    0  503 -0.19704713869E+00 -0.18609923557E+02 -0.13877670606E+03  0.14009793798E+03  0.47000000000E+01 0. -1.
<mgrwt>
<rscale>  0 0.14816550E+03</rscale>
<asrwt>0</asrwt>
<pdfrwt beam="2">  1        5 0.45833090E-01 0.14816844E+03</pdfrwt>
<pdfrwt beam="1">  1       -5 0.13236932E-01 0.14816844E+03</pdfrwt>
<totfact> 0.16601908E+02</totfact>
</mgrwt>
</event>
<event>
 8    1  0.3694627E-007  0.1391209E+03  0.7546771E-02  0.1214539E+00
          5   -1    0    0  501    0  0.00000000000E+00  0.00000000000E+00  0.28357011518E+02  0.28743870690E+02  0.47000000000E+01 0. -1.
         -5   -1    0    0    0  501 -0.00000000000E+00 -0.00000000000E+00 -0.77847218406E+03  0.77848637197E+03  0.47000000000E+01 0. -1.
         25    2    1    2    0    0 -0.31559290916E+02 -0.52107462910E+02 -0.52068164546E+03  0.53894713440E+03  0.12507382309E+03 0.  0.
         25    2    1    2    0    0  0.31559290916E+02  0.52107462910E+02 -0.22943352708E+03  0.26828310827E+03  0.12499962520E+03 0.  0.
          5    1    4    4  502    0 -0.21057333896E+02 -0.32158166441E+02 -0.51422952004E+02  0.64373666763E+02  0.47000000000E+01 0.  1.
         -5    1    4    4    0  502  0.52616624812E+02  0.84265629351E+02 -0.17801057507E+03  0.20390944150E+03  0.47000000000E+01 0.  1.
          5    1    3    3  503    0  0.36329199796E+02  0.11322854476E+02 -0.24525255848E+03  0.24823159596E+03  0.47000000000E+01 0.  1.
         -5    1    3    3    0  503 -0.67888490712E+02 -0.63430317385E+02 -0.27542908698E+03  0.29071553843E+03  0.47000000000E+01 0.  1.
<mgrwt>
<rscale>  0 0.13910427E+03</rscale>
<asrwt>0</asrwt>
<pdfrwt beam="1">  1        5 0.43934675E-02 0.13912095E+03</pdfrwt>
<pdfrwt beam="2">  1       -5 0.11979578E+00 0.13912095E+03</pdfrwt>
<totfact> 0.11895451E+02</totfact>
</mgrwt>
</event>
<event>
 8    1  0.3694627E-007  0.1733432E+03  0.7546771E-02  0.1174406E+00
         -5   -1    0    0    0  501 -0.00000000000E+00  0.00000000000E+00  0.15601410836E+03  0.15608488718E+03  0.47000000000E+01 0.  1.
          5   -1    0    0  501    0  0.00000000000E+00 -0.00000000000E+00 -0.21428352837E+03  0.21433506603E+03  0.47000000000E+01 0.  1.
         25    2    1    2    0    0 -0.63107509323E+02  0.10217746982E+03  0.29963441501E+02  0.17591313730E+03  0.12499932391E+03 0.  0.
         25    2    1    2    0    0  0.63107509323E+02 -0.10217746982E+03 -0.88232861515E+02  0.19450681591E+03  0.12500028206E+03 0.  0.
          5    1    3    3  502    0  0.13463170581E+02  0.91694309674E+02 -0.25671788216E+00  0.92796871137E+02  0.47000000000E+01 0.  1.
         -5    1    3    3    0  502 -0.76570679904E+02  0.10483160141E+02  0.30220159383E+02  0.83116266162E+02  0.47000000000E+01 0.  1.
          5    1    4    4  503    0  0.51135256644E+02 -0.69170768477E+02 -0.11946083819E+03  0.14728337158E+03  0.47000000000E+01 0. -1.
         -5    1    4    4    0  503  0.11972252678E+02 -0.33006701339E+02  0.31227976674E+02  0.47223444332E+02  0.47000000000E+01 0. -1.
<mgrwt>
<rscale>  0 0.17334302E+03</rscale>
<asrwt>0</asrwt>
<pdfrwt beam="2">  1        5 0.32976106E-01 0.17334320E+03</pdfrwt>
<pdfrwt beam="1">  1       -5 0.24011580E-01 0.17334320E+03</pdfrwt>
<totfact> 0.11351764E+02</totfact>
</mgrwt>
</event>
<event>
 8    1  0.3694627E-007  0.1527877E+03  0.7546771E-02  0.1197089E+00
         -5   -1    0    0    0  501 -0.00000000000E+00  0.00000000000E+00  0.51716213822E+02  0.51929344037E+02  0.47000000000E+01 0. -1.
          5   -1    0    0  501    0  0.00000000000E+00 -0.00000000000E+00 -0.72458631513E+03  0.72460155815E+03  0.47000000000E+01 0. -1.
         25    2    1    2    0    0 -0.79949692849E+02  0.36416602606E+02 -0.97559656787E+02  0.18127785890E+03  0.12500261262E+03 0.  0.
         25    2    1    2    0    0  0.79949692849E+02 -0.36416602606E+02 -0.57531044452E+03  0.59525304329E+03  0.12500382249E+03 0.  0.
          5    1    3    3  502    0  0.56248550913E+01 -0.16099034896E+02 -0.76582132387E+02  0.78598542736E+02  0.47000000000E+01 0. -1.
         -5    1    3    3    0  502 -0.85574547940E+02  0.52515637501E+02 -0.20977524400E+02  0.10267931616E+03  0.47000000000E+01 0. -1.
          5    1    4    4  503    0  0.33585715795E+02 -0.68775651689E+02 -0.17664879785E+03  0.19257460464E+03  0.47000000000E+01 0. -1.
         -5    1    4    4    0  503  0.46363977053E+02  0.32359049083E+02 -0.39866164667E+03  0.40267843865E+03  0.47000000000E+01 0. -1.
<mgrwt>
<rscale>  0 0.15278744E+03</rscale>
<asrwt>0</asrwt>
<pdfrwt beam="2">  1        5 0.11149238E+00 0.15278769E+03</pdfrwt>
<pdfrwt beam="1">  1       -5 0.79739083E-02 0.15278769E+03</pdfrwt>
<totfact> 0.53844829E+01</totfact>
</mgrwt>
</event>
<event>
 8    1  0.3694627E-007  0.1373018E+03  0.7546771E-02  0.1217008E+00
         -5   -1    0    0    0  501 -0.00000000000E+00  0.00000000000E+00  0.85222817100E+03  0.85224113105E+03  0.47000000000E+01 0. -1.
          5   -1    0    0  501    0  0.00000000000E+00 -0.00000000000E+00 -0.24027565701E+02  0.24482931064E+02  0.47000000000E+01 0. -1.
         25    2    1    2    0    0  0.14474922015E+02 -0.54923954917E+02  0.54453274783E+03  0.56157607536E+03  0.12500244303E+03 0.  0.
         25    2    1    2    0    0 -0.14474922015E+02  0.54923954917E+02  0.28366785747E+03  0.31514798675E+03  0.12499854400E+03 0.  0.
          5    1    4    4  502    0 -0.19009601179E+02 -0.36743045395E+02  0.12542982120E+03  0.13215954891E+03  0.47000000000E+01 0.  1.
         -5    1    4    4    0  502  0.45346791647E+01  0.91667000312E+02  0.15823803627E+03  0.18298843784E+03  0.47000000000E+01 0.  1.
          5    1    3    3  503    0  0.24059855321E+02 -0.82913013000E+02  0.50294637225E+03  0.51032400269E+03  0.47000000000E+01 0.  1.
         -5    1    3    3    0  503 -0.95849333065E+01  0.27989058082E+02  0.41586375579E+02  0.51252072666E+02  0.47000000000E+01 0.  1.
<mgrwt>
<rscale>  0 0.13730088E+03</rscale>
<asrwt>0</asrwt>
<pdfrwt beam="2">  1        5 0.37325733E-02 0.13730177E+03</pdfrwt>
<pdfrwt beam="1">  1       -5 0.13114806E+00 0.13730177E+03</pdfrwt>
<totfact> 0.12254185E+02</totfact>
</mgrwt>
</event>
<event>
 8    1  0.3694627E-007  0.1421933E+03  0.7546771E-02  0.1210408E+00
          5   -1    0    0  501    0  0.00000000000E+00  0.00000000000E+00  0.67012081290E+03  0.67013729480E+03  0.47000000000E+01 0. -1.
         -5   -1    0    0    0  501 -0.00000000000E+00 -0.00000000000E+00 -0.34522866668E+02  0.34841330672E+02  0.47000000000E+01 0. -1.
         25    2    1    2    0    0  0.32208614080E+02  0.59631215949E+02  0.19047583521E+03  0.23769646062E+03  0.12500114741E+03 0.  0.
         25    2    1    2    0    0 -0.32208614080E+02 -0.59631215949E+02  0.44512211102E+03  0.46728216485E+03  0.12500260451E+03 0.  0.
          5    1    3    3  502    0 -0.31596966225E+02  0.52690201300E+02  0.38499089168E+02  0.72656007697E+02  0.47000000000E+01 0. -1.
         -5    1    3    3    0  502  0.63805580305E+02  0.69410146497E+01  0.15197674604E+03  0.16504045292E+03  0.47000000000E+01 0. -1.
          5    1    4    4  503    0 -0.41375726709E+02 -0.87043891869E+02  0.41165049182E+03  0.42280823938E+03  0.47000000000E+01 0.  1.
         -5    1    4    4    0  503  0.91671126288E+01  0.27412675920E+02  0.33471619196E+02  0.44473925469E+02  0.47000000000E+01 0.  1.
<mgrwt>
<rscale>  0 0.14219296E+03</rscale>
<asrwt>0</asrwt>
<pdfrwt beam="1">  1        5 0.10312126E+00 0.14219328E+03</pdfrwt>
<pdfrwt beam="2">  1       -5 0.53369759E-02 0.14219328E+03</pdfrwt>
<totfact> 0.12609225E+02</totfact>
</mgrwt>
</event>
<event>
 8    1  0.3694627E-007  0.1525565E+03  0.7546771E-02  0.1197367E+00
          5   -1    0    0  501    0  0.00000000000E+00  0.00000000000E+00  0.49139728814E+02  0.49363984319E+02  0.47000000000E+01 0. -1.
         -5   -1    0    0    0  501 -0.00000000000E+00 -0.00000000000E+00 -0.47938841609E+03  0.47941145531E+03  0.47000000000E+01 0. -1.
         25    2    1    2    0    0  0.23127470867E+02 -0.84347383060E+02 -0.18297457301E+03  0.23822774610E+03  0.12499361466E+03 0.  0.
         25    2    1    2    0    0 -0.23127470867E+02  0.84347383060E+02 -0.24727411427E+03  0.29054769353E+03  0.12499645471E+03 0.  0.
          5    1    4    4  502    0 -0.25045641929E+02  0.11586445434E+03 -0.21227764024E+03  0.24317841702E+03  0.47000000000E+01 0.  1.
         -5    1    4    4    0  502  0.19181710625E+01 -0.31517071283E+02 -0.34996474027E+02  0.47369276507E+02  0.47000000000E+01 0.  1.
          5    1    3    3  503    0  0.29749170423E+02 -0.11205530896E+03 -0.17170212981E+03  0.20723203610E+03  0.47000000000E+01 0.  1.
         -5    1    3    3    0  503 -0.66216995564E+01  0.27707925896E+02 -0.11272443201E+02  0.30995709996E+02  0.47000000000E+01 0.  1.
<mgrwt>
<rscale>  0 0.15255588E+03</rscale>
<asrwt>0</asrwt>
<pdfrwt beam="1">  1        5 0.75789813E-02 0.15255646E+03</pdfrwt>
<pdfrwt beam="2">  1       -5 0.73771083E-01 0.15255646E+03</pdfrwt>
<totfact> 0.15732291E+02</totfact>
</mgrwt>
</event>
<event>
 8    1  0.3694627E-007  0.1275664E+03  0.7546771E-02  0.1231114E+00
          5   -1    0    0  501    0  0.00000000000E+00  0.00000000000E+00  0.18912014429E+03  0.18917853730E+03  0.47000000000E+01 0.  1.
         -5   -1    0    0    0  501 -0.00000000000E+00 -0.00000000000E+00 -0.86200931784E+02  0.86328967562E+02  0.47000000000E+01 0.  1.
         25    2    1    2    0    0 -0.20476512629E+02  0.15116909865E+02  0.43441998012E+02  0.13476048368E+03  0.12500148894E+03 0.  0.
         25    2    1    2    0    0  0.20476512629E+02 -0.15116909865E+02  0.59477214492E+02  0.14074702119E+03  0.12499750556E+03 0.  0.
          5    1    3    3  502    0  0.17023610514E+01 -0.12125368040E+02 -0.41072306321E+02  0.43115506836E+02  0.47000000000E+01 0.  1.
         -5    1    3    3    0  502 -0.22178873681E+02  0.27242277905E+02  0.84514304332E+02  0.91644976840E+02  0.47000000000E+01 0.  1.
          5    1    4    4  503    0 -0.51388598977E+02 -0.11159456194E+02  0.11248487553E+02  0.53980922923E+02  0.47000000000E+01 0.  1.
         -5    1    4    4    0  503  0.71865111607E+02 -0.39574536702E+01  0.48228726939E+02  0.86766098264E+02  0.47000000000E+01 0.  1.
<mgrwt>
<rscale>  0 0.12756540E+03</rscale>
<asrwt>0</asrwt>
<pdfrwt beam="1">  1        5 0.29109747E-01 0.12756638E+03</pdfrwt>
<pdfrwt beam="2">  1       -5 0.13276023E-01 0.12756638E+03</pdfrwt>
<totfact> 0.39218853E+02</totfact>
</mgrwt>
</event>
<event>
 8    1  0.3694627E-007  0.1361416E+03  0.7546771E-02  0.1218619E+00
          5   -1    0    0  501    0  0.00000000000E+00  0.00000000000E+00  0.24016752772E+02  0.24472319337E+02  0.47000000000E+01 0.  1.
         -5   -1    0    0    0  501 -0.00000000000E+00 -0.00000000000E+00 -0.82211919528E+03  0.82213262996E+03  0.47000000000E+01 0.  1.
         25    2    1    2    0    0  0.32712515366E+02  0.42879746693E+02 -0.51156824416E+03  0.52937257220E+03  0.12499788170E+03 0.  0.
         25    2    1    2    0    0 -0.32712515366E+02 -0.42879746693E+02 -0.28653419835E+03  0.31723237710E+03  0.12500301163E+03 0.  0.
          5    1    3    3  502    0  0.55690634022E+02 -0.13885012636E+02 -0.12100490524E+03  0.13400939290E+03  0.47000000000E+01 0.  1.
         -5    1    3    3    0  502 -0.22978118656E+02  0.56764759328E+02 -0.39056333892E+03  0.39536317930E+03  0.47000000000E+01 0.  1.
          5    1    4    4  503    0  0.31647471582E+02 -0.59844430205E+02 -0.12052702987E+03  0.13831765330E+03  0.47000000000E+01 0.  1.
         -5    1    4    4    0  503 -0.64359986948E+02  0.16964683512E+02 -0.16600716848E+03  0.17891472380E+03  0.47000000000E+01 0.  1.
<mgrwt>
<rscale>  0 0.13614042E+03</rscale>
<asrwt>0</asrwt>
<pdfrwt beam="1">  1        5 0.37309627E-02 0.13614160E+03</pdfrwt>
<pdfrwt beam="2">  1       -5 0.12651593E+00 0.13614160E+03</pdfrwt>
<totfact> 0.13426418E+02</totfact>
</mgrwt>
</event>
<event>
 8    1  0.3694627E-007  0.1311506E+03  0.7546771E-02  0.1225765E+00
          5   -1    0    0  501    0  0.00000000000E+00  0.00000000000E+00  0.44497335687E+03  0.44499817789E+03  0.47000000000E+01 0. -1.
         -5   -1    0    0    0  501 -0.00000000000E+00 -0.00000000000E+00 -0.51679526558E+02  0.51892807453E+02  0.47000000000E+01 0. -1.
         25    2    1    2    0    0  0.27760872905E+02 -0.28388685426E+02  0.71433915091E+02  0.14934287702E+03  0.12499562859E+03 0.  0.
         25    2    1    2    0    0 -0.27760872905E+02  0.28388685426E+02  0.32185991522E+03  0.34754810832E+03  0.12497719411E+03 0.  0.
          5    1    4    4  502    0 -0.40522019926E+02 -0.16618279446E+02  0.28340608720E+03  0.28680882408E+03  0.47000000000E+01 0.  1.
         -5    1    4    4    0  502  0.12761147021E+02  0.45006964872E+02  0.38453828021E+02  0.60739284238E+02  0.47000000000E+01 0.  1.
          5    1    3    3  503    0  0.10472412877E+02 -0.59665025005E+02 -0.87918468539E+01  0.61391963737E+02  0.47000000000E+01 0.  1.
         -5    1    3    3    0  503  0.17288460028E+02  0.31276339580E+02  0.80225761945E+02  0.87950913283E+02  0.47000000000E+01 0.  1.
<mgrwt>
<rscale>  0 0.13114625E+03</rscale>
<asrwt>0</asrwt>
<pdfrwt beam="1">  1        5 0.68475751E-01 0.13115064E+03</pdfrwt>
<pdfrwt beam="2">  1       -5 0.79690124E-02 0.13115064E+03</pdfrwt>
<totfact> 0.16258248E+02</totfact>
</mgrwt>
</event>
<event>
 8    1  0.3694627E-007  0.1325703E+03  0.7546771E-02  0.1223712E+00
          5   -1    0    0  501    0  0.00000000000E+00  0.00000000000E+00  0.12025705077E+03  0.12034886065E+03  0.47000000000E+01 0. -1.
         -5   -1    0    0    0  501 -0.00000000000E+00 -0.00000000000E+00 -0.14886414143E+03  0.14893831812E+03  0.47000000000E+01 0. -1.
         25    2    1    2    0    0  0.37306179951E+02 -0.23630689998E+02 -0.33307957569E+02  0.13669056814E+03  0.12499892323E+03 0.  0.
         25    2    1    2    0    0 -0.37306179951E+02  0.23630689998E+02  0.47008669113E+01  0.13259661062E+03  0.12493839453E+03 0.  0.
          5    1    3    3  502    0 -0.45182197962E+02 -0.20629045536E+02 -0.12090847945E+02  0.51334853038E+02  0.47000000000E+01 0.  1.
         -5    1    3    3    0  502  0.82488377913E+02 -0.30016444616E+01 -0.21217109624E+02  0.85355715104E+02  0.47000000000E+01 0.  1.
          5    1    4    4  503    0 -0.45431974012E+02  0.30085221070E+02 -0.51577654511E+02  0.75176653519E+02  0.47000000000E+01 0.  1.
         -5    1    4    4    0  503  0.81257940609E+01 -0.64545310721E+01  0.56278521423E+02  0.57419957106E+02  0.47000000000E+01 0.  1.
<mgrwt>
<rscale>  0 0.13255606E+03</rscale>
<asrwt>0</asrwt>
<pdfrwt beam="1">  1        5 0.18513853E-01 0.13257033E+03</pdfrwt>
<pdfrwt beam="2">  1       -5 0.22914944E-01 0.13257033E+03</pdfrwt>
<totfact> 0.34435875E+02</totfact>
</mgrwt>
</event>
<event>
 8    1  0.3694627E-007  0.1397349E+03  0.7546771E-02  0.1213688E+00
          5   -1    0    0  501    0  0.00000000000E+00  0.00000000000E+00  0.13766613465E+04  0.13766693695E+04  0.47000000000E+01 0.  1.
         -5   -1    0    0    0  501 -0.00000000000E+00 -0.00000000000E+00 -0.14742522574E+02  0.15473589495E+02  0.47000000000E+01 0.  1.
         25    2    1    2    0    0  0.60485441958E+02  0.15567364736E+02  0.50803061941E+03  0.52689747958E+03  0.12500004879E+03 0.  0.
         25    2    1    2    0    0 -0.60485441958E+02 -0.15567364736E+02  0.85388820452E+03  0.86524547942E+03  0.12499536918E+03 0.  0.
          5    1    3    3  502    0 -0.26809369390E+02 -0.92226428204E+01  0.27935447256E+03  0.28082879262E+03  0.47000000000E+01 0.  1.
         -5    1    3    3    0  502  0.87294811348E+02  0.24790007557E+02  0.22867614685E+03  0.24606868696E+03  0.47000000000E+01 0.  1.
          5    1    4    4  503    0 -0.80465074271E+01 -0.59876308788E+02  0.56659101653E+03  0.56982224302E+03  0.47000000000E+01 0.  1.
         -5    1    4    4    0  503 -0.52438934531E+02  0.44308944052E+02  0.28729718799E+03  0.29542323640E+03  0.47000000000E+01 0.  1.
<mgrwt>
<rscale>  0 0.13973386E+03</rscale>
<asrwt>0</asrwt>
<pdfrwt beam="1">  1        5 0.21185090E+00 0.13973491E+03</pdfrwt>
<pdfrwt beam="2">  1       -5 0.23249335E-02 0.13973491E+03</pdfrwt>
<totfact> 0.66838421E+01</totfact>
</mgrwt>
</event>
<event>
 8    1  0.3694627E-007  0.1465957E+03  0.7546771E-02  0.1204721E+00
          5   -1    0    0  501    0  0.00000000000E+00  0.00000000000E+00  0.16199608239E+04  0.16199676420E+04  0.47000000000E+01 0.  1.
         -5   -1    0    0    0  501 -0.00000000000E+00 -0.00000000000E+00 -0.13088945427E+02  0.13907210086E+02  0.47000000000E+01 0.  1.
         25    2    1    2    0    0 -0.72858788719E+02 -0.23597978196E+02  0.69468671983E+03  0.70998586568E+03  0.12500009239E+03 0.  0.
         25    2    1    2    0    0  0.72858788719E+02  0.23597978196E+02  0.91218515867E+03  0.92388898638E+03  0.12499531106E+03 0.  0.
          5    1    4    4  502    0 -0.30394499795E+02 -0.17450168959E+02  0.22622758889E+03  0.22897455315E+03  0.47000000000E+01 0. -1.
         -5    1    4    4    0  502  0.10325328851E+03  0.41048147155E+02  0.68595756978E+03  0.69491443323E+03  0.47000000000E+01 0. -1.
          5    1    3    3  503    0 -0.76505517448E+02  0.36700321316E+02  0.44599026548E+03  0.45401477365E+03  0.47000000000E+01 0.  1.
         -5    1    3    3    0  503  0.36467287289E+01 -0.60298299512E+02  0.24869645435E+03  0.25597109204E+03  0.47000000000E+01 0.  1.
<mgrwt>
<rscale>  0 0.14659465E+03</rscale>
<asrwt>0</asrwt>
<pdfrwt beam="1">  1        5 0.24928819E+00 0.14659567E+03</pdfrwt>
<pdfrwt beam="2">  1       -5 0.20771520E-02 0.14659567E+03</pdfrwt>
<totfact> 0.46462023E+01</totfact>
</mgrwt>
</event>
<event>
 8    1  0.3694627E-007  0.1868614E+03  0.7546771E-02  0.1161325E+00
         -5   -1    0    0    0  501 -0.00000000000E+00  0.00000000000E+00  0.71384543009E+02  0.71539101061E+02  0.47000000000E+01 0. -1.
          5   -1    0    0  501    0  0.00000000000E+00 -0.00000000000E+00 -0.51861864534E+03  0.51863994186E+03  0.47000000000E+01 0. -1.
         25    2    1    2    0    0  0.59832601860E+02  0.12534832785E+03 -0.15242330894E+03  0.24113664355E+03  0.12498748825E+03 0.  0.
         25    2    1    2    0    0 -0.59832601860E+02 -0.12534832785E+03 -0.29481079339E+03  0.34904239937E+03  0.12500019647E+03 0.  0.
          5    1    3    3  502    0 -0.49035768836E+01 -0.22498484093E+02 -0.32026864714E+02  0.39724512786E+02  0.47000000000E+01 0.  1.
         -5    1    3    3    0  502  0.64736178743E+02  0.14784681194E+03 -0.12039644422E+03  0.20141213077E+03  0.47000000000E+01 0.  1.
          5    1    4    4  503    0  0.38828328124E+02 -0.34449523258E+02 -0.71257003236E+02  0.88283969257E+02  0.47000000000E+01 0.  1.
         -5    1    4    4    0  503 -0.98660929984E+02 -0.90898804587E+02 -0.22355379016E+03  0.26075843011E+03  0.47000000000E+01 0.  1.
<mgrwt>
<rscale>  0 0.18685930E+03</rscale>
<asrwt>0</asrwt>
<pdfrwt beam="2">  1        5 0.79801009E-01 0.18686143E+03</pdfrwt>
<pdfrwt beam="1">  1       -5 0.10995765E-01 0.18686143E+03</pdfrwt>
<totfact> 0.72995223E+01</totfact>
</mgrwt>
</event>
<event>
 8    1  0.3694627E-007  0.1569138E+03  0.7546771E-02  0.1192232E+00
         -5   -1    0    0    0  501 -0.00000000000E+00  0.00000000000E+00  0.38001476906E+03  0.38004383261E+03  0.47000000000E+01 0.  1.
          5   -1    0    0  501    0  0.00000000000E+00 -0.00000000000E+00 -0.65770178254E+02  0.65937897658E+02  0.47000000000E+01 0.  1.
         25    2    1    2    0    0  0.22438846522E+02  0.92154288126E+02  0.18596133447E+03  0.24330332396E+03  0.12497589720E+03 0.  0.
         25    2    1    2    0    0 -0.22438846522E+02 -0.92154288126E+02  0.12828325634E+03  0.20267840631E+03  0.12500411142E+03 0.  0.
          5    1    4    4  502    0  0.49934637653E+02 -0.27746682451E+02  0.30422055867E+02  0.64891739904E+02  0.47000000000E+01 0. -1.
         -5    1    4    4    0  502 -0.72373484175E+02 -0.64407605675E+02  0.97861200474E+02  0.13778666640E+03  0.47000000000E+01 0. -1.
          5    1    3    3  503    0 -0.38595019002E+01 -0.20233945703E+02  0.92001722492E+02  0.94396584976E+02  0.47000000000E+01 0. -1.
         -5    1    3    3    0  503  0.26298348423E+02  0.11238823383E+03  0.93959611977E+02  0.14890673899E+03  0.47000000000E+01 0. -1.
<mgrwt>
<rscale>  0 0.15690819E+03</rscale>
<asrwt>0</asrwt>
<pdfrwt beam="2">  1        5 0.10133626E-01 0.15691381E+03</pdfrwt>
<pdfrwt beam="1">  1       -5 0.58478949E-01 0.15691381E+03</pdfrwt>
<totfact> 0.16125730E+02</totfact>
</mgrwt>
</event>
<event>
 8    1  0.3694627E-007  0.1339086E+03  0.7546771E-02  0.1221770E+00
          5   -1    0    0  501    0  0.00000000000E+00  0.00000000000E+00  0.63118733601E+02  0.63293479375E+02  0.47000000000E+01 0. -1.
         -5   -1    0    0    0  501 -0.00000000000E+00 -0.00000000000E+00 -0.28726101459E+03  0.28729946137E+03  0.47000000000E+01 0. -1.
         25    2    1    2    0    0 -0.42731843639E+02 -0.21909056044E+02 -0.13213610186E+03  0.18812618490E+03  0.12500197931E+03 0.  0.
         25    2    1    2    0    0  0.42731843639E+02  0.21909056044E+02 -0.92006179124E+02  0.16246675584E+03  0.12499717021E+03 0.  0.
          5    1    4    4  502    0 -0.86480418141E+01  0.38830071326E+02 -0.99867906301E+02  0.10760228518E+03  0.47000000000E+01 0.  1.
         -5    1    4    4    0  502  0.51379885453E+02 -0.16921015282E+02  0.78617271767E+01  0.54864470667E+02  0.47000000000E+01 0.  1.
          5    1    3    3  503    0 -0.73979990112E+02 -0.41423972110E+02 -0.51413306081E+02  0.99269342924E+02  0.47000000000E+01 0.  1.
         -5    1    3    3    0  503  0.31248146473E+02  0.19514916067E+02 -0.80722795779E+02  0.88856841974E+02  0.47000000000E+01 0.  1.
<mgrwt>
<rscale>  0 0.13390747E+03</rscale>
<asrwt>0</asrwt>
<pdfrwt beam="1">  1        5 0.97269740E-02 0.13390860E+03</pdfrwt>
<pdfrwt beam="2">  1       -5 0.44210401E-01 0.13390860E+03</pdfrwt>
<totfact> 0.29800359E+02</totfact>
</mgrwt>
</event>
<event>
 8    1  0.3694627E-007  0.1403832E+03  0.7546771E-02  0.1212817E+00
         -5   -1    0    0    0  501 -0.00000000000E+00  0.00000000000E+00  0.91834950891E+03  0.91836153584E+03  0.47000000000E+01 0.  1.
          5   -1    0    0  501    0  0.00000000000E+00 -0.00000000000E+00 -0.27854720841E+02  0.28248459659E+02  0.47000000000E+01 0.  1.
         25    2    1    2    0    0 -0.11754710162E+02  0.62802047584E+02  0.67487672603E+03  0.68932287938E+03  0.12500066526E+03 0.  0.
         25    2    1    2    0    0  0.11754710162E+02 -0.62802047584E+02  0.21561806204E+03  0.25728711612E+03  0.12499296400E+03 0.  0.
          5    1    3    3  502    0 -0.60885658418E+02  0.35204162950E+01  0.35830679147E+03  0.36349044492E+03  0.47000000000E+01 0.  1.
         -5    1    3    3    0  502  0.49130948256E+02  0.59281631289E+02  0.31656993455E+03  0.32583243446E+03  0.47000000000E+01 0.  1.
          5    1    4    4  503    0 -0.25312707138E+01  0.16158563490E+02 -0.86211766036E+01  0.19076718573E+02  0.47000000000E+01 0.  1.
         -5    1    4    4    0  503  0.14285980876E+02 -0.78960611074E+02  0.22423923865E+03  0.23821039755E+03  0.47000000000E+01 0.  1.
<mgrwt>
<rscale>  0 0.14038146E+03</rscale>
<asrwt>0</asrwt>
<pdfrwt beam="2">  1        5 0.43165551E-02 0.14038318E+03</pdfrwt>
<pdfrwt beam="1">  1       -5 0.14131573E+00 0.14038318E+03</pdfrwt>
<totfact> 0.79816028E+01</totfact>
</mgrwt>
</event>
<event>
 8    1  0.3694627E-007  0.1283448E+03  0.7546771E-02  0.1229934E+00
          5   -1    0    0  501    0  0.00000000000E+00  0.00000000000E+00  0.10714550041E+03  0.10724853499E+03  0.47000000000E+01 0.  1.
         -5   -1    0    0    0  501 -0.00000000000E+00 -0.00000000000E+00 -0.24248435804E+03  0.24252990309E+03  0.47000000000E+01 0.  1.
         25    2    1    2    0    0  0.19806694921E+02  0.21319914281E+02 -0.17356555714E+03  0.21586429501E+03  0.12500218928E+03 0.  0.
         25    2    1    2    0    0 -0.19806694921E+02 -0.21319914281E+02  0.38226699515E+02  0.13391414308E+03  0.12499949301E+03 0.  0.
          5    1    4    4  502    0 -0.17673073647E+02  0.39258484349E+02 -0.21791726535E+02  0.48482321220E+02  0.47000000000E+01 0.  1.
         -5    1    4    4    0  502 -0.21336212738E+01 -0.60578398630E+02  0.60018426050E+02  0.85431821857E+02  0.47000000000E+01 0.  1.
          5    1    3    3  503    0  0.50108288528E+02  0.43632503600E+02 -0.16362096692E+03  0.17665940894E+03  0.47000000000E+01 0. -1.
         -5    1    3    3    0  503 -0.30301593607E+02 -0.22312589319E+02 -0.99445902194E+01  0.39204886071E+02  0.47000000000E+01 0. -1.
<mgrwt>
<rscale>  0 0.12834416E+03</rscale>
<asrwt>0</asrwt>
<pdfrwt beam="1">  1        5 0.16495352E-01 0.12834481E+03</pdfrwt>
<pdfrwt beam="2">  1       -5 0.37316715E-01 0.12834481E+03</pdfrwt>
<totfact> 0.16219171E+02</totfact>
</mgrwt>
</event>
<event>
 8    1  0.3694627E-007  0.1386370E+03  0.7546771E-02  0.1215175E+00
          5   -1    0    0  501    0  0.00000000000E+00  0.00000000000E+00  0.92181577053E+03  0.92182775224E+03  0.47000000000E+01 0. -1.
         -5   -1    0    0    0  501 -0.00000000000E+00 -0.00000000000E+00 -0.20614608904E+02  0.21143606605E+02  0.47000000000E+01 0. -1.
         25    2    1    2    0    0  0.15531210069E+02 -0.57912439086E+02  0.47145126758E+03  0.49141274122E+03  0.12500046178E+03 0.  0.
         25    2    1    2    0    0 -0.15531210069E+02  0.57912439086E+02  0.42974989404E+03  0.45155861762E+03  0.12500057851E+03 0.  0.
          5    1    3    3  502    0  0.15347088636E+02  0.21012651630E+02  0.20166483146E+02  0.33254198240E+02  0.47000000000E+01 0.  1.
         -5    1    3    3    0  502  0.18412143302E+00 -0.78925090716E+02  0.45128478444E+03  0.45815854298E+03  0.47000000000E+01 0.  1.
          5    1    4    4  503    0  0.82646148061E+01 -0.23007507537E+02  0.16743960109E+02  0.30001657639E+02  0.47000000000E+01 0. -1.
         -5    1    4    4    0  503 -0.23795824875E+02  0.80919946623E+02  0.41300593394E+03  0.42155695998E+03  0.47000000000E+01 0. -1.
<mgrwt>
<rscale>  0 0.13863696E+03</rscale>
<asrwt>0</asrwt>
<pdfrwt beam="1">  1        5 0.14185942E+00 0.13863699E+03</pdfrwt>
<pdfrwt beam="2">  1       -5 0.32130922E-02 0.13863699E+03</pdfrwt>
<totfact> 0.12746665E+02</totfact>
</mgrwt>
</event>
<event>
 8    1  0.3694627E-007  0.1483529E+03  0.7546771E-02  0.1202514E+00
         -5   -1    0    0    0  501 -0.00000000000E+00  0.00000000000E+00  0.33256606455E+03  0.33259927434E+03  0.47000000000E+01 0. -1.
          5   -1    0    0  501    0  0.00000000000E+00 -0.00000000000E+00 -0.95903765465E+02  0.96018863930E+02  0.47000000000E+01 0. -1.
         25    2    1    2    0    0  0.75222951442E+02  0.26893554122E+02  0.23778030439E+03  0.28026106645E+03  0.12500014615E+03 0.  0.
         25    2    1    2    0    0 -0.75222951442E+02 -0.26893554122E+02 -0.11180053000E+01  0.14835707182E+03  0.12500726037E+03 0.  0.
          5    1    3    3  502    0 -0.13868492783E+02 -0.27682320056E+02  0.11395056166E+03  0.11817557463E+03  0.47000000000E+01 0.  1.
         -5    1    3    3    0  502  0.89091444226E+02  0.54575874177E+02  0.12382974273E+03  0.16208549183E+03  0.47000000000E+01 0.  1.
          5    1    4    4  503    0 -0.29500817649E+02  0.41640719957E+02  0.30900595108E+02  0.59842999411E+02  0.47000000000E+01 0.  1.
         -5    1    4    4    0  503 -0.45722133793E+02 -0.68534274079E+02 -0.32018600408E+02  0.88514072407E+02  0.47000000000E+01 0.  1.
<mgrwt>
<rscale>  0 0.14835136E+03</rscale>
<asrwt>0</asrwt>
<pdfrwt beam="2">  1        5 0.14765834E-01 0.14835286E+03</pdfrwt>
<pdfrwt beam="1">  1       -5 0.51175419E-01 0.14835286E+03</pdfrwt>
<totfact> 0.10808370E+02</totfact>
</mgrwt>
</event>
<event>
 8    1  0.3694627E-007  0.1282535E+03  0.7546771E-02  0.1230071E+00
          5   -1    0    0  501    0  0.00000000000E+00  0.00000000000E+00  0.11145661641E+03  0.11155566925E+03  0.47000000000E+01 0.  1.
         -5   -1    0    0    0  501 -0.00000000000E+00 -0.00000000000E+00 -0.21934788503E+03  0.21939823306E+03  0.47000000000E+01 0.  1.
         25    2    1    2    0    0  0.26357124026E+02 -0.11379740709E+02 -0.14869676428E+03  0.19636624070E+03  0.12499910517E+03 0.  0.
         25    2    1    2    0    0 -0.26357124026E+02  0.11379740709E+02  0.40805495656E+02  0.13458766161E+03  0.12499821478E+03 0.  0.
          5    1    3    3  502    0 -0.34921212307E+02 -0.43318983938E+02 -0.88271291552E+02  0.10445064074E+03  0.47000000000E+01 0. -1.
         -5    1    3    3    0  502  0.61278336334E+02  0.31939243230E+02 -0.60425472724E+02  0.91915599959E+02  0.47000000000E+01 0. -1.
          5    1    4    4  503    0 -0.25616565520E+02  0.28595272627E+02 -0.37738355390E+02  0.54038611318E+02  0.47000000000E+01 0.  1.
         -5    1    4    4    0  503 -0.74055850682E+00 -0.17215531918E+02  0.78543851047E+02  0.80549050295E+02  0.47000000000E+01 0.  1.
<mgrwt>
<rscale>  0 0.12825333E+03</rscale>
<asrwt>0</asrwt>
<pdfrwt beam="1">  1        5 0.17158664E-01 0.12825355E+03</pdfrwt>
<pdfrwt beam="2">  1       -5 0.33757321E-01 0.12825355E+03</pdfrwt>
<totfact> 0.18447740E+02</totfact>
</mgrwt>
</event>
<event>
 8    1  0.3694627E-007  0.1329594E+03  0.7546771E-02  0.1223151E+00
         -5   -1    0    0    0  501 -0.00000000000E+00  0.00000000000E+00  0.13313145171E+04  0.13313228134E+04  0.47000000000E+01 0.  1.
          5   -1    0    0  501    0  0.00000000000E+00 -0.00000000000E+00 -0.15437242470E+02  0.16136866334E+02  0.47000000000E+01 0.  1.
         25    2    1    2    0    0 -0.44738395387E+02  0.60123935039E+01  0.92730266989E+03  0.93678622542E+03  0.12506205525E+03 0.  0.
         25    2    1    2    0    0  0.44738395387E+02 -0.60123935039E+01  0.38857460471E+03  0.41067345427E+03  0.12499915885E+03 0.  0.
          5    1    4    4  502    0  0.49233040459E+02  0.52169451374E+02  0.25263285163E+03  0.26266136307E+03  0.47000000000E+01 0. -1.
         -5    1    4    4    0  502 -0.44946450725E+01 -0.58181844878E+02  0.13594175309E+03  0.14801209119E+03  0.47000000000E+01 0. -1.
          5    1    3    3  503    0 -0.70120726648E+02  0.46436008882E+02  0.63761518429E+03  0.64315506098E+03  0.47000000000E+01 0. -1.
         -5    1    3    3    0  503  0.25382331261E+02 -0.40423615379E+02  0.28968748560E+03  0.29363116445E+03  0.47000000000E+01 0. -1.
<mgrwt>
<rscale>  0 0.13294456E+03</rscale>
<asrwt>0</asrwt>
<pdfrwt beam="2">  1        5 0.24294147E-02 0.13295936E+03</pdfrwt>
<pdfrwt beam="1">  1       -5 0.20487216E+00 0.13295936E+03</pdfrwt>
<totfact> 0.68344010E+01</totfact>
</mgrwt>
</event>
<event>
 8    1  0.3694627E-007  0.1341271E+03  0.7546771E-02  0.1221459E+00
          5   -1    0    0  501    0  0.00000000000E+00  0.00000000000E+00  0.23006032142E+02  0.23481216215E+02  0.47000000000E+01 0. -1.
         -5   -1    0    0    0  501 -0.00000000000E+00 -0.00000000000E+00 -0.98237259079E+03  0.98238383392E+03  0.47000000000E+01 0. -1.
         25    2    1    2    0    0 -0.73200663618E+01 -0.48075130822E+02 -0.71154017913E+03  0.72407083214E+03  0.12499736747E+03 0.  0.
         25    2    1    2    0    0  0.73200663618E+01  0.48075130822E+02 -0.24782637952E+03  0.28179421799E+03  0.12500106131E+03 0.  0.
          5    1    4    4  502    0 -0.45896620383E+02  0.48819224950E+02 -0.73988978060E+02  0.99931353247E+02  0.47000000000E+01 0.  1.
         -5    1    4    4    0  502  0.53216686745E+02 -0.74409412801E+00 -0.17383740146E+03  0.18186286474E+03  0.47000000000E+01 0.  1.
          5    1    3    3  503    0  0.16264332636E+02 -0.64972739830E+02 -0.66902329613E+03  0.67238400204E+03  0.47000000000E+01 0.  1.
         -5    1    3    3    0  503 -0.23584398998E+02  0.16897609008E+02 -0.42516882997E+02  0.51686830103E+02  0.47000000000E+01 0.  1.
<mgrwt>
<rscale>  0 0.13412619E+03</rscale>
<asrwt>0</asrwt>
<pdfrwt beam="1">  1        5 0.35768078E-02 0.13412706E+03</pdfrwt>
<pdfrwt beam="2">  1       -5 0.15117163E+00 0.13412706E+03</pdfrwt>
<totfact> 0.89238807E+01</totfact>
</mgrwt>
</event>
<event>
 8    1  0.3694627E-007  0.1841077E+03  0.7546771E-02  0.1163886E+00
         -5   -1    0    0    0  501 -0.00000000000E+00  0.00000000000E+00  0.13374078426E+03  0.13382334391E+03  0.47000000000E+01 0.  1.
          5   -1    0    0  501    0  0.00000000000E+00 -0.00000000000E+00 -0.28968815933E+03  0.28972628403E+03  0.47000000000E+01 0.  1.
         25    2    1    2    0    0 -0.92763025788E+02  0.98314712042E+02 -0.28893317113E+01  0.18413035003E+03  0.12499950403E+03 0.  0.
         25    2    1    2    0    0  0.92763025788E+02 -0.98314712042E+02 -0.15305804336E+03  0.23941927790E+03  0.12499625769E+03 0.  0.
          5    1    3    3  502    0  0.33860772268E+01  0.22241538213E+02  0.46498928240E+02  0.51868987541E+02  0.47000000000E+01 0. -1.
         -5    1    3    3    0  502 -0.96149103014E+02  0.76073173828E+02 -0.49388259951E+02  0.13226136249E+03  0.47000000000E+01 0. -1.
          5    1    4    4  503    0  0.73761154088E+02 -0.28127681888E+02 -0.11105901258E+02  0.79858032680E+02  0.47000000000E+01 0. -1.
         -5    1    4    4    0  503  0.19001871700E+02 -0.70187030154E+02 -0.14195214210E+03  0.15956124522E+03  0.47000000000E+01 0. -1.
<mgrwt>
<rscale>  0 0.18410713E+03</rscale>
<asrwt>0</asrwt>
<pdfrwt beam="2">  1        5 0.44576692E-01 0.18410768E+03</pdfrwt>
<pdfrwt beam="1">  1       -5 0.20584789E-01 0.18410768E+03</pdfrwt>
<totfact> 0.83606082E+01</totfact>
</mgrwt>
</event>
<event>
 8    1  0.3694627E-007  0.1274028E+03  0.7546771E-02  0.1231364E+00
          5   -1    0    0  501    0  0.00000000000E+00  0.00000000000E+00  0.10205547572E+03  0.10216364384E+03  0.47000000000E+01 0.  1.
         -5   -1    0    0    0  501 -0.00000000000E+00 -0.00000000000E+00 -0.20954940084E+03  0.20960210255E+03  0.47000000000E+01 0.  1.
         25    2    1    2    0    0  0.21674544660E+02 -0.11736483965E+02 -0.13042025257E+03  0.18231656077E+03  0.12498941999E+03 0.  0.
         25    2    1    2    0    0 -0.21674544660E+02  0.11736483965E+02  0.22926327452E+02  0.12944918562E+03  0.12499577683E+03 0.  0.
          5    1    4    4  502    0  0.29949138312E+02 -0.11571116080E+02  0.55242892662E+02  0.64068001394E+02  0.47000000000E+01 0.  1.
         -5    1    4    4    0  502 -0.51623682971E+02  0.23307600045E+02 -0.32316565211E+02  0.65381184223E+02  0.47000000000E+01 0.  1.
          5    1    3    3  503    0 -0.18464445733E+02  0.49986164471E+02 -0.58842701924E+02  0.79524247651E+02  0.47000000000E+01 0.  1.
         -5    1    3    3    0  503  0.40138990392E+02 -0.61722648436E+02 -0.71577550649E+02  0.10279231312E+03  0.47000000000E+01 0.  1.
<mgrwt>
<rscale>  0 0.12740125E+03</rscale>
<asrwt>0</asrwt>
<pdfrwt beam="1">  1        5 0.15713217E-01 0.12740281E+03</pdfrwt>
<pdfrwt beam="2">  1       -5 0.32250744E-01 0.12740281E+03</pdfrwt>
<totfact> 0.23658798E+02</totfact>
</mgrwt>
</event>
<event>
 8    1  0.3694627E-007  0.1385315E+03  0.7546771E-02  0.1215321E+00
          5   -1    0    0  501    0  0.00000000000E+00  0.00000000000E+00  0.11543471991E+03  0.11553036207E+03  0.47000000000E+01 0. -1.
         -5   -1    0    0    0  501 -0.00000000000E+00 -0.00000000000E+00 -0.22605378891E+03  0.22610264369E+03  0.47000000000E+01 0. -1.
         25    2    1    2    0    0  0.46416445124E+01 -0.59519143710E+02 -0.14329209821E+03  0.19930779873E+03  0.12500759934E+03 0.  0.
         25    2    1    2    0    0 -0.46416445124E+01  0.59519143710E+02  0.32673029201E+02  0.14232520703E+03  0.12499945754E+03 0.  0.
          5    1    4    4  502    0 -0.56282333179E+02  0.16509621671E+02 -0.13853955681E+02  0.60450729721E+02  0.47000000000E+01 0. -1.
         -5    1    4    4    0  502  0.51640688667E+02  0.43009522039E+02  0.46526984882E+02  0.81874477307E+02  0.47000000000E+01 0. -1.
          5    1    3    3  503    0  0.43569805576E+02 -0.72650313617E+02 -0.53105985213E+02  0.10009361464E+03  0.47000000000E+01 0. -1.
         -5    1    3    3    0  503 -0.38928161064E+02  0.13131169907E+02 -0.90186112993E+02  0.99214184086E+02  0.47000000000E+01 0. -1.
<mgrwt>
<rscale>  0 0.13852965E+03</rscale>
<asrwt>0</asrwt>
<pdfrwt beam="1">  1        5 0.17770303E-01 0.13853149E+03</pdfrwt>
<pdfrwt beam="2">  1       -5 0.34788621E-01 0.13853149E+03</pdfrwt>
<totfact> 0.16724377E+02</totfact>
</mgrwt>
</event>
<event>
 8    1  0.3694627E-007  0.1534354E+03  0.7546771E-02  0.1196317E+00
          5   -1    0    0  501    0  0.00000000000E+00  0.00000000000E+00  0.21625984516E+04  0.21626035588E+04  0.47000000000E+01 0.  1.
         -5   -1    0    0    0  501 -0.00000000000E+00 -0.00000000000E+00 -0.18564066210E+02  0.19149792538E+02  0.47000000000E+01 0.  1.
         25    2    1    2    0    0  0.75430047646E+02  0.47172717483E+02  0.36264025331E+03  0.39376436354E+03  0.12500985285E+03 0.  0.
         25    2    1    2    0    0 -0.75430047646E+02 -0.47172717483E+02  0.17813941320E+04  0.17879889878E+04  0.12499843838E+03 0.  0.
          5    1    3    3  502    0  0.29861522530E+02  0.85203392710E+02  0.17607308937E+03  0.19792713673E+03  0.47000000000E+01 0. -1.
         -5    1    3    3    0  502  0.45568525116E+02 -0.38030675227E+02  0.18656716395E+03  0.19583722680E+03  0.47000000000E+01 0. -1.
          5    1    4    4  503    0 -0.45609895452E+02 -0.16346328242E+02  0.19417835461E+03  0.20018688371E+03  0.47000000000E+01 0.  1.
         -5    1    4    4    0  503 -0.29820152194E+02 -0.30826389241E+02  0.15872157774E+04  0.15878021041E+04  0.47000000000E+01 0.  1.
<mgrwt>
<rscale>  0 0.15343307E+03</rscale>
<asrwt>0</asrwt>
<pdfrwt beam="1">  1        5 0.33275305E+00 0.15343540E+03</pdfrwt>
<pdfrwt beam="2">  1       -5 0.29014576E-02 0.15343540E+03</pdfrwt>
<totfact> 0.81050669E+00</totfact>
</mgrwt>
</event>
<event>
 8    1  0.3694627E-007  0.1415486E+03  0.7546771E-02  0.1211261E+00
          5   -1    0    0  501    0  0.00000000000E+00  0.00000000000E+00  0.57032243784E+03  0.57034180375E+03  0.47000000000E+01 0.  1.
         -5   -1    0    0    0  501 -0.00000000000E+00 -0.00000000000E+00 -0.35128365120E+02  0.35441388743E+02  0.47000000000E+01 0.  1.
         25    2    1    2    0    0  0.66401634537E+02  0.11583026006E+01  0.24629187900E+03  0.28406827644E+03  0.12499830912E+03 0.  0.
         25    2    1    2    0    0 -0.66401634537E+02 -0.11583026006E+01  0.28890219372E+03  0.32171491605E+03  0.12500196375E+03 0.  0.
          5    1    4    4  502    0 -0.33349195540E+02 -0.54491955960E+02  0.74418134617E+02  0.98192112042E+02  0.47000000000E+01 0. -1.
         -5    1    4    4    0  502 -0.33052438997E+02  0.53333653359E+02  0.21448405910E+03  0.22352280401E+03  0.47000000000E+01 0. -1.
          5    1    3    3  503    0  0.21927683347E+02 -0.13276654975E+02 -0.65701191062E+01  0.26876557245E+02  0.47000000000E+01 0.  1.
         -5    1    3    3    0  503  0.44473951191E+02  0.14434957576E+02  0.25286199811E+03  0.25719171920E+03  0.47000000000E+01 0.  1.
<mgrwt>
<rscale>  0 0.14154781E+03</rscale>
<asrwt>0</asrwt>
<pdfrwt beam="1">  1        5 0.87767479E-01 0.14154861E+03</pdfrwt>
<pdfrwt beam="2">  1       -5 0.54299324E-02 0.14154861E+03</pdfrwt>
<totfact> 0.18029568E+02</totfact>
</mgrwt>
</event>
<event>
 8    1  0.3694627E-007  0.1471975E+03  0.7546771E-02  0.1203960E+00
         -5   -1    0    0    0  501 -0.00000000000E+00  0.00000000000E+00  0.12490873840E+03  0.12499713169E+03  0.47000000000E+01 0.  1.
          5   -1    0    0  501    0  0.00000000000E+00 -0.00000000000E+00 -0.17468197159E+03  0.17474518934E+03  0.47000000000E+01 0.  1.
         25    2    1    2    0    0  0.65772756271E+02  0.41428560439E+02 -0.11474509378E+02  0.14764403086E+03  0.12499885758E+03 0.  0.
         25    2    1    2    0    0 -0.65772756271E+02 -0.41428560439E+02 -0.38298723809E+02  0.15209829017E+03  0.12499886615E+03 0.  0.
          5    1    3    3  502    0  0.10953185393E+02 -0.10161351422E+02 -0.57291884253E+02  0.59394236541E+02  0.47000000000E+01 0. -1.
         -5    1    3    3    0  502  0.54819570878E+02  0.51589911861E+02  0.45817374876E+02  0.88249794320E+02  0.47000000000E+01 0. -1.
          5    1    4    4  503    0  0.33180468422E+02  0.89238703525E+01 -0.18211382713E+02  0.39170440476E+02  0.47000000000E+01 0.  1.
         -5    1    4    4    0  503 -0.98953224693E+02 -0.50352430791E+02 -0.20087341096E+02  0.11292784969E+03  0.47000000000E+01 0.  1.
<mgrwt>
<rscale>  0 0.14719748E+03</rscale>
<asrwt>0</asrwt>
<pdfrwt beam="2">  1        5 0.26885812E-01 0.14719748E+03</pdfrwt>
<pdfrwt beam="1">  1       -5 0.19228391E-01 0.14719748E+03</pdfrwt>
<totfact> 0.24496495E+02</totfact>
</mgrwt>
</event>
<event>
 8    1  0.3694627E-007  0.1279495E+03  0.7546771E-02  0.1230532E+00
          5   -1    0    0  501    0  0.00000000000E+00  0.00000000000E+00  0.80077492712E+02  0.80215303023E+02  0.47000000000E+01 0.  1.
         -5   -1    0    0    0  501 -0.00000000000E+00 -0.00000000000E+00 -0.26856432039E+03  0.26860544333E+03  0.47000000000E+01 0.  1.
         25    2    1    2    0    0 -0.19786749737E+02 -0.18792030707E+02 -0.17966864591E+03  0.22057172577E+03  0.12500563188E+03 0.  0.
         25    2    1    2    0    0  0.19786749737E+02  0.18792030707E+02 -0.88181817621E+01  0.12824902058E+03  0.12500158026E+03 0.  0.
          5    1    3    3  502    0 -0.32237917013E+02 -0.11538821280E+02  0.53150747749E+01  0.34968095598E+02  0.47000000000E+01 0.  1.
         -5    1    3    3    0  502  0.12451167277E+02 -0.72532094269E+01 -0.18498372069E+03  0.18560363017E+03  0.47000000000E+01 0.  1.
          5    1    4    4  503    0  0.49848378991E+02  0.58732244086E+01  0.43351105362E+02  0.66488826047E+02  0.47000000000E+01 0. -1.
         -5    1    4    4    0  503 -0.30061629254E+02  0.12918806299E+02 -0.52169287124E+02  0.61760194532E+02  0.47000000000E+01 0. -1.
<mgrwt>
<rscale>  0 0.12794847E+03</rscale>
<asrwt>0</asrwt>
<pdfrwt beam="1">  1        5 0.12333379E-01 0.12794946E+03</pdfrwt>
<pdfrwt beam="2">  1       -5 0.41331351E-01 0.12794946E+03</pdfrwt>
<totfact> 0.22202266E+02</totfact>
</mgrwt>
</event>
<event>
 8    1  0.3694627E-007  0.1490378E+03  0.7546771E-02  0.1201661E+00
         -5   -1    0    0    0  501 -0.00000000000E+00  0.00000000000E+00  0.88003805206E+03  0.88005060257E+03  0.47000000000E+01 0.  1.
          5   -1    0    0  501    0  0.00000000000E+00 -0.00000000000E+00 -0.54133756120E+02  0.54337404719E+02  0.47000000000E+01 0.  1.
         25    2    1    2    0    0  0.78949569532E+02  0.18813463791E+02  0.75459089406E+03  0.76916816869E+03  0.12500109348E+03 0.  0.
         25    2    1    2    0    0 -0.78949569532E+02 -0.18813463791E+02  0.71313401881E+02  0.16521983860E+03  0.12500005132E+03 0.  0.
          5    1    3    3  502    0  0.18851416873E+02  0.60759726841E+02  0.50451470220E+03  0.50853150842E+03  0.47000000000E+01 0.  1.
         -5    1    3    3    0  502  0.60098152660E+02 -0.41946263050E+02  0.25007619186E+03  0.26063666026E+03  0.47000000000E+01 0.  1.
          5    1    4    4  503    0 -0.78202411826E+02 -0.65162738462E+02  0.55380550988E+02  0.11597799415E+03  0.47000000000E+01 0. -1.
         -5    1    4    4    0  503 -0.74715770606E+00  0.46349274671E+02  0.15932850893E+02  0.49241844449E+02  0.47000000000E+01 0. -1.
<mgrwt>
<rscale>  0 0.14903754E+03</rscale>
<asrwt>0</asrwt>
<pdfrwt beam="2">  1        5 0.83449011E-02 0.14903776E+03</pdfrwt>
<pdfrwt beam="1">  1       -5 0.13540710E+00 0.14903776E+03</pdfrwt>
<totfact> 0.30013153E+01</totfact>
</mgrwt>
</event>
<event>
 8    1  0.3694627E-007  0.1652787E+03  0.7546771E-02  0.1182863E+00
          5   -1    0    0  501    0  0.00000000000E+00  0.00000000000E+00  0.22634434367E+03  0.22639313574E+03  0.47000000000E+01 0.  1.
         -5   -1    0    0    0  501 -0.00000000000E+00 -0.00000000000E+00 -0.17868534168E+03  0.17874714357E+03  0.47000000000E+01 0.  1.
         25    2    1    2    0    0 -0.43409955697E+02 -0.99031596903E+02 -0.91646243837E+02  0.18898702629E+03  0.12500152262E+03 0.  0.
         25    2    1    2    0    0  0.43409955697E+02  0.99031596903E+02  0.13930524582E+03  0.21615325302E+03  0.12499838335E+03 0.  0.
          5    1    3    3  502    0 -0.25301717531E+02 -0.12273480282E+03 -0.44629719473E+02  0.13310864207E+03  0.47000000000E+01 0. -1.
         -5    1    3    3    0  502 -0.18108238166E+02  0.23703205912E+02 -0.47016524363E+02  0.55878384221E+02  0.47000000000E+01 0. -1.
          5    1    4    4  503    0  0.33912374956E+02  0.85651071317E+02  0.16279871351E+03  0.18711404627E+03  0.47000000000E+01 0. -1.
         -5    1    4    4    0  503  0.94975807411E+01  0.13380525586E+02 -0.23493467683E+02  0.29039206750E+02  0.47000000000E+01 0. -1.
<mgrwt>
<rscale>  0 0.16527815E+03</rscale>
<asrwt>0</asrwt>
<pdfrwt beam="1">  1        5 0.34830714E-01 0.16527874E+03</pdfrwt>
<pdfrwt beam="2">  1       -5 0.27498560E-01 0.16527874E+03</pdfrwt>
<totfact> 0.77224084E+01</totfact>
</mgrwt>
</event>
<event>
 8    1  0.3694627E-007  0.1367742E+03  0.7546771E-02  0.1217740E+00
         -5   -1    0    0    0  501 -0.00000000000E+00  0.00000000000E+00  0.10964148634E+02  0.11929063470E+02  0.47000000000E+01 0.  1.
          5   -1    0    0  501    0  0.00000000000E+00 -0.00000000000E+00 -0.18468951895E+04  0.18469011698E+04  0.47000000000E+01 0.  1.
         25    2    1    2    0    0 -0.19629799610E+01 -0.55469213299E+02 -0.60194316230E+03  0.61728661192E+03  0.12500601466E+03 0.  0.
         25    2    1    2    0    0  0.19629799610E+01  0.55469213299E+02 -0.12339878786E+04  0.12415436214E+04  0.12499516930E+03 0.  0.
          5    1    4    4  502    0 -0.35305306995E+02  0.67827385984E+02 -0.10744572925E+04  0.10771850270E+04  0.47000000000E+01 0.  1.
         -5    1    4    4    0  502  0.37268286956E+02 -0.12358172685E+02 -0.15953058605E+03  0.16435859433E+03  0.47000000000E+01 0.  1.
          5    1    3    3  503    0 -0.34094758913E+02 -0.62171858462E+02 -0.55657303840E+03  0.56109128459E+03  0.47000000000E+01 0. -1.
         -5    1    3    3    0  503  0.32131778952E+02  0.67026451625E+01 -0.45370123899E+02  0.56195327327E+02  0.47000000000E+01 0. -1.
<mgrwt>
<rscale>  0 0.13677175E+03</rscale>
<asrwt>0</asrwt>
<pdfrwt beam="2">  1        5 0.28421217E+00 0.13677423E+03</pdfrwt>
<pdfrwt beam="1">  1       -5 0.17614778E-02 0.13677423E+03</pdfrwt>
<totfact> 0.35691607E+01</totfact>
</mgrwt>
</event>
<event>
 8    1  0.3694627E-007  0.1578373E+03  0.7546771E-02  0.1191161E+00
         -5   -1    0    0    0  501 -0.00000000000E+00  0.00000000000E+00  0.59143679651E+03  0.59145547108E+03  0.47000000000E+01 0. -1.
          5   -1    0    0  501    0  0.00000000000E+00 -0.00000000000E+00 -0.45498526242E+02  0.45740637186E+02  0.47000000000E+01 0. -1.
         25    2    1    2    0    0  0.70380118954E+02  0.65824102437E+02  0.36141946892E+03  0.39437973872E+03  0.12500068878E+03 0.  0.
         25    2    1    2    0    0 -0.70380118954E+02 -0.65824102437E+02  0.18451880135E+03  0.24281636954E+03  0.12500571051E+03 0.  0.
          5    1    3    3  502    0  0.44215328573E+02 -0.30393304506E+02  0.86486765803E+02  0.10188620563E+03  0.47000000000E+01 0. -1.
         -5    1    3    3    0  502  0.26164790381E+02  0.96217406943E+02  0.27493270312E+03  0.29249353309E+03  0.47000000000E+01 0. -1.
          5    1    4    4  503    0 -0.10255254574E+02 -0.49092634163E+02  0.17169274792E+03  0.17892944605E+03  0.47000000000E+01 0. -1.
         -5    1    4    4    0  503 -0.60124864380E+02 -0.16731468274E+02  0.12826053436E+02  0.63886923499E+02  0.47000000000E+01 0. -1.
<mgrwt>
<rscale>  0 0.15783627E+03</rscale>
<asrwt>0</asrwt>
<pdfrwt beam="2">  1        5 0.70198341E-02 0.15783726E+03</pdfrwt>
<pdfrwt beam="1">  1       -5 0.91010332E-01 0.15783726E+03</pdfrwt>
<totfact> 0.11108010E+02</totfact>
</mgrwt>
</event>
<event>
 8    1  0.3694627E-007  0.1477442E+03  0.7546771E-02  0.1203273E+00
          5   -1    0    0  501    0  0.00000000000E+00  0.00000000000E+00  0.12829402437E+03  0.12838008681E+03  0.47000000000E+01 0.  1.
         -5   -1    0    0    0  501 -0.00000000000E+00 -0.00000000000E+00 -0.18597088482E+03  0.18603026636E+03  0.47000000000E+01 0.  1.
         25    2    1    2    0    0  0.20552536015E+02  0.76030427726E+02 -0.74939189069E+02  0.16566301356E+03  0.12500127730E+03 0.  0.
         25    2    1    2    0    0 -0.20552536015E+02 -0.76030427726E+02  0.17262328617E+02  0.14874733960E+03  0.12499900149E+03 0.  0.
          5    1    3    3  502    0  0.61912705950E+02  0.27160956730E+02 -0.10462417669E+01  0.67779682430E+02  0.47000000000E+01 0. -1.
         -5    1    3    3    0  502 -0.41360169935E+02  0.48869470996E+02 -0.73892947302E+02  0.97883331132E+02  0.47000000000E+01 0. -1.
          5    1    4    4  503    0 -0.79924370138E+01 -0.39870816186E+02 -0.53974177481E+02  0.67741146045E+02  0.47000000000E+01 0.  1.
         -5    1    4    4    0  503 -0.12560099001E+02 -0.36159611540E+02  0.71236506098E+02  0.81006193557E+02  0.47000000000E+01 0.  1.
<mgrwt>
<rscale>  0 0.14774373E+03</rscale>
<asrwt>0</asrwt>
<pdfrwt beam="1">  1        5 0.19748730E-01 0.14774421E+03</pdfrwt>
<pdfrwt beam="2">  1       -5 0.28622093E-01 0.14774421E+03</pdfrwt>
<totfact> 0.20662526E+02</totfact>
</mgrwt>
</event>
<event>
 8    1  0.3694627E-007  0.1279266E+03  0.7546771E-02  0.1230570E+00
         -5   -1    0    0    0  501 -0.00000000000E+00  0.00000000000E+00  0.96707540221E+03  0.96708682318E+03  0.47000000000E+01 0. -1.
          5   -1    0    0  501    0  0.00000000000E+00 -0.00000000000E+00 -0.17153600040E+02  0.17785836902E+02  0.47000000000E+01 0. -1.
         25    2    1    2    0    0  0.16460423066E+02 -0.21652690591E+02  0.56311370744E+03  0.57745920035E+03  0.12498918360E+03 0.  0.
         25    2    1    2    0    0 -0.16460423066E+02  0.21652690591E+02  0.38680809473E+03  0.40741345974E+03  0.12500176194E+03 0.  0.
          5    1    4    4  502    0 -0.18831602873E+02  0.39011679851E+02  0.37079306673E+02  0.57214555971E+02  0.47000000000E+01 0.  1.
         -5    1    4    4    0  502  0.23711798066E+01 -0.17358989261E+02  0.34972878806E+03  0.35019890376E+03  0.47000000000E+01 0.  1.
          5    1    3    3  503    0  0.25002133467E+02 -0.43127775769E+02  0.54606977429E+03  0.54836064785E+03  0.47000000000E+01 0.  1.
         -5    1    3    3    0  503 -0.85417104009E+01  0.21475085178E+02  0.17043933158E+02  0.29098552498E+02  0.47000000000E+01 0.  1.
<mgrwt>
<rscale>  0 0.12792357E+03</rscale>
<asrwt>0</asrwt>
<pdfrwt beam="2">  1        5 0.26885262E-02 0.12792664E+03</pdfrwt>
<pdfrwt beam="1">  1       -5 0.14883042E+00 0.12792664E+03</pdfrwt>
<totfact> 0.14544725E+02</totfact>
</mgrwt>
</event>
<event>
 8    1  0.3694627E-007  0.1282593E+03  0.7546771E-02  0.1230063E+00
          5   -1    0    0  501    0  0.00000000000E+00  0.00000000000E+00  0.18485085455E+03  0.18491059576E+03  0.47000000000E+01 0. -1.
         -5   -1    0    0    0  501 -0.00000000000E+00 -0.00000000000E+00 -0.89094931836E+02  0.89218814601E+02  0.47000000000E+01 0. -1.
         25    2    1    2    0    0 -0.11449228772E+02  0.26349404847E+02  0.40773735816E+02  0.13458194780E+03  0.12499770865E+03 0.  0.
         25    2    1    2    0    0  0.11449228772E+02 -0.26349404847E+02  0.54982186893E+02  0.13954746256E+03  0.12500030983E+03 0.  0.
          5    1    4    4  502    0  0.52135136613E+02 -0.28131753436E+02 -0.12369311318E+02  0.60700559170E+02  0.47000000000E+01 0.  1.
         -5    1    4    4    0  502 -0.40685907841E+02  0.17823485890E+01  0.67351498212E+02  0.78846903393E+02  0.47000000000E+01 0.  1.
          5    1    3    3  503    0 -0.40490302444E+02  0.36904270485E+02 -0.26024001911E+02  0.60833612810E+02  0.47000000000E+01 0.  1.
         -5    1    3    3    0  503  0.29041073672E+02 -0.10554865638E+02  0.66797737727E+02  0.73748334992E+02  0.47000000000E+01 0.  1.
<mgrwt>
<rscale>  0 0.12825869E+03</rscale>
<asrwt>0</asrwt>
<pdfrwt beam="1">  1        5 0.28452718E-01 0.12825932E+03</pdfrwt>
<pdfrwt beam="2">  1       -5 0.13721038E-01 0.12825932E+03</pdfrwt>
<totfact> 0.38731253E+02</totfact>
</mgrwt>
</event>
<event>
 8    1  0.3694627E-007  0.1372358E+03  0.7546771E-02  0.1217101E+00
         -5   -1    0    0    0  501 -0.00000000000E+00  0.00000000000E+00  0.11937204171E+03  0.11946453173E+03  0.47000000000E+01 0.  1.
          5   -1    0    0  501    0  0.00000000000E+00 -0.00000000000E+00 -0.15775906780E+03  0.15782906410E+03  0.47000000000E+01 0.  1.
         25    2    1    2    0    0 -0.12560256179E+02 -0.55200924501E+02 -0.23972088157E+02  0.13930276756E+03  0.12500279172E+03 0.  0.
         25    2    1    2    0    0  0.12560256179E+02  0.55200924501E+02 -0.14414937934E+02  0.13799082827E+03  0.12501510369E+03 0.  0.
          5    1    3    3  502    0 -0.10562870316E+02 -0.39956928602E+02 -0.75021689517E+02  0.85781549710E+02  0.47000000000E+01 0.  1.
         -5    1    3    3    0  502 -0.19973858630E+01 -0.15243995899E+02  0.51049601360E+02  0.53521217852E+02  0.47000000000E+01 0.  1.
          5    1    4    4  503    0  0.23203026654E+02  0.22568431679E+02  0.52951111190E+02  0.62238450580E+02  0.47000000000E+01 0.  1.
         -5    1    4    4    0  503 -0.10642770476E+02  0.32632492823E+02 -0.67366049124E+02  0.75752377690E+02  0.47000000000E+01 0.  1.
<mgrwt>
<rscale>  0 0.13723305E+03</rscale>
<asrwt>0</asrwt>
<pdfrwt beam="2">  1        5 0.24283125E-01 0.13723585E+03</pdfrwt>
<pdfrwt beam="1">  1       -5 0.18377428E-01 0.13723585E+03</pdfrwt>
<totfact> 0.31640479E+02</totfact>
</mgrwt>
</event>
<event>
 8    1  0.3694627E-007  0.1270927E+03  0.7546771E-02  0.1231835E+00
         -5   -1    0    0    0  501 -0.00000000000E+00  0.00000000000E+00  0.13954225821E+03  0.13962138743E+03  0.47000000000E+01 0. -1.
          5   -1    0    0  501    0  0.00000000000E+00 -0.00000000000E+00 -0.13969418422E+03  0.13977322743E+03  0.47000000000E+01 0. -1.
         25    2    1    2    0    0 -0.13458173282E+02  0.18635919054E+02  0.57915842031E+02  0.13966674868E+03  0.12499654403E+03 0.  0.
         25    2    1    2    0    0  0.13458173282E+02 -0.18635919054E+02 -0.58067768040E+02  0.13972786618E+03  0.12499436385E+03 0.  0.
          5    1    4    4  502    0 -0.80681746177E+01 -0.10861017825E+02  0.38130990185E+02  0.40732291396E+02  0.47000000000E+01 0.  1.
         -5    1    4    4    0  502  0.21526347900E+02 -0.77749012295E+01 -0.96198758225E+02  0.98995574786E+02  0.47000000000E+01 0.  1.
          5    1    3    3  503    0  0.54687228694E+02  0.11043526543E+02  0.39481941001E+02  0.68509606085E+02  0.47000000000E+01 0. -1.
         -5    1    3    3    0  503 -0.68145401976E+02  0.75923925113E+01  0.18433901029E+02  0.71157142591E+02  0.47000000000E+01 0. -1.
<mgrwt>
<rscale>  0 0.12709217E+03</rscale>
<asrwt>0</asrwt>
<pdfrwt beam="2">  1        5 0.21503580E-01 0.12709271E+03</pdfrwt>
<pdfrwt beam="1">  1       -5 0.21480207E-01 0.12709271E+03</pdfrwt>
<totfact> 0.28980885E+02</totfact>
</mgrwt>
</event>
<event>
 8    1  0.3694627E-007  0.1449341E+03  0.7546771E-02  0.1206840E+00
          5   -1    0    0  501    0  0.00000000000E+00  0.00000000000E+00  0.87225229795E+02  0.87351764223E+02  0.47000000000E+01 0. -1.
         -5   -1    0    0    0  501 -0.00000000000E+00 -0.00000000000E+00 -0.24796253211E+03  0.24800707113E+03  0.47000000000E+01 0. -1.
         25    2    1    2    0    0  0.79685614391E+01  0.72924362920E+02 -0.10944970993E+03  0.18161805594E+03  0.12499767423E+03 0.  0.
         25    2    1    2    0    0 -0.79685614391E+01 -0.72924362920E+02 -0.51287592389E+02  0.15374077941E+03  0.12499739774E+03 0.  0.
          5    1    4    4  502    0  0.48505463899E+01 -0.97533631697E+02 -0.29553283239E+01  0.97811865731E+02  0.47000000000E+01 0. -1.
         -5    1    4    4    0  502 -0.12819107829E+02  0.24609268778E+02 -0.48332264065E+02  0.55928913676E+02  0.47000000000E+01 0. -1.
          5    1    3    3  503    0  0.27292176554E+02 -0.27378577395E+02 -0.49862309630E+02  0.63267600894E+02  0.47000000000E+01 0. -1.
         -5    1    3    3    0  503 -0.19323615115E+02  0.10030294031E+03 -0.59587400295E+02  0.11835045505E+03  0.47000000000E+01 0. -1.
<mgrwt>
<rscale>  0 0.14493399E+03</rscale>
<asrwt>0</asrwt>
<pdfrwt beam="1">  1        5 0.13432426E-01 0.14493405E+03</pdfrwt>
<pdfrwt beam="2">  1       -5 0.38161241E-01 0.14493405E+03</pdfrwt>
<totfact> 0.23422008E+02</totfact>
</mgrwt>
</event>
<event>
 8    1  0.3694627E-007  0.1588853E+03  0.7546771E-02  0.1189961E+00
          5   -1    0    0  501    0  0.00000000000E+00  0.00000000000E+00  0.67545396211E+02  0.67708718414E+02  0.47000000000E+01 0.  1.
         -5   -1    0    0    0  501 -0.00000000000E+00 -0.00000000000E+00 -0.39267954647E+03  0.39270767272E+03  0.47000000000E+01 0.  1.
         25    2    1    2    0    0  0.97835799513E+02 -0.68390286692E+01 -0.21394349373E+03  0.26648882463E+03  0.12500343661E+03 0.  0.
         25    2    1    2    0    0 -0.97835799513E+02  0.68390286692E+01 -0.11119065653E+03  0.19392756650E+03  0.12500369183E+03 0.  0.
          5    1    3    3  502    0 -0.64631413306E+01  0.31921447554E+02 -0.10470928034E+02  0.34532323172E+02  0.47000000000E+01 0.  1.
         -5    1    3    3    0  502  0.10429894084E+03 -0.38760476223E+02 -0.20347256570E+03  0.23195650146E+03  0.47000000000E+01 0.  1.
          5    1    4    4  503    0  0.18526956886E+01  0.49177927980E+02 -0.45379285727E+02  0.67106412918E+02  0.47000000000E+01 0.  1.
         -5    1    4    4    0  503 -0.99688495202E+02 -0.42338899310E+02 -0.65811370800E+02  0.12682115359E+03  0.47000000000E+01 0.  1.
<mgrwt>
<rscale>  0 0.15888525E+03</rscale>
<asrwt>0</asrwt>
<pdfrwt beam="1">  1        5 0.10406326E-01 0.15888530E+03</pdfrwt>
<pdfrwt beam="2">  1       -5 0.60426963E-01 0.15888530E+03</pdfrwt>
<totfact> 0.14383371E+02</totfact>
</mgrwt>
</event>
<event>
 8    1  0.3694627E-007  0.1298220E+03  0.7546771E-02  0.1227720E+00
          5   -1    0    0  501    0  0.00000000000E+00  0.00000000000E+00  0.20432982735E+02  0.20966563463E+02  0.47000000000E+01 0. -1.
         -5   -1    0    0    0  501 -0.00000000000E+00 -0.00000000000E+00 -0.81651576974E+03  0.81652929661E+03  0.47000000000E+01 0. -1.
         25    2    1    2    0    0  0.34433415868E+02  0.66059855617E+01 -0.42282399648E+03  0.44230491865E+03  0.12499683954E+03 0.  0.
         25    2    1    2    0    0 -0.34433415868E+02 -0.66059855617E+01 -0.37325879053E+03  0.39519094142E+03  0.12499782520E+03 0.  0.
          5    1    4    4  502    0 -0.15485572469E+02  0.23385013023E+02 -0.99574132457E+01  0.30131409979E+02  0.47000000000E+01 0.  1.
         -5    1    4    4    0  502 -0.18947843399E+02 -0.29990998584E+02 -0.36330137728E+03  0.36505953145E+03  0.47000000000E+01 0.  1.
          5    1    3    3  503    0  0.21081232087E+02  0.62152753848E+02 -0.29448418431E+03  0.30174560140E+03  0.47000000000E+01 0. -1.
         -5    1    3    3    0  503  0.13352183781E+02 -0.55546768287E+02 -0.12833981217E+03  0.14055931725E+03  0.47000000000E+01 0. -1.
<mgrwt>
<rscale>  0 0.12982178E+03</rscale>
<asrwt>0</asrwt>
<pdfrwt beam="1">  1        5 0.31856216E-02 0.12982201E+03</pdfrwt>
<pdfrwt beam="2">  1       -5 0.12565987E+00 0.12982201E+03</pdfrwt>
<totfact> 0.17390708E+02</totfact>
</mgrwt>
</event>
<event>
 8    1  0.3694627E-007  0.1398066E+03  0.7546771E-02  0.1213590E+00
          5   -1    0    0  501    0  0.00000000000E+00  0.00000000000E+00  0.52447475321E+02  0.52657645860E+02  0.47000000000E+01 0.  1.
         -5   -1    0    0    0  501 -0.00000000000E+00 -0.00000000000E+00 -0.39869985754E+03  0.39872755912E+03  0.47000000000E+01 0.  1.
         25    2    1    2    0    0  0.59070458154E+02  0.20752901022E+02 -0.23183803986E+03  0.27072940530E+03  0.12500212894E+03 0.  0.
         25    2    1    2    0    0 -0.59070458154E+02 -0.20752901022E+02 -0.11441434235E+03  0.18065579968E+03  0.12500349712E+03 0.  0.
          5    1    4    4  502    0 -0.61366293854E+02  0.16147146953E+02 -0.35871166925E+01  0.63729975540E+02  0.47000000000E+01 0.  1.
         -5    1    4    4    0  502  0.22958357006E+01 -0.36900047975E+02 -0.11082722566E+03  0.11692582414E+03  0.47000000000E+01 0.  1.
          5    1    3    3  503    0 -0.59389070619E+01  0.51479959395E+02 -0.39476522550E+02  0.65314184287E+02  0.47000000000E+01 0. -1.
         -5    1    3    3    0  503  0.65009365216E+02 -0.30727058374E+02 -0.19236151731E+03  0.20541522102E+03  0.47000000000E+01 0. -1.
<mgrwt>
<rscale>  0 0.13980626E+03</rscale>
<asrwt>0</asrwt>
<pdfrwt beam="1">  1        5 0.80871405E-02 0.13980657E+03</pdfrwt>
<pdfrwt beam="2">  1       -5 0.61356736E-01 0.13980657E+03</pdfrwt>
<totfact> 0.20664850E+02</totfact>
</mgrwt>
</event>
<event>
 8    1  0.3694627E-007  0.1296931E+03  0.7546771E-02  0.1227918E+00
          5   -1    0    0  501    0  0.00000000000E+00  0.00000000000E+00  0.17019967032E+03  0.17026455232E+03  0.47000000000E+01 0.  1.
         -5   -1    0    0    0  501 -0.00000000000E+00 -0.00000000000E+00 -0.11070041925E+03  0.11080014811E+03  0.47000000000E+01 0.  1.
         25    2    1    2    0    0  0.34447641190E+02 -0.28576972539E+01 -0.16533530904E+02  0.13072747800E+03  0.12498603699E+03 0.  0.
         25    2    1    2    0    0 -0.34447641190E+02  0.28576972539E+01  0.76032781976E+02  0.15033722243E+03  0.12500196037E+03 0.  0.
          5    1    3    3  502    0  0.21381515110E+02  0.53243246049E+02 -0.38107424641E+02  0.69038237601E+02  0.47000000000E+01 0.  1.
         -5    1    3    3    0  502  0.13066126080E+02 -0.56100943303E+02  0.21573893737E+02  0.61689240401E+02  0.47000000000E+01 0.  1.
          5    1    4    4  503    0 -0.23927499665E+01 -0.54349930239E+02  0.70755337459E+01  0.55061723068E+02  0.47000000000E+01 0.  1.
         -5    1    4    4    0  503 -0.32054891224E+02  0.57207627493E+02  0.68957248230E+02  0.95275499360E+02  0.47000000000E+01 0.  1.
<mgrwt>
<rscale>  0 0.12968925E+03</rscale>
<asrwt>0</asrwt>
<pdfrwt beam="1">  1        5 0.26197227E-01 0.12969309E+03</pdfrwt>
<pdfrwt beam="2">  1       -5 0.17043496E-01 0.12969309E+03</pdfrwt>
<totfact> 0.30806420E+02</totfact>
</mgrwt>
</event>
<event>
 8    1  0.3694627E-007  0.1290247E+03  0.7546771E-02  0.1228920E+00
          5   -1    0    0  501    0  0.00000000000E+00  0.00000000000E+00  0.70937515089E+02  0.71093044997E+02  0.47000000000E+01 0.  1.
         -5   -1    0    0    0  501 -0.00000000000E+00 -0.00000000000E+00 -0.23597728471E+03  0.23602408542E+03  0.47000000000E+01 0.  1.
         25    2    1    2    0    0 -0.28057846281E+02 -0.15154781300E+02 -0.95884105144E+02  0.16075179763E+03  0.12502187284E+03 0.  0.
         25    2    1    2    0    0  0.28057846281E+02  0.15154781300E+02 -0.69155664472E+02  0.14636533278E+03  0.12499357815E+03 0.  0.
          5    1    4    4  502    0 -0.32816839463E+02  0.49002582472E+02 -0.30326991494E+02  0.66483189261E+02  0.47000000000E+01 0. -1.
         -5    1    4    4    0  502  0.60874685745E+02 -0.33847801172E+02 -0.38828672978E+02  0.79882143523E+02  0.47000000000E+01 0. -1.
          5    1    3    3  503    0  0.14844625753E+02 -0.62821109379E+02 -0.47917771489E+02  0.80529854848E+02  0.47000000000E+01 0. -1.
         -5    1    3    3    0  503 -0.42902472035E+02  0.47666328079E+02 -0.47966333655E+02  0.80221942781E+02  0.47000000000E+01 0. -1.
<mgrwt>
<rscale>  0 0.12901787E+03</rscale>
<asrwt>0</asrwt>
<pdfrwt beam="1">  1        5 0.10929028E-01 0.12902472E+03</pdfrwt>
<pdfrwt beam="2">  1       -5 0.36319761E-01 0.12902472E+03</pdfrwt>
<totfact> 0.35849547E+02</totfact>
</mgrwt>
</event>
<event>
 8    1  0.3694627E-007  0.1438441E+03  0.7546771E-02  0.1208251E+00
         -5   -1    0    0    0  501 -0.00000000000E+00  0.00000000000E+00  0.27962815798E+03  0.27966765408E+03  0.47000000000E+01 0. -1.
          5   -1    0    0  501    0  0.00000000000E+00 -0.00000000000E+00 -0.15527478868E+03  0.15534590435E+03  0.47000000000E+01 0. -1.
         25    2    1    2    0    0  0.31768181231E+02 -0.63683528073E+02  0.21958654697E+03  0.26250129688E+03  0.12499548058E+03 0.  0.
         25    2    1    2    0    0 -0.31768181231E+02  0.63683528073E+02 -0.95233177665E+02  0.17251226155E+03  0.12500525257E+03 0.  0.
          5    1    4    4  502    0 -0.77692638914E+02  0.28878156102E+02 -0.73067182291E+02  0.11059383875E+03  0.47000000000E+01 0. -1.
         -5    1    4    4    0  502  0.45924457683E+02  0.34805371971E+02 -0.22165995373E+02  0.61918422803E+02  0.47000000000E+01 0. -1.
          5    1    3    3  503    0 -0.32399773014E+02 -0.49472246632E+02  0.16995048524E+03  0.18000696073E+03  0.47000000000E+01 0. -1.
         -5    1    3    3    0  503  0.64167954245E+02 -0.14211281442E+02  0.49636061736E+02  0.82494336150E+02  0.47000000000E+01 0. -1.
<mgrwt>
<rscale>  0 0.14384197E+03</rscale>
<asrwt>0</asrwt>
<pdfrwt beam="2">  1        5 0.23896938E-01 0.14384409E+03</pdfrwt>
<pdfrwt beam="1">  1       -5 0.43028225E-01 0.14384409E+03</pdfrwt>
<totfact> 0.63033710E+01</totfact>
</mgrwt>
</event>
<event>
 8    1  0.3694627E-007  0.1664243E+03  0.7546771E-02  0.1181629E+00
          5   -1    0    0  501    0  0.00000000000E+00  0.00000000000E+00  0.17651277240E+03  0.17657533469E+03  0.47000000000E+01 0. -1.
         -5   -1    0    0    0  501 -0.00000000000E+00 -0.00000000000E+00 -0.18188117024E+03  0.18194188656E+03  0.47000000000E+01 0. -1.
         25    2    1    2    0    0  0.62375139810E+02  0.90452796401E+02 -0.69246529312E+02  0.18025483915E+03  0.12499743506E+03 0.  0.
         25    2    1    2    0    0 -0.62375139810E+02 -0.90452796401E+02  0.63878131474E+02  0.17826238210E+03  0.12499877899E+03 0.  0.
          5    1    3    3  502    0  0.26792135604E+00  0.42881545137E+02 -0.89458682505E+02  0.99316889655E+02  0.47000000000E+01 0. -1.
         -5    1    3    3    0  502  0.62107218454E+02  0.47571251265E+02  0.20212153193E+02  0.80937949490E+02  0.47000000000E+01 0. -1.
          5    1    4    4  503    0 -0.73881426969E+02 -0.48359634396E+02 -0.13355413830E+02  0.89429170679E+02  0.47000000000E+01 0.  1.
         -5    1    4    4    0  503  0.11506287158E+02 -0.42093162005E+02  0.77233545304E+02  0.88833211425E+02  0.47000000000E+01 0.  1.
<mgrwt>
<rscale>  0 0.16642409E+03</rscale>
<asrwt>0</asrwt>
<pdfrwt beam="1">  1        5 0.27165294E-01 0.16642434E+03</pdfrwt>
<pdfrwt beam="2">  1       -5 0.27991201E-01 0.16642434E+03</pdfrwt>
<totfact> 0.12215895E+02</totfact>
</mgrwt>
</event>
<event>
 8    1  0.3694627E-007  0.1350157E+03  0.7546771E-02  0.1220198E+00
          5   -1    0    0  501    0  0.00000000000E+00  0.00000000000E+00  0.15451279133E+03  0.15458425755E+03  0.47000000000E+01 0. -1.
         -5   -1    0    0    0  501 -0.00000000000E+00 -0.00000000000E+00 -0.38201987094E+03  0.38204878195E+03  0.47000000000E+01 0. -1.
         25    2    1    2    0    0 -0.50799107324E+02  0.49034278423E+01 -0.33684591875E+03  0.36289697048E+03  0.12499778117E+03 0.  0.
         25    2    1    2    0    0  0.50799107324E+02 -0.49034278423E+01  0.10933883914E+03  0.17373606903E+03  0.12499858810E+03 0.  0.
          5    1    3    3  502    0  0.20519177961E+02  0.10750279871E+02 -0.24611796476E+03  0.24725037464E+03  0.47000000000E+01 0.  1.
         -5    1    3    3    0  502 -0.71318285286E+02 -0.58468520286E+01 -0.90727953986E+02  0.11564659584E+03  0.47000000000E+01 0.  1.
          5    1    4    4  503    0  0.41390245583E+02  0.45908727413E+02  0.10465373843E+03  0.12163576222E+03  0.47000000000E+01 0.  1.
         -5    1    4    4    0  503  0.94088617413E+01 -0.50812155256E+02  0.46851007049E+01  0.52100306809E+02  0.47000000000E+01 0.  1.
<mgrwt>
<rscale>  0 0.13501552E+03</rscale>
<asrwt>0</asrwt>
<pdfrwt beam="1">  1        5 0.23778920E-01 0.13501570E+03</pdfrwt>
<pdfrwt beam="2">  1       -5 0.58780009E-01 0.13501570E+03</pdfrwt>
<totfact> 0.32183995E+01</totfact>
</mgrwt>
</event>
<event>
 8    1  0.3694627E-007  0.2540464E+03  0.7546771E-02  0.1110774E+00
         -5   -1    0    0    0  501 -0.00000000000E+00  0.00000000000E+00  0.17241312857E+03  0.17247717792E+03  0.47000000000E+01 0. -1.
          5   -1    0    0  501    0  0.00000000000E+00 -0.00000000000E+00 -0.39039794926E+03  0.39042623988E+03  0.47000000000E+01 0. -1.
         25    2    1    2    0    0 -0.13698682937E+03 -0.17363610457E+03 -0.51636086345E+02  0.25924093639E+03  0.12499875782E+03 0.  0.
         25    2    1    2    0    0  0.13698682937E+03  0.17363610457E+03 -0.16634873435E+03  0.30366248141E+03  0.12499645182E+03 0.  0.
          5    1    4    4  502    0  0.11935790583E+02  0.30845305168E+02  0.18911792794E+02  0.38388043118E+02  0.47000000000E+01 0. -1.
         -5    1    4    4    0  502  0.12505103879E+03  0.14279079940E+03 -0.18526052714E+03  0.26527443829E+03  0.47000000000E+01 0. -1.
          5    1    3    3  503    0 -0.27262110372E+02 -0.71587023410E+02 -0.75239454081E+02  0.10747553225E+03  0.47000000000E+01 0. -1.
         -5    1    3    3    0  503 -0.10972471900E+03 -0.10204908116E+03  0.23603367735E+02  0.15176540414E+03  0.47000000000E+01 0. -1.
<mgrwt>
<rscale>  0 0.25404612E+03</rscale>
<asrwt>0</asrwt>
<pdfrwt beam="2">  1        5 0.60068325E-01 0.25404641E+03</pdfrwt>
<pdfrwt beam="1">  1       -5 0.26532200E-01 0.25404641E+03</pdfrwt>
<totfact> 0.29368963E+01</totfact>
</mgrwt>
</event>
<event>
 8    1  0.3694627E-007  0.1943906E+03  0.7546771E-02  0.1154560E+00
         -5   -1    0    0    0  501 -0.00000000000E+00  0.00000000000E+00  0.10985874483E+03  0.10995923707E+03  0.47000000000E+01 0.  1.
          5   -1    0    0  501    0  0.00000000000E+00 -0.00000000000E+00 -0.36736168118E+03  0.36739174568E+03  0.47000000000E+01 0.  1.
         25    2    1    2    0    0 -0.19409436931E+02 -0.14760120410E+03 -0.68176751115E+02  0.20599944166E+03  0.12499943551E+03 0.  0.
         25    2    1    2    0    0  0.19409436931E+02  0.14760120410E+03 -0.18932618523E+03  0.27135154109E+03  0.12499765096E+03 0.  0.
          5    1    4    4  502    0 -0.11499394219E+02  0.63291480902E+02 -0.16653397130E+03  0.17858807692E+03  0.47000000000E+01 0.  1.
         -5    1    4    4    0  502  0.30908831150E+02  0.84309723199E+02 -0.22792213932E+02  0.92763464170E+02  0.47000000000E+01 0.  1.
          5    1    3    3  503    0 -0.13075431809E+02 -0.16596138748E+03 -0.77802651774E+02  0.18381918201E+03  0.47000000000E+01 0. -1.
         -5    1    3    3    0  503 -0.63340051220E+01  0.18360183379E+02  0.96259006593E+01  0.22180259649E+02  0.47000000000E+01 0. -1.
<mgrwt>
<rscale>  0 0.19439030E+03</rscale>
<asrwt>0</asrwt>
<pdfrwt beam="2">  1        5 0.56527224E-01 0.19439059E+03</pdfrwt>
<pdfrwt beam="1">  1       -5 0.16911388E-01 0.19439059E+03</pdfrwt>
<totfact> 0.73746459E+01</totfact>
</mgrwt>
</event>
<event>
 8    1  0.3694627E-007  0.1956476E+03  0.7546771E-02  0.1153465E+00
         -5   -1    0    0    0  501 -0.00000000000E+00  0.00000000000E+00  0.34827835755E+02  0.35143536296E+02  0.47000000000E+01 0.  1.
          5   -1    0    0  501    0  0.00000000000E+00 -0.00000000000E+00 -0.11904585172E+04  0.11904677951E+04  0.47000000000E+01 0.  1.
         25    2    1    2    0    0 -0.13871882693E+03  0.58382531117E+02 -0.40319443592E+03  0.44815590747E+03  0.12500612530E+03 0.  0.
         25    2    1    2    0    0  0.13871882693E+03 -0.58382531117E+02 -0.75243624556E+03  0.77745542396E+03  0.12500079888E+03 0.  0.
          5    1    4    4  502    0  0.12802800592E+03  0.78331577054E+01 -0.50230601984E+03  0.51844571193E+03  0.47000000000E+01 0. -1.
         -5    1    4    4    0  502  0.10690821011E+02 -0.66215688822E+02 -0.25013022573E+03  0.25900971202E+03  0.47000000000E+01 0. -1.
          5    1    3    3  503    0 -0.56108765719E+02  0.53949707954E+02 -0.32499829452E+03  0.33422259951E+03  0.47000000000E+01 0.  1.
         -5    1    3    3    0  503 -0.82610061215E+02  0.44328231624E+01 -0.78196141394E+02  0.11393330797E+03  0.47000000000E+01 0.  1.
<mgrwt>
<rscale>  0 0.19564670E+03</rscale>
<asrwt>0</asrwt>
<pdfrwt beam="2">  1        5 0.18317243E+00 0.19564755E+03</pdfrwt>
<pdfrwt beam="1">  1       -5 0.53831278E-02 0.19564755E+03</pdfrwt>
<totfact> 0.29057762E+01</totfact>
</mgrwt>
</event>
<event>
 8    1  0.3694627E-007  0.1384063E+03  0.7546771E-02  0.1215491E+00
         -5   -1    0    0    0  501 -0.00000000000E+00  0.00000000000E+00  0.54272463365E+02  0.54475593432E+02  0.47000000000E+01 0. -1.
          5   -1    0    0  501    0  0.00000000000E+00 -0.00000000000E+00 -0.40501091234E+03  0.40503818229E+03  0.47000000000E+01 0. -1.
         25    2    1    2    0    0  0.14274777707E+02  0.57683199491E+02 -0.92334618961E+02  0.16637900412E+03  0.12500068149E+03 0.  0.
         25    2    1    2    0    0 -0.14274777707E+02 -0.57683199491E+02 -0.25840383001E+03  0.29313477160E+03  0.12499733666E+03 0.  0.
          5    1    4    4  502    0 -0.21319615060E+02 -0.76823484648E+02 -0.78389964596E+02  0.11190822279E+03  0.47000000000E+01 0.  1.
         -5    1    4    4    0  502  0.70448373532E+01  0.19140285157E+02 -0.18001386542E+03  0.18122654880E+03  0.47000000000E+01 0.  1.
          5    1    3    3  503    0 -0.84583126732E+01  0.22911024343E+02  0.28905615836E+02  0.38132436542E+02  0.47000000000E+01 0. -1.
         -5    1    3    3    0  503  0.22733090380E+02  0.34772175148E+02 -0.12124023480E+03  0.12824656758E+03  0.47000000000E+01 0. -1.
<mgrwt>
<rscale>  0 0.13840550E+03</rscale>
<asrwt>0</asrwt>
<pdfrwt beam="2">  1        5 0.62327092E-01 0.13840625E+03</pdfrwt>
<pdfrwt beam="1">  1       -5 0.83673331E-02 0.13840625E+03</pdfrwt>
<totfact> 0.18765517E+02</totfact>
</mgrwt>
</event>
<event>
 8    1  0.3694627E-007  0.1397759E+03  0.7546771E-02  0.1213631E+00
         -5   -1    0    0    0  501 -0.00000000000E+00  0.00000000000E+00  0.13440671391E+04  0.13440753567E+04  0.47000000000E+01 0. -1.
          5   -1    0    0  501    0  0.00000000000E+00 -0.00000000000E+00 -0.15946249768E+02  0.16624466357E+02  0.47000000000E+01 0. -1.
         25    2    1    2    0    0  0.61957870158E+02 -0.86179219090E+01  0.88751812088E+03  0.89845740347E+03  0.12499697877E+03 0.  0.
         25    2    1    2    0    0 -0.61957870158E+02  0.86179219090E+01  0.44060276847E+03  0.46224241958E+03  0.12499683445E+03 0.  0.
          5    1    4    4  502    0 -0.86063576597E+02 -0.98019554146E+01  0.17972998324E+03  0.19956947267E+03  0.47000000000E+01 0. -1.
         -5    1    4    4    0  502  0.24105706438E+02  0.18419877324E+02  0.26087278523E+03  0.26267294690E+03  0.47000000000E+01 0. -1.
          5    1    3    3  503    0  0.65648095501E+02 -0.39699814258E+02  0.28725832682E+03  0.29736372344E+03  0.47000000000E+01 0. -1.
         -5    1    3    3    0  503 -0.36902253426E+01  0.31081892349E+02  0.60025979407E+03  0.60109368003E+03  0.47000000000E+01 0. -1.
<mgrwt>
<rscale>  0 0.13977583E+03</rscale>
<asrwt>0</asrwt>
<pdfrwt beam="2">  1        5 0.25060707E-02 0.13977586E+03</pdfrwt>
<pdfrwt beam="1">  1       -5 0.20683245E+00 0.13977586E+03</pdfrwt>
<totfact> 0.64010930E+01</totfact>
</mgrwt>
</event>
<event>
 8    1  0.3694627E-007  0.1986767E+03  0.7546771E-02  0.1150861E+00
          5   -1    0    0  501    0  0.00000000000E+00  0.00000000000E+00  0.61458592704E+03  0.61460389822E+03  0.47000000000E+01 0. -1.
         -5   -1    0    0    0  501 -0.00000000000E+00 -0.00000000000E+00 -0.65641822012E+02  0.65809868538E+02  0.47000000000E+01 0. -1.
         25    2    1    2    0    0 -0.15233570380E+03 -0.25409748116E+02  0.22273275963E+03  0.29846315817E+03  0.12497420784E+03 0.  0.
         25    2    1    2    0    0  0.15233570380E+03  0.25409748116E+02  0.32621134540E+03  0.38195060859E+03  0.12498241310E+03 0.  0.
          5    1    4    4  502    0 -0.10963583045E+02  0.19938334316E+02  0.10120739318E+03  0.10384008746E+03  0.47000000000E+01 0. -1.
         -5    1    4    4    0  502  0.16329928684E+03  0.54714138005E+01  0.22500395222E+03  0.27811052113E+03  0.47000000000E+01 0. -1.
          5    1    3    3  503    0 -0.37519359653E+02  0.13991669288E+02  0.15335852144E+03  0.15856984346E+03  0.47000000000E+01 0. -1.
         -5    1    3    3    0  503 -0.11481634414E+03 -0.39401417404E+02  0.69374238189E+02  0.13989331471E+03  0.47000000000E+01 0. -1.
<mgrwt>
<rscale>  0 0.19867540E+03</rscale>
<asrwt>0</asrwt>
<pdfrwt beam="1">  1        5 0.94565989E-01 0.19867669E+03</pdfrwt>
<pdfrwt beam="2">  1       -5 0.10113051E-01 0.19867669E+03</pdfrwt>
<totfact> 0.57505753E+01</totfact>
</mgrwt>
</event>
<event>
 8    1  0.3694627E-007  0.1250731E+03  0.7546771E-02  0.1234956E+00
          5   -1    0    0  501    0  0.00000000000E+00  0.00000000000E+00  0.25767168022E+03  0.25771454128E+03  0.47000000000E+01 0. -1.
         -5   -1    0    0    0  501 -0.00000000000E+00 -0.00000000000E+00 -0.68669246931E+02  0.68829902470E+02  0.47000000000E+01 0. -1.
         25    2    1    2    0    0  0.12154910522E+01 -0.40286507370E+01  0.38518095601E+02  0.13086988873E+03  0.12500230654E+03 0.  0.
         25    2    1    2    0    0 -0.12154910522E+01  0.40286507370E+01  0.15048433769E+03  0.19567455503E+03  0.12500115259E+03 0.  0.
          5    1    3    3  502    0 -0.41012095414E+02 -0.48123672737E+02  0.14135892678E+02  0.64959936190E+02  0.47000000000E+01 0.  1.
         -5    1    3    3    0  502  0.42227586467E+02  0.44095022000E+02  0.24382202922E+02  0.65909952536E+02  0.47000000000E+01 0.  1.
          5    1    4    4  503    0 -0.58921984235E+02  0.21098995837E+02  0.93862645138E+02  0.11291259453E+03  0.47000000000E+01 0.  1.
         -5    1    4    4    0  503  0.57706493183E+02 -0.17070345100E+02  0.56621692553E+02  0.82761960494E+02  0.47000000000E+01 0.  1.
<mgrwt>
<rscale>  0 0.12507283E+03</rscale>
<asrwt>0</asrwt>
<pdfrwt beam="1">  1        5 0.39657452E-01 0.12507311E+03</pdfrwt>
<pdfrwt beam="2">  1       -5 0.10580155E-01 0.12507311E+03</pdfrwt>
<totfact> 0.31396438E+02</totfact>
</mgrwt>
</event>
<event>
 8    1  0.3694627E-007  0.1362092E+03  0.7546771E-02  0.1218529E+00
         -5   -1    0    0    0  501 -0.00000000000E+00  0.00000000000E+00  0.10289951775E+02  0.11312519946E+02  0.47000000000E+01 0. -1.
          5   -1    0    0  501    0  0.00000000000E+00 -0.00000000000E+00 -0.17969459782E+04  0.17969521247E+04  0.47000000000E+01 0. -1.
         25    2    1    2    0    0  0.38350032913E+02  0.38172771752E+02 -0.70202846949E+03  0.71512020779E+03  0.12500021633E+03 0.  0.
         25    2    1    2    0    0 -0.38350032913E+02 -0.38172771752E+02 -0.10846275570E+04  0.10931444369E+04  0.12497974680E+03 0.  0.
          5    1    4    4  502    0  0.31346147052E+02  0.17345629675E+01 -0.67188290607E+03  0.67263238037E+03  0.47000000000E+01 0. -1.
         -5    1    4    4    0  502 -0.69696179965E+02 -0.39907334720E+02 -0.41274465088E+03  0.42051205654E+03  0.47000000000E+01 0. -1.
          5    1    3    3  503    0  0.27741452141E+02 -0.23692501794E+02 -0.54066493366E+03  0.54191473803E+03  0.47000000000E+01 0. -1.
         -5    1    3    3    0  503  0.10608580772E+02  0.61865273546E+02 -0.16136353583E+03  0.17320546976E+03  0.47000000000E+01 0. -1.
<mgrwt>
<rscale>  0 0.13620448E+03</rscale>
<asrwt>0</asrwt>
<pdfrwt beam="2">  1        5 0.27653212E+00 0.13620918E+03</pdfrwt>
<pdfrwt beam="1">  1       -5 0.16622028E-02 0.13620918E+03</pdfrwt>
<totfact> 0.43655110E+01</totfact>
</mgrwt>
</event>
<event>
 8    1  0.3694627E-007  0.1430107E+03  0.7546771E-02  0.1209336E+00
         -5   -1    0    0    0  501 -0.00000000000E+00  0.00000000000E+00  0.26347714351E+03  0.26351906032E+03  0.47000000000E+01 0. -1.
          5   -1    0    0  501    0  0.00000000000E+00 -0.00000000000E+00 -0.77579081101E+02  0.77721321556E+02  0.47000000000E+01 0. -1.
         25    2    1    2    0    0 -0.68494808199E+02  0.11653617290E+02  0.98347702798E+02  0.17356365187E+03  0.12499890023E+03 0.  0.
         25    2    1    2    0    0  0.68494808199E+02 -0.11653617290E+02  0.87550359609E+02  0.16767673000E+03  0.12499229884E+03 0.  0.
          5    1    3    3  502    0  0.29683810168E+02 -0.23800647920E+02  0.30361566289E+02  0.48903109666E+02  0.47000000000E+01 0. -1.
         -5    1    3    3    0  502 -0.98178618367E+02  0.35454265210E+02  0.67986136509E+02  0.12466054221E+03  0.47000000000E+01 0. -1.
          5    1    4    4  503    0  0.94700075947E+02 -0.65346430560E+00  0.98627656073E+02  0.13681387335E+03  0.47000000000E+01 0.  1.
         -5    1    4    4    0  503 -0.26205267748E+02 -0.11000152985E+02 -0.11077296464E+02  0.30862856646E+02  0.47000000000E+01 0.  1.
<mgrwt>
<rscale>  0 0.14300929E+03</rscale>
<asrwt>0</asrwt>
<pdfrwt beam="2">  1        5 0.11949409E-01 0.14301074E+03</pdfrwt>
<pdfrwt beam="1">  1       -5 0.40549112E-01 0.14301074E+03</pdfrwt>
<totfact> 0.25377088E+02</totfact>
</mgrwt>
</event>
<event>
 8    1  0.3694627E-007  0.1400528E+03  0.7546771E-02  0.1213260E+00
         -5   -1    0    0    0  501 -0.00000000000E+00  0.00000000000E+00  0.36670116567E+03  0.36673128432E+03  0.47000000000E+01 0.  1.
          5   -1    0    0  501    0  0.00000000000E+00 -0.00000000000E+00 -0.53428181043E+02  0.53634508757E+02  0.47000000000E+01 0.  1.
         25    2    1    2    0    0 -0.47742903488E+02  0.41360167293E+02  0.16453949855E+03  0.21607416075E+03  0.12499899235E+03 0.  0.
         25    2    1    2    0    0  0.47742903488E+02 -0.41360167293E+02  0.14873348608E+03  0.20429163233E+03  0.12499349139E+03 0.  0.
          5    1    3    3  502    0 -0.56334134941E+02 -0.12937691008E+01  0.16272895178E+03  0.17227306912E+03  0.47000000000E+01 0.  1.
         -5    1    3    3    0  502  0.85912314527E+01  0.42653936394E+02  0.18105467667E+01  0.43801091623E+02  0.47000000000E+01 0.  1.
          5    1    4    4  503    0  0.16533473784E+02 -0.16345218629E+02  0.16057263404E+03  0.16231507240E+03  0.47000000000E+01 0. -1.
         -5    1    4    4    0  503  0.31209429704E+02 -0.25014948664E+02 -0.11839147961E+02  0.41976559930E+02  0.47000000000E+01 0. -1.
<mgrwt>
<rscale>  0 0.14005161E+03</rscale>
<asrwt>0</asrwt>
<pdfrwt beam="2">  1        5 0.82379084E-02 0.14005283E+03</pdfrwt>
<pdfrwt beam="1">  1       -5 0.56433751E-01 0.14005283E+03</pdfrwt>
<totfact> 0.24040680E+02</totfact>
</mgrwt>
</event>
<event>
 8    1  0.3694627E-007  0.1262108E+03  0.7546771E-02  0.1233198E+00
          5   -1    0    0  501    0  0.00000000000E+00  0.00000000000E+00  0.15991849917E+02  0.16668211175E+02  0.47000000000E+01 0.  1.
         -5   -1    0    0    0  501 -0.00000000000E+00 -0.00000000000E+00 -0.98482407323E+03  0.98483528837E+03  0.47000000000E+01 0.  1.
         25    2    1    2    0    0  0.73501707925E+01 -0.15787809217E+02 -0.43344382127E+03  0.45144514166E+03  0.12500355915E+03 0.  0.
         25    2    1    2    0    0 -0.73501707925E+01  0.15787809217E+02 -0.53538840204E+03  0.55005835789E+03  0.12498070293E+03 0.  0.
          5    1    3    3  502    0 -0.54044930813E+02 -0.16898945222E+02 -0.28714156396E+03  0.29270940650E+03  0.47000000000E+01 0.  1.
         -5    1    3    3    0  502  0.61395101606E+02  0.11111360050E+01 -0.14630225730E+03  0.15873573516E+03  0.47000000000E+01 0.  1.
          5    1    4    4  503    0  0.28785636987E+02  0.26191603726E+02 -0.48710152064E+03  0.48867636981E+03  0.47000000000E+01 0.  1.
         -5    1    4    4    0  503 -0.36135807779E+02 -0.10403794509E+02 -0.48286881403E+02  0.61381988072E+02  0.47000000000E+01 0.  1.
<mgrwt>
<rscale>  0 0.12620515E+03</rscale>
<asrwt>0</asrwt>
<pdfrwt beam="1">  1        5 0.25131759E-02 0.12621081E+03</pdfrwt>
<pdfrwt beam="2">  1       -5 0.15156424E+00 0.12621081E+03</pdfrwt>
<totfact> 0.15350847E+02</totfact>
</mgrwt>
</event>
<event>
 8    1  0.3694627E-007  0.1270320E+03  0.7546771E-02  0.1231928E+00
         -5   -1    0    0    0  501 -0.00000000000E+00  0.00000000000E+00  0.23492065367E+03  0.23496766484E+03  0.47000000000E+01 0.  1.
          5   -1    0    0  501    0  0.00000000000E+00 -0.00000000000E+00 -0.69587534955E+02  0.69746075310E+02  0.47000000000E+01 0.  1.
         25    2    1    2    0    0 -0.12450330473E+02  0.18875416294E+02  0.10118644758E+03  0.16240445762E+03  0.12500087445E+03 0.  0.
         25    2    1    2    0    0  0.12450330473E+02 -0.18875416294E+02  0.64146671144E+02  0.14230928254E+03  0.12500337759E+03 0.  0.
          5    1    3    3  502    0  0.13156750343E+02  0.68037206053E+02  0.41952721189E+02  0.81143590642E+02  0.47000000000E+01 0. -1.
         -5    1    3    3    0  502 -0.25607080815E+02 -0.49161789759E+02  0.59233726386E+02  0.81260866977E+02  0.47000000000E+01 0. -1.
          5    1    4    4  503    0  0.26107403102E+02  0.49257532602E+02  0.39269659563E+02  0.68352740815E+02  0.47000000000E+01 0.  1.
         -5    1    4    4    0  503 -0.13657072629E+02 -0.68132948896E+02  0.24877011581E+02  0.73956541721E+02  0.47000000000E+01 0.  1.
<mgrwt>
<rscale>  0 0.12703141E+03</rscale>
<asrwt>0</asrwt>
<pdfrwt beam="2">  1        5 0.10721587E-01 0.12703203E+03</pdfrwt>
<pdfrwt beam="1">  1       -5 0.36157450E-01 0.12703203E+03</pdfrwt>
<totfact> 0.37196881E+02</totfact>
</mgrwt>
</event>
<event>
 8    1  0.3694627E-007  0.1677245E+03  0.7546771E-02  0.1180244E+00
          5   -1    0    0  501    0  0.00000000000E+00  0.00000000000E+00  0.89587271941E+03  0.89588504808E+03  0.47000000000E+01 0.  1.
         -5   -1    0    0    0  501 -0.00000000000E+00 -0.00000000000E+00 -0.31386423124E+02  0.31736375920E+02  0.47000000000E+01 0.  1.
         25    2    1    2    0    0  0.10854807009E+03  0.26854709881E+02  0.39781566048E+03  0.43172768180E+03  0.12501052975E+03 0.  0.
         25    2    1    2    0    0 -0.10854807009E+03 -0.26854709881E+02  0.46667063581E+03  0.49589374221E+03  0.12500104909E+03 0.  0.
          5    1    4    4  502    0 -0.17592304663E+02 -0.43461828745E+01 -0.11525294863E+01  0.18756247310E+02  0.47000000000E+01 0.  1.
         -5    1    4    4    0  502 -0.90955765423E+02 -0.22508527006E+02  0.46782316529E+03  0.47713749490E+03  0.47000000000E+01 0.  1.
          5    1    3    3  503    0  0.60789446446E+02  0.75296048411E+02  0.19474253305E+03  0.21751228904E+03  0.47000000000E+01 0. -1.
         -5    1    3    3    0  503  0.47758623639E+02 -0.48441338530E+02  0.20307312743E+03  0.21421539276E+03  0.47000000000E+01 0. -1.
<mgrwt>
<rscale>  0 0.16772268E+03</rscale>
<asrwt>0</asrwt>
<pdfrwt beam="1">  1        5 0.13785442E+00 0.16772445E+03</pdfrwt>
<pdfrwt beam="2">  1       -5 0.48565489E-02 0.16772445E+03</pdfrwt>
<totfact> 0.73946833E+01</totfact>
</mgrwt>
</event>
<event>
 8    1  0.3694627E-007  0.1273780E+03  0.7546771E-02  0.1231406E+00
         -5   -1    0    0    0  501 -0.00000000000E+00  0.00000000000E+00  0.39782688075E+02  0.40059359337E+02  0.47000000000E+01 0.  1.
          5   -1    0    0  501    0  0.00000000000E+00 -0.00000000000E+00 -0.40610634789E+03  0.40613354429E+03  0.47000000000E+01 0.  1.
         25    2    1    2    0    0 -0.24226920166E+02 -0.35501465764E+01 -0.18477528103E+03  0.22442606358E+03  0.12500242531E+03 0.  0.
         25    2    1    2    0    0  0.24226920166E+02  0.35501465764E+01 -0.18154837879E+03  0.22176684004E+03  0.12498468027E+03 0.  0.
          5    1    4    4  502    0  0.40318677291E+02 -0.52360884611E+02 -0.11909664130E+03  0.13628410746E+03  0.47000000000E+01 0. -1.
         -5    1    4    4    0  502 -0.16091757125E+02  0.55911031187E+02 -0.62451737483E+02  0.85482732587E+02  0.47000000000E+01 0. -1.
          5    1    3    3  503    0  0.23980123506E+02 -0.47637933477E+02 -0.12404825196E+03  0.13510913309E+03  0.47000000000E+01 0. -1.
         -5    1    3    3    0  503 -0.48207043672E+02  0.44087786901E+02 -0.60727029066E+02  0.89316930493E+02  0.47000000000E+01 0. -1.
<mgrwt>
<rscale>  0 0.12737364E+03</rscale>
<asrwt>0</asrwt>
<pdfrwt beam="2">  1        5 0.62501271E-01 0.12737799E+03</pdfrwt>
<pdfrwt beam="1">  1       -5 0.61437883E-02 0.12737799E+03</pdfrwt>
<totfact> 0.30637360E+02</totfact>
</mgrwt>
</event>
<event>
 8    1  0.3694627E-007  0.1418911E+03  0.7546771E-02  0.1210816E+00
         -5   -1    0    0    0  501 -0.00000000000E+00  0.00000000000E+00  0.59690740605E+02  0.59875491764E+02  0.47000000000E+01 0.  1.
          5   -1    0    0  501    0  0.00000000000E+00 -0.00000000000E+00 -0.38543643374E+03  0.38546508851E+03  0.47000000000E+01 0.  1.
         25    2    1    2    0    0  0.66867368496E+02  0.59928502568E+01 -0.83543620195E+02  0.16463624503E+03  0.12497358713E+03 0.  0.
         25    2    1    2    0    0 -0.66867368496E+02 -0.59928502568E+01 -0.24220207294E+03  0.28070433524E+03  0.12500368178E+03 0.  0.
          5    1    4    4  502    0 -0.10086475452E+03 -0.14178747976E+02 -0.20758226302E+03  0.23127304538E+03  0.47000000000E+01 0. -1.
         -5    1    4    4    0  502  0.33997386024E+02  0.81858977191E+01 -0.34619809927E+02  0.49431289861E+02  0.47000000000E+01 0. -1.
          5    1    3    3  503    0  0.85335816780E+02  0.11238396670E+02 -0.10474226028E+03  0.13565225496E+03  0.47000000000E+01 0. -1.
         -5    1    3    3    0  503 -0.18468448284E+02 -0.52455464131E+01  0.21198640088E+02  0.28983990077E+02  0.47000000000E+01 0. -1.
<mgrwt>
<rscale>  0 0.14188446E+03</rscale>
<asrwt>0</asrwt>
<pdfrwt beam="2">  1        5 0.59314327E-01 0.14189108E+03</pdfrwt>
<pdfrwt beam="1">  1       -5 0.91996070E-02 0.14189108E+03</pdfrwt>
<totfact> 0.17906783E+02</totfact>
</mgrwt>
</event>
<event>
 8    1  0.3694627E-007  0.1291123E+03  0.7546771E-02  0.1228790E+00
          5   -1    0    0  501    0  0.00000000000E+00  0.00000000000E+00  0.24364336421E+04  0.24364381753E+04  0.47000000000E+01 0.  1.
         -5   -1    0    0    0  501 -0.00000000000E+00 -0.00000000000E+00 -0.77999343964E+01  0.91065348288E+01  0.47000000000E+01 0.  1.
         25    2    1    2    0    0 -0.12295081136E+02  0.29775304381E+02  0.67971724124E+03  0.69187102107E+03  0.12502897255E+03 0.  0.
         25    2    1    2    0    0  0.12295081136E+02 -0.29775304381E+02  0.17489164664E+04  0.17536736891E+04  0.12499945399E+03 0.  0.
          5    1    3    3  502    0 -0.36489141009E+02 -0.34344175158E+02  0.16259873583E+03  0.17020992531E+03  0.47000000000E+01 0.  1.
         -5    1    3    3    0  502  0.24194059872E+02  0.64119479540E+02  0.51711850541E+03  0.52166109576E+03  0.47000000000E+01 0.  1.
          5    1    4    4  503    0  0.30009943717E+02 -0.24692840794E+02  0.16269633478E+03  0.16733953645E+03  0.47000000000E+01 0.  1.
         -5    1    4    4    0  503 -0.17714862580E+02 -0.50824635873E+01  0.15862201317E+04  0.15863341526E+04  0.47000000000E+01 0.  1.
<mgrwt>
<rscale>  0 0.12910514E+03</rscale>
<asrwt>0</asrwt>
<pdfrwt beam="1">  1        5 0.37493685E+00 0.12911228E+03</pdfrwt>
<pdfrwt beam="2">  1       -5 0.13008462E-02 0.12911228E+03</pdfrwt>
<totfact> 0.14644141E+01</totfact>
</mgrwt>
</event>
<event>
 8    1  0.3694627E-007  0.1358014E+03  0.7546771E-02  0.1219094E+00
          5   -1    0    0  501    0  0.00000000000E+00  0.00000000000E+00  0.27691201122E+03  0.27695189467E+03  0.47000000000E+01 0.  1.
         -5   -1    0    0    0  501 -0.00000000000E+00 -0.00000000000E+00 -0.66960363495E+02  0.67125109157E+02  0.47000000000E+01 0.  1.
         25    2    1    2    0    0 -0.40747185990E+02 -0.34006709369E+02  0.11967542581E+03  0.18100894725E+03  0.12500096797E+03 0.  0.
         25    2    1    2    0    0  0.40747185990E+02  0.34006709369E+02  0.90276221920E+02  0.16306805658E+03  0.12499842153E+03 0.  0.
          5    1    4    4  502    0 -0.29498675571E+02  0.54535522781E+02  0.36186015539E+02  0.71943122159E+02  0.47000000000E+01 0.  1.
         -5    1    4    4    0  502  0.70245861562E+02 -0.20528813411E+02  0.54090206381E+02  0.91124934419E+02  0.47000000000E+01 0.  1.
          5    1    3    3  503    0  0.30000749324E+02 -0.12029207607E+02 -0.77216013313E+01  0.33562775851E+02  0.47000000000E+01 0.  1.
         -5    1    3    3    0  503 -0.70747935315E+02 -0.21977501762E+02  0.12739702714E+03  0.14744617140E+03  0.47000000000E+01 0.  1.
<mgrwt>
<rscale>  0 0.13580086E+03</rscale>
<asrwt>0</asrwt>
<pdfrwt beam="1">  1        5 0.42617589E-01 0.13580144E+03</pdfrwt>
<pdfrwt beam="2">  1       -5 0.10317335E-01 0.13580144E+03</pdfrwt>
<totfact> 0.29151411E+02</totfact>
</mgrwt>
</event>
<event>
 8    1  0.3694627E-007  0.1408172E+03  0.7546771E-02  0.1212239E+00
          5   -1    0    0  501    0  0.00000000000E+00  0.00000000000E+00  0.33624507637E+03  0.33627792283E+03  0.47000000000E+01 0. -1.
         -5   -1    0    0    0  501 -0.00000000000E+00 -0.00000000000E+00 -0.66761231565E+02  0.66926467411E+02  0.47000000000E+01 0. -1.
         25    2    1    2    0    0 -0.57146101918E+02 -0.30568776644E+02  0.65389819958E+02  0.15524499877E+03  0.12500021608E+03 0.  0.
         25    2    1    2    0    0  0.57146101918E+02  0.30568776644E+02  0.20409402484E+03  0.24795939147E+03  0.12501744586E+03 0.  0.
          5    1    4    4  502    0  0.54853122634E+02 -0.24927410437E+02  0.17487556479E+03  0.18502376608E+03  0.47000000000E+01 0. -1.
         -5    1    4    4    0  502  0.22929792843E+01  0.55496187081E+02  0.29218460050E+02  0.62935625382E+02  0.47000000000E+01 0. -1.
          5    1    3    3  503    0 -0.96722032018E+02 -0.28280514666E+02  0.47112180476E+02  0.11133995930E+03  0.47000000000E+01 0.  1.
         -5    1    3    3    0  503  0.39575930100E+02 -0.22882619781E+01  0.18277639482E+02  0.43905039473E+02  0.47000000000E+01 0.  1.
<mgrwt>
<rscale>  0 0.14081339E+03</rscale>
<asrwt>0</asrwt>
<pdfrwt beam="1">  1        5 0.51745248E-01 0.14081722E+03</pdfrwt>
<pdfrwt beam="2">  1       -5 0.10286196E-01 0.14081722E+03</pdfrwt>
<totfact> 0.19743817E+02</totfact>
</mgrwt>
</event>
<event>
 8    1  0.3694627E-007  0.1383412E+03  0.7546771E-02  0.1215581E+00
         -5   -1    0    0    0  501 -0.00000000000E+00  0.00000000000E+00  0.49936546914E+03  0.49938758672E+03  0.47000000000E+01 0. -1.
          5   -1    0    0  501    0  0.00000000000E+00 -0.00000000000E+00 -0.38464318448E+02  0.38750403787E+02  0.47000000000E+01 0. -1.
         25    2    1    2    0    0  0.11034956065E+02 -0.58211346706E+02  0.25444644256E+03  0.28961868444E+03  0.12500263638E+03 0.  0.
         25    2    1    2    0    0 -0.11034956065E+02  0.58211346706E+02  0.20645470813E+03  0.24851930607E+03  0.12501187080E+03 0.  0.
          5    1    3    3  502    0 -0.11112796963E+02  0.30062436888E+02  0.19967428104E+02  0.38053022916E+02  0.47000000000E+01 0.  1.
         -5    1    3    3    0  502  0.22147753028E+02 -0.88273783593E+02  0.23447901446E+03  0.25156566152E+03  0.47000000000E+01 0.  1.
          5    1    4    4  503    0  0.42494958932E+02  0.69092383749E+02  0.10064495029E+03  0.12934865692E+03  0.47000000000E+01 0.  1.
         -5    1    4    4    0  503 -0.53529914997E+02 -0.10881037043E+02  0.10580975784E+03  0.11917064916E+03  0.47000000000E+01 0.  1.
<mgrwt>
<rscale>  0 0.13833915E+03</rscale>
<asrwt>0</asrwt>
<pdfrwt beam="2">  1        5 0.59412963E-02 0.13834124E+03</pdfrwt>
<pdfrwt beam="1">  1       -5 0.76849153E-01 0.13834124E+03</pdfrwt>
<totfact> 0.20965175E+02</totfact>
</mgrwt>
</event>
<event>
 8    1  0.3694627E-007  0.1520294E+03  0.7546771E-02  0.1198003E+00
         -5   -1    0    0    0  501 -0.00000000000E+00  0.00000000000E+00  0.63227166727E+03  0.63228913578E+03  0.47000000000E+01 0.  1.
          5   -1    0    0  501    0  0.00000000000E+00 -0.00000000000E+00 -0.41426927464E+02  0.41692689037E+02  0.47000000000E+01 0.  1.
         25    2    1    2    0    0 -0.42810803086E+02 -0.75196048098E+02  0.41256337250E+03  0.43968339018E+03  0.12500294701E+03 0.  0.
         25    2    1    2    0    0  0.42810803086E+02  0.75196048098E+02  0.17828136730E+03  0.23429843464E+03  0.12499720011E+03 0.  0.
          5    1    4    4  502    0  0.73794232229E+02  0.23998062348E+02  0.14774669359E+03  0.16695110414E+03  0.47000000000E+01 0. -1.
         -5    1    4    4    0  502 -0.30983429143E+02  0.51197985749E+02  0.30534673707E+02  0.67347330494E+02  0.47000000000E+01 0. -1.
          5    1    3    3  503    0 -0.20681561309E+02  0.25255116233E+02  0.20872723041E+03  0.21131657433E+03  0.47000000000E+01 0. -1.
         -5    1    3    3    0  503 -0.22129241777E+02 -0.10045116433E+03  0.20383614209E+03  0.22836681585E+03  0.47000000000E+01 0. -1.
<mgrwt>
<rscale>  0 0.15202825E+03</rscale>
<asrwt>0</asrwt>
<pdfrwt beam="2">  1        5 0.63951604E-02 0.15202943E+03</pdfrwt>
<pdfrwt beam="1">  1       -5 0.97294350E-01 0.15202943E+03</pdfrwt>
<totfact> 0.10953923E+02</totfact>
</mgrwt>
</event>
<event>
 8    1  0.3694627E-007  0.1455702E+03  0.7546771E-02  0.1206025E+00
          5   -1    0    0  501    0  0.00000000000E+00  0.00000000000E+00  0.60997240444E+02  0.61178046240E+02  0.47000000000E+01 0. -1.
         -5   -1    0    0    0  501 -0.00000000000E+00 -0.00000000000E+00 -0.45298970291E+03  0.45301408470E+03  0.47000000000E+01 0. -1.
         25    2    1    2    0    0  0.64999171511E+02  0.36631793725E+02 -0.32050890257E+03  0.35201757939E+03  0.12499455573E+03 0.  0.
         25    2    1    2    0    0 -0.64999171511E+02 -0.36631793725E+02 -0.71483559895E+02  0.16217455156E+03  0.12499562084E+03 0.  0.
          5    1    3    3  502    0  0.74114986106E+02  0.55170551527E+02 -0.31739512245E+03  0.33060334946E+03  0.47000000000E+01 0. -1.
         -5    1    3    3    0  502 -0.91158145951E+01 -0.18538757802E+02 -0.31137801189E+01  0.21414229923E+02  0.47000000000E+01 0. -1.
          5    1    4    4  503    0 -0.51809226682E+02 -0.21334077555E+02 -0.10709894224E+03  0.12096120148E+03  0.47000000000E+01 0. -1.
         -5    1    4    4    0  503 -0.13189944829E+02 -0.15297716170E+02  0.35615382349E+02  0.41213350076E+02  0.47000000000E+01 0. -1.
<mgrwt>
<rscale>  0 0.14556998E+03</rscale>
<asrwt>0</asrwt>
<pdfrwt beam="1">  1        5 0.93999748E-02 0.14557021E+03</pdfrwt>
<pdfrwt beam="2">  1       -5 0.69706505E-01 0.14557021E+03</pdfrwt>
<totfact> 0.12156771E+02</totfact>
</mgrwt>
</event>
<event>
 8    1  0.3694627E-007  0.1656375E+03  0.7546771E-02  0.1182477E+00
          5   -1    0    0  501    0  0.00000000000E+00  0.00000000000E+00  0.47918117307E+03  0.47920422226E+03  0.47000000000E+01 0. -1.
         -5   -1    0    0    0  501 -0.00000000000E+00 -0.00000000000E+00 -0.66668049193E+02  0.66833515418E+02  0.47000000000E+01 0. -1.
         25    2    1    2    0    0 -0.23883491399E+02  0.10601867539E+03  0.10315523960E+03  0.19512737838E+03  0.12499323839E+03 0.  0.
         25    2    1    2    0    0  0.23883491399E+02 -0.10601867539E+03  0.30935788428E+03  0.35091035929E+03  0.12500159598E+03 0.  0.
          5    1    4    4  502    0  0.25637495831E+02 -0.49691400277E+02  0.28301761431E+03  0.28852656111E+03  0.47000000000E+01 0. -1.
         -5    1    4    4    0  502 -0.17540044324E+01 -0.56327275117E+02  0.26340269970E+02  0.62383798183E+02  0.47000000000E+01 0. -1.
          5    1    3    3  503    0 -0.26632300576E+02  0.12360769082E+03  0.11680881786E+03  0.17220490874E+03  0.47000000000E+01 0.  1.
         -5    1    3    3    0  503  0.27488091768E+01 -0.17589015423E+02 -0.13653578260E+02  0.22922469648E+02  0.47000000000E+01 0.  1.
<mgrwt>
<rscale>  0 0.16563592E+03</rscale>
<asrwt>0</asrwt>
<pdfrwt beam="1">  1        5 0.73734683E-01 0.16563749E+03</pdfrwt>
<pdfrwt beam="2">  1       -5 0.10271124E-01 0.16563749E+03</pdfrwt>
<totfact> 0.95415425E+01</totfact>
</mgrwt>
</event>
<event>
 8    1  0.3694627E-007  0.1288425E+03  0.7546771E-02  0.1229185E+00
         -5   -1    0    0    0  501 -0.00000000000E+00  0.00000000000E+00  0.25180470108E+02  0.25615348423E+02  0.47000000000E+01 0.  1.
          5   -1    0    0  501    0  0.00000000000E+00 -0.00000000000E+00 -0.65596437504E+03  0.65598121262E+03  0.47000000000E+01 0.  1.
         25    2    1    2    0    0 -0.10131602579E+02  0.29526015738E+02 -0.29307887166E+03  0.32014798778E+03  0.12500029636E+03 0.  0.
         25    2    1    2    0    0  0.10131602579E+02 -0.29526015738E+02 -0.33770503326E+03  0.36144857326E+03  0.12500378653E+03 0.  0.
          5    1    4    4  502    0 -0.55931584159E+02 -0.46060661068E+01 -0.17977650753E+03  0.18839119037E+03  0.47000000000E+01 0.  1.
         -5    1    4    4    0  502  0.66063186738E+02 -0.24919949631E+02 -0.15792852574E+03  0.17305738289E+03  0.47000000000E+01 0.  1.
          5    1    3    3  503    0  0.20330122597E+02  0.46361431400E+02 -0.27681417415E+03  0.28144426307E+03  0.47000000000E+01 0. -1.
         -5    1    3    3    0  503 -0.30461725176E+02 -0.16835415663E+02 -0.16264697513E+02  0.38703724710E+02  0.47000000000E+01 0. -1.
<mgrwt>
<rscale>  0 0.12884162E+03</rscale>
<asrwt>0</asrwt>
<pdfrwt beam="2">  1        5 0.10095233E+00 0.12884247E+03</pdfrwt>
<pdfrwt beam="1">  1       -5 0.39086663E-02 0.12884247E+03</pdfrwt>
<totfact> 0.21505847E+02</totfact>
</mgrwt>
</event>
<event>
 8    1  0.3694627E-007  0.1257268E+03  0.7546771E-02  0.1233938E+00
          5   -1    0    0  501    0  0.00000000000E+00  0.00000000000E+00  0.18274458453E+03  0.18280501409E+03  0.47000000000E+01 0. -1.
         -5   -1    0    0    0  501 -0.00000000000E+00 -0.00000000000E+00 -0.94714234975E+02  0.94830777213E+02  0.47000000000E+01 0. -1.
         25    2    1    2    0    0 -0.77709910387E+01  0.11022465520E+02  0.28278223609E+01  0.12575855376E+03  0.12500133686E+03 0.  0.
         25    2    1    2    0    0  0.77709910387E+01 -0.11022465520E+02  0.85202527199E+02  0.15187723755E+03  0.12500136637E+03 0.  0.
          5    1    4    4  502    0  0.50265656771E+02 -0.24467525860E+02  0.56340806997E+00  0.56104398232E+02  0.47000000000E+01 0.  1.
         -5    1    4    4    0  502 -0.42494665732E+02  0.13445060340E+02  0.84639119129E+02  0.95772839313E+02  0.47000000000E+01 0.  1.
          5    1    3    3  503    0 -0.34650578521E+02 -0.31590326199E+02  0.40928987218E+02  0.62417011270E+02  0.47000000000E+01 0.  1.
         -5    1    3    3    0  503  0.26879587482E+02  0.42612791720E+02 -0.38101164857E+02  0.63341542489E+02  0.47000000000E+01 0.  1.
<mgrwt>
<rscale>  0 0.12572678E+03</rscale>
<asrwt>0</asrwt>
<pdfrwt beam="1">  1        5 0.28128165E-01 0.12572679E+03</pdfrwt>
<pdfrwt beam="2">  1       -5 0.14585034E-01 0.12572679E+03</pdfrwt>
<totfact> 0.35227075E+02</totfact>
</mgrwt>
</event>
<event>
 8    1  0.3694627E-007  0.1254849E+03  0.7546771E-02  0.1234323E+00
         -5   -1    0    0    0  501 -0.00000000000E+00  0.00000000000E+00  0.22262175427E+03  0.22267136204E+03  0.47000000000E+01 0. -1.
          5   -1    0    0  501    0  0.00000000000E+00 -0.00000000000E+00 -0.78631055839E+02  0.78771396727E+02  0.47000000000E+01 0. -1.
         25    2    1    2    0    0 -0.10331406463E+02  0.15730217315E+01  0.12016183553E+03  0.17373928161E+03  0.12504902599E+03 0.  0.
         25    2    1    2    0    0  0.10331406463E+02 -0.15730217315E+01  0.23828862904E+02  0.12770347716E+03  0.12502460164E+03 0.  0.
          5    1    3    3  502    0 -0.50828866985E+02 -0.19838037959E+02  0.11503405010E+03  0.12740503975E+03  0.47000000000E+01 0. -1.
         -5    1    3    3    0  502  0.40497460522E+02  0.21411059691E+02  0.51277854227E+01  0.46334241864E+02  0.47000000000E+01 0. -1.
          5    1    4    4  503    0  0.23308689751E+02 -0.41756597068E+02  0.56453477813E+02  0.74134968630E+02  0.47000000000E+01 0.  1.
         -5    1    4    4    0  503 -0.12977283288E+02  0.40183575337E+02 -0.32624614909E+02  0.53568508532E+02  0.47000000000E+01 0.  1.
<mgrwt>
<rscale>  0 0.12547886E+03</rscale>
<asrwt>0</asrwt>
<pdfrwt beam="2">  1        5 0.12111697E-01 0.12548494E+03</pdfrwt>
<pdfrwt beam="1">  1       -5 0.34264112E-01 0.12548494E+03</pdfrwt>
<totfact> 0.33270444E+02</totfact>
</mgrwt>
</event>
<event>
 8    1  0.3694627E-007  0.2121520E+03  0.7546771E-02  0.1139873E+00
          5   -1    0    0  501    0  0.00000000000E+00  0.00000000000E+00  0.21090555596E+02  0.21607904464E+02  0.47000000000E+01 0.  1.
         -5   -1    0    0    0  501 -0.00000000000E+00 -0.00000000000E+00 -0.22439968234E+04  0.22440017455E+04  0.47000000000E+01 0.  1.
         25    2    1    2    0    0  0.17461027024E+02 -0.17052421665E+03 -0.83227105878E+03  0.85888482298E+03  0.12499851174E+03 0.  0.
         25    2    1    2    0    0 -0.17461027024E+02  0.17052421665E+03 -0.13906352091E+04  0.14067248269E+04  0.12500023242E+03 0.  0.
          5    1    3    3  502    0  0.17457332691E+01 -0.63202081134E+02 -0.59003635418E+03  0.59343284363E+03  0.47000000000E+01 0.  1.
         -5    1    3    3    0  502  0.15715293755E+02 -0.10732213552E+03 -0.24223470460E+03  0.26545197935E+03  0.47000000000E+01 0.  1.
          5    1    4    4  503    0  0.32676733015E+02  0.58991034315E+01 -0.38524327308E+03  0.38670019105E+03  0.47000000000E+01 0.  1.
         -5    1    4    4    0  503 -0.50137760039E+02  0.16462511322E+03 -0.10053919360E+04  0.10200246359E+04  0.47000000000E+01 0.  1.
<mgrwt>
<rscale>  0 0.21215171E+03</rscale>
<asrwt>0</asrwt>
<pdfrwt beam="1">  1        5 0.32848773E-02 0.21215196E+03</pdfrwt>
<pdfrwt beam="2">  1       -5 0.34527027E+00 0.21215196E+03</pdfrwt>
<totfact> 0.58046364E+00</totfact>
</mgrwt>
</event>
<event>
 8    1  0.3694627E-007  0.1269443E+03  0.7546771E-02  0.1232068E+00
          5   -1    0    0  501    0  0.00000000000E+00  0.00000000000E+00  0.94672186569E+01  0.10569684437E+02  0.47000000000E+01 0.  1.
         -5   -1    0    0    0  501 -0.00000000000E+00 -0.00000000000E+00 -0.17026255432E+04  0.17026320302E+04  0.47000000000E+01 0.  1.
         25    2    1    2    0    0  0.13475520966E+02 -0.17543643140E+02 -0.10493376635E+04  0.10569883551E+04  0.12500192689E+03 0.  0.
         25    2    1    2    0    0 -0.13475520966E+02  0.17543643140E+02 -0.64382066107E+03  0.65621335958E+03  0.12498624160E+03 0.  0.
          5    1    4    4  502    0  0.49259943281E+02 -0.43227410994E+01 -0.15217086815E+03  0.16007276850E+03  0.47000000000E+01 0.  1.
         -5    1    4    4    0  502 -0.62735464247E+02  0.21866384239E+02 -0.49164979292E+03  0.49614059108E+03  0.47000000000E+01 0.  1.
          5    1    3    3  503    0  0.20524868766E+02  0.91239867986E+01 -0.32606238105E+02  0.39871971814E+02  0.47000000000E+01 0.  1.
         -5    1    3    3    0  503 -0.70493477996E+01 -0.26667629939E+02 -0.10167314254E+04  0.10171163833E+04  0.47000000000E+01 0.  1.
<mgrwt>
<rscale>  0 0.12694042E+03</rscale>
<asrwt>0</asrwt>
<pdfrwt beam="1">  1        5 0.15418006E-02 0.12694428E+03</pdfrwt>
<pdfrwt beam="2">  1       -5 0.26202747E+00 0.12694428E+03</pdfrwt>
<totfact> 0.59428088E+01</totfact>
</mgrwt>
</event>
<event>
 8    1  0.3694627E-007  0.1550827E+03  0.7546771E-02  0.1194373E+00
          5   -1    0    0  501    0  0.00000000000E+00  0.00000000000E+00  0.29954241313E+02  0.30320728432E+02  0.47000000000E+01 0.  1.
         -5   -1    0    0    0  501 -0.00000000000E+00 -0.00000000000E+00 -0.11644154717E+04  0.11644249571E+04  0.47000000000E+01 0.  1.
         25    2    1    2    0    0  0.78656773641E+02  0.47248777041E+02 -0.90255904778E+03  0.91578572477E+03  0.12502529338E+03 0.  0.
         25    2    1    2    0    0 -0.78656773641E+02 -0.47248777041E+02 -0.23190218260E+03  0.27895996076E+03  0.12498280859E+03 0.  0.
          5    1    3    3  502    0 -0.33819942473E+02  0.39188104368E+01 -0.21322560996E+03  0.21597776813E+03  0.47000000000E+01 0.  1.
         -5    1    3    3    0  502  0.11247671611E+03  0.43329966604E+02 -0.68933343783E+03  0.69980795664E+03  0.47000000000E+01 0.  1.
          5    1    4    4  503    0 -0.96560550136E+02 -0.73747881338E+02 -0.19597701571E+03  0.23063341157E+03  0.47000000000E+01 0. -1.
         -5    1    4    4    0  503  0.17903776495E+02  0.26499104296E+02 -0.35925166886E+02  0.48326549195E+02  0.47000000000E+01 0. -1.
<mgrwt>
<rscale>  0 0.15507419E+03</rscale>
<asrwt>0</asrwt>
<pdfrwt beam="1">  1        5 0.46372667E-02 0.15508275E+03</pdfrwt>
<pdfrwt beam="2">  1       -5 0.17916973E+00 0.15508275E+03</pdfrwt>
<totfact> 0.37525882E+01</totfact>
</mgrwt>
</event>
<event>
 8    1  0.3694627E-007  0.1304249E+03  0.7546771E-02  0.1226830E+00
         -5   -1    0    0    0  501 -0.00000000000E+00  0.00000000000E+00  0.18826489322E+03  0.18832355142E+03  0.47000000000E+01 0. -1.
          5   -1    0    0  501    0  0.00000000000E+00 -0.00000000000E+00 -0.92457176540E+02  0.92576560174E+02  0.47000000000E+01 0. -1.
         25    2    1    2    0    0 -0.13935780566E+01  0.37150695582E+02  0.69754036732E+02  0.14790629023E+03  0.12501411443E+03 0.  0.
         25    2    1    2    0    0  0.13935780566E+01 -0.37150695582E+02  0.26053679949E+02  0.13299382137E+03  0.12500578403E+03 0.  0.
          5    1    3    3  502    0 -0.38002192115E+02 -0.25884171749E+02 -0.97383310938E+00  0.46229809686E+02  0.47000000000E+01 0. -1.
         -5    1    3    3    0  502  0.36608614058E+02  0.63034867331E+02  0.70727869841E+02  0.10167648054E+03  0.47000000000E+01 0. -1.
          5    1    4    4  503    0  0.38814899946E+02  0.28502805587E+01  0.57549993879E+02  0.69633414052E+02  0.47000000000E+01 0. -1.
         -5    1    4    4    0  503 -0.37421321889E+02 -0.40000976140E+02 -0.31496313930E+02  0.63360407316E+02  0.47000000000E+01 0. -1.
<mgrwt>
<rscale>  0 0.13042287E+03</rscale>
<asrwt>0</asrwt>
<pdfrwt beam="2">  1        5 0.14237877E-01 0.13042486E+03</pdfrwt>
<pdfrwt beam="1">  1       -5 0.28977525E-01 0.13042486E+03</pdfrwt>
<totfact> 0.35191065E+02</totfact>
</mgrwt>
</event>
<event>
 8    1  0.3694627E-007  0.1665438E+03  0.7546771E-02  0.1181501E+00
         -5   -1    0    0    0  501 -0.00000000000E+00  0.00000000000E+00  0.56868015518E+03  0.56869957701E+03  0.47000000000E+01 0.  1.
          5   -1    0    0  501    0  0.00000000000E+00 -0.00000000000E+00 -0.54302111762E+02  0.54505131335E+02  0.47000000000E+01 0.  1.
         25    2    1    2    0    0  0.30220163410E+02 -0.10582115086E+03  0.35759385744E+03  0.39447458376E+03  0.12500182444E+03 0.  0.
         25    2    1    2    0    0 -0.30220163410E+02  0.10582115086E+03  0.15678418598E+03  0.22873012458E+03  0.12499925869E+03 0.  0.
          5    1    3    3  502    0  0.45369778913E+02  0.19752746326E+01  0.18351417904E+03  0.18910807084E+03  0.47000000000E+01 0.  1.
         -5    1    3    3    0  502 -0.15149615503E+02 -0.10779642549E+03  0.17407967840E+03  0.20536651292E+03  0.47000000000E+01 0.  1.
          5    1    4    4  503    0 -0.43745852203E+01  0.76147301604E+02  0.17046033742E+03  0.18680568827E+03  0.47000000000E+01 0. -1.
         -5    1    4    4    0  503 -0.25845578190E+02  0.29673849257E+02 -0.13676151442E+02  0.41924436311E+02  0.47000000000E+01 0. -1.
<mgrwt>
<rscale>  0 0.16654330E+03</rscale>
<asrwt>0</asrwt>
<pdfrwt beam="2">  1        5 0.83712824E-02 0.16654378E+03</pdfrwt>
<pdfrwt beam="1">  1       -5 0.87506361E-01 0.16654378E+03</pdfrwt>
<totfact> 0.91619169E+01</totfact>
</mgrwt>
</event>
<event>
 8    1  0.3694627E-007  0.1403556E+03  0.7546771E-02  0.1212852E+00
          5   -1    0    0  501    0  0.00000000000E+00  0.00000000000E+00  0.14542973443E+03  0.14550566193E+03  0.47000000000E+01 0.  1.
         -5   -1    0    0    0  501 -0.00000000000E+00 -0.00000000000E+00 -0.15034577428E+03  0.15041922033E+03  0.47000000000E+01 0.  1.
         25    2    1    2    0    0 -0.38655907646E+02  0.50801705184E+02 -0.49235617295E+02  0.14873823501E+03  0.12499529631E+03 0.  0.
         25    2    1    2    0    0  0.38655907646E+02 -0.50801705184E+02  0.44319577440E+02  0.14718664725E+03  0.12499836694E+03 0.  0.
          5    1    3    3  502    0 -0.59283979666E+02  0.57646234501E+02  0.11909266633E+02  0.83675559328E+02  0.47000000000E+01 0. -1.
         -5    1    3    3    0  502  0.20628072020E+02 -0.68445293178E+01 -0.61144883928E+02  0.65062675686E+02  0.47000000000E+01 0. -1.
          5    1    4    4  503    0  0.24329520877E+02 -0.56465930765E+02 -0.31800823683E+02  0.69380900183E+02  0.47000000000E+01 0. -1.
         -5    1    4    4    0  503  0.14326386769E+02  0.56642255817E+01  0.76120401123E+02  0.77805747065E+02  0.47000000000E+01 0. -1.
<mgrwt>
<rscale>  0 0.14035488E+03</rscale>
<asrwt>0</asrwt>
<pdfrwt beam="1">  1        5 0.22385296E-01 0.14035556E+03</pdfrwt>
<pdfrwt beam="2">  1       -5 0.23141609E-01 0.14035556E+03</pdfrwt>
<totfact> 0.24164823E+02</totfact>
</mgrwt>
</event>
<event>
 8    1  0.3694627E-007  0.1404353E+03  0.7546771E-02  0.1212750E+00
          5   -1    0    0  501    0  0.00000000000E+00  0.00000000000E+00  0.46886653398E+02  0.47121632684E+02  0.47000000000E+01 0. -1.
         -5   -1    0    0    0  501 -0.00000000000E+00 -0.00000000000E+00 -0.46793087473E+03  0.46795447805E+03  0.47000000000E+01 0. -1.
         25    2    1    2    0    0  0.23453127945E+02  0.59577497425E+02 -0.29354480865E+03  0.32540840898E+03  0.12499020176E+03 0.  0.
         25    2    1    2    0    0 -0.23453127945E+02 -0.59577497425E+02 -0.12749941268E+03  0.18966770175E+03  0.12497283483E+03 0.  0.
          5    1    3    3  502    0 -0.48656839972E+02  0.20873050960E+02 -0.74426711933E+02  0.91458175040E+02  0.47000000000E+01 0.  1.
         -5    1    3    3    0  502  0.72109967917E+02  0.38704446465E+02 -0.21911809672E+03  0.23395023394E+03  0.47000000000E+01 0.  1.
          5    1    4    4  503    0 -0.49031791800E+01 -0.95190636111E+02 -0.65858430982E+02  0.11595137473E+03  0.47000000000E+01 0. -1.
         -5    1    4    4    0  503 -0.18549948765E+02  0.35613138686E+02 -0.61640981696E+02  0.73716327030E+02  0.47000000000E+01 0. -1.
<mgrwt>
<rscale>  0 0.14043145E+03</rscale>
<asrwt>0</asrwt>
<pdfrwt beam="1">  1        5 0.72332226E-02 0.14043532E+03</pdfrwt>
<pdfrwt beam="2">  1       -5 0.72009253E-01 0.14043532E+03</pdfrwt>
<totfact> 0.17521841E+02</totfact>
</mgrwt>
</event>
<event>
 8    1  0.3694627E-007  0.1339533E+03  0.7546771E-02  0.1221708E+00
         -5   -1    0    0    0  501 -0.00000000000E+00  0.00000000000E+00  0.11392210662E+03  0.11401901761E+03  0.47000000000E+01 0.  1.
          5   -1    0    0  501    0  0.00000000000E+00 -0.00000000000E+00 -0.18485156363E+03  0.18491130462E+03  0.47000000000E+01 0.  1.
         25    2    1    2    0    0 -0.32277673160E+02  0.35706934024E+02  0.22216042246E+02  0.13578303143E+03  0.12500658290E+03 0.  0.
         25    2    1    2    0    0  0.32277673160E+02 -0.35706934024E+02 -0.93145499255E+02  0.16314729080E+03  0.12499648452E+03 0.  0.
          5    1    4    4  502    0 -0.25472705439E+02 -0.55556394402E+02 -0.13659222251E+02  0.62801560759E+02  0.47000000000E+01 0. -1.
         -5    1    4    4    0  502  0.57750378599E+02  0.19849460377E+02 -0.79486277004E+02  0.10034573004E+03  0.47000000000E+01 0. -1.
          5    1    3    3  503    0  0.12538849771E+02 -0.53379566173E+01 -0.43692902273E+02  0.46009523400E+02  0.47000000000E+01 0. -1.
         -5    1    3    3    0  503 -0.44816522931E+02  0.41044890642E+02  0.65908944520E+02  0.89773508025E+02  0.47000000000E+01 0. -1.
<mgrwt>
<rscale>  0 0.13395092E+03</rscale>
<asrwt>0</asrwt>
<pdfrwt beam="2">  1        5 0.28450752E-01 0.13395327E+03</pdfrwt>
<pdfrwt beam="1">  1       -5 0.17538528E-01 0.13395327E+03</pdfrwt>
<totfact> 0.25201786E+02</totfact>
</mgrwt>
</event>
<event>
 8    1  0.3694627E-007  0.1462279E+03  0.7546771E-02  0.1205188E+00
          5   -1    0    0  501    0  0.00000000000E+00  0.00000000000E+00  0.40234582946E+03  0.40237328004E+03  0.47000000000E+01 0.  1.
         -5   -1    0    0    0  501 -0.00000000000E+00 -0.00000000000E+00 -0.67071473748E+02  0.67235947161E+02  0.47000000000E+01 0.  1.
         25    2    1    2    0    0 -0.13941785604E+02  0.74587271990E+02  0.60296610674E+02  0.15817168809E+03  0.12499986850E+03 0.  0.
         25    2    1    2    0    0  0.13941785604E+02 -0.74587271990E+02  0.27497774504E+03  0.31143753911E+03  0.12499178361E+03 0.  0.
          5    1    3    3  502    0  0.28072298049E+02 -0.25087068910E+02  0.14569155581E+02  0.40641914800E+02  0.47000000000E+01 0.  1.
         -5    1    3    3    0  502 -0.42014083653E+02  0.99674340900E+02  0.45727455094E+02  0.11752977329E+03  0.47000000000E+01 0.  1.
          5    1    4    4  503    0  0.95920360006E+01  0.34223789335E+02  0.50942215961E+02  0.62293452931E+02  0.47000000000E+01 0. -1.
         -5    1    4    4    0  503  0.43497496035E+01 -0.10881106133E+03  0.22403552908E+03  0.24914408618E+03  0.47000000000E+01 0. -1.
<mgrwt>
<rscale>  0 0.14622618E+03</rscale>
<asrwt>0</asrwt>
<pdfrwt beam="1">  1        5 0.61914123E-01 0.14622791E+03</pdfrwt>
<pdfrwt beam="2">  1       -5 0.10333451E-01 0.14622791E+03</pdfrwt>
<totfact> 0.13440517E+02</totfact>
</mgrwt>
</event>
<event>
 8    1  0.3694627E-007  0.1391893E+03  0.7546771E-02  0.1214429E+00
          5   -1    0    0  501    0  0.00000000000E+00  0.00000000000E+00  0.11731472946E+03  0.11740884017E+03  0.47000000000E+01 0.  1.
         -5   -1    0    0    0  501 -0.00000000000E+00 -0.00000000000E+00 -0.16696135308E+03  0.16702749301E+03  0.47000000000E+01 0.  1.
         25    2    1    2    0    0  0.29208787453E+02  0.53781236955E+02 -0.40492791491E+02  0.14494639586E+03  0.12499686716E+03 0.  0.
         25    2    1    2    0    0 -0.29208787453E+02 -0.53781236955E+02 -0.91538321248E+01  0.13948993731E+03  0.12501230042E+03 0.  0.
          5    1    4    4  502    0  0.67087229095E+01 -0.78706806129E+02  0.25893295859E+02  0.83260561279E+02  0.47000000000E+01 0. -1.
         -5    1    4    4    0  502 -0.35917510363E+02  0.24925569174E+02 -0.35047127984E+02  0.56229376035E+02  0.47000000000E+01 0. -1.
          5    1    3    3  503    0  0.56505054496E+02 -0.20090091735E+02 -0.20601604985E+02  0.63584189052E+02  0.47000000000E+01 0. -1.
         -5    1    3    3    0  503 -0.27296267043E+02  0.73871328689E+02 -0.19891186506E+02  0.81362206813E+02  0.47000000000E+01 0. -1.
<mgrwt>
<rscale>  0 0.13918579E+03</rscale>
<asrwt>0</asrwt>
<pdfrwt beam="1">  1        5 0.18060747E-01 0.13918926E+03</pdfrwt>
<pdfrwt beam="2">  1       -5 0.25698689E-01 0.13918926E+03</pdfrwt>
<totfact> 0.29453880E+02</totfact>
</mgrwt>
</event>
<event>
 8    1  0.3694627E-007  0.1484747E+03  0.7546771E-02  0.1202374E+00
          5   -1    0    0  501    0  0.00000000000E+00  0.00000000000E+00  0.34411778512E+02  0.34731261140E+02  0.47000000000E+01 0.  1.
         -5   -1    0    0    0  501 -0.00000000000E+00 -0.00000000000E+00 -0.82644021245E+03  0.82645357689E+03  0.47000000000E+01 0.  1.
         25    2    1    2    0    0 -0.70535225143E+02 -0.37845179113E+02 -0.18992584082E+03  0.24104593171E+03  0.12499536237E+03 0.  0.
         25    2    1    2    0    0  0.70535225143E+02  0.37845179113E+02 -0.60210259311E+03  0.62013890631E+03  0.12504901008E+03 0.  0.
          5    1    3    3  502    0 -0.75592941397E+02  0.11215696803E+02 -0.47150108297E+02  0.89918337153E+02  0.47000000000E+01 0. -1.
         -5    1    3    3    0  502  0.50577162546E+01 -0.49060875917E+02 -0.14277573252E+03  0.15112759456E+03  0.47000000000E+01 0. -1.
          5    1    4    4  503    0 -0.23144704604E+02  0.24423130729E+00 -0.31288743180E+03  0.31377758362E+03  0.47000000000E+01 0.  1.
         -5    1    4    4    0  503  0.93679929747E+02  0.37600947806E+02 -0.28921516131E+03  0.30636132270E+03  0.47000000000E+01 0.  1.
<mgrwt>
<rscale>  0 0.14846338E+03</rscale>
<asrwt>0</asrwt>
<pdfrwt beam="1">  1        5 0.53197240E-02 0.14847468E+03</pdfrwt>
<pdfrwt beam="2">  1       -5 0.12717024E+00 0.14847468E+03</pdfrwt>
<totfact> 0.75771396E+01</totfact>
</mgrwt>
</event>
<event>
 8    1  0.3694627E-007  0.1496713E+03  0.7546771E-02  0.1200880E+00
         -5   -1    0    0    0  501 -0.00000000000E+00  0.00000000000E+00  0.76694336175E+03  0.76695776294E+03  0.47000000000E+01 0.  1.
          5   -1    0    0  501    0  0.00000000000E+00 -0.00000000000E+00 -0.36086008441E+02  0.36390795611E+02  0.47000000000E+01 0.  1.
         25    2    1    2    0    0 -0.13807450734E+02  0.81138056357E+02  0.54252158865E+03  0.56278875114E+03  0.12500989711E+03 0.  0.
         25    2    1    2    0    0  0.13807450734E+02 -0.81138056357E+02  0.18833576466E+03  0.24055980741E+03  0.12499852321E+03 0.  0.
          5    1    3    3  502    0  0.33981304803E+02 -0.16511794340E+02  0.19301035275E+03  0.19672939459E+03  0.47000000000E+01 0.  1.
         -5    1    3    3    0  502 -0.47788755537E+02  0.97649850697E+02  0.34951123590E+03  0.36605935655E+03  0.47000000000E+01 0.  1.
          5    1    4    4  503    0  0.15945713435E+02 -0.50816849329E+01 -0.15278412964E+02  0.23143232302E+02  0.47000000000E+01 0.  1.
         -5    1    4    4    0  503 -0.21382627008E+01 -0.76056371424E+02  0.20361417762E+03  0.21741657511E+03  0.47000000000E+01 0.  1.
<mgrwt>
<rscale>  0 0.14966895E+03</rscale>
<asrwt>0</asrwt>
<pdfrwt beam="2">  1        5 0.55762466E-02 0.14967132E+03</pdfrwt>
<pdfrwt beam="1">  1       -5 0.11801584E+00 0.14967132E+03</pdfrwt>
<totfact> 0.85069793E+01</totfact>
</mgrwt>
</event>
<event>
 8    1  0.3694627E-007  0.1382109E+03  0.7546771E-02  0.1215760E+00
         -5   -1    0    0    0  501 -0.00000000000E+00  0.00000000000E+00  0.11186125865E+03  0.11195995349E+03  0.47000000000E+01 0.  1.
          5   -1    0    0  501    0  0.00000000000E+00 -0.00000000000E+00 -0.17489727508E+03  0.17496041504E+03  0.47000000000E+01 0.  1.
         25    2    1    2    0    0  0.28028843379E+02  0.51863254954E+02 -0.54126754587E+02  0.14842265025E+03  0.12499665703E+03 0.  0.
         25    2    1    2    0    0 -0.28028843379E+02 -0.51863254954E+02 -0.89092618431E+01  0.13849771828E+03  0.12500731877E+03 0.  0.
          5    1    4    4  502    0 -0.35957156330E+01 -0.68228249742E+02 -0.52089930885E+02  0.86043443291E+02  0.47000000000E+01 0. -1.
         -5    1    4    4    0  502 -0.24433127746E+02  0.16364994788E+02  0.43180669042E+02  0.52454274991E+02  0.47000000000E+01 0. -1.
          5    1    3    3  503    0  0.29003530638E+02 -0.20267101103E+02  0.23197467844E+02  0.42569621691E+02  0.47000000000E+01 0. -1.
         -5    1    3    3    0  503 -0.97468725871E+00  0.72130356057E+02 -0.77324222431E+02  0.10585302856E+03  0.47000000000E+01 0. -1.
<mgrwt>
<rscale>  0 0.13820845E+03</rscale>
<asrwt>0</asrwt>
<pdfrwt beam="2">  1        5 0.26919722E-01 0.13821086E+03</pdfrwt>
<pdfrwt beam="1">  1       -5 0.17221873E-01 0.13821086E+03</pdfrwt>
<totfact> 0.29324887E+02</totfact>
</mgrwt>
</event>
<event>
 8    1  0.3694627E-007  0.1373346E+03  0.7546771E-02  0.1216963E+00
         -5   -1    0    0    0  501 -0.00000000000E+00  0.00000000000E+00  0.29213490087E+03  0.29217270630E+03  0.47000000000E+01 0. -1.
          5   -1    0    0  501    0  0.00000000000E+00 -0.00000000000E+00 -0.65916073654E+02  0.66083422777E+02  0.47000000000E+01 0. -1.
         25    2    1    2    0    0 -0.17063297363E+02  0.54265126725E+02  0.86276931345E+02  0.16218662772E+03  0.12499973293E+03 0.  0.
         25    2    1    2    0    0  0.17063297363E+02 -0.54265126725E+02  0.13994189587E+03  0.19606950135E+03  0.12499462007E+03 0.  0.
          5    1    3    3  502    0  0.24810321915E+02  0.17953762116E+02 -0.23656428771E+02  0.38982127569E+02  0.47000000000E+01 0. -1.
         -5    1    3    3    0  502 -0.41873619278E+02  0.36311364609E+02  0.10993336012E+03  0.12320450015E+03  0.47000000000E+01 0. -1.
          5    1    4    4  503    0 -0.39972878797E+02 -0.64443803101E+02  0.57919493317E+02  0.95538434693E+02  0.47000000000E+01 0.  1.
         -5    1    4    4    0  503  0.57036176160E+02  0.10178676377E+02  0.82022402552E+02  0.10053106666E+03  0.47000000000E+01 0.  1.
<mgrwt>
<rscale>  0 0.13733344E+03</rscale>
<asrwt>0</asrwt>
<pdfrwt beam="2">  1        5 0.10156715E-01 0.13733460E+03</pdfrwt>
<pdfrwt beam="1">  1       -5 0.44959612E-01 0.13733460E+03</pdfrwt>
<totfact> 0.26918599E+02</totfact>
</mgrwt>
</event>
<event>
 8    1  0.3694627E-007  0.2211111E+03  0.7546771E-02  0.1133057E+00
          5   -1    0    0  501    0  0.00000000000E+00  0.00000000000E+00  0.40351262431E+03  0.40353999551E+03  0.47000000000E+01 0.  1.
         -5   -1    0    0    0  501 -0.00000000000E+00 -0.00000000000E+00 -0.16304852898E+03  0.16311625548E+03  0.47000000000E+01 0.  1.
         25    2    1    2    0    0 -0.32661466986E+02 -0.17944070902E+03 -0.23458829733E+02  0.22235197286E+03  0.12499737463E+03 0.  0.
         25    2    1    2    0    0  0.32661466986E+02  0.17944070902E+03  0.26392292506E+03  0.34430427814E+03  0.12499754435E+03 0.  0.
          5    1    4    4  502    0  0.76847278215E+01  0.17711337889E+02  0.13355282271E+03  0.13502293503E+03  0.47000000000E+01 0. -1.
         -5    1    4    4    0  502  0.24976739164E+02  0.16172937113E+03  0.13037010236E+03  0.20928134311E+03  0.47000000000E+01 0. -1.
          5    1    3    3  503    0 -0.11028151893E+02 -0.15351902912E+03 -0.66258104003E+02  0.16763632895E+03  0.47000000000E+01 0.  1.
         -5    1    3    3    0  503 -0.21633315093E+02 -0.25921679892E+02  0.42799274270E+02  0.54715643909E+02  0.47000000000E+01 0.  1.
<mgrwt>
<rscale>  0 0.22111109E+03</rscale>
<asrwt>0</asrwt>
<pdfrwt beam="1">  1        5 0.62086180E-01 0.22111112E+03</pdfrwt>
<pdfrwt beam="2">  1       -5 0.25091704E-01 0.22111112E+03</pdfrwt>
<totfact> 0.29448010E+01</totfact>
</mgrwt>
</event>
<event>
 8    1  0.3694627E-007  0.1366374E+03  0.7546771E-02  0.1217932E+00
          5   -1    0    0  501    0  0.00000000000E+00  0.00000000000E+00  0.69883609685E+02  0.70041479872E+02  0.47000000000E+01 0. -1.
         -5   -1    0    0    0  501 -0.00000000000E+00 -0.00000000000E+00 -0.31936881098E+03  0.31940339294E+03  0.47000000000E+01 0. -1.
         25    2    1    2    0    0  0.55161010277E+02  0.18668398719E+01 -0.20384285916E+03  0.24540107967E+03  0.12499422598E+03 0.  0.
         25    2    1    2    0    0 -0.55161010277E+02 -0.18668398719E+01 -0.45642342133E+02  0.14404379314E+03  0.12497667303E+03 0.  0.
          5    1    3    3  502    0 -0.47816808481E+01  0.36292629272E+02 -0.81372351464E+01  0.37793174080E+02  0.47000000000E+01 0. -1.
         -5    1    3    3    0  502  0.59942691125E+02 -0.34425789400E+02 -0.19570562401E+03  0.20760790559E+03  0.47000000000E+01 0. -1.
          5    1    4    4  503    0 -0.70426303567E+02 -0.40840800484E+02 -0.58091439115E+02  0.10012262740E+03  0.47000000000E+01 0.  1.
         -5    1    4    4    0  503  0.15265293290E+02  0.38973960612E+02  0.12449096981E+02  0.43921165748E+02  0.47000000000E+01 0.  1.
<mgrwt>
<rscale>  0 0.13663338E+03</rscale>
<asrwt>0</asrwt>
<pdfrwt beam="1">  1        5 0.10766129E-01 0.13663740E+03</pdfrwt>
<pdfrwt beam="2">  1       -5 0.49148466E-01 0.13663740E+03</pdfrwt>
<totfact> 0.20128992E+02</totfact>
</mgrwt>
</event>
<event>
 8    1  0.3694627E-007  0.1391001E+03  0.7546771E-02  0.1214546E+00
          5   -1    0    0  501    0  0.00000000000E+00  0.00000000000E+00  0.26272730070E+02  0.26689817259E+02  0.47000000000E+01 0.  1.
         -5   -1    0    0    0  501 -0.00000000000E+00 -0.00000000000E+00 -0.73249135371E+03  0.73250643223E+03  0.47000000000E+01 0.  1.
         25    2    1    2    0    0  0.60130627114E+02 -0.10384452753E+02 -0.37420456432E+03  0.39922160356E+03  0.12500121446E+03 0.  0.
         25    2    1    2    0    0 -0.60130627114E+02  0.10384452753E+02 -0.33201405932E+03  0.35997464593E+03  0.12499952380E+03 0.  0.
          5    1    3    3  502    0  0.66483293706E+01  0.54324048487E+02 -0.14096963160E+03  0.15129385170E+03  0.47000000000E+01 0. -1.
         -5    1    3    3    0  502  0.53482297743E+02 -0.64708501239E+02 -0.23323493272E+03  0.24792775186E+03  0.47000000000E+01 0. -1.
          5    1    4    4  503    0 -0.86349536960E+02 -0.23231426519E+02 -0.16715910793E+03  0.18963174596E+03  0.47000000000E+01 0. -1.
         -5    1    4    4    0  503  0.26218909846E+02  0.33615879271E+02 -0.16485495139E+03  0.17034289997E+03  0.47000000000E+01 0. -1.
<mgrwt>
<rscale>  0 0.13909970E+03</rscale>
<asrwt>0</asrwt>
<pdfrwt beam="1">  1        5 0.40752025E-02 0.13910008E+03</pdfrwt>
<pdfrwt beam="2">  1       -5 0.11272421E+00 0.13910008E+03</pdfrwt>
<totfact> 0.15689905E+02</totfact>
</mgrwt>
</event>
<event>
 8    1  0.3694627E-007  0.1552157E+03  0.7546771E-02  0.1194207E+00
         -5   -1    0    0    0  501 -0.00000000000E+00  0.00000000000E+00  0.10879187110E+04  0.10879288633E+04  0.47000000000E+01 0. -1.
          5   -1    0    0  501    0  0.00000000000E+00 -0.00000000000E+00 -0.34819011296E+02  0.35134791129E+02  0.47000000000E+01 0. -1.
         25    2    1    2    0    0 -0.89539287980E+02  0.21204955529E+02  0.86676392304E+03  0.88055188318E+03  0.12499994581E+03 0.  0.
         25    2    1    2    0    0  0.89539287980E+02 -0.21204955529E+02  0.18633577662E+03  0.24251177127E+03  0.12499601324E+03 0.  0.
          5    1    3    3  502    0 -0.85627170651E+02  0.32947017047E+02  0.86137187871E+03  0.86625696056E+03  0.47000000000E+01 0. -1.
         -5    1    3    3    0  502 -0.39121173293E+01 -0.11742061518E+02  0.53920443362E+01  0.14294922624E+02  0.47000000000E+01 0. -1.
          5    1    4    4  503    0  0.21143577008E+02 -0.53627737789E+02  0.22654231202E+02  0.62115129400E+02  0.47000000000E+01 0.  1.
         -5    1    4    4    0  503  0.68395710972E+02  0.32422782259E+02  0.16368154542E+03  0.18039664187E+03  0.47000000000E+01 0.  1.
<mgrwt>
<rscale>  0 0.15521493E+03</rscale>
<asrwt>0</asrwt>
<pdfrwt beam="2">  1        5 0.53818425E-02 0.15521572E+03</pdfrwt>
<pdfrwt beam="1">  1       -5 0.16739719E+00 0.15521572E+03</pdfrwt>
<totfact> 0.35687514E+01</totfact>
</mgrwt>
</event>
<event>
 8    1  0.3694627E-007  0.1295753E+03  0.7546771E-02  0.1228088E+00
          5   -1    0    0  501    0  0.00000000000E+00  0.00000000000E+00  0.63006842850E+02  0.63181898087E+02  0.47000000000E+01 0.  1.
         -5   -1    0    0    0  501 -0.00000000000E+00 -0.00000000000E+00 -0.31511964849E+03  0.31515469672E+03  0.47000000000E+01 0.  1.
         25    2    1    2    0    0  0.23952485866E+02  0.24327683715E+02 -0.20079195443E+03  0.23897106370E+03  0.12499681016E+03 0.  0.
         25    2    1    2    0    0 -0.23952485866E+02 -0.24327683715E+02 -0.51320851216E+02  0.13936553111E+03  0.12499345470E+03 0.  0.
          5    1    3    3  502    0  0.70405220125E+02 -0.58280004154E+01 -0.13807201911E+03  0.15516711337E+03  0.47000000000E+01 0. -1.
         -5    1    3    3    0  502 -0.46452734259E+02  0.30155684130E+02 -0.62719935317E+02  0.83803950335E+02  0.47000000000E+01 0. -1.
          5    1    4    4  503    0 -0.65607419460E+02 -0.18776151236E+02  0.54018234738E+01  0.68615938675E+02  0.47000000000E+01 0. -1.
         -5    1    4    4    0  503  0.41654933593E+02 -0.55515324790E+01 -0.56722674690E+02  0.70749592433E+02  0.47000000000E+01 0. -1.
<mgrwt>
<rscale>  0 0.12957450E+03</rscale>
<asrwt>0</asrwt>
<pdfrwt beam="1">  1        5 0.97095224E-02 0.12957531E+03</pdfrwt>
<pdfrwt beam="2">  1       -5 0.48496107E-01 0.12957531E+03</pdfrwt>
<totfact> 0.24348822E+02</totfact>
</mgrwt>
</event>
<event>
 8    1  0.3694627E-007  0.1359061E+03  0.7546771E-02  0.1218947E+00
         -5   -1    0    0    0  501 -0.00000000000E+00  0.00000000000E+00  0.31717895463E+02  0.32064230735E+02  0.47000000000E+01 0.  1.
          5   -1    0    0  501    0  0.00000000000E+00 -0.00000000000E+00 -0.59078654980E+03  0.59080524492E+03  0.47000000000E+01 0.  1.
         25    2    1    2    0    0  0.23844987779E+02  0.47713113288E+02 -0.23520166990E+03  0.27164368643E+03  0.12500136893E+03 0.  0.
         25    2    1    2    0    0 -0.23844987779E+02 -0.47713113288E+02 -0.32386698444E+03  0.35122578922E+03  0.12499842712E+03 0.  0.
          5    1    3    3  502    0  0.82817254306E+01  0.66539993112E+02 -0.47515430552E+02  0.82316242625E+02  0.47000000000E+01 0.  1.
         -5    1    3    3    0  502  0.15563262349E+02 -0.18826879824E+02 -0.18768623934E+03  0.18932744381E+03  0.47000000000E+01 0.  1.
          5    1    4    4  503    0 -0.58442784781E+02 -0.40862371156E+01 -0.25911343286E+03  0.26569553537E+03  0.47000000000E+01 0. -1.
         -5    1    4    4    0  503  0.34597797002E+02 -0.43626876172E+02 -0.64753551577E+02  0.85530253851E+02  0.47000000000E+01 0. -1.
<mgrwt>
<rscale>  0 0.13590542E+03</rscale>
<asrwt>0</asrwt>
<pdfrwt beam="2">  1        5 0.90918310E-01 0.13590610E+03</pdfrwt>
<pdfrwt beam="1">  1       -5 0.49077559E-02 0.13590610E+03</pdfrwt>
<totfact> 0.19363886E+02</totfact>
</mgrwt>
</event>
<event>
 8    1  0.3694627E-007  0.2075227E+03  0.7546771E-02  0.1143549E+00
         -5   -1    0    0    0  501 -0.00000000000E+00  0.00000000000E+00  0.91796092897E+03  0.91797296100E+03  0.47000000000E+01 0. -1.
          5   -1    0    0  501    0  0.00000000000E+00 -0.00000000000E+00 -0.56792796372E+02  0.56986943415E+02  0.47000000000E+01 0. -1.
         25    2    1    2    0    0 -0.47361406017E+02  0.15873514390E+03  0.63486273903E+03  0.66790973619E+03  0.12495106882E+03 0.  0.
         25    2    1    2    0    0  0.47361406017E+02 -0.15873514390E+03  0.22630539357E+03  0.30705016822E+03  0.12500290380E+03 0.  0.
          5    1    3    3  502    0  0.27935806139E+01  0.19413932860E+02  0.31231970186E+03  0.31297027184E+03  0.47000000000E+01 0. -1.
         -5    1    3    3    0  502 -0.50154986630E+02  0.13932121104E+03  0.32254303717E+03  0.35493946435E+03  0.47000000000E+01 0. -1.
          5    1    4    4  503    0  0.24607854243E+02 -0.95924606406E+02  0.36284533710E+02  0.10557335834E+03  0.47000000000E+01 0.  1.
         -5    1    4    4    0  503  0.22753551773E+02 -0.62810537494E+02  0.19002085986E+03  0.20147680988E+03  0.47000000000E+01 0.  1.
<mgrwt>
<rscale>  0 0.20751490E+03</rscale>
<asrwt>0</asrwt>
<pdfrwt beam="2">  1        5 0.87532134E-02 0.20752271E+03</pdfrwt>
<pdfrwt beam="1">  1       -5 0.14124061E+00 0.20752271E+03</pdfrwt>
<totfact> 0.26893949E+01</totfact>
</mgrwt>
</event>
<event>
 8    1  0.3694627E-007  0.1471631E+03  0.7546771E-02  0.1204018E+00
         -5   -1    0    0    0  501 -0.00000000000E+00  0.00000000000E+00  0.51324326096E+03  0.51326478052E+03  0.47000000000E+01 0.  1.
          5   -1    0    0  501    0  0.00000000000E+00 -0.00000000000E+00 -0.46744977641E+02  0.46980665541E+02  0.47000000000E+01 0.  1.
         25    2    1    2    0    0 -0.13506778327E+02 -0.76395198650E+02  0.32192932595E+03  0.35395154789E+03  0.12499819164E+03 0.  0.
         25    2    1    2    0    0  0.13506778327E+02  0.76395198650E+02  0.14456895737E+03  0.20629389816E+03  0.12505330682E+03 0.  0.
          5    1    3    3  502    0  0.18768040527E+02  0.24631873770E+02  0.13867049242E+03  0.14216386327E+03  0.47000000000E+01 0. -1.
         -5    1    3    3    0  502 -0.32274818854E+02 -0.10102707242E+03  0.18325883352E+03  0.21178768462E+03  0.47000000000E+01 0. -1.
          5    1    4    4  503    0 -0.45152976661E+02  0.59836364189E+02  0.11745796694E+03  0.13941895775E+03  0.47000000000E+01 0. -1.
         -5    1    4    4    0  503  0.58659754987E+02  0.16558834461E+02  0.27110990424E+02  0.66874940416E+02  0.47000000000E+01 0. -1.
<mgrwt>
<rscale>  0 0.14715143E+03</rscale>
<asrwt>0</asrwt>
<pdfrwt beam="2">  1        5 0.72113202E-02 0.14716314E+03</pdfrwt>
<pdfrwt beam="1">  1       -5 0.78980287E-01 0.14716314E+03</pdfrwt>
<totfact> 0.14474701E+02</totfact>
</mgrwt>
</event>
<event>
 8    1  0.3694627E-007  0.1337811E+03  0.7546771E-02  0.1221953E+00
         -5   -1    0    0    0  501 -0.00000000000E+00  0.00000000000E+00  0.11158870842E+04  0.11158969821E+04  0.47000000000E+01 0.  1.
          5   -1    0    0  501    0  0.00000000000E+00 -0.00000000000E+00 -0.16393168860E+02  0.17053620885E+02  0.47000000000E+01 0.  1.
         25    2    1    2    0    0 -0.34598114678E+02 -0.32799718699E+02  0.66522144547E+03  0.67853893343E+03  0.12499064598E+03 0.  0.
         25    2    1    2    0    0  0.34598114678E+02  0.32799718699E+02  0.43427246989E+03  0.45441166958E+03  0.12499814505E+03 0.  0.
          5    1    3    3  502    0  0.76861637796E-01  0.39400466778E+01 -0.40481106116E+01  0.73489506093E+01  0.47000000000E+01 0.  1.
         -5    1    3    3    0  502 -0.34674976316E+02 -0.36739765377E+02  0.66926955608E+03  0.67118998282E+03  0.47000000000E+01 0.  1.
          5    1    4    4  503    0  0.56861795828E+02  0.45708708307E+02  0.13104771962E+03  0.15006047001E+03  0.47000000000E+01 0.  1.
         -5    1    4    4    0  503 -0.22263681150E+02 -0.12908989608E+02  0.30322475026E+03  0.30435119958E+03  0.47000000000E+01 0.  1.
<mgrwt>
<rscale>  0 0.13377937E+03</rscale>
<asrwt>0</asrwt>
<pdfrwt beam="2">  1        5 0.25735902E-02 0.13378112E+03</pdfrwt>
<pdfrwt beam="1">  1       -5 0.17172658E+00 0.13378112E+03</pdfrwt>
<totfact> 0.10613584E+02</totfact>
</mgrwt>
</event>
<event>
 8    1  0.3694627E-007  0.1548353E+03  0.7546771E-02  0.1194659E+00
         -5   -1    0    0    0  501 -0.00000000000E+00  0.00000000000E+00  0.24268008270E+04  0.24268053783E+04  0.47000000000E+01 0. -1.
          5   -1    0    0  501    0  0.00000000000E+00 -0.00000000000E+00 -0.93478994422E+01  0.10462945282E+02  0.47000000000E+01 0. -1.
         25    2    1    2    0    0  0.23072729595E+02 -0.88396240830E+02  0.11392241358E+04  0.11496958735E+04  0.12499089450E+03 0.  0.
         25    2    1    2    0    0 -0.23072729595E+02  0.88396240830E+02  0.12782287918E+04  0.12875724501E+04  0.12501089463E+03 0.  0.
          5    1    4    4  502    0  0.20830863323E+02 -0.45175413464E+00  0.39743297044E+02  0.45119270921E+02  0.47000000000E+01 0. -1.
         -5    1    4    4    0  502 -0.43903592918E+02  0.88847994965E+02  0.12384854948E+04  0.12424531792E+04  0.47000000000E+01 0. -1.
          5    1    3    3  503    0  0.58234071235E+02 -0.88596502596E+02  0.10141682415E+04  0.10197057710E+04  0.47000000000E+01 0. -1.
         -5    1    3    3    0  503 -0.35161341640E+02  0.20026176587E+00  0.12505589427E+03  0.12999010248E+03  0.47000000000E+01 0. -1.
<mgrwt>
<rscale>  0 0.15483126E+03</rscale>
<asrwt>0</asrwt>
<pdfrwt beam="2">  1        5 0.15242611E-02 0.15483530E+03</pdfrwt>
<pdfrwt beam="1">  1       -5 0.37344014E+00 0.15483530E+03</pdfrwt>
<totfact> 0.12150424E+01</totfact>
</mgrwt>
</event>
<event>
 8    1  0.3694627E-007  0.1313718E+03  0.7546771E-02  0.1225435E+00
         -5   -1    0    0    0  501 -0.00000000000E+00  0.00000000000E+00  0.52495857437E+02  0.52705835047E+02  0.47000000000E+01 0. -1.
          5   -1    0    0  501    0  0.00000000000E+00 -0.00000000000E+00 -0.33304155070E+03  0.33307471308E+03  0.47000000000E+01 0. -1.
         25    2    1    2    0    0 -0.39719763687E+02 -0.74804548726E+01 -0.11625781550E+03  0.17542598061E+03  0.12499911270E+03 0.  0.
         25    2    1    2    0    0  0.39719763687E+02  0.74804548726E+01 -0.16428787777E+03  0.21035456752E+03  0.12499968185E+03 0.  0.
          5    1    4    4  502    0  0.61688961602E+02  0.51043753089E+01 -0.21356594727E+02  0.65648890083E+02  0.47000000000E+01 0. -1.
         -5    1    4    4    0  502 -0.21969197915E+02  0.23760795637E+01 -0.14293128304E+03  0.14470567744E+03  0.47000000000E+01 0. -1.
          5    1    3    3  503    0 -0.26018021002E+02 -0.31933098417E+02 -0.13510554893E+03  0.14132324488E+03  0.47000000000E+01 0. -1.
         -5    1    3    3    0  503 -0.13701742685E+02  0.24452643544E+02  0.18847733430E+02  0.34102735731E+02  0.47000000000E+01 0. -1.
<mgrwt>
<rscale>  0 0.13137162E+03</rscale>
<asrwt>0</asrwt>
<pdfrwt beam="2">  1        5 0.51255863E-01 0.13137175E+03</pdfrwt>
<pdfrwt beam="1">  1       -5 0.80949890E-02 0.13137175E+03</pdfrwt>
<totfact> 0.29794774E+02</totfact>
</mgrwt>
</event>
<event>
 8    1  0.3694627E-007  0.2559018E+03  0.7546771E-02  0.1109631E+00
          5   -1    0    0  501    0  0.00000000000E+00  0.00000000000E+00  0.62563854590E+03  0.62565619962E+03  0.47000000000E+01 0.  1.
         -5   -1    0    0    0  501 -0.00000000000E+00 -0.00000000000E+00 -0.10522253666E+03  0.10532745236E+03  0.47000000000E+01 0.  1.
         25    2    1    2    0    0 -0.20323409209E+03  0.92501210120E+02  0.23206324539E+03  0.34545405997E+03  0.12499835051E+03 0.  0.
         25    2    1    2    0    0  0.20323409209E+03 -0.92501210120E+02  0.28835276386E+03  0.38552959201E+03  0.12500071932E+03 0.  0.
          5    1    3    3  502    0 -0.12919609677E+03  0.11413860732E+03  0.12316380247E+03  0.21192136593E+03  0.47000000000E+01 0.  1.
         -5    1    3    3    0  502 -0.74037995323E+02 -0.21637397200E+02  0.10889944292E+03  0.13353269404E+03  0.47000000000E+01 0.  1.
          5    1    4    4  503    0  0.18157273740E+03 -0.83299403472E+02  0.29871494039E+03  0.35938858524E+03  0.47000000000E+01 0. -1.
         -5    1    4    4    0  503  0.21661354690E+02 -0.92018066483E+01 -0.10362176534E+02  0.26141006773E+02  0.47000000000E+01 0. -1.
<mgrwt>
<rscale>  0 0.25590155E+03</rscale>
<asrwt>0</asrwt>
<pdfrwt beam="1">  1        5 0.96261513E-01 0.25590184E+03</pdfrwt>
<pdfrwt beam="2">  1       -5 0.16197511E-01 0.25590184E+03</pdfrwt>
<totfact> 0.25079596E+01</totfact>
</mgrwt>
</event>
<event>
 8    1  0.3694627E-007  0.1688563E+03  0.7546771E-02  0.1179050E+00
         -5   -1    0    0    0  501 -0.00000000000E+00  0.00000000000E+00  0.86158213598E+02  0.86286312763E+02  0.47000000000E+01 0. -1.
          5   -1    0    0  501    0  0.00000000000E+00 -0.00000000000E+00 -0.36904175278E+03  0.36907168043E+03  0.47000000000E+01 0. -1.
         25    2    1    2    0    0  0.10121964657E+03 -0.51415994764E+02 -0.67894237306E+02  0.18199469971E+03  0.12499368742E+03 0.  0.
         25    2    1    2    0    0 -0.10121964657E+03  0.51415994764E+02 -0.21498930188E+03  0.27336329348E+03  0.12497227265E+03 0.  0.
          5    1    3    3  502    0  0.10349624183E+02 -0.83107285705E+01 -0.79413924332E+02  0.80652615010E+02  0.47000000000E+01 0.  1.
         -5    1    3    3    0  502  0.90870022389E+02 -0.43105266193E+02  0.11519687026E+02  0.10134208470E+03  0.47000000000E+01 0.  1.
          5    1    4    4  503    0  0.18213925085E+02  0.31011391395E+02 -0.14506175204E+02  0.39063699035E+02  0.47000000000E+01 0. -1.
         -5    1    4    4    0  503 -0.11943357166E+03  0.20404603369E+02 -0.20048312668E+03  0.23429959445E+03  0.47000000000E+01 0. -1.
<mgrwt>
<rscale>  0 0.16885232E+03</rscale>
<asrwt>0</asrwt>
<pdfrwt beam="2">  1        5 0.56787809E-01 0.16885628E+03</pdfrwt>
<pdfrwt beam="1">  1       -5 0.13267266E-01 0.16885628E+03</pdfrwt>
<totfact> 0.10903474E+02</totfact>
</mgrwt>
</event>
<event>
 8    1  0.3694627E-007  0.1545261E+03  0.7546771E-02  0.1195019E+00
         -5   -1    0    0    0  501 -0.00000000000E+00  0.00000000000E+00  0.11499664840E+03  0.11509265460E+03  0.47000000000E+01 0.  1.
          5   -1    0    0  501    0  0.00000000000E+00 -0.00000000000E+00 -0.21966921997E+03  0.21971949436E+03  0.47000000000E+01 0.  1.
         25    2    1    2    0    0  0.15109975474E+02  0.89582239211E+02 -0.12839300866E+02  0.15505772968E+03  0.12499905178E+03 0.  0.
         25    2    1    2    0    0 -0.15109975474E+02 -0.89582239211E+02 -0.91833270712E+02  0.17975441928E+03  0.12500005081E+03 0.  0.
          5    1    4    4  502    0 -0.17300775351E+02  0.24308261507E+02 -0.49800831034E+02  0.58244494821E+02  0.47000000000E+01 0.  1.
         -5    1    4    4    0  502  0.21907998773E+01 -0.11389050072E+03 -0.42032439678E+02  0.12150992446E+03  0.47000000000E+01 0.  1.
          5    1    3    3  503    0 -0.54858263251E+02  0.31420557628E+02 -0.39020403004E+01  0.63513749748E+02  0.47000000000E+01 0.  1.
         -5    1    3    3    0  503  0.69968238725E+02  0.58161681583E+02 -0.89372605659E+01  0.91543979929E+02  0.47000000000E+01 0.  1.
<mgrwt>
<rscale>  0 0.15452585E+03</rscale>
<asrwt>0</asrwt>
<pdfrwt beam="2">  1        5 0.33806517E-01 0.15452605E+03</pdfrwt>
<pdfrwt beam="1">  1       -5 0.17703044E-01 0.15452605E+03</pdfrwt>
<totfact> 0.18487367E+02</totfact>
</mgrwt>
</event>
<event>
 8    1  0.3694627E-007  0.1257816E+03  0.7546771E-02  0.1233871E+00
          5   -1    0    0  501    0  0.00000000000E+00  0.00000000000E+00  0.35238075371E+03  0.35241209625E+03  0.47000000000E+01 0.  1.
         -5   -1    0    0    0  501 -0.00000000000E+00 -0.00000000000E+00 -0.12408574905E+03  0.12417472818E+03  0.47000000000E+01 0.  1.
         25    2    1    2    0    0 -0.39440440582E+01 -0.12933273579E+02 -0.76262884153E+02  0.14709532278E+03  0.12505271462E+03 0.  0.
         25    2    1    2    0    0  0.39440440582E+01  0.12933273579E+02  0.30455788881E+03  0.32949150165E+03  0.12500526779E+03 0.  0.
          5    1    4    4  502    0  0.61902352948E+02 -0.10369077409E+02  0.16068302494E+03  0.17257040178E+03  0.47000000000E+01 0.  1.
         -5    1    4    4    0  502 -0.57958308890E+02  0.23302350988E+02  0.14387486387E+03  0.15692109987E+03  0.47000000000E+01 0.  1.
          5    1    3    3  503    0  0.43183843334E+01 -0.33775751773E+02  0.25491413144E+02  0.42794298629E+02  0.47000000000E+01 0. -1.
         -5    1    3    3    0  503 -0.82624283916E+01  0.20842478194E+02 -0.10175429730E+03  0.10430102415E+03  0.47000000000E+01 0. -1.
<mgrwt>
<rscale>  0 0.12576979E+03</rscale>
<asrwt>0</asrwt>
<pdfrwt beam="1">  1        5 0.54221678E-01 0.12578158E+03</pdfrwt>
<pdfrwt beam="2">  1       -5 0.19099371E-01 0.12578158E+03</pdfrwt>
<totfact> 0.56528910E+01</totfact>
</mgrwt>
</event>
<event>
 8    1  0.3694627E-007  0.1480446E+03  0.7546771E-02  0.1202910E+00
          5   -1    0    0  501    0  0.00000000000E+00  0.00000000000E+00  0.15111011157E+03  0.15118318630E+03  0.47000000000E+01 0.  1.
         -5   -1    0    0    0  501 -0.00000000000E+00 -0.00000000000E+00 -0.14678831458E+03  0.14686353971E+03  0.47000000000E+01 0.  1.
         25    2    1    2    0    0 -0.35797120001E+02 -0.70804383102E+02 -0.14942336889E+02  0.14875406137E+03  0.12493919672E+03 0.  0.
         25    2    1    2    0    0  0.35797120001E+02  0.70804383102E+02  0.19264133884E+02  0.14929266464E+03  0.12498999318E+03 0.  0.
          5    1    3    3  502    0  0.29728886439E+02  0.15526566075E+02  0.13731083822E+02  0.36544679585E+02  0.47000000000E+01 0. -1.
         -5    1    3    3    0  502 -0.65526006440E+02 -0.86330949177E+02 -0.28673420711E+02  0.11220938179E+03  0.47000000000E+01 0. -1.
          5    1    4    4  503    0 -0.45601235740E+02  0.38209944182E+02  0.14512724307E+01  0.59696471647E+02  0.47000000000E+01 0.  1.
         -5    1    4    4    0  503  0.81398355741E+02  0.32594438920E+02  0.17812861454E+02  0.89596192994E+02  0.47000000000E+01 0.  1.
<mgrwt>
<rscale>  0 0.14803384E+03</rscale>
<asrwt>0</asrwt>
<pdfrwt beam="1">  1        5 0.23259117E-01 0.14804456E+03</pdfrwt>
<pdfrwt beam="2">  1       -5 0.22594225E-01 0.14804456E+03</pdfrwt>
<totfact> 0.23940714E+02</totfact>
</mgrwt>
</event>
<event>
 8    1  0.3694627E-007  0.1320746E+03  0.7546771E-02  0.1224413E+00
          5   -1    0    0  501    0  0.00000000000E+00  0.00000000000E+00  0.44733813601E+02  0.44980040899E+02  0.47000000000E+01 0.  1.
         -5   -1    0    0    0  501 -0.00000000000E+00 -0.00000000000E+00 -0.40575616111E+03  0.40578338098E+03  0.47000000000E+01 0.  1.
         25    2    1    2    0    0  0.15178064071E+02 -0.39846545952E+02 -0.13415247316E+03  0.18824935394E+03  0.12499124909E+03 0.  0.
         25    2    1    2    0    0 -0.15178064071E+02  0.39846545952E+02 -0.22686987435E+03  0.26251406794E+03  0.12500230048E+03 0.  0.
          5    1    4    4  502    0 -0.63309879484E+02 -0.80477818326E+01 -0.11216419398E+03  0.12913482893E+03  0.47000000000E+01 0.  1.
         -5    1    4    4    0  502  0.48131815413E+02  0.47894327784E+02 -0.11470568037E+03  0.13337923901E+03  0.47000000000E+01 0.  1.
          5    1    3    3  503    0 -0.16962021391E+02 -0.75999463390E+02 -0.10748928283E+03  0.13281439880E+03  0.47000000000E+01 0.  1.
         -5    1    3    3    0  503  0.32140085461E+02  0.36152917438E+02 -0.26663190332E+02  0.55434955140E+02  0.47000000000E+01 0.  1.
<mgrwt>
<rscale>  0 0.13207197E+03</rscale>
<asrwt>0</asrwt>
<pdfrwt beam="1">  1        5 0.69031598E-02 0.13207458E+03</pdfrwt>
<pdfrwt beam="2">  1       -5 0.62445057E-01 0.13207458E+03</pdfrwt>
<totfact> 0.25547591E+02</totfact>
</mgrwt>
</event>
<event>
 8    1  0.3694627E-007  0.1320974E+03  0.7546771E-02  0.1224379E+00
         -5   -1    0    0    0  501 -0.00000000000E+00  0.00000000000E+00  0.19641011642E+03  0.19646634274E+03  0.47000000000E+01 0. -1.
          5   -1    0    0  501    0  0.00000000000E+00 -0.00000000000E+00 -0.97070369586E+02  0.97184086411E+02  0.47000000000E+01 0. -1.
         25    2    1    2    0    0  0.39275954629E+02  0.16772336763E+02  0.92729118349E+02  0.16139519499E+03  0.12500323069E+03 0.  0.
         25    2    1    2    0    0 -0.39275954629E+02 -0.16772336763E+02  0.66106284807E+01  0.13225523417E+03  0.12499533856E+03 0.  0.
          5    1    3    3  502    0  0.69544885966E+02 -0.18981110535E+02  0.88329170644E+02  0.11410918503E+03  0.47000000000E+01 0.  1.
         -5    1    3    3    0  502 -0.30268931338E+02  0.35753447298E+02  0.43999477044E+01  0.47286009958E+02  0.47000000000E+01 0.  1.
          5    1    4    4  503    0  0.14498746547E+02 -0.24718613348E+02  0.53133949053E+02  0.60551878908E+02  0.47000000000E+01 0. -1.
         -5    1    4    4    0  503 -0.53774701176E+02  0.79462765852E+01 -0.46523320573E+02  0.71703355258E+02  0.47000000000E+01 0. -1.
<mgrwt>
<rscale>  0 0.13209552E+03</rscale>
<asrwt>0</asrwt>
<pdfrwt beam="2">  1        5 0.14946976E-01 0.13209739E+03</pdfrwt>
<pdfrwt beam="1">  1       -5 0.30230013E-01 0.13209739E+03</pdfrwt>
<totfact> 0.29813369E+02</totfact>
</mgrwt>
</event>
<event>
 8    1  0.3694627E-007  0.1525522E+03  0.7546771E-02  0.1197376E+00
         -5   -1    0    0    0  501 -0.00000000000E+00  0.00000000000E+00  0.15945900151E+02  0.16624131003E+02  0.47000000000E+01 0. -1.
          5   -1    0    0  501    0  0.00000000000E+00 -0.00000000000E+00 -0.14283113999E+04  0.14283191328E+04  0.47000000000E+01 0. -1.
         25    2    1    2    0    0  0.87035748270E+02  0.84622901621E+01 -0.70058226001E+03  0.71699576558E+03  0.12498237070E+03 0.  0.
         25    2    1    2    0    0 -0.87035748270E+02 -0.84622901621E+01 -0.71178323976E+03  0.72794749823E+03  0.12500139178E+03 0.  0.
          5    1    3    3  502    0  0.75885125562E+02  0.61607141968E+02 -0.46615160439E+03  0.47631229303E+03  0.47000000000E+01 0.  1.
         -5    1    3    3    0  502  0.11150622708E+02 -0.53144851806E+02 -0.23443065562E+03  0.24068347254E+03  0.47000000000E+01 0.  1.
          5    1    4    4  503    0 -0.29060923458E+02 -0.18249965263E+02 -0.37343589346E+02  0.50933605504E+02  0.47000000000E+01 0. -1.
         -5    1    4    4    0  503 -0.57974824812E+02  0.97876751013E+01 -0.67443965041E+03  0.67701389273E+03  0.47000000000E+01 0. -1.
<mgrwt>
<rscale>  0 0.15254832E+03</rscale>
<asrwt>0</asrwt>
<pdfrwt beam="2">  1        5 0.21979288E+00 0.15255222E+03</pdfrwt>
<pdfrwt beam="1">  1       -5 0.25059830E-02 0.15255222E+03</pdfrwt>
<totfact> 0.53856093E+01</totfact>
</mgrwt>
</event>
<event>
 8    1  0.3694627E-007  0.1384079E+03  0.7546771E-02  0.1215488E+00
         -5   -1    0    0    0  501 -0.00000000000E+00  0.00000000000E+00  0.20621339185E+03  0.20626694592E+03  0.47000000000E+01 0. -1.
          5   -1    0    0  501    0  0.00000000000E+00 -0.00000000000E+00 -0.10769672298E+03  0.10779923071E+03  0.47000000000E+01 0. -1.
         25    2    1    2    0    0 -0.58013256384E+02 -0.12908207700E+02  0.10767323420E+03  0.17535572112E+03  0.12499577522E+03 0.  0.
         25    2    1    2    0    0  0.58013256384E+02  0.12908207700E+02 -0.91565653345E+01  0.13871045551E+03  0.12499835214E+03 0.  0.
          5    1    4    4  502    0  0.26276867892E+01  0.50278631038E+02 -0.40475886094E+02  0.64770617042E+02  0.47000000000E+01 0.  1.
         -5    1    4    4    0  502  0.55385569595E+02 -0.37370423338E+02  0.31319320759E+02  0.73939838468E+02  0.47000000000E+01 0.  1.
          5    1    3    3  503    0  0.27982878746E+02  0.26749754355E+02  0.53341635550E+02  0.66075796962E+02  0.47000000000E+01 0. -1.
         -5    1    3    3    0  503 -0.85996135131E+02 -0.39657962055E+02  0.54331598654E+02  0.10927992416E+03  0.47000000000E+01 0. -1.
<mgrwt>
<rscale>  0 0.13840732E+03</rscale>
<asrwt>0</asrwt>
<pdfrwt beam="2">  1        5 0.16580731E-01 0.13840790E+03</pdfrwt>
<pdfrwt beam="1">  1       -5 0.31737142E-01 0.13840790E+03</pdfrwt>
<totfact> 0.22792903E+02</totfact>
</mgrwt>
</event>
<event>
 8    1  0.3694627E-007  0.1386309E+03  0.7546771E-02  0.1215185E+00
         -5   -1    0    0    0  501 -0.00000000000E+00  0.00000000000E+00  0.70305951629E+02  0.70462875576E+02  0.47000000000E+01 0. -1.
          5   -1    0    0  501    0  0.00000000000E+00 -0.00000000000E+00 -0.75023786019E+03  0.75025258204E+03  0.47000000000E+01 0. -1.
         25    2    1    2    0    0  0.33280066690E+02  0.49855710403E+02 -0.12669700654E+02  0.13920436393E+03  0.12499671565E+03 0.  0.
         25    2    1    2    0    0 -0.33280066690E+02 -0.49855710403E+02 -0.66726220791E+03  0.68151109369E+03  0.12500144809E+03 0.  0.
          5    1    3    3  502    0  0.52423827283E+02 -0.10396268374E+02  0.31244128479E+02  0.62085631410E+02  0.47000000000E+01 0.  1.
         -5    1    3    3    0  502 -0.19143760593E+02  0.60251978777E+02 -0.43913829133E+02  0.77118732519E+02  0.47000000000E+01 0.  1.
          5    1    4    4  503    0 -0.25020381183E+02 -0.81669689023E+02 -0.60435228856E+03  0.61037671668E+03  0.47000000000E+01 0. -1.
         -5    1    4    4    0  503 -0.82596855072E+01  0.31813978619E+02 -0.62909919351E+02  0.71134377013E+02  0.47000000000E+01 0. -1.
<mgrwt>
<rscale>  0 0.13862980E+03</rscale>
<asrwt>0</asrwt>
<pdfrwt beam="2">  1        5 0.11543441E+00 0.13863086E+03</pdfrwt>
<pdfrwt beam="1">  1       -5 0.10829504E-01 0.13863086E+03</pdfrwt>
<totfact> 0.28186455E+01</totfact>
</mgrwt>
</event>
<event>
 8    1  0.3694627E-007  0.1298768E+03  0.7546771E-02  0.1227639E+00
          5   -1    0    0  501    0  0.00000000000E+00  0.00000000000E+00  0.62641606640E+02  0.62817679697E+02  0.47000000000E+01 0.  1.
         -5   -1    0    0    0  501 -0.00000000000E+00 -0.00000000000E+00 -0.30300841102E+03  0.30304485996E+03  0.47000000000E+01 0.  1.
         25    2    1    2    0    0 -0.11287177532E+02 -0.33400544314E+02 -0.18171355645E+03  0.22335578816E+03  0.12499997907E+03 0.  0.
         25    2    1    2    0    0  0.11287177532E+02  0.33400544314E+02 -0.58653247926E+02  0.14250675150E+03  0.12499989597E+03 0.  0.
          5    1    4    4  502    0  0.21449953183E+02 -0.41095342898E+02 -0.47172432450E+02  0.66304268963E+02  0.47000000000E+01 0.  1.
         -5    1    4    4    0  502 -0.10162775652E+02  0.74495887212E+02 -0.11480815476E+02  0.76202482535E+02  0.47000000000E+01 0.  1.
          5    1    3    3  503    0  0.51795214121E+02  0.29504239967E+00 -0.44067958969E+02  0.68168220334E+02  0.47000000000E+01 0. -1.
         -5    1    3    3    0  503 -0.63082391653E+02 -0.33695586714E+02 -0.13764559749E+03  0.15518756783E+03  0.47000000000E+01 0. -1.
<mgrwt>
<rscale>  0 0.12987681E+03</rscale>
<asrwt>0</asrwt>
<pdfrwt beam="1">  1        5 0.96535183E-02 0.12987683E+03</pdfrwt>
<pdfrwt beam="2">  1       -5 0.46633025E-01 0.12987683E+03</pdfrwt>
<totfact> 0.26725805E+02</totfact>
</mgrwt>
</event>
<event>
 8    1  0.3694627E-007  0.1322189E+03  0.7546771E-02  0.1224202E+00
         -5   -1    0    0    0  501 -0.00000000000E+00  0.00000000000E+00  0.83849485006E+02  0.83981105826E+02  0.47000000000E+01 0.  1.
          5   -1    0    0  501    0  0.00000000000E+00 -0.00000000000E+00 -0.22083893113E+03  0.22088893929E+03  0.47000000000E+01 0.  1.
         25    2    1    2    0    0 -0.18474728924E+02  0.38934711211E+02 -0.31984803351E+02  0.13603257624E+03  0.12499842722E+03 0.  0.
         25    2    1    2    0    0  0.18474728924E+02 -0.38934711211E+02 -0.10500464277E+03  0.16883746887E+03  0.12499155390E+03 0.  0.
          5    1    4    4  502    0  0.70640064665E+02 -0.19676440927E+02 -0.76874099251E+02  0.10634330350E+03  0.47000000000E+01 0. -1.
         -5    1    4    4    0  502 -0.52165335741E+02 -0.19258270285E+02 -0.28130543518E+02  0.62494165375E+02  0.47000000000E+01 0. -1.
          5    1    3    3  503    0 -0.31910427817E+02  0.39014241517E+02 -0.75134219158E+02  0.90595956494E+02  0.47000000000E+01 0.  1.
         -5    1    3    3    0  503  0.13435698892E+02 -0.79530305978E-01  0.43149415807E+02  0.45436619749E+02  0.47000000000E+01 0.  1.
<mgrwt>
<rscale>  0 0.13221726E+03</rscale>
<asrwt>0</asrwt>
<pdfrwt beam="2">  1        5 0.33989191E-01 0.13221889E+03</pdfrwt>
<pdfrwt beam="1">  1       -5 0.12913892E-01 0.13221889E+03</pdfrwt>
<totfact> 0.30750850E+02</totfact>
</mgrwt>
</event>
<event>
 8    1  0.3694627E-007  0.1940883E+03  0.7546771E-02  0.1154826E+00
         -5   -1    0    0    0  501 -0.00000000000E+00  0.00000000000E+00  0.25371788994E+03  0.25376141881E+03  0.47000000000E+01 0.  1.
          5   -1    0    0  501    0  0.00000000000E+00 -0.00000000000E+00 -0.15911415307E+03  0.15918355350E+03  0.47000000000E+01 0.  1.
         25    2    1    2    0    0  0.14484073213E+03  0.32645813853E+02  0.10092648852E+03  0.21876109022E+03  0.12500268663E+03 0.  0.
         25    2    1    2    0    0 -0.14484073213E+03 -0.32645813853E+02 -0.63227516440E+01  0.19418388209E+03  0.12499126380E+03 0.  0.
          5    1    3    3  502    0  0.58423248827E+02  0.55157078902E+02  0.10124235127E+03  0.12933554441E+03  0.47000000000E+01 0. -1.
         -5    1    3    3    0  502  0.86417483305E+02 -0.22511265049E+02 -0.31586275599E+00  0.89425545815E+02  0.47000000000E+01 0. -1.
          5    1    4    4  503    0 -0.18138512911E+01 -0.45438476546E+02  0.16709213855E+02  0.48674767950E+02  0.47000000000E+01 0. -1.
         -5    1    4    4    0  503 -0.14302688084E+03  0.12792662693E+02 -0.23031965499E+02  0.14550911414E+03  0.47000000000E+01 0. -1.
<mgrwt>
<rscale>  0 0.19408644E+03</rscale>
<asrwt>0</asrwt>
<pdfrwt beam="2">  1        5 0.24487788E-01 0.19408828E+03</pdfrwt>
<pdfrwt beam="1">  1       -5 0.39042208E-01 0.19408828E+03</pdfrwt>
<totfact> 0.80264961E+01</totfact>
</mgrwt>
</event>
<event>
 8    1  0.3694627E-007  0.1690220E+03  0.7546771E-02  0.1178874E+00
          5   -1    0    0  501    0  0.00000000000E+00  0.00000000000E+00  0.44966387543E+03  0.44968843756E+03  0.47000000000E+01 0. -1.
         -5   -1    0    0    0  501 -0.00000000000E+00 -0.00000000000E+00 -0.12669770395E+03  0.12678484999E+03  0.47000000000E+01 0. -1.
         25    2    1    2    0    0 -0.13150123403E+02  0.11300464207E+03 -0.42096453842E+02  0.17418539755E+03  0.12500186566E+03 0.  0.
         25    2    1    2    0    0  0.13150123403E+02 -0.11300464207E+03  0.36506262533E+03  0.40228788999E+03  0.12498740396E+03 0.  0.
          5    1    3    3  502    0  0.24215131203E+02 -0.99516038181E+01 -0.36898342084E+02  0.45486092889E+02  0.47000000000E+01 0.  1.
         -5    1    3    3    0  502 -0.37365254606E+02  0.12295624588E+03 -0.51981117582E+01  0.12869930466E+03  0.47000000000E+01 0.  1.
          5    1    4    4  503    0  0.31884131367E+02 -0.12588522836E+03  0.22104531645E+03  0.25641140863E+03  0.47000000000E+01 0.  1.
         -5    1    4    4    0  503 -0.18734007963E+02  0.12880586292E+02  0.14401730888E+03  0.14587648136E+03  0.47000000000E+01 0.  1.
<mgrwt>
<rscale>  0 0.16901934E+03</rscale>
<asrwt>0</asrwt>
<pdfrwt beam="1">  1        5 0.69187651E-01 0.16902201E+03</pdfrwt>
<pdfrwt beam="2">  1       -5 0.19500547E-01 0.16902201E+03</pdfrwt>
<totfact> 0.34794938E+01</totfact>
</mgrwt>
</event>
<event>
 8    1  0.3694627E-007  0.1254450E+03  0.7546771E-02  0.1234376E+00
          5   -1    0    0  501    0  0.00000000000E+00  0.00000000000E+00  0.38299874225E+02  0.38587178773E+02  0.47000000000E+01 0. -1.
         -5   -1    0    0    0  501 -0.00000000000E+00 -0.00000000000E+00 -0.41042775585E+03  0.41045466592E+03  0.47000000000E+01 0. -1.
         25    2    1    2    0    0  0.10531928987E+02 -0.53277456220E+00 -0.19915137809E+03  0.23536717550E+03  0.12500092212E+03 0.  0.
         25    2    1    2    0    0 -0.10531928987E+02  0.53277456220E+00 -0.17297650354E+03  0.21367466919E+03  0.12499915240E+03 0.  0.
          5    1    3    3  502    0  0.44637960388E+02 -0.44640618879E+02 -0.68682646607E+02  0.93406254107E+02  0.47000000000E+01 0.  1.
         -5    1    3    3    0  502 -0.34106031401E+02  0.44107844317E+02 -0.13046873148E+03  0.14196092139E+03  0.47000000000E+01 0.  1.
          5    1    4    4  503    0  0.28360925342E+02  0.21099428678E+02 -0.55244605552E+00  0.35664031929E+02  0.47000000000E+01 0. -1.
         -5    1    4    4    0  503 -0.38892854329E+02 -0.20566654115E+02 -0.17242405748E+03  0.17801063726E+03  0.47000000000E+01 0. -1.
<mgrwt>
<rscale>  0 0.12544451E+03</rscale>
<asrwt>0</asrwt>
<pdfrwt beam="1">  1        5 0.59164590E-02 0.12544495E+03</pdfrwt>
<pdfrwt beam="2">  1       -5 0.63166899E-01 0.12544495E+03</pdfrwt>
<totfact> 0.31708222E+02</totfact>
</mgrwt>
</event>
<event>
 8    1  0.3694627E-007  0.1512724E+03  0.7546771E-02  0.1198920E+00
         -5   -1    0    0    0  501 -0.00000000000E+00  0.00000000000E+00  0.52475327106E+02  0.52685386540E+02  0.47000000000E+01 0.  1.
          5   -1    0    0  501    0  0.00000000000E+00 -0.00000000000E+00 -0.43604713693E+03  0.43607246602E+03  0.47000000000E+01 0.  1.
         25    2    1    2    0    0 -0.12876144696E+02  0.84213861832E+02 -0.17963984487E+03  0.23484527535E+03  0.12499623939E+03 0.  0.
         25    2    1    2    0    0  0.12876144696E+02 -0.84213861832E+02 -0.20393196495E+03  0.25391257721E+03  0.12500232362E+03 0.  0.
          5    1    3    3  502    0  0.30798243061E+01  0.57205504380E+01 -0.14859678977E+03  0.14881298984E+03  0.47000000000E+01 0.  1.
         -5    1    3    3    0  502 -0.15955969002E+02  0.78493311394E+02 -0.31043055103E+02  0.86032285513E+02  0.47000000000E+01 0.  1.
          5    1    4    4  503    0  0.44944027188E+02 -0.22870058459E+02 -0.15270929072E+02  0.52898926534E+02  0.47000000000E+01 0. -1.
         -5    1    4    4    0  503 -0.32067882492E+02 -0.61343803373E+02 -0.18866103588E+03  0.20101365068E+03  0.47000000000E+01 0. -1.
<mgrwt>
<rscale>  0 0.15127118E+03</rscale>
<asrwt>0</asrwt>
<pdfrwt beam="2">  1        5 0.67102279E-01 0.15127244E+03</pdfrwt>
<pdfrwt beam="1">  1       -5 0.80912343E-02 0.15127244E+03</pdfrwt>
<totfact> 0.17372963E+02</totfact>
</mgrwt>
</event>
<event>
 8    1  0.3694627E-007  0.1521941E+03  0.7546771E-02  0.1197803E+00
         -5   -1    0    0    0  501 -0.00000000000E+00  0.00000000000E+00  0.89103152533E+03  0.89104392099E+03  0.47000000000E+01 0.  1.
          5   -1    0    0  501    0  0.00000000000E+00 -0.00000000000E+00 -0.26091151978E+02  0.26511096008E+02  0.47000000000E+01 0.  1.
         25    2    1    2    0    0  0.81024465632E+02 -0.31189976199E+02  0.38201756120E+03  0.41121767864E+03  0.12499913405E+03 0.  0.
         25    2    1    2    0    0 -0.81024465632E+02  0.31189976199E+02  0.48292281215E+03  0.50633733836E+03  0.12500111628E+03 0.  0.
          5    1    4    4  502    0 -0.83842402351E+02  0.71879731531E+02  0.33126932225E+03  0.34922442369E+03  0.47000000000E+01 0. -1.
         -5    1    4    4    0  502  0.28179367195E+01 -0.40689755332E+02  0.15165348990E+03  0.15711291466E+03  0.47000000000E+01 0. -1.
          5    1    3    3  503    0  0.11278105998E+03 -0.17048836714E+02  0.32277669278E+03  0.34236984932E+03  0.47000000000E+01 0. -1.
         -5    1    3    3    0  503 -0.31756594346E+02 -0.14141139485E+02  0.59240868418E+02  0.68847829314E+02  0.47000000000E+01 0. -1.
<mgrwt>
<rscale>  0 0.15219374E+03</rscale>
<asrwt>0</asrwt>
<pdfrwt beam="2">  1        5 0.40472805E-02 0.15219414E+03</pdfrwt>
<pdfrwt beam="1">  1       -5 0.13711502E+00 0.15219414E+03</pdfrwt>
<totfact> 0.98579553E+01</totfact>
</mgrwt>
</event>
<event>
 8    1  0.3694627E-007  0.1775955E+03  0.7546771E-02  0.1170152E+00
          5   -1    0    0  501    0  0.00000000000E+00  0.00000000000E+00  0.21670898871E+03  0.21675994968E+03  0.47000000000E+01 0. -1.
         -5   -1    0    0    0  501 -0.00000000000E+00 -0.00000000000E+00 -0.15030734634E+03  0.15038081116E+03  0.47000000000E+01 0. -1.
         25    2    1    2    0    0 -0.62717168919E+02  0.10946373547E+03  0.15409806134E+00  0.17759555808E+03  0.12499762336E+03 0.  0.
         25    2    1    2    0    0  0.62717168919E+02 -0.10946373547E+03  0.66247544302E+02  0.18954520275E+03  0.12499157612E+03 0.  0.
          5    1    3    3  502    0 -0.65341699140E+02  0.11979645777E+03 -0.34672082928E+02  0.14087218418E+03  0.47000000000E+01 0.  1.
         -5    1    3    3    0  502  0.26245302206E+01 -0.10332722299E+02  0.34826180989E+02  0.36723373909E+02  0.47000000000E+01 0.  1.
          5    1    4    4  503    0  0.73565569324E+02 -0.13207175832E+03  0.50014441355E+02  0.15930592168E+03  0.47000000000E+01 0. -1.
         -5    1    4    4    0  503 -0.10848400405E+02  0.22608022857E+02  0.16233102947E+02  0.30239281079E+02  0.47000000000E+01 0. -1.
<mgrwt>
<rscale>  0 0.17759443E+03</rscale>
<asrwt>0</asrwt>
<pdfrwt beam="1">  1        5 0.33349416E-01 0.17759549E+03</pdfrwt>
<pdfrwt beam="2">  1       -5 0.23133778E-01 0.17759549E+03</pdfrwt>
<totfact> 0.12003301E+02</totfact>
</mgrwt>
</event>
<event>
 8    1  0.3694627E-007  0.1389445E+03  0.7546771E-02  0.1214756E+00
         -5   -1    0    0    0  501 -0.00000000000E+00  0.00000000000E+00  0.53829481574E+02  0.54034276960E+02  0.47000000000E+01 0. -1.
          5   -1    0    0  501    0  0.00000000000E+00 -0.00000000000E+00 -0.36779751741E+03  0.36782754629E+03  0.47000000000E+01 0. -1.
         25    2    1    2    0    0  0.28478098751E+02 -0.53575116143E+02 -0.19185129077E+03  0.23688056766E+03  0.12499676152E+03 0.  0.
         25    2    1    2    0    0 -0.28478098751E+02  0.53575116143E+02 -0.12211674507E+03  0.18498125558E+03  0.12499708122E+03 0.  0.
          5    1    3    3  502    0  0.52094673343E+02 -0.27352818806E+02 -0.21454787597E+02  0.62804694077E+02  0.47000000000E+01 0.  1.
         -5    1    3    3    0  502 -0.23616574591E+02 -0.26222297337E+02 -0.17039650317E+03  0.17407587359E+03  0.47000000000E+01 0.  1.
          5    1    4    4  503    0  0.28643862417E+02  0.66335118134E+02 -0.36296471242E+02  0.80995941729E+02  0.47000000000E+01 0. -1.
         -5    1    4    4    0  503 -0.57121961168E+02 -0.12760001991E+02 -0.85820273824E+02  0.10398531386E+03  0.47000000000E+01 0. -1.
<mgrwt>
<rscale>  0 0.13894440E+03</rscale>
<asrwt>0</asrwt>
<pdfrwt beam="2">  1        5 0.56602295E-01 0.13894447E+03</pdfrwt>
<pdfrwt beam="1">  1       -5 0.82995224E-02 0.13894447E+03</pdfrwt>
<totfact> 0.23519045E+02</totfact>
</mgrwt>
</event>
<event>
 8    1  0.3694627E-007  0.1267126E+03  0.7546771E-02  0.1232419E+00
         -5   -1    0    0    0  501 -0.00000000000E+00  0.00000000000E+00  0.59637264025E+02  0.59822180338E+02  0.47000000000E+01 0.  1.
          5   -1    0    0  501    0  0.00000000000E+00 -0.00000000000E+00 -0.31317894885E+03  0.31321421424E+03  0.47000000000E+01 0.  1.
         25    2    1    2    0    0  0.14040156604E+02  0.15267912601E+02 -0.56424098851E+02  0.13870750365E+03  0.12500342989E+03 0.  0.
         25    2    1    2    0    0 -0.14040156604E+02 -0.15267912601E+02 -0.19711758598E+03  0.23432889094E+03  0.12499780507E+03 0.  0.
          5    1    4    4  502    0 -0.62024402441E+02 -0.17603814022E+02 -0.57198007725E+02  0.86316990529E+02  0.47000000000E+01 0. -1.
         -5    1    4    4    0  502  0.47984245837E+02  0.23359014215E+01 -0.13991957825E+03  0.14801190041E+03  0.47000000000E+01 0. -1.
          5    1    3    3  503    0  0.70685879557E+01 -0.55110694641E+02 -0.22511132466E+02  0.60133141315E+02  0.47000000000E+01 0.  1.
         -5    1    3    3    0  503  0.69715686479E+01  0.70378607242E+02 -0.33912966386E+02  0.78574362331E+02  0.47000000000E+01 0.  1.
<mgrwt>
<rscale>  0 0.12671125E+03</rscale>
<asrwt>0</asrwt>
<pdfrwt beam="2">  1        5 0.48198313E-01 0.12671264E+03</pdfrwt>
<pdfrwt beam="1">  1       -5 0.91919009E-02 0.12671264E+03</pdfrwt>
<totfact> 0.26907929E+02</totfact>
</mgrwt>
</event>
<event>
 8    1  0.3694627E-007  0.1340851E+03  0.7546771E-02  0.1221518E+00
         -5   -1    0    0    0  501 -0.00000000000E+00  0.00000000000E+00  0.75749956024E+03  0.75751414097E+03  0.47000000000E+01 0. -1.
          5   -1    0    0  501    0  0.00000000000E+00 -0.00000000000E+00 -0.23541600214E+02  0.24006185466E+02  0.47000000000E+01 0. -1.
         25    2    1    2    0    0 -0.35378068773E+02 -0.33205796113E+02  0.38571100065E+03  0.40835254419E+03  0.12499836668E+03 0.  0.
         25    2    1    2    0    0  0.35378068773E+02  0.33205796113E+02  0.34824695938E+03  0.37316778225E+03  0.12499606534E+03 0.  0.
          5    1    3    3  502    0 -0.38303912370E+02 -0.22166062598E+02  0.39198280883E+03  0.39450112351E+03  0.47000000000E+01 0.  1.
         -5    1    3    3    0  502  0.29258435968E+01 -0.11039733514E+02 -0.62718081777E+01  0.13851420672E+02  0.47000000000E+01 0.  1.
          5    1    4    4  503    0  0.41699184083E+02 -0.31888637283E+02  0.24687552530E+03  0.25243874927E+03  0.47000000000E+01 0. -1.
         -5    1    4    4    0  503 -0.63211153092E+01  0.65094433396E+02  0.10137143408E+03  0.12072903298E+03  0.47000000000E+01 0. -1.
<mgrwt>
<rscale>  0 0.13408460E+03</rscale>
<asrwt>0</asrwt>
<pdfrwt beam="2">  1        5 0.36586439E-02 0.13408514E+03</pdfrwt>
<pdfrwt beam="1">  1       -5 0.11657524E+00 0.13408514E+03</pdfrwt>
<totfact> 0.17002945E+02</totfact>
</mgrwt>
</event>
<event>
 8    1  0.3694627E-007  0.1865947E+03  0.7546771E-02  0.1161582E+00
          5   -1    0    0  501    0  0.00000000000E+00  0.00000000000E+00  0.93535656295E+02  0.93653665163E+02  0.47000000000E+01 0. -1.
         -5   -1    0    0    0  501 -0.00000000000E+00 -0.00000000000E+00 -0.37460530360E+03  0.37463478681E+03  0.47000000000E+01 0. -1.
         25    2    1    2    0    0 -0.79323704557E+02  0.11354823183E+03 -0.12009694407E+03  0.22185430745E+03  0.12494241355E+03 0.  0.
         25    2    1    2    0    0  0.79323704557E+02 -0.11354823183E+03 -0.16097270324E+03  0.24643414452E+03  0.12502849811E+03 0.  0.
          5    1    4    4  502    0  0.84372932295E+02 -0.13179195320E+03 -0.10856866420E+03  0.19051812375E+03  0.47000000000E+01 0. -1.
         -5    1    4    4    0  502 -0.50492277382E+01  0.18243721371E+02 -0.52404039043E+02  0.55916020765E+02  0.47000000000E+01 0. -1.
          5    1    3    3  503    0 -0.26496989431E+02  0.10963813235E+03 -0.12501961062E+03  0.16844762852E+03  0.47000000000E+01 0.  1.
         -5    1    3    3    0  503 -0.52826715126E+02  0.39100994847E+01  0.49226665513E+01  0.53406678936E+02  0.47000000000E+01 0.  1.
<mgrwt>
<rscale>  0 0.18658027E+03</rscale>
<asrwt>0</asrwt>
<pdfrwt beam="1">  1        5 0.14401447E-01 0.18659468E+03</pdfrwt>
<pdfrwt beam="2">  1       -5 0.57642930E-01 0.18659468E+03</pdfrwt>
<totfact> 0.93703029E+01</totfact>
</mgrwt>
</event>
<event>
 8    1  0.3694627E-007  0.1286710E+03  0.7546771E-02  0.1229442E+00
         -5   -1    0    0    0  501 -0.00000000000E+00  0.00000000000E+00  0.25217928745E+02  0.25652172036E+02  0.47000000000E+01 0. -1.
          5   -1    0    0  501    0  0.00000000000E+00 -0.00000000000E+00 -0.11449865311E+04  0.11449961774E+04  0.47000000000E+01 0. -1.
         25    2    1    2    0    0  0.60246157662E+01 -0.29926304535E+02 -0.17529186860E+03  0.21744763994E+03  0.12499742886E+03 0.  0.
         25    2    1    2    0    0 -0.60246157662E+01  0.29926304535E+02 -0.94447673373E+03  0.95320070953E+03  0.12499364940E+03 0.  0.
          5    1    4    4  502    0  0.34792555436E+02 -0.34651481447E+02 -0.47115703733E+03  0.47373229878E+03  0.47000000000E+01 0.  1.
         -5    1    4    4    0  502 -0.40817171203E+02  0.64577785982E+02 -0.47331969639E+03  0.47946841074E+03  0.47000000000E+01 0.  1.
          5    1    3    3  503    0  0.72176716224E+01 -0.63939475701E+02 -0.17107068011E+03  0.18283221524E+03  0.47000000000E+01 0.  1.
         -5    1    3    3    0  503 -0.11930558562E+01  0.34013171166E+02 -0.42211884899E+01  0.34615424702E+02  0.47000000000E+01 0.  1.
<mgrwt>
<rscale>  0 0.12867012E+03</rscale>
<asrwt>0</asrwt>
<pdfrwt beam="2">  1        5 0.17618588E+00 0.12867104E+03</pdfrwt>
<pdfrwt beam="1">  1       -5 0.39138276E-02 0.12867104E+03</pdfrwt>
<totfact> 0.49399033E+01</totfact>
</mgrwt>
</event>
<event>
 8    1  0.3694627E-007  0.1711778E+03  0.7546771E-02  0.1176635E+00
          5   -1    0    0  501    0  0.00000000000E+00  0.00000000000E+00  0.26669605007E+03  0.26673746105E+03  0.47000000000E+01 0. -1.
         -5   -1    0    0    0  501 -0.00000000000E+00 -0.00000000000E+00 -0.11345280465E+03  0.11355011618E+03  0.47000000000E+01 0. -1.
         25    2    1    2    0    0  0.10405961023E+03  0.53235319339E+02  0.42260023088E+02  0.17627990276E+03  0.12500517132E+03 0.  0.
         25    2    1    2    0    0 -0.10405961023E+03 -0.53235319339E+02  0.11098322233E+03  0.20400767447E+03  0.12505780222E+03 0.  0.
          5    1    3    3  502    0  0.40773439637E+02  0.81200363708E+02 -0.69443336612E+01  0.91248486104E+02  0.47000000000E+01 0.  1.
         -5    1    3    3    0  502  0.63286170595E+02 -0.27965044369E+02  0.49204356749E+02  0.85031416654E+02  0.47000000000E+01 0.  1.
          5    1    4    4  503    0 -0.32325123474E+02  0.19883465454E+02 -0.15429737473E+02  0.41236302023E+02  0.47000000000E+01 0.  1.
         -5    1    4    4    0  503 -0.71734486759E+02 -0.73118784794E+02  0.12641295981E+03  0.16277137244E+03  0.47000000000E+01 0.  1.
<mgrwt>
<rscale>  0 0.17116824E+03</rscale>
<asrwt>0</asrwt>
<pdfrwt beam="1">  1        5 0.41040832E-01 0.17117785E+03</pdfrwt>
<pdfrwt beam="2">  1       -5 0.17464949E-01 0.17117785E+03</pdfrwt>
<totfact> 0.13199412E+02</totfact>
</mgrwt>
</event>
<event>
 8    1  0.3694627E-007  0.1293197E+03  0.7546771E-02  0.1228479E+00
          5   -1    0    0  501    0  0.00000000000E+00  0.00000000000E+00  0.10322026429E+03  0.10332721307E+03  0.47000000000E+01 0.  1.
         -5   -1    0    0    0  501 -0.00000000000E+00 -0.00000000000E+00 -0.16481131789E+03  0.16487832029E+03  0.47000000000E+01 0.  1.
         25    2    1    2    0    0 -0.24483242978E+02  0.22335453297E+02 -0.49036232829E+02  0.13827779371E+03  0.12497157454E+03 0.  0.
         25    2    1    2    0    0  0.24483242978E+02 -0.22335453297E+02 -0.12554820764E+02  0.12992773965E+03  0.12500116937E+03 0.  0.
          5    1    4    4  502    0 -0.46441023003E+02 -0.31977101562E+02  0.24923237870E+01  0.56635724766E+02  0.47000000000E+01 0.  1.
         -5    1    4    4    0  502  0.70924265982E+02  0.96416482649E+01 -0.15047144551E+02  0.73292014882E+02  0.47000000000E+01 0.  1.
          5    1    3    3  503    0  0.24277701716E+02 -0.38543165902E+02  0.43080307764E+00  0.45795829828E+02  0.47000000000E+01 0.  1.
         -5    1    3    3    0  503 -0.48760944694E+02  0.60878619199E+02 -0.49467035907E+02  0.92481963887E+02  0.47000000000E+01 0.  1.
<mgrwt>
<rscale>  0 0.12931258E+03</rscale>
<asrwt>0</asrwt>
<pdfrwt beam="1">  1        5 0.15893422E-01 0.12931974E+03</pdfrwt>
<pdfrwt beam="2">  1       -5 0.25368968E-01 0.12931974E+03</pdfrwt>
<totfact> 0.37184636E+02</totfact>
</mgrwt>
</event>
<event>
 8    1  0.3694627E-007  0.1286444E+03  0.7546771E-02  0.1229482E+00
          5   -1    0    0  501    0  0.00000000000E+00  0.00000000000E+00  0.24998831469E+03  0.25003249285E+03  0.47000000000E+01 0.  1.
         -5   -1    0    0    0  501 -0.00000000000E+00 -0.00000000000E+00 -0.11596635867E+03  0.11606156273E+03  0.47000000000E+01 0.  1.
         25    2    1    2    0    0  0.26184967650E+02 -0.15422229332E+02 -0.52973343709E+02  0.13912131188E+03  0.12500026635E+03 0.  0.
         25    2    1    2    0    0 -0.26184967650E+02  0.15422229332E+02  0.18699529972E+03  0.22697274370E+03  0.12500354626E+03 0.  0.
          5    1    3    3  502    0  0.28827461355E+01  0.12225613580E+02 -0.87729046400E+02  0.88748247503E+02  0.47000000000E+01 0.  1.
         -5    1    3    3    0  502  0.23302221514E+02 -0.27647842912E+02  0.34755702691E+02  0.50373064377E+02  0.47000000000E+01 0.  1.
          5    1    4    4  503    0  0.48562568630E+02  0.17353463200E+02  0.57618592182E+02  0.77469077199E+02  0.47000000000E+01 0. -1.
         -5    1    4    4    0  503 -0.74747536279E+02 -0.19312338683E+01  0.12937670754E+03  0.14950366651E+03  0.47000000000E+01 0. -1.
<mgrwt>
<rscale>  0 0.12864361E+03</rscale>
<asrwt>0</asrwt>
<pdfrwt beam="1">  1        5 0.38470462E-01 0.12864441E+03</pdfrwt>
<pdfrwt beam="2">  1       -5 0.17851700E-01 0.12864441E+03</pdfrwt>
<totfact> 0.13203985E+02</totfact>
</mgrwt>
</event>
<event>
 8    1  0.3694627E-007  0.1251700E+03  0.7546771E-02  0.1234805E+00
          5   -1    0    0  501    0  0.00000000000E+00  0.00000000000E+00  0.47384212087E+03  0.47386542975E+03  0.47000000000E+01 0.  1.
         -5   -1    0    0    0  501 -0.00000000000E+00 -0.00000000000E+00 -0.33161048341E+02  0.33492463735E+02  0.47000000000E+01 0.  1.
         25    2    1    2    0    0 -0.63308223787E+01 -0.15237914157E+01  0.19681690767E+03  0.23324612868E+03  0.12499784057E+03 0.  0.
         25    2    1    2    0    0  0.63308223787E+01  0.15237914157E+01  0.24386416486E+03  0.27411176480E+03  0.12500050979E+03 0.  0.
          5    1    3    3  502    0  0.48210088097E+02  0.29029297200E+02  0.58109776359E+02  0.81029308270E+02  0.47000000000E+01 0.  1.
         -5    1    3    3    0  502 -0.54540910475E+02 -0.30553088616E+02  0.13870713131E+03  0.15221682041E+03  0.47000000000E+01 0.  1.
          5    1    4    4  503    0 -0.25520445580E+02  0.12089384220E+02  0.73952998660E+00  0.28637095837E+02  0.47000000000E+01 0.  1.
         -5    1    4    4    0  503  0.31851267958E+02 -0.10565592804E+02  0.24312463487E+03  0.24547466896E+03  0.47000000000E+01 0.  1.
<mgrwt>
<rscale>  0 0.12516933E+03</rscale>
<asrwt>0</asrwt>
<pdfrwt beam="1">  1        5 0.72926075E-01 0.12517000E+03</pdfrwt>
<pdfrwt beam="2">  1       -5 0.51289862E-02 0.12517000E+03</pdfrwt>
<totfact> 0.29164204E+02</totfact>
</mgrwt>
</event>
<event>
 8    1  0.3694627E-007  0.1439739E+03  0.7546771E-02  0.1208084E+00
         -5   -1    0    0    0  501 -0.00000000000E+00  0.00000000000E+00  0.10602459491E+03  0.10612871773E+03  0.47000000000E+01 0.  1.
          5   -1    0    0  501    0  0.00000000000E+00 -0.00000000000E+00 -0.20923877470E+03  0.20929155462E+03  0.47000000000E+01 0.  1.
         25    2    1    2    0    0 -0.17575869892E+02 -0.69233899220E+02 -0.10860897048E+02  0.14438293102E+03  0.12500491063E+03 0.  0.
         25    2    1    2    0    0  0.17575869892E+02  0.69233899220E+02 -0.92353282735E+02  0.17103734133E+03  0.12498959674E+03 0.  0.
          5    1    3    3  502    0 -0.21237646630E+02  0.44618796733E+01  0.46021104844E+02  0.51097730827E+02  0.47000000000E+01 0.  1.
         -5    1    3    3    0  502  0.36617767389E+01 -0.73695778893E+02 -0.56882001892E+02  0.93285200191E+02  0.47000000000E+01 0.  1.
          5    1    4    4  503    0 -0.39566906536E+02  0.53175540662E+02 -0.89443191599E+02  0.11142420177E+03  0.47000000000E+01 0.  1.
         -5    1    4    4    0  503  0.57142776427E+02  0.16058358558E+02 -0.29100911354E+01  0.59613139557E+02  0.47000000000E+01 0.  1.
<mgrwt>
<rscale>  0 0.14397053E+03</rscale>
<asrwt>0</asrwt>
<pdfrwt beam="2">  1        5 0.32202650E-01 0.14397386E+03</pdfrwt>
<pdfrwt beam="1">  1       -5 0.16323546E-01 0.14397386E+03</pdfrwt>
<totfact> 0.23090706E+02</totfact>
</mgrwt>
</event>
<event>
 8    1  0.3694627E-007  0.1288946E+03  0.7546771E-02  0.1229111E+00
          5   -1    0    0  501    0  0.00000000000E+00  0.00000000000E+00  0.59069842163E+03  0.59071711954E+03  0.47000000000E+01 0. -1.
         -5   -1    0    0    0  501 -0.00000000000E+00 -0.00000000000E+00 -0.28475397881E+02  0.28860670202E+02  0.47000000000E+01 0. -1.
         25    2    1    2    0    0 -0.26647070128E+02 -0.16664894640E+02  0.23765961321E+03  0.27036257530E+03  0.12500418117E+03 0.  0.
         25    2    1    2    0    0  0.26647070128E+02  0.16664894640E+02  0.32456341054E+03  0.34921521445E+03  0.12498829337E+03 0.  0.
          5    1    4    4  502    0  0.64552494960E+02  0.14830310219E+01  0.28466033225E+03  0.29192947563E+03  0.47000000000E+01 0.  1.
         -5    1    4    4    0  502 -0.37905424833E+02  0.15181863618E+02  0.39903078298E+02  0.57285738821E+02  0.47000000000E+01 0.  1.
          5    1    3    3  503    0 -0.83465232931E+01 -0.17705756415E+02 -0.96540867751E+01  0.22325986042E+02  0.47000000000E+01 0.  1.
         -5    1    3    3    0  503 -0.18300546835E+02  0.10408617743E+01  0.24731369999E+03  0.24803658925E+03  0.47000000000E+01 0.  1.
<mgrwt>
<rscale>  0 0.12889080E+03</rscale>
<asrwt>0</asrwt>
<pdfrwt beam="1">  1        5 0.90907740E-01 0.12889465E+03</pdfrwt>
<pdfrwt beam="2">  1       -5 0.44119058E-02 0.12889465E+03</pdfrwt>
<totfact> 0.22681886E+02</totfact>
</mgrwt>
</event>
<event>
 8    1  0.3694627E-007  0.1264968E+03  0.7546771E-02  0.1232757E+00
         -5   -1    0    0    0  501 -0.00000000000E+00  0.00000000000E+00  0.82768407741E+03  0.82769742176E+03  0.47000000000E+01 0. -1.
          5   -1    0    0  501    0  0.00000000000E+00 -0.00000000000E+00 -0.19279654415E+02  0.19844270567E+02  0.47000000000E+01 0. -1.
         25    2    1    2    0    0  0.17135281930E+02  0.88347722830E+01  0.45176361404E+03  0.46913941826E+03  0.12501903739E+03 0.  0.
         25    2    1    2    0    0 -0.17135281930E+02 -0.88347722830E+01  0.35664080896E+03  0.37840227407E+03  0.12499577321E+03 0.  0.
          5    1    4    4  502    0 -0.20870008397E+02 -0.63752223063E+02  0.24160650550E+03  0.25079014474E+03  0.47000000000E+01 0.  1.
         -5    1    4    4    0  502  0.37347264675E+01  0.54917450780E+02  0.11503430345E+03  0.12761212933E+03  0.47000000000E+01 0.  1.
          5    1    3    3  503    0 -0.39739314171E+02  0.43913878923E+02  0.22155538822E+03  0.22938291545E+03  0.47000000000E+01 0.  1.
         -5    1    3    3    0  503  0.56874596101E+02 -0.35079106640E+02  0.23020822582E+03  0.23975650281E+03  0.47000000000E+01 0.  1.
<mgrwt>
<rscale>  0 0.12649101E+03</rscale>
<asrwt>0</asrwt>
<pdfrwt beam="2">  1        5 0.30105598E-02 0.12649676E+03</pdfrwt>
<pdfrwt beam="1">  1       -5 0.12738045E+00 0.12649676E+03</pdfrwt>
<totfact> 0.18232748E+02</totfact>
</mgrwt>
</event>
<event>
 8    1  0.3694627E-007  0.1320973E+03  0.7546771E-02  0.1224377E+00
          5   -1    0    0  501    0  0.00000000000E+00  0.00000000000E+00  0.83380916864E+02  0.83513276173E+02  0.47000000000E+01 0. -1.
         -5   -1    0    0    0  501 -0.00000000000E+00 -0.00000000000E+00 -0.22223755987E+03  0.22228725338E+03  0.47000000000E+01 0. -1.
         25    2    1    2    0    0  0.19631785441E+02  0.37938605224E+02 -0.10679910779E+03  0.16986903504E+03  0.12499877949E+03 0.  0.
         25    2    1    2    0    0 -0.19631785441E+02 -0.37938605224E+02 -0.32057535212E+02  0.13593149452E+03  0.12499976349E+03 0.  0.
          5    1    3    3  502    0 -0.70695923712E+01 -0.41856916030E+02 -0.59456575618E+02  0.73206249324E+02  0.47000000000E+01 0. -1.
         -5    1    3    3    0  502  0.26701377812E+02  0.79795521254E+02 -0.47342532173E+02  0.96662785713E+02  0.47000000000E+01 0. -1.
          5    1    4    4  503    0  0.50080687086E+02 -0.31164392458E+02 -0.10291458488E+01  0.59181447410E+02  0.47000000000E+01 0. -1.
         -5    1    4    4    0  503 -0.69712472527E+02 -0.67742127658E+01 -0.31028389363E+02  0.76750047107E+02  0.47000000000E+01 0. -1.
<mgrwt>
<rscale>  0 0.13209703E+03</rscale>
<asrwt>0</asrwt>
<pdfrwt beam="1">  1        5 0.12841838E-01 0.13209726E+03</pdfrwt>
<pdfrwt beam="2">  1       -5 0.34204398E-01 0.13209726E+03</pdfrwt>
<totfact> 0.30660018E+02</totfact>
</mgrwt>
</event>
<event>
 8    1  0.3694627E-007  0.1351445E+03  0.7546771E-02  0.1220016E+00
          5   -1    0    0  501    0  0.00000000000E+00  0.00000000000E+00  0.56932263421E+02  0.57125936476E+02  0.47000000000E+01 0.  1.
         -5   -1    0    0    0  501 -0.00000000000E+00 -0.00000000000E+00 -0.35620612320E+03  0.35623712918E+03  0.47000000000E+01 0.  1.
         25    2    1    2    0    0 -0.30509892795E+01  0.51253270767E+02 -0.21546833078E+03  0.25434353211E+03  0.12501129731E+03 0.  0.
         25    2    1    2    0    0  0.30509892795E+01 -0.51253270767E+02 -0.83805528998E+02  0.15901953355E+03  0.12501055579E+03 0.  0.
          5    1    3    3  502    0 -0.30912596746E+02  0.68585240142E+02 -0.20676010140E+03  0.22007124604E+03  0.47000000000E+01 0. -1.
         -5    1    3    3    0  502  0.27861607467E+02 -0.17331969375E+02 -0.87082293754E+01  0.34272286062E+02  0.47000000000E+01 0. -1.
          5    1    4    4  503    0 -0.19426217179E+02 -0.67423622671E+02 -0.10320412387E+03  0.12488596395E+03  0.47000000000E+01 0. -1.
         -5    1    4    4    0  503  0.22477206458E+02  0.16170351904E+02  0.19398594867E+02  0.34133569601E+02  0.47000000000E+01 0. -1.
<mgrwt>
<rscale>  0 0.13514431E+03</rscale>
<asrwt>0</asrwt>
<pdfrwt beam="1">  1        5 0.87760930E-02 0.13514448E+03</pdfrwt>
<pdfrwt beam="2">  1       -5 0.54818224E-01 0.13514448E+03</pdfrwt>
<totfact> 0.22678764E+02</totfact>
</mgrwt>
</event>
<event>
 8    1  0.3694627E-007  0.1257071E+03  0.7546771E-02  0.1233973E+00
         -5   -1    0    0    0  501 -0.00000000000E+00  0.00000000000E+00  0.25803810338E+03  0.25808090358E+03  0.47000000000E+01 0. -1.
          5   -1    0    0  501    0  0.00000000000E+00 -0.00000000000E+00 -0.62456243861E+02  0.62632838010E+02  0.47000000000E+01 0. -1.
         25    2    1    2    0    0 -0.77206936478E+01  0.10948612366E+02  0.12142143032E+03  0.17477253629E+03  0.12499117760E+03 0.  0.
         25    2    1    2    0    0  0.77206936478E+01 -0.10948612366E+02  0.74160429202E+02  0.14594120530E+03  0.12497833782E+03 0.  0.
          5    1    3    3  502    0 -0.65917439698E+02  0.51765012519E+00  0.57854678256E+02  0.87832969972E+02  0.47000000000E+01 0.  1.
         -5    1    3    3    0  502  0.58196746051E+02  0.10430962240E+02  0.63566752059E+02  0.86939566318E+02  0.47000000000E+01 0.  1.
          5    1    4    4  503    0  0.20647053893E+01 -0.19566165319E+02 -0.32716781274E+02  0.38465251989E+02  0.47000000000E+01 0.  1.
         -5    1    4    4    0  503  0.56559882585E+01  0.86175529530E+01  0.10687721048E+03  0.10747595332E+03  0.47000000000E+01 0.  1.
<mgrwt>
<rscale>  0 0.12570391E+03</rscale>
<asrwt>0</asrwt>
<pdfrwt beam="2">  1        5 0.96255292E-02 0.12570710E+03</pdfrwt>
<pdfrwt beam="1">  1       -5 0.39715047E-01 0.12570710E+03</pdfrwt>
<totfact> 0.36983460E+02</totfact>
</mgrwt>
</event>
<event>
 8    1  0.3694627E-007  0.1674000E+03  0.7546771E-02  0.1180587E+00
          5   -1    0    0  501    0  0.00000000000E+00  0.00000000000E+00  0.84988647092E+02  0.85118506417E+02  0.47000000000E+01 0. -1.
         -5   -1    0    0    0  501 -0.00000000000E+00 -0.00000000000E+00 -0.37505070735E+03  0.37508015554E+03  0.47000000000E+01 0. -1.
         25    2    1    2    0    0  0.88502040689E+02  0.67559693972E+02 -0.22535719367E+03  0.28072870030E+03  0.12500325987E+03 0.  0.
         25    2    1    2    0    0 -0.88502040689E+02 -0.67559693972E+02 -0.64704866588E+02  0.17946996166E+03  0.12500329565E+03 0.  0.
          5    1    3    3  502    0 -0.16955164004E+02  0.34166591533E+02 -0.12681190756E+03  0.13250729589E+03  0.47000000000E+01 0.  1.
         -5    1    3    3    0  502  0.10545720469E+03  0.33393102438E+02 -0.98545286104E+02  0.14822140441E+03  0.47000000000E+01 0.  1.
          5    1    4    4  503    0 -0.91733565174E+02 -0.98335160456E+02 -0.61679090375E+02  0.14802449443E+03  0.47000000000E+01 0. -1.
         -5    1    4    4    0  503  0.32315244851E+01  0.30775466484E+02 -0.30257762130E+01  0.31445467233E+02  0.47000000000E+01 0. -1.
<mgrwt>
<rscale>  0 0.16739996E+03</rscale>
<asrwt>0</asrwt>
<pdfrwt beam="1">  1        5 0.13087431E-01 0.16739996E+03</pdfrwt>
<pdfrwt beam="2">  1       -5 0.57712362E-01 0.16739996E+03</pdfrwt>
<totfact> 0.10760050E+02</totfact>
</mgrwt>
</event>
<event>
 8    1  0.3694627E-007  0.1350318E+03  0.7546771E-02  0.1220177E+00
          5   -1    0    0  501    0  0.00000000000E+00  0.00000000000E+00  0.20363619242E+02  0.20898970994E+02  0.47000000000E+01 0. -1.
         -5   -1    0    0    0  501 -0.00000000000E+00 -0.00000000000E+00 -0.89245115781E+03  0.89246353375E+03  0.47000000000E+01 0. -1.
         25    2    1    2    0    0  0.10277062605E+01 -0.51046417385E+02 -0.48252339344E+03  0.50106129931E+03  0.12500722995E+03 0.  0.
         25    2    1    2    0    0 -0.10277062605E+01  0.51046417385E+02 -0.38956414513E+03  0.41230120544E+03  0.12500107170E+03 0.  0.
          5    1    4    4  502    0 -0.11534296339E+02  0.53015980071E+02 -0.54542071332E+02  0.77075687997E+02  0.47000000000E+01 0.  1.
         -5    1    4    4    0  502  0.10506590078E+02 -0.19695626866E+01 -0.33502207380E+03  0.33522551744E+03  0.47000000000E+01 0.  1.
          5    1    3    3  503    0 -0.49324004525E+02 -0.99339131495E+01 -0.34723493311E+03  0.35089275973E+03  0.47000000000E+01 0.  1.
         -5    1    3    3    0  503  0.50351710786E+02 -0.41112504235E+02 -0.13528846033E+03  0.15016853958E+03  0.47000000000E+01 0.  1.
<mgrwt>
<rscale>  0 0.13503042E+03</rscale>
<asrwt>0</asrwt>
<pdfrwt beam="1">  1        5 0.31749981E-02 0.13503185E+03</pdfrwt>
<pdfrwt beam="2">  1       -5 0.13734228E+00 0.13503185E+03</pdfrwt>
<totfact> 0.14050210E+02</totfact>
</mgrwt>
</event>
<event>
 8    1  0.3694627E-007  0.1731515E+03  0.7546771E-02  0.1174619E+00
          5   -1    0    0  501    0  0.00000000000E+00  0.00000000000E+00  0.14235006722E+04  0.14235084313E+04  0.47000000000E+01 0.  1.
         -5   -1    0    0    0  501 -0.00000000000E+00 -0.00000000000E+00 -0.33397658776E+02  0.33726749201E+02  0.47000000000E+01 0.  1.
         25    2    1    2    0    0 -0.11974127062E+03  0.41061598552E+01  0.25004972435E+03  0.30410772213E+03  0.12490720386E+03 0.  0.
         25    2    1    2    0    0  0.11974127062E+03 -0.41061598552E+01  0.11400532891E+04  0.11531274583E+04  0.12500640262E+03 0.  0.
          5    1    3    3  502    0 -0.97234819946E+02 -0.16780696830E+02  0.69202270443E+02  0.12061196554E+03  0.47000000000E+01 0. -1.
         -5    1    3    3    0  502 -0.22506450670E+02  0.20886856686E+02  0.18084745391E+03  0.18349575660E+03  0.47000000000E+01 0. -1.
          5    1    4    4  503    0  0.15104221176E+02 -0.13711506027E+02  0.22872589082E+02  0.31006261080E+02  0.47000000000E+01 0. -1.
         -5    1    4    4    0  503  0.10463704944E+03  0.96053461716E+01  0.11171807000E+04  0.11221211973E+04  0.47000000000E+01 0. -1.
<mgrwt>
<rscale>  0 0.17313357E+03</rscale>
<asrwt>0</asrwt>
<pdfrwt beam="1">  1        5 0.21902604E+00 0.17315147E+03</pdfrwt>
<pdfrwt beam="2">  1       -5 0.51640122E-02 0.17315147E+03</pdfrwt>
<totfact> 0.17232729E+01</totfact>
</mgrwt>
</event>
<event>
 8    1  0.3694627E-007  0.1425606E+03  0.7546771E-02  0.1209930E+00
         -5   -1    0    0    0  501 -0.00000000000E+00  0.00000000000E+00  0.14262762816E+03  0.14270504656E+03  0.47000000000E+01 0.  1.
          5   -1    0    0  501    0  0.00000000000E+00 -0.00000000000E+00 -0.14824910799E+03  0.14832359226E+03  0.47000000000E+01 0.  1.
         25    2    1    2    0    0 -0.60720526912E+02 -0.31803512869E+02  0.26273498631E+02  0.14496149222E+03  0.12500036671E+03 0.  0.
         25    2    1    2    0    0  0.60720526912E+02  0.31803512869E+02 -0.31894978465E+02  0.14606714660E+03  0.12497950170E+03 0.  0.
          5    1    3    3  502    0 -0.56931266549E+02  0.11234063753E+02  0.64637967421E+02  0.86991552071E+02  0.47000000000E+01 0. -1.
         -5    1    3    3    0  502 -0.37892603622E+01 -0.43037576622E+02 -0.38364468790E+02  0.57969940151E+02  0.47000000000E+01 0. -1.
          5    1    4    4  503    0  0.84570152435E+02  0.13500580750E+02 -0.59977611251E+02  0.10466030869E+03  0.47000000000E+01 0. -1.
         -5    1    4    4    0  503 -0.23849625524E+02  0.18302932119E+02  0.28082632786E+02  0.41406837914E+02  0.47000000000E+01 0. -1.
<mgrwt>
<rscale>  0 0.14255607E+03</rscale>
<asrwt>0</asrwt>
<pdfrwt beam="2">  1        5 0.22819240E-01 0.14256064E+03</pdfrwt>
<pdfrwt beam="1">  1       -5 0.21954397E-01 0.14256064E+03</pdfrwt>
<totfact> 0.25880837E+02</totfact>
</mgrwt>
</event>
<event>
 8    1  0.3694627E-007  0.1334294E+03  0.7546771E-02  0.1222456E+00
         -5   -1    0    0    0  501 -0.00000000000E+00  0.00000000000E+00  0.22357886552E+03  0.22362826098E+03  0.47000000000E+01 0.  1.
          5   -1    0    0  501    0  0.00000000000E+00 -0.00000000000E+00 -0.84888243507E+02  0.85018256191E+02  0.47000000000E+01 0.  1.
         25    2    1    2    0    0 -0.41943905831E+02 -0.20401613663E+02  0.10819407060E+03  0.17178287666E+03  0.12501153036E+03 0.  0.
         25    2    1    2    0    0  0.41943905831E+02  0.20401613663E+02  0.30496551414E+02  0.13686364051E+03  0.12500439740E+03 0.  0.
          5    1    3    3  502    0 -0.55443182902E+00 -0.64345647832E+02  0.85517749412E+02  0.10712630515E+03  0.47000000000E+01 0.  1.
         -5    1    3    3    0  502 -0.41389474002E+02  0.43944034169E+02  0.22676321187E+02  0.64656571512E+02  0.47000000000E+01 0.  1.
          5    1    4    4  503    0  0.60431992322E+02  0.38624658940E+02 -0.24443807055E+02  0.75917584772E+02  0.47000000000E+01 0.  1.
         -5    1    4    4    0  503 -0.18488086491E+02 -0.18223045277E+02  0.54940358469E+02  0.60946055738E+02  0.47000000000E+01 0.  1.
<mgrwt>
<rscale>  0 0.13342771E+03</rscale>
<asrwt>0</asrwt>
<pdfrwt beam="2">  1        5 0.13073531E-01 0.13342938E+03</pdfrwt>
<pdfrwt beam="1">  1       -5 0.34410549E-01 0.13342938E+03</pdfrwt>
<totfact> 0.29446643E+02</totfact>
</mgrwt>
</event>
<event>
 8    1  0.3694627E-007  0.1307847E+03  0.7546771E-02  0.1226298E+00
          5   -1    0    0  501    0  0.00000000000E+00  0.00000000000E+00  0.10586862962E+03  0.10597290568E+03  0.47000000000E+01 0.  1.
         -5   -1    0    0    0  501 -0.00000000000E+00 -0.00000000000E+00 -0.17383886529E+03  0.17390238953E+03  0.47000000000E+01 0.  1.
         25    2    1    2    0    0 -0.31575356998E+02  0.21971118788E+02 -0.71488869267E+02  0.14904796134E+03  0.12499961248E+03 0.  0.
         25    2    1    2    0    0  0.31575356998E+02 -0.21971118788E+02  0.35186336022E+01  0.13082733387E+03  0.12499470899E+03 0.  0.
          5    1    4    4  502    0 -0.29262164283E+02 -0.48097394421E+02  0.23971869998E+02  0.61370792400E+02  0.47000000000E+01 0.  1.
         -5    1    4    4    0  502  0.60837521282E+02  0.26126275632E+02 -0.20453236396E+02  0.69456541471E+02  0.47000000000E+01 0.  1.
          5    1    3    3  503    0  0.43229650294E+02  0.16972077322E+02 -0.20074309844E+01  0.46722305726E+02  0.47000000000E+01 0.  1.
         -5    1    3    3    0  503 -0.74805007292E+02  0.49990414662E+01 -0.69481438282E+02  0.10232565562E+03  0.47000000000E+01 0.  1.
<mgrwt>
<rscale>  0 0.13078352E+03</rscale>
<asrwt>0</asrwt>
<pdfrwt beam="1">  1        5 0.16300389E-01 0.13078469E+03</pdfrwt>
<pdfrwt beam="2">  1       -5 0.26757349E-01 0.13078469E+03</pdfrwt>
<totfact> 0.32184217E+02</totfact>
</mgrwt>
</event>
<event>
 8    1  0.3694627E-007  0.1407033E+03  0.7546771E-02  0.1212386E+00
          5   -1    0    0  501    0  0.00000000000E+00  0.00000000000E+00  0.10159750715E+03  0.10170616235E+03  0.47000000000E+01 0. -1.
         -5   -1    0    0    0  501 -0.00000000000E+00 -0.00000000000E+00 -0.20611222396E+03  0.20616580431E+03  0.47000000000E+01 0. -1.
         25    2    1    2    0    0  0.33551988279E+01 -0.64499474503E+02 -0.88597057534E+02  0.16627347058E+03  0.12500395532E+03 0.  0.
         25    2    1    2    0    0 -0.33551988279E+01  0.64499474503E+02 -0.15917659274E+02  0.14159849607E+03  0.12500129057E+03 0.  0.
          5    1    3    3  502    0 -0.21243399908E+02 -0.97054122973E+02 -0.66349278064E+02  0.11956212413E+03  0.47000000000E+01 0. -1.
         -5    1    3    3    0  502  0.24598598736E+02  0.32554648470E+02 -0.22247779469E+02  0.46711346460E+02  0.47000000000E+01 0. -1.
          5    1    4    4  503    0  0.47236189570E+02 -0.95128314889E+01 -0.18395077578E+02  0.51790157821E+02  0.47000000000E+01 0. -1.
         -5    1    4    4    0  503 -0.50591388398E+02  0.74012305992E+02  0.24774183048E+01  0.89808338252E+02  0.47000000000E+01 0. -1.
<mgrwt>
<rscale>  0 0.14070274E+03</rscale>
<asrwt>0</asrwt>
<pdfrwt beam="1">  1        5 0.15642865E-01 0.14070333E+03</pdfrwt>
<pdfrwt beam="2">  1       -5 0.31722052E-01 0.14070333E+03</pdfrwt>
<totfact> 0.25511344E+02</totfact>
</mgrwt>
</event>
<event>
 8    1  0.3694627E-007  0.1263181E+03  0.7546771E-02  0.1233025E+00
          5   -1    0    0  501    0  0.00000000000E+00  0.00000000000E+00  0.45250846317E+03  0.45253287090E+03  0.47000000000E+01 0.  1.
         -5   -1    0    0    0  501 -0.00000000000E+00 -0.00000000000E+00 -0.38110434763E+02  0.38399156733E+02  0.47000000000E+01 0.  1.
         25    2    1    2    0    0  0.18019217065E+02 -0.25536490718E+01  0.13825544918E+03  0.18726940491E+03  0.12499618985E+03 0.  0.
         25    2    1    2    0    0 -0.18019217065E+02  0.25536490718E+01  0.27614257923E+03  0.30366262273E+03  0.12500020429E+03 0.  0.
          5    1    3    3  502    0 -0.38530393481E+02 -0.96548717552E+01  0.26356233070E+01  0.40085462210E+02  0.47000000000E+01 0.  1.
         -5    1    3    3    0  502  0.56549610546E+02  0.71012226834E+01  0.13561982588E+03  0.14718394269E+03  0.47000000000E+01 0.  1.
          5    1    4    4  503    0  0.28194081170E+02  0.14357513634E+01  0.56038110271E+01  0.29162652366E+02  0.47000000000E+01 0.  1.
         -5    1    4    4    0  503 -0.46213298235E+02  0.11178977084E+01  0.27053876820E+03  0.27449997036E+03  0.47000000000E+01 0.  1.
<mgrwt>
<rscale>  0 0.12631711E+03</rscale>
<asrwt>0</asrwt>
<pdfrwt beam="1">  1        5 0.69640779E-01 0.12631811E+03</pdfrwt>
<pdfrwt beam="2">  1       -5 0.58872303E-02 0.12631811E+03</pdfrwt>
<totfact> 0.25796874E+02</totfact>
</mgrwt>
</event>
<event>
 8    1  0.3694627E-007  0.1503008E+03  0.7546771E-02  0.1200104E+00
          5   -1    0    0  501    0  0.00000000000E+00  0.00000000000E+00  0.10530502185E+03  0.10540985545E+03  0.47000000000E+01 0. -1.
         -5   -1    0    0    0  501 -0.00000000000E+00 -0.00000000000E+00 -0.23274214880E+03  0.23278959992E+03  0.47000000000E+01 0. -1.
         25    2    1    2    0    0  0.82237920960E+02 -0.14199182157E+02 -0.11132272227E+03  0.18703727573E+03  0.12500200639E+03 0.  0.
         25    2    1    2    0    0 -0.82237920960E+02  0.14199182157E+02 -0.16114404688E+02  0.15116217964E+03  0.12500255236E+03 0.  0.
          5    1    4    4  502    0 -0.11236811656E+03  0.16652250612E+01 -0.28347579493E+02  0.11599587000E+03  0.47000000000E+01 0.  1.
         -5    1    4    4    0  502  0.30130195603E+02  0.12533957096E+02  0.12233174805E+02  0.35166309635E+02  0.47000000000E+01 0.  1.
          5    1    3    3  503    0  0.75048357044E+02 -0.69109566280E+01 -0.13842788806E+03  0.15768445519E+03  0.47000000000E+01 0. -1.
         -5    1    3    3    0  503  0.71895639162E+01 -0.72882255288E+01  0.27105165793E+02  0.29352820534E+02  0.47000000000E+01 0. -1.
<mgrwt>
<rscale>  0 0.15030069E+03</rscale>
<asrwt>0</asrwt>
<pdfrwt beam="1">  1        5 0.16212487E-01 0.15030080E+03</pdfrwt>
<pdfrwt beam="2">  1       -5 0.35818199E-01 0.15030080E+03</pdfrwt>
<totfact> 0.19172733E+02</totfact>
</mgrwt>
</event>
<event>
 8    1  0.3694627E-007  0.1565164E+03  0.7546771E-02  0.1192687E+00
          5   -1    0    0  501    0  0.00000000000E+00  0.00000000000E+00  0.87913012359E+03  0.87914268705E+03  0.47000000000E+01 0.  1.
         -5   -1    0    0    0  501 -0.00000000000E+00 -0.00000000000E+00 -0.27655431923E+02  0.28051968110E+02  0.47000000000E+01 0.  1.
         25    2    1    2    0    0  0.89829635103E+02 -0.28317153585E+02  0.42894523956E+03  0.45660780077E+03  0.12500176263E+03 0.  0.
         25    2    1    2    0    0 -0.89829635103E+02  0.28317153585E+02  0.42252945211E+03  0.45058685439E+03  0.12500460360E+03 0.  0.
          5    1    4    4  502    0 -0.11471307286E+03  0.40313137859E+02  0.27950279661E+03  0.30484117419E+03  0.47000000000E+01 0.  1.
         -5    1    4    4    0  502  0.24883437760E+02 -0.11995984274E+02  0.14302665550E+03  0.14574568020E+03  0.47000000000E+01 0.  1.
          5    1    3    3  503    0  0.14199830778E+02  0.28216471732E+02  0.26840655043E+03  0.27029977947E+03  0.47000000000E+01 0.  1.
         -5    1    3    3    0  503  0.75629804324E+02 -0.56533625317E+02  0.16053868913E+03  0.18630802130E+03  0.47000000000E+01 0.  1.
<mgrwt>
<rscale>  0 0.15651581E+03</rscale>
<asrwt>0</asrwt>
<pdfrwt beam="1">  1        5 0.13528227E+00 0.15651637E+03</pdfrwt>
<pdfrwt beam="2">  1       -5 0.42861508E-02 0.15651637E+03</pdfrwt>
<totfact> 0.93738092E+01</totfact>
</mgrwt>
</event>
<event>
 8    1  0.3694627E-007  0.1330580E+03  0.7546771E-02  0.1223007E+00
         -5   -1    0    0    0  501 -0.00000000000E+00  0.00000000000E+00  0.17464264280E+03  0.17470587479E+03  0.47000000000E+01 0.  1.
          5   -1    0    0  501    0  0.00000000000E+00 -0.00000000000E+00 -0.12749413209E+03  0.12758073412E+03  0.47000000000E+01 0.  1.
         25    2    1    2    0    0  0.45001246585E+02  0.73788900468E+01  0.92170526903E+02  0.16181806251E+03  0.12494046228E+03 0.  0.
         25    2    1    2    0    0 -0.45001246585E+02 -0.73788900468E+01 -0.45022016192E+02  0.14046854639E+03  0.12499948148E+03 0.  0.
          5    1    4    4  502    0 -0.59819907870E+01  0.36998070680E+02  0.27558676229E+02  0.46756946899E+02  0.47000000000E+01 0.  1.
         -5    1    4    4    0  502 -0.39019255798E+02 -0.44376960727E+02 -0.72580692421E+02  0.93711599489E+02  0.47000000000E+01 0.  1.
          5    1    3    3  503    0  0.21400451717E+02  0.55695422218E+02  0.89636550023E+02  0.10778107668E+03  0.47000000000E+01 0. -1.
         -5    1    3    3    0  503  0.23600794869E+02 -0.48316532171E+02  0.25339768799E+01  0.54036985837E+02  0.47000000000E+01 0. -1.
<mgrwt>
<rscale>  0 0.13304413E+03</rscale>
<asrwt>0</asrwt>
<pdfrwt beam="2">  1        5 0.19626008E-01 0.13305800E+03</pdfrwt>
<pdfrwt beam="1">  1       -5 0.26879624E-01 0.13305800E+03</pdfrwt>
<totfact> 0.22801931E+02</totfact>
</mgrwt>
</event>
<event>
 8    1  0.3694627E-007  0.1378883E+03  0.7546771E-02  0.1216199E+00
         -5   -1    0    0    0  501 -0.00000000000E+00  0.00000000000E+00  0.61571463261E+03  0.61573257085E+03  0.47000000000E+01 0.  1.
          5   -1    0    0  501    0  0.00000000000E+00 -0.00000000000E+00 -0.30938024359E+02  0.31292992047E+02  0.47000000000E+01 0.  1.
         25    2    1    2    0    0  0.26279242922E+02  0.51936580575E+02  0.26315865789E+03  0.29709516499E+03  0.12500020332E+03 0.  0.
         25    2    1    2    0    0 -0.26279242922E+02 -0.51936580575E+02  0.32161795036E+03  0.34993039791E+03  0.12500068150E+03 0.  0.
          5    1    4    4  502    0 -0.11631894952E+02 -0.73036757728E+01 -0.82527855304E+01  0.16698596617E+02  0.47000000000E+01 0. -1.
         -5    1    4    4    0  502 -0.14647347970E+02 -0.44632904802E+02  0.32987073589E+03  0.33323180129E+03  0.47000000000E+01 0. -1.
          5    1    3    3  503    0  0.71053880560E+02  0.98108637838E+01  0.10411285307E+03  0.12651673077E+03  0.47000000000E+01 0. -1.
         -5    1    3    3    0  503 -0.44774637639E+02  0.42125716791E+02  0.15904580482E+03  0.17057843422E+03  0.47000000000E+01 0. -1.
<mgrwt>
<rscale>  0 0.13788817E+03</rscale>
<asrwt>0</asrwt>
<pdfrwt beam="2">  1        5 0.47883809E-02 0.13788828E+03</pdfrwt>
<pdfrwt beam="1">  1       -5 0.94754017E-01 0.13788828E+03</pdfrwt>
<totfact> 0.18362791E+02</totfact>
</mgrwt>
</event>
<event>
 8    1  0.3694627E-007  0.1318812E+03  0.7546771E-02  0.1224692E+00
         -5   -1    0    0    0  501 -0.00000000000E+00  0.00000000000E+00  0.42142790156E+02  0.42404065396E+02  0.47000000000E+01 0.  1.
          5   -1    0    0  501    0  0.00000000000E+00 -0.00000000000E+00 -0.45315956277E+03  0.45318393543E+03  0.47000000000E+01 0.  1.
         25    2    1    2    0    0  0.33102407900E+02  0.25897465219E+02 -0.13008278558E+03  0.18524089607E+03  0.12500484135E+03 0.  0.
         25    2    1    2    0    0 -0.33102407900E+02 -0.25897465219E+02 -0.28093398704E+03  0.31034710475E+03  0.12499988897E+03 0.  0.
          5    1    3    3  502    0  0.39528845421E+02  0.68890237000E+02 -0.49917087328E+02  0.93926566964E+02  0.47000000000E+01 0.  1.
         -5    1    3    3    0  502 -0.64264375208E+01 -0.42992771782E+02 -0.80165698249E+02  0.91314329108E+02  0.47000000000E+01 0.  1.
          5    1    4    4  503    0 -0.56470099298E+02  0.34443052716E+02 -0.15780179753E+03  0.17116861073E+03  0.47000000000E+01 0.  1.
         -5    1    4    4    0  503  0.23367691398E+02 -0.60340517934E+02 -0.12313218951E+03  0.13917849403E+03  0.47000000000E+01 0.  1.
<mgrwt>
<rscale>  0 0.13188006E+03</rscale>
<asrwt>0</asrwt>
<pdfrwt beam="2">  1        5 0.69738826E-01 0.13188123E+03</pdfrwt>
<pdfrwt beam="1">  1       -5 0.65054794E-02 0.13188123E+03</pdfrwt>
<totfact> 0.22077310E+02</totfact>
</mgrwt>
</event>
<event>
 8    1  0.3694627E-007  0.1826748E+03  0.7546771E-02  0.1165240E+00
          5   -1    0    0  501    0  0.00000000000E+00  0.00000000000E+00  0.25620775103E+03  0.25625085695E+03  0.47000000000E+01 0. -1.
         -5   -1    0    0    0  501 -0.00000000000E+00 -0.00000000000E+00 -0.16138120839E+03  0.16144963432E+03  0.47000000000E+01 0. -1.
         25    2    1    2    0    0  0.10648702528E+03 -0.80032755903E+02 -0.44433343282E+02  0.18799768207E+03  0.12499631153E+03 0.  0.
         25    2    1    2    0    0 -0.10648702528E+03  0.80032755903E+02  0.13925988592E+03  0.22970280921E+03  0.12500134463E+03 0.  0.
          5    1    3    3  502    0 -0.26228380503E+01  0.20900474799E+01 -0.50876642694E+02  0.51203225970E+02  0.47000000000E+01 0. -1.
         -5    1    3    3    0  502  0.10910986333E+03 -0.82122803383E+02  0.64432994112E+01  0.13679445610E+03  0.47000000000E+01 0. -1.
          5    1    4    4  503    0 -0.12132058111E+03  0.70335909993E+02  0.15239219014E+03  0.20715041214E+03  0.47000000000E+01 0. -1.
         -5    1    4    4    0  503  0.14833555835E+02  0.96968459101E+01 -0.13132304215E+02  0.22552397063E+02  0.47000000000E+01 0. -1.
<mgrwt>
<rscale>  0 0.18267389E+03</rscale>
<asrwt>0</asrwt>
<pdfrwt beam="1">  1        5 0.39425156E-01 0.18267475E+03</pdfrwt>
<pdfrwt beam="2">  1       -5 0.24836458E-01 0.18267475E+03</pdfrwt>
<totfact> 0.75261722E+01</totfact>
</mgrwt>
</event>
<event>
 8    1  0.3694627E-007  0.1483480E+03  0.7546771E-02  0.1202521E+00
          5   -1    0    0  501    0  0.00000000000E+00  0.00000000000E+00  0.38330301507E+03  0.38333182930E+03  0.47000000000E+01 0. -1.
         -5   -1    0    0    0  501 -0.00000000000E+00 -0.00000000000E+00 -0.91878851347E+02  0.91998985455E+02  0.47000000000E+01 0. -1.
         25    2    1    2    0    0 -0.11751605232E+01  0.79842702264E+02  0.20188323063E-01  0.14833939075E+03  0.12501334463E+03 0.  0.
         25    2    1    2    0    0  0.11751605232E+01 -0.79842702264E+02  0.29140397540E+03  0.32699142401E+03  0.12502350335E+03 0.  0.
          5    1    4    4  502    0  0.38406176022E+01 -0.10198581272E+03  0.13692647821E+03  0.17084146678E+03  0.47000000000E+01 0. -1.
         -5    1    4    4    0  502 -0.26654570791E+01  0.22143110454E+02  0.15447749719E+03  0.15614995722E+03  0.47000000000E+01 0. -1.
          5    1    3    3  503    0 -0.38315362320E+02 -0.65638148460E+00  0.35771753290E+02  0.52632747979E+02  0.47000000000E+01 0.  1.
         -5    1    3    3    0  503  0.37140201797E+02  0.80499083748E+02 -0.35751564966E+02  0.95706642776E+02  0.47000000000E+01 0.  1.
<mgrwt>
<rscale>  0 0.14834581E+03</rscale>
<asrwt>0</asrwt>
<pdfrwt beam="1">  1        5 0.58981152E-01 0.14834795E+03</pdfrwt>
<pdfrwt beam="2">  1       -5 0.14146665E-01 0.14834795E+03</pdfrwt>
<totfact> 0.85971583E+01</totfact>
</mgrwt>
</event>
<event>
 8    1  0.3694627E-007  0.1321705E+03  0.7546771E-02  0.1224271E+00
          5   -1    0    0  501    0  0.00000000000E+00  0.00000000000E+00  0.22916902625E+04  0.22916950821E+04  0.47000000000E+01 0.  1.
         -5   -1    0    0    0  501 -0.00000000000E+00 -0.00000000000E+00 -0.72086952599E+01  0.86055381790E+01  0.47000000000E+01 0.  1.
         25    2    1    2    0    0 -0.59866965146E+01 -0.42525384887E+02  0.92226524938E+03  0.93168732651E+03  0.12499534099E+03 0.  0.
         25    2    1    2    0    0  0.59866965146E+01  0.42525384887E+02  0.13622163179E+04  0.13686132938E+04  0.12499920918E+03 0.  0.
          5    1    4    4  502    0  0.76954079338E+01  0.75999776115E+02  0.12210551291E+04  0.12234512265E+04  0.47000000000E+01 0. -1.
         -5    1    4    4    0  502 -0.17087114192E+01 -0.33474391227E+02  0.14116118877E+03  0.14516206728E+03  0.47000000000E+01 0. -1.
          5    1    3    3  503    0  0.32589927356E+02 -0.72748005140E+01  0.76807211427E+03  0.76881199835E+03  0.47000000000E+01 0. -1.
         -5    1    3    3    0  503 -0.38576623871E+02 -0.35250584373E+02  0.15419313512E+03  0.16287532817E+03  0.47000000000E+01 0. -1.
<mgrwt>
<rscale>  0 0.13216962E+03</rscale>
<asrwt>0</asrwt>
<pdfrwt beam="1">  1        5 0.35267612E+00 0.13217054E+03</pdfrwt>
<pdfrwt beam="2">  1       -5 0.12168483E-02 0.13217054E+03</pdfrwt>
<totfact> 0.23001297E+01</totfact>
</mgrwt>
</event>
<event>
 8    1  0.3694627E-007  0.1320168E+03  0.7546771E-02  0.1224495E+00
         -5   -1    0    0    0  501 -0.00000000000E+00  0.00000000000E+00  0.57770438470E+02  0.57961310898E+02  0.47000000000E+01 0. -1.
          5   -1    0    0  501    0  0.00000000000E+00 -0.00000000000E+00 -0.35659685232E+03  0.35662782433E+03  0.47000000000E+01 0. -1.
         25    2    1    2    0    0 -0.36797232369E+02 -0.21208295861E+02 -0.67564925524E+02  0.14829924441E+03  0.12499527435E+03 0.  0.
         25    2    1    2    0    0  0.36797232369E+02  0.21208295861E+02 -0.23126148833E+03  0.26628989082E+03  0.12499840736E+03 0.  0.
          5    1    4    4  502    0 -0.43641003712E+02  0.23857199819E+02 -0.69993311482E+02  0.85993353467E+02  0.47000000000E+01 0. -1.
         -5    1    4    4    0  502  0.80438236081E+02 -0.26489039582E+01 -0.16126817685E+03  0.18029653735E+03  0.47000000000E+01 0. -1.
          5    1    3    3  503    0 -0.14488498453E+02 -0.42143198026E+02  0.24569278522E+02  0.51104844921E+02  0.47000000000E+01 0.  1.
         -5    1    3    3    0  503 -0.22308733916E+02  0.20934902165E+02 -0.92134204046E+02  0.97194399493E+02  0.47000000000E+01 0.  1.
<mgrwt>
<rscale>  0 0.13201604E+03</rscale>
<asrwt>0</asrwt>
<pdfrwt beam="2">  1        5 0.54878118E-01 0.13201678E+03</pdfrwt>
<pdfrwt beam="1">  1       -5 0.89048250E-02 0.13201678E+03</pdfrwt>
<totfact> 0.21888322E+02</totfact>
</mgrwt>
</event>
<event>
 8    1  0.3694627E-007  0.1520407E+03  0.7546771E-02  0.1197989E+00
         -5   -1    0    0    0  501 -0.00000000000E+00  0.00000000000E+00  0.21462753846E+03  0.21467899353E+03  0.47000000000E+01 0. -1.
          5   -1    0    0  501    0  0.00000000000E+00 -0.00000000000E+00 -0.10832573056E+03  0.10842764362E+03  0.47000000000E+01 0. -1.
         25    2    1    2    0    0 -0.81298005596E+02 -0.29685729665E+02  0.39804554985E+02  0.15716006035E+03  0.12499709482E+03 0.  0.
         25    2    1    2    0    0  0.81298005596E+02  0.29685729665E+02  0.66497252917E+02  0.16594657680E+03  0.12500309375E+03 0.  0.
          5    1    3    3  502    0 -0.68842772955E+02 -0.76488789498E+02  0.21939895699E+02  0.10532478972E+03  0.47000000000E+01 0.  1.
         -5    1    3    3    0  502 -0.12455232641E+02  0.46803059833E+02  0.17864659286E+02  0.51835270630E+02  0.47000000000E+01 0.  1.
          5    1    4    4  503    0  0.10910017509E+03  0.13171321497E+02  0.24419776645E+02  0.11267096967E+03  0.47000000000E+01 0.  1.
         -5    1    4    4    0  503 -0.27802169495E+02  0.16514408168E+02  0.42077476272E+02  0.53275607131E+02  0.47000000000E+01 0.  1.
<mgrwt>
<rscale>  0 0.15203949E+03</rscale>
<asrwt>0</asrwt>
<pdfrwt beam="2">  1        5 0.16677295E-01 0.15204072E+03</pdfrwt>
<pdfrwt beam="1">  1       -5 0.33031418E-01 0.15204072E+03</pdfrwt>
<totfact> 0.21494803E+02</totfact>
</mgrwt>
</event>
<event>
 8    1  0.3694627E-007  0.1451112E+03  0.7546771E-02  0.1206613E+00
          5   -1    0    0  501    0  0.00000000000E+00  0.00000000000E+00  0.25649928666E+03  0.25654234360E+03  0.47000000000E+01 0. -1.
         -5   -1    0    0    0  501 -0.00000000000E+00 -0.00000000000E+00 -0.86294134269E+02  0.86422031967E+02  0.47000000000E+01 0. -1.
         25    2    1    2    0    0  0.21565175695E+02 -0.70475860138E+02  0.46779626484E+02  0.15246209425E+03  0.12499781224E+03 0.  0.
         25    2    1    2    0    0 -0.21565175695E+02  0.70475860138E+02  0.12342552591E+03  0.19050228131E+03  0.12500142029E+03 0.  0.
          5    1    4    4  502    0 -0.37963705797E+02 -0.15923044581E+02  0.33185677660E+01  0.41567886627E+02  0.47000000000E+01 0.  1.
         -5    1    4    4    0  502  0.16398530102E+02  0.86398904718E+02  0.12010695814E+03  0.14893439468E+03  0.47000000000E+01 0.  1.
          5    1    3    3  503    0 -0.24506616768E+01 -0.10310908767E+03  0.25028589260E+02  0.10623563425E+03  0.47000000000E+01 0. -1.
         -5    1    3    3    0  503  0.24015837372E+02  0.32633227537E+02  0.21751037224E+02  0.46226460004E+02  0.47000000000E+01 0. -1.
<mgrwt>
<rscale>  0 0.14511042E+03</rscale>
<asrwt>0</asrwt>
<pdfrwt beam="1">  1        5 0.39474579E-01 0.14511119E+03</pdfrwt>
<pdfrwt beam="2">  1       -5 0.13289171E-01 0.14511119E+03</pdfrwt>
<totfact> 0.22294978E+02</totfact>
</mgrwt>
</event>
<event>
 8    1  0.3694627E-007  0.1348335E+03  0.7546771E-02  0.1220458E+00
         -5   -1    0    0    0  501 -0.00000000000E+00  0.00000000000E+00  0.12565503581E+03  0.12574290447E+03  0.47000000000E+01 0.  1.
          5   -1    0    0  501    0  0.00000000000E+00 -0.00000000000E+00 -0.15860581539E+03  0.15867543816E+03  0.47000000000E+01 0.  1.
         25    2    1    2    0    0 -0.50533999940E+02  0.13705556224E+01  0.25917847537E+02  0.13729396985E+03  0.12498934260E+03 0.  0.
         25    2    1    2    0    0  0.50533999940E+02 -0.13705556224E+01 -0.58868627113E+02  0.14712437278E+03  0.12499800892E+03 0.  0.
          5    1    4    4  502    0  0.26249968135E+02 -0.61438580805E+02 -0.45026654721E+02  0.80704706640E+02  0.47000000000E+01 0. -1.
         -5    1    4    4    0  502  0.24284031805E+02  0.60068025183E+02 -0.13841972392E+02  0.66419666138E+02  0.47000000000E+01 0. -1.
          5    1    3    3  503    0  0.30981537278E+02 -0.32562835423E+02  0.14088617328E+00  0.45191854928E+02  0.47000000000E+01 0.  1.
         -5    1    3    3    0  503 -0.81515537219E+02  0.33933391046E+02  0.25776961364E+02  0.92102114922E+02  0.47000000000E+01 0.  1.
<mgrwt>
<rscale>  0 0.13483147E+03</rscale>
<asrwt>0</asrwt>
<pdfrwt beam="2">  1        5 0.24413010E-01 0.13483347E+03</pdfrwt>
<pdfrwt beam="1">  1       -5 0.19343659E-01 0.13483347E+03</pdfrwt>
<totfact> 0.28309827E+02</totfact>
</mgrwt>
</event>
<event>
 8    1  0.3694627E-007  0.1551655E+03  0.7546771E-02  0.1194267E+00
         -5   -1    0    0    0  501 -0.00000000000E+00  0.00000000000E+00  0.20993558004E+03  0.20998818483E+03  0.47000000000E+01 0. -1.
          5   -1    0    0  501    0  0.00000000000E+00 -0.00000000000E+00 -0.13798343521E+03  0.13806345785E+03  0.47000000000E+01 0. -1.
         25    2    1    2    0    0 -0.11401553947E+02 -0.91210668823E+02  0.10763153387E+03  0.18884089639E+03  0.12500782187E+03 0.  0.
         25    2    1    2    0    0  0.11401553947E+02  0.91210668823E+02 -0.35679389041E+02  0.15921074628E+03  0.12500264553E+03 0.  0.
          5    1    3    3  502    0  0.20272530012E+02 -0.70919783276E+02 -0.86228168873E+00  0.73914982668E+02  0.47000000000E+01 0. -1.
         -5    1    3    3    0  502 -0.31674083959E+02 -0.20290885547E+02  0.10849381556E+03  0.11492591373E+03  0.47000000000E+01 0. -1.
          5    1    4    4  503    0  0.32487967885E+02 -0.12060219560E+02  0.19610835279E+02  0.40094785365E+02  0.47000000000E+01 0. -1.
         -5    1    4    4    0  503 -0.21086413937E+02  0.10327088838E+03 -0.55290224319E+02  0.11911596092E+03  0.47000000000E+01 0. -1.
<mgrwt>
<rscale>  0 0.15516447E+03</rscale>
<asrwt>0</asrwt>
<pdfrwt beam="2">  1        5 0.21238423E-01 0.15516552E+03</pdfrwt>
<pdfrwt beam="1">  1       -5 0.32307984E-01 0.15516552E+03</pdfrwt>
<totfact> 0.14431516E+02</totfact>
</mgrwt>
</event>
<event>
 8    1  0.3694627E-007  0.1942178E+03  0.7546771E-02  0.1154713E+00
          5   -1    0    0  501    0  0.00000000000E+00  0.00000000000E+00  0.14098713493E+03  0.14106545366E+03  0.47000000000E+01 0.  1.
         -5   -1    0    0    0  501 -0.00000000000E+00 -0.00000000000E+00 -0.27091747148E+03  0.27095823728E+03  0.47000000000E+01 0.  1.
         25    2    1    2    0    0 -0.14612506517E+03  0.27237167256E+02 -0.88550970750E+02  0.21344675900E+03  0.12499538613E+03 0.  0.
         25    2    1    2    0    0  0.14612506517E+03 -0.27237167256E+02 -0.41379365798E+02  0.19857693194E+03  0.12500459205E+03 0.  0.
          5    1    3    3  502    0 -0.84084575056E+02 -0.75322732049E+01  0.16844711283E+02  0.86213602176E+02  0.47000000000E+01 0. -1.
         -5    1    3    3    0  502 -0.62040490116E+02  0.34769440461E+02 -0.10539568203E+03  0.12723315682E+03  0.47000000000E+01 0. -1.
          5    1    4    4  503    0  0.73310836020E+02 -0.30533747471E+02  0.40152762427E+02  0.89112977411E+02  0.47000000000E+01 0.  1.
         -5    1    4    4    0  503  0.72814229153E+02  0.32965802153E+01 -0.81532128224E+02  0.10946395453E+03  0.47000000000E+01 0.  1.
<mgrwt>
<rscale>  0 0.19421630E+03</rscale>
<asrwt>0</asrwt>
<pdfrwt beam="1">  1        5 0.21699489E-01 0.19421778E+03</pdfrwt>
<pdfrwt beam="2">  1       -5 0.41688771E-01 0.19421778E+03</pdfrwt>
<totfact> 0.88332474E+01</totfact>
</mgrwt>
</event>
<event>
 8    1  0.3694627E-007  0.1328200E+03  0.7546771E-02  0.1223331E+00
         -5   -1    0    0    0  501 -0.00000000000E+00  0.00000000000E+00  0.69727497361E+03  0.69729081367E+03  0.47000000000E+01 0. -1.
          5   -1    0    0  501    0  0.00000000000E+00 -0.00000000000E+00 -0.25212480282E+02  0.25646815825E+02  0.47000000000E+01 0. -1.
         25    2    1    2    0    0 -0.44840281917E+02 -0.22007160294E+01  0.36341486987E+03  0.38692574237E+03  0.12500267369E+03 0.  0.
         25    2    1    2    0    0  0.44840281917E+02  0.22007160294E+01  0.30864762346E+03  0.33601188713E+03  0.12500055516E+03 0.  0.
          5    1    3    3  502    0 -0.14168023714E+02  0.51339682521E+02  0.75987611699E+02  0.92912340564E+02  0.47000000000E+01 0.  1.
         -5    1    3    3    0  502 -0.30672258203E+02 -0.53540398550E+02  0.28742725817E+03  0.29401340180E+03  0.47000000000E+01 0.  1.
          5    1    4    4  503    0  0.24125871713E+02 -0.59942259350E+02  0.12178722545E+03  0.13794691162E+03  0.47000000000E+01 0. -1.
         -5    1    4    4    0  503  0.20714410204E+02  0.62142975380E+02  0.18686039801E+03  0.19806497551E+03  0.47000000000E+01 0. -1.
<mgrwt>
<rscale>  0 0.13281954E+03</rscale>
<asrwt>0</asrwt>
<pdfrwt beam="2">  1        5 0.39134722E-02 0.13282004E+03</pdfrwt>
<pdfrwt beam="1">  1       -5 0.10730770E+00 0.13282004E+03</pdfrwt>
<totfact> 0.18667513E+02</totfact>
</mgrwt>
</event>
<event>
 8    1  0.3694627E-007  0.1281440E+03  0.7546771E-02  0.1230239E+00
         -5   -1    0    0    0  501 -0.00000000000E+00  0.00000000000E+00  0.32556727124E+03  0.32560119488E+03  0.47000000000E+01 0. -1.
          5   -1    0    0  501    0  0.00000000000E+00 -0.00000000000E+00 -0.50306767697E+02  0.50525843646E+02  0.47000000000E+01 0. -1.
         25    2    1    2    0    0  0.10142404100E+02  0.26319726670E+02  0.13402979954E+03  0.18542574371E+03  0.12499249134E+03 0.  0.
         25    2    1    2    0    0 -0.10142404100E+02 -0.26319726670E+02  0.14123070400E+03  0.19070129481E+03  0.12500110286E+03 0.  0.
          5    1    3    3  502    0 -0.52655855936E+02  0.36436320929E+02  0.71703495600E+02  0.96248251561E+02  0.47000000000E+01 0. -1.
         -5    1    3    3    0  502  0.62798260037E+02 -0.10116594259E+02  0.62326303943E+02  0.89177492151E+02  0.47000000000E+01 0. -1.
          5    1    4    4  503    0  0.53374393007E+02 -0.34127111993E+02  0.62274469760E+02  0.88958896046E+02  0.47000000000E+01 0.  1.
         -5    1    4    4    0  503 -0.63516797108E+02  0.78073853235E+01  0.78956234244E+02  0.10174239876E+03  0.47000000000E+01 0.  1.
<mgrwt>
<rscale>  0 0.12814185E+03</rscale>
<asrwt>0</asrwt>
<pdfrwt beam="2">  1        5 0.77589643E-02 0.12814395E+03</pdfrwt>
<pdfrwt beam="1">  1       -5 0.50106733E-01 0.12814395E+03</pdfrwt>
<totfact> 0.33313223E+02</totfact>
</mgrwt>
</event>
<event>
 8    1  0.3694627E-007  0.1393171E+03  0.7546771E-02  0.1214251E+00
          5   -1    0    0  501    0  0.00000000000E+00  0.00000000000E+00  0.56763392949E+02  0.56957640217E+02  0.47000000000E+01 0. -1.
         -5   -1    0    0    0  501 -0.00000000000E+00 -0.00000000000E+00 -0.34113648163E+03  0.34116885717E+03  0.47000000000E+01 0. -1.
         25    2    1    2    0    0  0.61308038023E+02 -0.50505556808E+01 -0.14205700407E+03  0.19897096371E+03  0.12500027342E+03 0.  0.
         25    2    1    2    0    0 -0.61308038023E+02  0.50505556808E+01 -0.14231608461E+03  0.19915553367E+03  0.12499950005E+03 0.  0.
          5    1    4    4  502    0 -0.68681076938E+02 -0.37430911844E+02 -0.13364793297E+03  0.15492586445E+03  0.47000000000E+01 0. -1.
         -5    1    4    4    0  502  0.73730389151E+01  0.42481467524E+02 -0.86681516427E+01  0.44229669214E+02  0.47000000000E+01 0. -1.
          5    1    3    3  503    0  0.23150979415E+02 -0.32520989955E+02 -0.14611774388E+03  0.15154559615E+03  0.47000000000E+01 0. -1.
         -5    1    3    3    0  503  0.38157058608E+02  0.27470434274E+02  0.40607398074E+01  0.47425367564E+02  0.47000000000E+01 0. -1.
<mgrwt>
<rscale>  0 0.13931692E+03</rscale>
<asrwt>0</asrwt>
<pdfrwt beam="1">  1        5 0.87502624E-02 0.13931709E+03</pdfrwt>
<pdfrwt beam="2">  1       -5 0.52499967E-01 0.13931709E+03</pdfrwt>
<totfact> 0.25265912E+02</totfact>
</mgrwt>
</event>
<event>
 8    1  0.3694627E-007  0.1853717E+03  0.7546771E-02  0.1162703E+00
          5   -1    0    0  501    0  0.00000000000E+00  0.00000000000E+00  0.85648655422E+03  0.85649944983E+03  0.47000000000E+01 0. -1.
         -5   -1    0    0    0  501 -0.00000000000E+00 -0.00000000000E+00 -0.48086427247E+02  0.48315571872E+02  0.47000000000E+01 0. -1.
         25    2    1    2    0    0 -0.67947687523E+02  0.11883076543E+03  0.21883945601E+03  0.28679848704E+03  0.12500010243E+03 0.  0.
         25    2    1    2    0    0  0.67947687523E+02 -0.11883076543E+03  0.58956067096E+03  0.61801653466E+03  0.12500005328E+03 0.  0.
          5    1    4    4  502    0 -0.16006375880E+02 -0.83891096514E+02  0.19247156939E+03  0.21062126000E+03  0.47000000000E+01 0. -1.
         -5    1    4    4    0  502  0.83954063403E+02 -0.34939668916E+02  0.39708910158E+03  0.40739527466E+03  0.47000000000E+01 0. -1.
          5    1    3    3  503    0 -0.96853025786E+02  0.12100475645E+03  0.17262421547E+03  0.23204281815E+03  0.47000000000E+01 0. -1.
         -5    1    3    3    0  503  0.28905338263E+02 -0.21739910243E+01  0.46215240542E+02  0.54755668889E+02  0.47000000000E+01 0. -1.
<mgrwt>
<rscale>  0 0.18537168E+03</rscale>
<asrwt>0</asrwt>
<pdfrwt beam="1">  1        5 0.13178577E+00 0.18537169E+03</pdfrwt>
<pdfrwt beam="2">  1       -5 0.74165311E-02 0.18537169E+03</pdfrwt>
<totfact> 0.41882058E+01</totfact>
</mgrwt>
</event>
<event>
 8    1  0.3694627E-007  0.2019708E+03  0.7546771E-02  0.1148089E+00
          5   -1    0    0  501    0  0.00000000000E+00  0.00000000000E+00  0.31086096307E+03  0.31089649139E+03  0.47000000000E+01 0. -1.
         -5   -1    0    0    0  501 -0.00000000000E+00 -0.00000000000E+00 -0.14591921032E+03  0.14599488327E+03  0.47000000000E+01 0. -1.
         25    2    1    2    0    0  0.13087258049E+03  0.89660259926E+02  0.97800741317E+01  0.20220749298E+03  0.12500250332E+03 0.  0.
         25    2    1    2    0    0 -0.13087258049E+03 -0.89660259926E+02  0.15516167861E+03  0.25468388167E+03  0.12498855363E+03 0.  0.
          5    1    3    3  502    0  0.11339153878E+03  0.63574214643E+02  0.59634783382E+02  0.14310038164E+03  0.47000000000E+01 0.  1.
         -5    1    3    3    0  502  0.17481041704E+02  0.26086045283E+02 -0.49854709250E+02  0.59107111349E+02  0.47000000000E+01 0.  1.
          5    1    4    4  503    0  0.92799379134E+01  0.20455049621E+02  0.11271055826E+02  0.25566638459E+02  0.47000000000E+01 0. -1.
         -5    1    4    4    0  503 -0.14015251840E+03 -0.11011530955E+03  0.14389062279E+03  0.22911724321E+03  0.47000000000E+01 0. -1.
<mgrwt>
<rscale>  0 0.20196868E+03</rscale>
<asrwt>0</asrwt>
<pdfrwt beam="1">  1        5 0.47833318E-01 0.20197084E+03</pdfrwt>
<pdfrwt beam="2">  1       -5 0.22457663E-01 0.20197084E+03</pdfrwt>
<totfact> 0.62690408E+01</totfact>
</mgrwt>
</event>
<event>
 8    1  0.3694627E-007  0.1459118E+03  0.7546771E-02  0.1205590E+00
          5   -1    0    0  501    0  0.00000000000E+00  0.00000000000E+00  0.11723696272E+03  0.11733113580E+03  0.47000000000E+01 0.  1.
         -5   -1    0    0    0  501 -0.00000000000E+00 -0.00000000000E+00 -0.19006070773E+03  0.19011881186E+03  0.47000000000E+01 0.  1.
         25    2    1    2    0    0 -0.74335583494E+02  0.11809476483E+02 -0.69219325117E+02  0.16149366581E+03  0.12499458555E+03 0.  0.
         25    2    1    2    0    0  0.74335583494E+02 -0.11809476483E+02 -0.36044198908E+01  0.14595628186E+03  0.12500000665E+03 0.  0.
          5    1    4    4  502    0  0.72915387773E+02 -0.56188107516E+02  0.21619650395E+02  0.94674476411E+02  0.47000000000E+01 0. -1.
         -5    1    4    4    0  502  0.14201957204E+01  0.44378631033E+02 -0.25224070286E+02  0.51281805448E+02  0.47000000000E+01 0. -1.
          5    1    3    3  503    0  0.19090049872E+02 -0.14595644981E+02  0.18402534173E+02  0.30630150514E+02  0.47000000000E+01 0.  1.
         -5    1    3    3    0  503 -0.93425633366E+02  0.26405121464E+02 -0.87621859290E+02  0.13086351529E+03  0.47000000000E+01 0.  1.
<mgrwt>
<rscale>  0 0.14591061E+03</rscale>
<asrwt>0</asrwt>
<pdfrwt beam="1">  1        5 0.18048169E-01 0.14591177E+03</pdfrwt>
<pdfrwt beam="2">  1       -5 0.29251823E-01 0.14591177E+03</pdfrwt>
<totfact> 0.23307635E+02</totfact>
</mgrwt>
</event>
<event>
 8    1  0.3694627E-007  0.1664876E+03  0.7546771E-02  0.1181562E+00
          5   -1    0    0  501    0  0.00000000000E+00  0.00000000000E+00  0.38195866343E+03  0.38198757908E+03  0.47000000000E+01 0. -1.
         -5   -1    0    0    0  501 -0.00000000000E+00 -0.00000000000E+00 -0.82095756765E+02  0.82230184718E+02  0.47000000000E+01 0. -1.
         25    2    1    2    0    0 -0.96586353637E+02  0.52580020519E+02  0.70486546613E+02  0.18078939399E+03  0.12499147754E+03 0.  0.
         25    2    1    2    0    0  0.96586353637E+02 -0.52580020519E+02  0.22937636005E+03  0.28342836981E+03  0.12499817596E+03 0.  0.
          5    1    3    3  502    0 -0.18696190278E+02  0.22186918965E+02 -0.35257770699E+02  0.45902149174E+02  0.47000000000E+01 0.  1.
         -5    1    3    3    0  502 -0.77890163359E+02  0.30393101554E+02  0.10574431731E+03  0.13488724482E+03  0.47000000000E+01 0.  1.
          5    1    4    4  503    0  0.11970460194E+03 -0.13226632289E+02  0.17000875219E+03  0.20839674026E+03  0.47000000000E+01 0. -1.
         -5    1    4    4    0  503 -0.23118248305E+02 -0.39353388229E+02  0.59367607863E+02  0.75031629552E+02  0.47000000000E+01 0. -1.
<mgrwt>
<rscale>  0 0.16648636E+03</rscale>
<asrwt>0</asrwt>
<pdfrwt beam="1">  1        5 0.58775436E-01 0.16648762E+03</pdfrwt>
<pdfrwt beam="2">  1       -5 0.12642681E-01 0.16648762E+03</pdfrwt>
<totfact> 0.10981668E+02</totfact>
</mgrwt>
</event>
<event>
 8    1  0.3694627E-007  0.1252485E+03  0.7546771E-02  0.1234683E+00
          5   -1    0    0  501    0  0.00000000000E+00  0.00000000000E+00  0.32183309820E+03  0.32186741540E+03  0.47000000000E+01 0. -1.
         -5   -1    0    0    0  501 -0.00000000000E+00 -0.00000000000E+00 -0.52361782524E+02  0.52572295642E+02  0.47000000000E+01 0. -1.
         25    2    1    2    0    0 -0.55834837413E+01 -0.55462777425E+01  0.84615845864E+02  0.15114903465E+03  0.12499701124E+03 0.  0.
         25    2    1    2    0    0  0.55834837413E+01  0.55462777425E+01  0.18485546981E+03  0.22329067639E+03  0.12500097981E+03 0.  0.
          5    1    4    4  502    0 -0.24314760683E+02 -0.48898890414E+02  0.47735774920E+02  0.72684959091E+02  0.47000000000E+01 0. -1.
         -5    1    4    4    0  502  0.29898244425E+02  0.54445168156E+02  0.13711969489E+03  0.15060571730E+03  0.47000000000E+01 0. -1.
          5    1    3    3  503    0 -0.86382551175E+01 -0.10245933354E+02  0.11704585039E+03  0.11790428192E+03  0.47000000000E+01 0. -1.
         -5    1    3    3    0  503  0.30547713762E+01  0.46996556119E+01 -0.32430004524E+02  0.33244752736E+02  0.47000000000E+01 0. -1.
<mgrwt>
<rscale>  0 0.12524749E+03</rscale>
<asrwt>0</asrwt>
<pdfrwt beam="1">  1        5 0.49531617E-01 0.12524848E+03</pdfrwt>
<pdfrwt beam="2">  1       -5 0.80744920E-02 0.12524848E+03</pdfrwt>
<totfact> 0.31620439E+02</totfact>
</mgrwt>
</event>
<event>
 8    1  0.3694627E-007  0.1585800E+03  0.7546771E-02  0.1190316E+00
         -5   -1    0    0    0  501 -0.00000000000E+00  0.00000000000E+00  0.23182106136E+03  0.23186870097E+03  0.47000000000E+01 0.  1.
          5   -1    0    0  501    0  0.00000000000E+00 -0.00000000000E+00 -0.12297391631E+03  0.12306369933E+03  0.47000000000E+01 0.  1.
         25    2    1    2    0    0 -0.14681925320E+02  0.96439059506E+02  0.11557754194E+03  0.19620960678E+03  0.12499596178E+03 0.  0.
         25    2    1    2    0    0  0.14681925320E+02 -0.96439059506E+02 -0.67303968929E+01  0.15872279352E+03  0.12502630047E+03 0.  0.
          5    1    3    3  502    0 -0.52965437536E+01  0.33577867838E+02 -0.24600969484E+02  0.42223503926E+02  0.47000000000E+01 0.  1.
         -5    1    3    3    0  502 -0.93853815660E+01  0.62861191668E+02  0.14017851143E+03  0.15398610285E+03  0.47000000000E+01 0.  1.
          5    1    4    4  503    0  0.12026652281E+02  0.27508403279E+02 -0.15942559156E+02  0.34316290715E+02  0.47000000000E+01 0.  1.
         -5    1    4    4    0  503  0.26552730389E+01 -0.12394746278E+03  0.92121622629E+01  0.12440650280E+03  0.47000000000E+01 0.  1.
<mgrwt>
<rscale>  0 0.15857405E+03</rscale>
<asrwt>0</asrwt>
<pdfrwt beam="2">  1        5 0.18929635E-01 0.15858003E+03</pdfrwt>
<pdfrwt beam="1">  1       -5 0.35675350E-01 0.15858003E+03</pdfrwt>
<totfact> 0.14781734E+02</totfact>
</mgrwt>
</event>
<event>
 8    1  0.3694627E-007  0.1322691E+03  0.7546771E-02  0.1224135E+00
          5   -1    0    0  501    0  0.00000000000E+00  0.00000000000E+00  0.18078098677E+03  0.18084207248E+03  0.47000000000E+01 0.  1.
         -5   -1    0    0    0  501 -0.00000000000E+00 -0.00000000000E+00 -0.98448890943E+02  0.98561017283E+02  0.47000000000E+01 0.  1.
         25    2    1    2    0    0  0.31078026087E+02  0.30048954348E+02  0.22167824577E+02  0.13411385035E+03  0.12500531607E+03 0.  0.
         25    2    1    2    0    0 -0.31078026087E+02 -0.30048954348E+02  0.60164271249E+02  0.14528923941E+03  0.12498175943E+03 0.  0.
          5    1    4    4  502    0  0.11292902939E+02 -0.49266354213E+02 -0.18289449964E+02  0.53956438858E+02  0.47000000000E+01 0.  1.
         -5    1    4    4    0  502 -0.42370929026E+02  0.19217399865E+02  0.78453721213E+02  0.91332800550E+02  0.47000000000E+01 0.  1.
          5    1    3    3  503    0 -0.24058265526E+02 -0.33543456644E+02 -0.11862917203E+02  0.43206277649E+02  0.47000000000E+01 0. -1.
         -5    1    3    3    0  503  0.55136291613E+02  0.63592410992E+02  0.34030741779E+02  0.90907572702E+02  0.47000000000E+01 0. -1.
<mgrwt>
<rscale>  0 0.13226352E+03</rscale>
<asrwt>0</asrwt>
<pdfrwt beam="1">  1        5 0.27825783E-01 0.13226909E+03</pdfrwt>
<pdfrwt beam="2">  1       -5 0.15159307E-01 0.13226909E+03</pdfrwt>
<totfact> 0.34181245E+02</totfact>
</mgrwt>
</event>
<event>
 8    1  0.3694627E-007  0.1333974E+03  0.7546771E-02  0.1222503E+00
         -5   -1    0    0    0  501 -0.00000000000E+00  0.00000000000E+00  0.70117933595E+02  0.70275277385E+02  0.47000000000E+01 0. -1.
          5   -1    0    0  501    0  0.00000000000E+00 -0.00000000000E+00 -0.27695769436E+03  0.27699757122E+03  0.47000000000E+01 0. -1.
         25    2    1    2    0    0 -0.42743248390E+02  0.18496572340E+02 -0.52700455738E+02  0.14343014879E+03  0.12500304427E+03 0.  0.
         25    2    1    2    0    0  0.42743248390E+02 -0.18496572340E+02 -0.15413930503E+03  0.20384269982E+03  0.12499524968E+03 0.  0.
          5    1    4    4  502    0  0.11144202221E+02 -0.69405287504E+02 -0.62077805453E+02  0.93899047421E+02  0.47000000000E+01 0.  1.
         -5    1    4    4    0  502  0.31599046169E+02  0.50908715164E+02 -0.92061499573E+02  0.10994365240E+03  0.47000000000E+01 0.  1.
          5    1    3    3  503    0 -0.65715563323E+02 -0.18564295905E+02  0.75986064652E+01  0.68869421121E+02  0.47000000000E+01 0. -1.
         -5    1    3    3    0  503  0.22972314933E+02  0.37060868245E+02 -0.60299062203E+02  0.74560727672E+02  0.47000000000E+01 0. -1.
<mgrwt>
<rscale>  0 0.13339559E+03</rscale>
<asrwt>0</asrwt>
<pdfrwt beam="2">  1        5 0.42624046E-01 0.13339741E+03</pdfrwt>
<pdfrwt beam="1">  1       -5 0.10802545E-01 0.13339741E+03</pdfrwt>
<totfact> 0.26723758E+02</totfact>
</mgrwt>
</event>
<event>
 8    1  0.3694627E-007  0.1582000E+03  0.7546771E-02  0.1190748E+00
          5   -1    0    0  501    0  0.00000000000E+00  0.00000000000E+00  0.18918195346E+03  0.18924032740E+03  0.47000000000E+01 0. -1.
         -5   -1    0    0    0  501 -0.00000000000E+00 -0.00000000000E+00 -0.14066359115E+03  0.14074208992E+03  0.47000000000E+01 0. -1.
         25    2    1    2    0    0  0.58297437210E+02  0.77481639260E+02 -0.16287362543E+02  0.15902332335E+03  0.12498457339E+03 0.  0.
         25    2    1    2    0    0 -0.58297437210E+02 -0.77481639260E+02  0.64805724852E+02  0.17095909396E+03  0.12500093690E+03 0.  0.
          5    1    4    4  502    0  0.31789620689E+02 -0.12621020477E+02 -0.11253575622E+02  0.36312575035E+02  0.47000000000E+01 0.  1.
         -5    1    4    4    0  502 -0.90087057898E+02 -0.64860618783E+02  0.76059300474E+02  0.13464651892E+03  0.47000000000E+01 0.  1.
          5    1    3    3  503    0 -0.17387982629E+01  0.79072041942E+02 -0.46250551698E+02  0.91742110117E+02  0.47000000000E+01 0.  1.
         -5    1    3    3    0  503  0.60036235473E+02 -0.15904026820E+01  0.29963189154E+02  0.67281213237E+02  0.47000000000E+01 0.  1.
<mgrwt>
<rscale>  0 0.15819674E+03</rscale>
<asrwt>0</asrwt>
<pdfrwt beam="1">  1        5 0.29115445E-01 0.15819997E+03</pdfrwt>
<pdfrwt beam="2">  1       -5 0.21651081E-01 0.15819997E+03</pdfrwt>
<totfact> 0.17195710E+02</totfact>
</mgrwt>
</event>
<event>
 8    1  0.3694627E-007  0.1263751E+03  0.7546771E-02  0.1232944E+00
         -5   -1    0    0    0  501 -0.00000000000E+00  0.00000000000E+00  0.48244172283E+03  0.48246461624E+03  0.47000000000E+01 0.  1.
          5   -1    0    0  501    0  0.00000000000E+00 -0.00000000000E+00 -0.38849411618E+02  0.39132681777E+02  0.47000000000E+01 0.  1.
         25    2    1    2    0    0 -0.16862860988E+02 -0.78355413206E+01  0.32337250570E+03  0.34718933670E+03  0.12499962516E+03 0.  0.
         25    2    1    2    0    0  0.16862860988E+02  0.78355413206E+01  0.12021980551E+03  0.17440796132E+03  0.12497833230E+03 0.  0.
          5    1    4    4  502    0 -0.51365983638E+02 -0.94648995334E+01  0.71519317581E+02  0.88685688730E+02  0.47000000000E+01 0. -1.
         -5    1    4    4    0  502  0.68228844626E+02  0.17300440854E+02  0.48700487930E+02  0.85722272586E+02  0.47000000000E+01 0. -1.
          5    1    3    3  503    0 -0.40700202641E+02 -0.55703345418E+02  0.22144759049E+03  0.23199244496E+03  0.47000000000E+01 0.  1.
         -5    1    3    3    0  503  0.23837341654E+02  0.47867804098E+02  0.10192491521E+03  0.11519689174E+03  0.47000000000E+01 0.  1.
<mgrwt>
<rscale>  0 0.12636980E+03</rscale>
<asrwt>0</asrwt>
<pdfrwt beam="2">  1        5 0.60003842E-02 0.12637507E+03</pdfrwt>
<pdfrwt beam="1">  1       -5 0.74245347E-01 0.12637507E+03</pdfrwt>
<totfact> 0.21623294E+02</totfact>
</mgrwt>
</event>
<event>
 8    1  0.3694627E-007  0.1322473E+03  0.7546771E-02  0.1224162E+00
         -5   -1    0    0    0  501 -0.00000000000E+00  0.00000000000E+00  0.16082272475E+04  0.16082341153E+04  0.47000000000E+01 0. -1.
          5   -1    0    0  501    0  0.00000000000E+00 -0.00000000000E+00 -0.12519940145E+02  0.13373066261E+02  0.47000000000E+01 0. -1.
         25    2    1    2    0    0 -0.21686148123E+02  0.37315565276E+02  0.11227154939E+04  0.11304775240E+04  0.12500644628E+03 0.  0.
         25    2    1    2    0    0  0.21686148123E+02 -0.37315565276E+02  0.47299181346E+03  0.49112965755E+03  0.12499737796E+03 0.  0.
          5    1    3    3  502    0  0.39141574095E+02  0.45260283835E+01  0.14560798145E+03  0.15091826270E+03  0.47000000000E+01 0.  1.
         -5    1    3    3    0  502 -0.60827722217E+02  0.32789536892E+02  0.97710751249E+03  0.97955926134E+03  0.47000000000E+01 0.  1.
          5    1    4    4  503    0 -0.36887702512E+02 -0.54880673804E+02  0.18079518923E+03  0.19256578461E+03  0.47000000000E+01 0.  1.
         -5    1    4    4    0  503  0.58573850635E+02  0.17565108528E+02  0.29219662423E+03  0.29856387295E+03  0.47000000000E+01 0.  1.
<mgrwt>
<rscale>  0 0.13224517E+03</rscale>
<asrwt>0</asrwt>
<pdfrwt beam="2">  1        5 0.19922978E-02 0.13224731E+03</pdfrwt>
<pdfrwt beam="1">  1       -5 0.24748576E+00 0.13224731E+03</pdfrwt>
<totfact> 0.49587781E+01</totfact>
</mgrwt>
</event>
<event>
 8    1  0.3694627E-007  0.1288932E+03  0.7546771E-02  0.1229112E+00
         -5   -1    0    0    0  501 -0.00000000000E+00  0.00000000000E+00  0.94301825787E+02  0.94418877068E+02  0.47000000000E+01 0. -1.
          5   -1    0    0  501    0  0.00000000000E+00 -0.00000000000E+00 -0.18117717410E+03  0.18123812628E+03  0.47000000000E+01 0. -1.
         25    2    1    2    0    0 -0.11075035130E+02  0.29428479177E+02 -0.19926423401E+02  0.13042440216E+03  0.12499908216E+03 0.  0.
         25    2    1    2    0    0  0.11075035130E+02 -0.29428479177E+02 -0.66948924914E+02  0.14523260118E+03  0.12498663172E+03 0.  0.
          5    1    4    4  502    0  0.35316678392E+02  0.32268514896E+02 -0.62198101212E+02  0.78608006085E+02  0.47000000000E+01 0.  1.
         -5    1    4    4    0  502 -0.24241643262E+02 -0.61696994073E+02 -0.47508237022E+01  0.66624595095E+02  0.47000000000E+01 0.  1.
          5    1    3    3  503    0 -0.70016339967E+01 -0.20555049636E+01 -0.70225206665E+02  0.70759576245E+02  0.47000000000E+01 0.  1.
         -5    1    3    3    0  503 -0.40734011332E+01  0.31483984141E+02  0.50298783264E+02  0.59664825919E+02  0.47000000000E+01 0.  1.
<mgrwt>
<rscale>  0 0.12889020E+03</rscale>
<asrwt>0</asrwt>
<pdfrwt beam="2">  1        5 0.27887104E-01 0.12889322E+03</pdfrwt>
<pdfrwt beam="1">  1       -5 0.14521666E-01 0.12889322E+03</pdfrwt>
<totfact> 0.36435903E+02</totfact>
</mgrwt>
</event>
<event>
 8    1  0.3694627E-007  0.1376598E+03  0.7546771E-02  0.1216513E+00
          5   -1    0    0  501    0  0.00000000000E+00  0.00000000000E+00  0.21519684216E+03  0.21524816114E+03  0.47000000000E+01 0.  1.
         -5   -1    0    0    0  501 -0.00000000000E+00 -0.00000000000E+00 -0.91993295486E+02  0.92113280337E+02  0.47000000000E+01 0.  1.
         25    2    1    2    0    0  0.57644777502E+02 -0.13757525158E+01  0.29353916094E+02  0.14075421284E+03  0.12500113189E+03 0.  0.
         25    2    1    2    0    0 -0.57644777502E+02  0.13757525158E+01  0.93849630576E+02  0.16660722864E+03  0.12500160962E+03 0.  0.
          5    1    4    4  502    0  0.24437504253E+02 -0.35927390175E+02  0.49455569484E+02  0.65999335844E+02  0.47000000000E+01 0. -1.
         -5    1    4    4    0  502 -0.82082281755E+02  0.37303142690E+02  0.44394061093E+02  0.10060789280E+03  0.47000000000E+01 0. -1.
          5    1    3    3  503    0  0.96619705466E+02 -0.42270059301E+01  0.11409803865E+02  0.97496198325E+02  0.47000000000E+01 0.  1.
         -5    1    3    3    0  503 -0.38974927964E+02  0.28512534143E+01  0.17944112228E+02  0.43258014512E+02  0.47000000000E+01 0.  1.
<mgrwt>
<rscale>  0 0.13765967E+03</rscale>
<asrwt>0</asrwt>
<pdfrwt beam="1">  1        5 0.33120383E-01 0.13765978E+03</pdfrwt>
<pdfrwt beam="2">  1       -5 0.14165992E-01 0.13765978E+03</pdfrwt>
<totfact> 0.27814829E+02</totfact>
</mgrwt>
</event>
<event>
 8    1  0.3694627E-007  0.1628926E+03  0.7546771E-02  0.1185470E+00
         -5   -1    0    0    0  501 -0.00000000000E+00  0.00000000000E+00  0.29952683609E+03  0.29956370865E+03  0.47000000000E+01 0.  1.
          5   -1    0    0  501    0  0.00000000000E+00 -0.00000000000E+00 -0.11012574066E+03  0.11022598947E+03  0.47000000000E+01 0.  1.
         25    2    1    2    0    0  0.10431621272E+03  0.50862234853E+01  0.18547748978E+03  0.24684986992E+03  0.12500086864E+03 0.  0.
         25    2    1    2    0    0 -0.10431621272E+03 -0.50862234853E+01  0.39236056524E+01  0.16293982820E+03  0.12500500401E+03 0.  0.
          5    1    3    3  502    0  0.93000384813E+02  0.51692236908E+02  0.16036258622E+03  0.19250820240E+03  0.47000000000E+01 0.  1.
         -5    1    3    3    0  502  0.11315827907E+02 -0.46606013423E+02  0.25114903561E+02  0.54341667524E+02  0.47000000000E+01 0.  1.
          5    1    4    4  503    0 -0.34579347634E+02  0.29994075145E+02 -0.49995947196E+02  0.67948955566E+02  0.47000000000E+01 0. -1.
         -5    1    4    4    0  503 -0.69736865086E+02 -0.35080298630E+02  0.53919552848E+02  0.94990872631E+02  0.47000000000E+01 0. -1.
<mgrwt>
<rscale>  0 0.16289179E+03</rscale>
<asrwt>0</asrwt>
<pdfrwt beam="2">  1        5 0.16952969E-01 0.16289258E+03</pdfrwt>
<pdfrwt beam="1">  1       -5 0.46091600E-01 0.16289258E+03</pdfrwt>
<totfact> 0.10792360E+02</totfact>
</mgrwt>
</event>
<event>
 8    1  0.3694627E-007  0.1484037E+03  0.7546771E-02  0.1202451E+00
         -5   -1    0    0    0  501 -0.00000000000E+00  0.00000000000E+00  0.24162432437E+02  0.24615302989E+02  0.47000000000E+01 0. -1.
          5   -1    0    0  501    0  0.00000000000E+00 -0.00000000000E+00 -0.91451123067E+03  0.91452330808E+03  0.47000000000E+01 0. -1.
         25    2    1    2    0    0  0.85127546443E+01 -0.79524962798E+02 -0.39142774364E+03  0.41861596274E+03  0.12500783605E+03 0.  0.
         25    2    1    2    0    0 -0.85127546443E+01  0.79524962798E+02 -0.49892105459E+03  0.52052264832E+03  0.12499968801E+03 0.  0.
          5    1    4    4  502    0  0.28178459089E+02 -0.15737746969E+02 -0.23930766650E+03  0.24152008505E+03  0.47000000000E+01 0. -1.
         -5    1    4    4    0  502 -0.36691213733E+02  0.95262709767E+02 -0.25961338809E+03  0.27900256327E+03  0.47000000000E+01 0. -1.
          5    1    3    3  503    0  0.45574167391E+02 -0.44583021095E+02 -0.77111026896E+02  0.10016412018E+03  0.47000000000E+01 0.  1.
         -5    1    3    3    0  503 -0.37061412747E+02 -0.34941941703E+02 -0.31431671674E+03  0.31845184256E+03  0.47000000000E+01 0.  1.
<mgrwt>
<rscale>  0 0.14840194E+03</rscale>
<asrwt>0</asrwt>
<pdfrwt beam="2">  1        5 0.14072977E+00 0.14840366E+03</pdfrwt>
<pdfrwt beam="1">  1       -5 0.37530632E-02 0.14840366E+03</pdfrwt>
<totfact> 0.10327577E+02</totfact>
</mgrwt>
</event>
<event>
 8    1  0.3694627E-007  0.1324693E+03  0.7546771E-02  0.1223839E+00
          5   -1    0    0  501    0  0.00000000000E+00  0.00000000000E+00  0.43576408238E+02  0.43829138195E+02  0.47000000000E+01 0.  1.
         -5   -1    0    0    0  501 -0.00000000000E+00 -0.00000000000E+00 -0.41341943354E+03  0.41344614888E+03  0.47000000000E+01 0.  1.
         25    2    1    2    0    0  0.32527279621E+02  0.29389243730E+02 -0.22412512175E+03  0.26034429124E+03  0.12500131287E+03 0.  0.
         25    2    1    2    0    0 -0.32527279621E+02 -0.29389243730E+02 -0.14571790355E+03  0.19693099583E+03  0.12500543243E+03 0.  0.
          5    1    4    4  502    0  0.52321564676E+01 -0.69916698844E+02 -0.50005814002E+02  0.86246111058E+02  0.47000000000E+01 0. -1.
         -5    1    4    4    0  502 -0.37759436088E+02  0.40527455114E+02 -0.95712089551E+02  0.11068488478E+03  0.47000000000E+01 0. -1.
          5    1    3    3  503    0  0.20574919177E+02 -0.28163324566E+02 -0.18783588853E+03  0.19110445094E+03  0.47000000000E+01 0.  1.
         -5    1    3    3    0  503  0.11952360444E+02  0.57552568295E+02 -0.36289233214E+02  0.69239840300E+02  0.47000000000E+01 0.  1.
<mgrwt>
<rscale>  0 0.13246831E+03</rscale>
<asrwt>0</asrwt>
<pdfrwt beam="1">  1        5 0.67255589E-02 0.13246928E+03</pdfrwt>
<pdfrwt beam="2">  1       -5 0.63624483E-01 0.13246928E+03</pdfrwt>
<totfact> 0.25648213E+02</totfact>
</mgrwt>
</event>
<event>
 8    1  0.3694627E-007  0.1499348E+03  0.7546771E-02  0.1200562E+00
         -5   -1    0    0    0  501 -0.00000000000E+00  0.00000000000E+00  0.14593821921E+03  0.14601388231E+03  0.47000000000E+01 0. -1.
          5   -1    0    0  501    0  0.00000000000E+00 -0.00000000000E+00 -0.16034859900E+03  0.16041746539E+03  0.47000000000E+01 0. -1.
         25    2    1    2    0    0 -0.49641630159E+02  0.66206094692E+02  0.23600978503E+02  0.15178096587E+03  0.12503166398E+03 0.  0.
         25    2    1    2    0    0  0.49641630159E+02 -0.66206094692E+02 -0.38011358293E+02  0.15465038183E+03  0.12499735526E+03 0.  0.
          5    1    4    4  502    0  0.13772610230E+02 -0.84035247525E+02  0.16473927171E+02  0.86862465401E+02  0.47000000000E+01 0. -1.
         -5    1    4    4    0  502  0.35869019929E+02  0.17829152833E+02 -0.54485285464E+02  0.67787916427E+02  0.47000000000E+01 0. -1.
          5    1    3    3  503    0  0.19311800704E+02 -0.10896702212E+02 -0.28054237860E+02  0.36066799518E+02  0.47000000000E+01 0. -1.
         -5    1    3    3    0  503 -0.68953430863E+02  0.77102796904E+02  0.51655216363E+02  0.11571416636E+03  0.47000000000E+01 0. -1.
<mgrwt>
<rscale>  0 0.14992768E+03</rscale>
<asrwt>0</asrwt>
<pdfrwt beam="2">  1        5 0.24680133E-01 0.14993484E+03</pdfrwt>
<pdfrwt beam="1">  1       -5 0.22463151E-01 0.14993484E+03</pdfrwt>
<totfact> 0.21706824E+02</totfact>
</mgrwt>
</event>
<event>
 8    1  0.3694627E-007  0.1788598E+03  0.7546771E-02  0.1168914E+00
         -5   -1    0    0    0  501 -0.00000000000E+00  0.00000000000E+00  0.23721047767E+03  0.23725703512E+03  0.47000000000E+01 0. -1.
          5   -1    0    0  501    0  0.00000000000E+00 -0.00000000000E+00 -0.14636158647E+03  0.14643703082E+03  0.47000000000E+01 0. -1.
         25    2    1    2    0    0 -0.46707512648E+02 -0.11907944110E+03  0.99426739622E+02  0.20462869328E+03  0.12500288209E+03 0.  0.
         25    2    1    2    0    0  0.46707512648E+02  0.11907944110E+03 -0.85778484274E+01  0.17906537266E+03  0.12501729149E+03 0.  0.
          5    1    3    3  502    0  0.19570651553E+02 -0.30258223106E+01 -0.17613332761E+02  0.26916268200E+02  0.47000000000E+01 0.  1.
         -5    1    3    3    0  502 -0.66278164202E+02 -0.11605361879E+03  0.11704007238E+03  0.17771242508E+03  0.47000000000E+01 0.  1.
          5    1    4    4  503    0 -0.40342637999E+02  0.56036917305E+02 -0.16639975794E+02  0.71180357797E+02  0.47000000000E+01 0. -1.
         -5    1    4    4    0  503  0.87050150648E+02  0.63042523798E+02  0.80621273662E+01  0.10788501486E+03  0.47000000000E+01 0. -1.
<mgrwt>
<rscale>  0 0.17885728E+03</rscale>
<asrwt>0</asrwt>
<pdfrwt beam="2">  1        5 0.22526552E-01 0.17885980E+03</pdfrwt>
<pdfrwt beam="1">  1       -5 0.36503304E-01 0.17885980E+03</pdfrwt>
<totfact> 0.10548336E+02</totfact>
</mgrwt>
</event>
<event>
 8    1  0.3694627E-007  0.1376846E+03  0.7546771E-02  0.1216480E+00
          5   -1    0    0  501    0  0.00000000000E+00  0.00000000000E+00  0.10013967489E+03  0.10024991016E+03  0.47000000000E+01 0. -1.
         -5   -1    0    0    0  501 -0.00000000000E+00 -0.00000000000E+00 -0.19332774958E+03  0.19338487210E+03  0.47000000000E+01 0. -1.
         25    2    1    2    0    0  0.50417572218E+01 -0.57499463060E+02 -0.68399177360E+02  0.15373838703E+03  0.12500174644E+03 0.  0.
         25    2    1    2    0    0 -0.50417572218E+01  0.57499463060E+02 -0.24788897322E+02  0.13989639523E+03  0.12499961760E+03 0.  0.
          5    1    4    4  502    0 -0.45115921057E+02  0.24371194587E+02  0.33666707650E+02  0.61521855161E+02  0.47000000000E+01 0. -1.
         -5    1    4    4    0  502  0.40074163835E+02  0.33128268473E+02 -0.58455604972E+02  0.78374540073E+02  0.47000000000E+01 0. -1.
          5    1    3    3  503    0  0.59348007410E+02 -0.45618261067E+02 -0.62516093276E+02  0.97639969504E+02  0.47000000000E+01 0.  1.
         -5    1    3    3    0  503 -0.54306250188E+02 -0.11881201992E+02 -0.58830840845E+01  0.56098417523E+02  0.47000000000E+01 0.  1.
<mgrwt>
<rscale>  0 0.13768410E+03</rscale>
<asrwt>0</asrwt>
<pdfrwt beam="1">  1        5 0.15418977E-01 0.13768458E+03</pdfrwt>
<pdfrwt beam="2">  1       -5 0.29755604E-01 0.13768458E+03</pdfrwt>
<totfact> 0.29487083E+02</totfact>
</mgrwt>
</event>
<event>
 8    1  0.3694627E-007  0.1982389E+03  0.7546771E-02  0.1151235E+00
         -5   -1    0    0    0  501 -0.00000000000E+00  0.00000000000E+00  0.37372238455E+03  0.37375193741E+03  0.47000000000E+01 0. -1.
          5   -1    0    0  501    0  0.00000000000E+00 -0.00000000000E+00 -0.10617077485E+03  0.10627475444E+03  0.47000000000E+01 0. -1.
         25    2    1    2    0    0  0.14983797692E+03 -0.34913133381E+02  0.10929870598E+03  0.22636813994E+03  0.12500392571E+03 0.  0.
         25    2    1    2    0    0 -0.14983797692E+03  0.34913133381E+02  0.15825290373E+03  0.25365855190E+03  0.12501333211E+03 0.  0.
          5    1    4    4  502    0  0.39168522367E+00 -0.31276431088E+02  0.41389790015E+02  0.52091969405E+02  0.47000000000E+01 0. -1.
         -5    1    4    4    0  502 -0.15022966215E+03  0.66189564469E+02  0.11686311371E+03  0.20156658250E+03  0.47000000000E+01 0. -1.
          5    1    3    3  503    0  0.11872552523E+03  0.23425846789E+02  0.10441756392E+03  0.15990509152E+03  0.47000000000E+01 0. -1.
         -5    1    3    3    0  503  0.31112451694E+02 -0.58338980169E+02  0.48811420540E+01  0.66463048421E+02  0.47000000000E+01 0. -1.
<mgrwt>
<rscale>  0 0.19823746E+03</rscale>
<asrwt>0</asrwt>
<pdfrwt beam="2">  1        5 0.16344237E-01 0.19823895E+03</pdfrwt>
<pdfrwt beam="1">  1       -5 0.57506024E-01 0.19823895E+03</pdfrwt>
<totfact> 0.76031401E+01</totfact>
</mgrwt>
</event>
<event>
 8    1  0.3694627E-007  0.1339635E+03  0.7546771E-02  0.1221705E+00
         -5   -1    0    0    0  501 -0.00000000000E+00  0.00000000000E+00  0.16518193966E+03  0.16524879180E+03  0.47000000000E+01 0. -1.
          5   -1    0    0  501    0  0.00000000000E+00 -0.00000000000E+00 -0.11133643592E+03  0.11143559559E+03  0.47000000000E+01 0. -1.
         25    2    1    2    0    0 -0.46855218099E+02 -0.10646891486E+02  0.49099547315E+02  0.14267792449E+03  0.12504981739E+03 0.  0.
         25    2    1    2    0    0  0.46855218099E+02  0.10646891486E+02  0.47459564237E+01  0.13400646289E+03  0.12500576080E+03 0.  0.
          5    1    4    4  502    0 -0.25886835105E+02  0.41943182843E+02  0.19688856665E+02  0.53283204629E+02  0.47000000000E+01 0.  1.
         -5    1    4    4    0  502  0.72742053204E+02 -0.31296291357E+02 -0.14942900241E+02  0.80723258263E+02  0.47000000000E+01 0.  1.
          5    1    3    3  503    0  0.12749896035E+02  0.22429273552E+02 -0.28871422746E+02  0.39003605120E+02  0.47000000000E+01 0.  1.
         -5    1    3    3    0  503 -0.59605114134E+02 -0.33076165038E+02  0.77970970061E+02  0.10367431937E+03  0.47000000000E+01 0.  1.
<mgrwt>
<rscale>  0 0.13395324E+03</rscale>
<asrwt>0</asrwt>
<pdfrwt beam="2">  1        5 0.17141452E-01 0.13396352E+03</pdfrwt>
<pdfrwt beam="1">  1       -5 0.25425376E-01 0.13396352E+03</pdfrwt>
<totfact> 0.32665370E+02</totfact>
</mgrwt>
</event>
<event>
 8    1  0.3694627E-007  0.1339954E+03  0.7546771E-02  0.1221646E+00
          5   -1    0    0  501    0  0.00000000000E+00  0.00000000000E+00  0.54409400134E+02  0.54612020865E+02  0.47000000000E+01 0.  1.
         -5   -1    0    0    0  501 -0.00000000000E+00 -0.00000000000E+00 -0.39957204804E+03  0.39959968916E+03  0.47000000000E+01 0.  1.
         25    2    1    2    0    0 -0.47238791738E+02 -0.99093329471E+01 -0.26789319508E+03  0.29953353112E+03  0.12499549579E+03 0.  0.
         25    2    1    2    0    0  0.47238791738E+02  0.99093329471E+01 -0.77269452823E+02  0.15467817891E+03  0.12500028946E+03 0.  0.
          5    1    4    4  502    0 -0.23776720180E+02  0.27911680678E+02  0.12216443055E+02  0.38932323610E+02  0.47000000000E+01 0. -1.
         -5    1    4    4    0  502  0.71015511918E+02 -0.18002347730E+02 -0.89485895878E+02  0.11574585529E+03  0.47000000000E+01 0. -1.
          5    1    3    3  503    0 -0.39834297445E+02  0.81486170664E+01 -0.27515718767E+03  0.27818472125E+03  0.47000000000E+01 0.  1.
         -5    1    3    3    0  503 -0.74044942931E+01 -0.18057950014E+02  0.72639925851E+01  0.21348809866E+02  0.47000000000E+01 0.  1.
<mgrwt>
<rscale>  0 0.13399429E+03</rscale>
<asrwt>0</asrwt>
<pdfrwt beam="1">  1        5 0.83883896E-02 0.13399541E+03</pdfrwt>
<pdfrwt beam="2">  1       -5 0.61490333E-01 0.13399541E+03</pdfrwt>
<totfact> 0.19042163E+02</totfact>
</mgrwt>
</event>
<event>
 8    1  0.3694627E-007  0.1340822E+03  0.7546771E-02  0.1221523E+00
          5   -1    0    0  501    0  0.00000000000E+00  0.00000000000E+00  0.89277481704E+02  0.89401111511E+02  0.47000000000E+01 0. -1.
         -5   -1    0    0    0  501 -0.00000000000E+00 -0.00000000000E+00 -0.20123955556E+03  0.20129443291E+03  0.47000000000E+01 0. -1.
         25    2    1    2    0    0 -0.21630220960E+02  0.43406649523E+02 -0.60148110118E+02  0.14695520362E+03  0.12500413209E+03 0.  0.
         25    2    1    2    0    0  0.21630220960E+02 -0.43406649523E+02 -0.51813963739E+02  0.14374034080E+03  0.12499838021E+03 0.  0.
          5    1    3    3  502    0 -0.14849874547E+02  0.58666617561E+02  0.20803964632E+02  0.64165300082E+02  0.47000000000E+01 0. -1.
         -5    1    3    3    0  502 -0.67803464128E+01 -0.15259968038E+02 -0.80952074751E+02  0.82789903542E+02  0.47000000000E+01 0. -1.
          5    1    4    4  503    0 -0.51096542736E+02 -0.14721422445E+02 -0.79439345564E+01  0.53970112605E+02  0.47000000000E+01 0. -1.
         -5    1    4    4    0  503  0.72726763696E+02 -0.28685227078E+02 -0.43870029182E+02  0.89770228198E+02  0.47000000000E+01 0. -1.
<mgrwt>
<rscale>  0 0.13408086E+03</rscale>
<asrwt>0</asrwt>
<pdfrwt beam="1">  1        5 0.13748729E-01 0.13408220E+03</pdfrwt>
<pdfrwt beam="2">  1       -5 0.30973663E-01 0.13408220E+03</pdfrwt>
<totfact> 0.33211843E+02</totfact>
</mgrwt>
</event>
<event>
 8    1  0.3694627E-007  0.1285877E+03  0.7546771E-02  0.1229569E+00
          5   -1    0    0  501    0  0.00000000000E+00  0.00000000000E+00  0.32952721110E+02  0.33286210787E+02  0.47000000000E+01 0. -1.
         -5   -1    0    0    0  501 -0.00000000000E+00 -0.00000000000E+00 -0.52106258497E+03  0.52108378161E+03  0.47000000000E+01 0. -1.
         25    2    1    2    0    0 -0.19689609619E+02  0.22823741387E+02 -0.30123958433E+03  0.32753636845E+03  0.12500472627E+03 0.  0.
         25    2    1    2    0    0  0.19689609619E+02 -0.22823741387E+02 -0.18687027953E+03  0.22683362395E+03  0.12499755071E+03 0.  0.
          5    1    3    3  502    0 -0.48015377763E+02  0.87413739754E+01 -0.37143792019E+02  0.61511294949E+02  0.47000000000E+01 0. -1.
         -5    1    3    3    0  502  0.28325768144E+02  0.14082367411E+02 -0.26409579231E+03  0.26602507350E+03  0.47000000000E+01 0. -1.
          5    1    4    4  503    0  0.71164291947E+01  0.33588725351E+02 -0.15856301979E+03  0.16230578327E+03  0.47000000000E+01 0.  1.
         -5    1    4    4    0  503  0.12573180424E+02 -0.56412466737E+02 -0.28307259734E+02  0.64527840681E+02  0.47000000000E+01 0.  1.
<mgrwt>
<rscale>  0 0.12858591E+03</rscale>
<asrwt>0</asrwt>
<pdfrwt beam="1">  1        5 0.50969334E-02 0.12858766E+03</pdfrwt>
<pdfrwt beam="2">  1       -5 0.80190752E-01 0.12858766E+03</pdfrwt>
<totfact> 0.23944456E+02</totfact>
</mgrwt>
</event>
<event>
 8    1  0.3694627E-007  0.1283782E+03  0.7546771E-02  0.1229882E+00
          5   -1    0    0  501    0  0.00000000000E+00  0.00000000000E+00  0.38301261029E+02  0.38588555252E+02  0.47000000000E+01 0. -1.
         -5   -1    0    0    0  501 -0.00000000000E+00 -0.00000000000E+00 -0.60426243289E+03  0.60428071109E+03  0.47000000000E+01 0. -1.
         25    2    1    2    0    0  0.15399231743E+02  0.24883843509E+02 -0.45634870359E+03  0.47406234215E+03  0.12499849187E+03 0.  0.
         25    2    1    2    0    0 -0.15399231743E+02 -0.24883843509E+02 -0.10961246827E+03  0.16880692420E+03  0.12499816979E+03 0.  0.
          5    1    4    4  502    0  0.37007219917E+02 -0.40351639415E+02 -0.98584074934E+02  0.11286584497E+03  0.47000000000E+01 0.  1.
         -5    1    4    4    0  502 -0.52406451660E+02  0.15467795905E+02 -0.11028393334E+02  0.55941079229E+02  0.47000000000E+01 0.  1.
          5    1    3    3  503    0 -0.39562658967E+02 -0.16314771699E+00 -0.34505897628E+03  0.34735143257E+03  0.47000000000E+01 0.  1.
         -5    1    3    3    0  503  0.54961890710E+02  0.25046991226E+02 -0.11128972732E+03  0.12671090958E+03  0.47000000000E+01 0.  1.
<mgrwt>
<rscale>  0 0.12837813E+03</rscale>
<asrwt>0</asrwt>
<pdfrwt beam="1">  1        5 0.59160077E-02 0.12837821E+03</pdfrwt>
<pdfrwt beam="2">  1       -5 0.92986950E-01 0.12837821E+03</pdfrwt>
<totfact> 0.13183401E+02</totfact>
</mgrwt>
</event>
<event>
 8    1  0.3694627E-007  0.1373657E+03  0.7546771E-02  0.1216919E+00
         -5   -1    0    0    0  501 -0.00000000000E+00  0.00000000000E+00  0.17736082563E+04  0.17736144837E+04  0.47000000000E+01 0. -1.
          5   -1    0    0  501    0  0.00000000000E+00 -0.00000000000E+00 -0.10855928157E+02  0.11829673544E+02  0.47000000000E+01 0. -1.
         25    2    1    2    0    0  0.23648039571E+02  0.51807740613E+02  0.11046892226E+04  0.11131968929E+04  0.12500308833E+03 0.  0.
         25    2    1    2    0    0 -0.23648039571E+02 -0.51807740613E+02  0.65806310553E+03  0.67224726432E+03  0.12500424702E+03 0.  0.
          5    1    3    3  502    0  0.60073608370E+02 -0.14117466539E+02  0.50452427498E+03  0.50830598593E+03  0.47000000000E+01 0. -1.
         -5    1    3    3    0  502 -0.36425568799E+02  0.65925207152E+02  0.60016494764E+03  0.60489090700E+03  0.47000000000E+01 0. -1.
          5    1    4    4  503    0 -0.18779275287E+02 -0.91677028142E+02  0.38683674450E+03  0.39802273247E+03  0.47000000000E+01 0. -1.
         -5    1    4    4    0  503 -0.48687642845E+01  0.39869287529E+02  0.27122636102E+03  0.27422453185E+03  0.47000000000E+01 0. -1.
<mgrwt>
<rscale>  0 0.13736543E+03</rscale>
<asrwt>0</asrwt>
<pdfrwt beam="2">  1        5 0.17455271E-02 0.13736569E+03</pdfrwt>
<pdfrwt beam="1">  1       -5 0.27293791E+00 0.13736569E+03</pdfrwt>
<totfact> 0.42669669E+01</totfact>
</mgrwt>
</event>
<event>
 8    1  0.3694627E-007  0.1319677E+03  0.7546771E-02  0.1224568E+00
         -5   -1    0    0    0  501 -0.00000000000E+00  0.00000000000E+00  0.17735178978E+03  0.17741405620E+03  0.47000000000E+01 0. -1.
          5   -1    0    0  501    0  0.00000000000E+00 -0.00000000000E+00 -0.99494185620E+02  0.99605135270E+02  0.47000000000E+01 0. -1.
         25    2    1    2    0    0 -0.18435005585E+02 -0.38048326579E+02  0.55566878104E+02  0.14318216983E+03  0.12500372486E+03 0.  0.
         25    2    1    2    0    0  0.18435005585E+02  0.38048326579E+02  0.22290726055E+02  0.13383702164E+03  0.12501178867E+03 0.  0.
          5    1    3    3  502    0 -0.34239629690E+02  0.99058069055E+01  0.79392994991E+02  0.87153972402E+02  0.47000000000E+01 0. -1.
         -5    1    3    3    0  502  0.15804624105E+02 -0.47954133485E+02 -0.23826116886E+02  0.56028197430E+02  0.47000000000E+01 0. -1.
          5    1    4    4  503    0  0.18551391479E+02  0.33686677787E+02 -0.48883230066E+02  0.62374726996E+02  0.47000000000E+01 0. -1.
         -5    1    4    4    0  503 -0.11638589358E+00  0.43616487922E+01  0.71173956121E+02  0.71462294644E+02  0.47000000000E+01 0. -1.
<mgrwt>
<rscale>  0 0.13196578E+03</rscale>
<asrwt>0</asrwt>
<pdfrwt beam="2">  1        5 0.15320122E-01 0.13196769E+03</pdfrwt>
<pdfrwt beam="1">  1       -5 0.27298215E-01 0.13196769E+03</pdfrwt>
<totfact> 0.34772979E+02</totfact>
</mgrwt>
</event>
<event>
 8    1  0.3694627E-007  0.1265683E+03  0.7546771E-02  0.1232640E+00
          5   -1    0    0  501    0  0.00000000000E+00  0.00000000000E+00  0.16948920510E+03  0.16955435897E+03  0.47000000000E+01 0.  1.
         -5   -1    0    0    0  501 -0.00000000000E+00 -0.00000000000E+00 -0.12467242554E+03  0.12476098625E+03  0.47000000000E+01 0.  1.
         25    2    1    2    0    0  0.23602837432E+01 -0.19714307587E+02 -0.50089362811E+02  0.13611931247E+03  0.12500119238E+03 0.  0.
         25    2    1    2    0    0 -0.23602837432E+01  0.19714307587E+02  0.94906142370E+02  0.15819603275E+03  0.12499833621E+03 0.  0.
          5    1    4    4  502    0 -0.18638223116E+02  0.63408877670E+02  0.89007710010E+02  0.11096184736E+03  0.47000000000E+01 0.  1.
         -5    1    4    4    0  502  0.16277939373E+02 -0.43694570083E+02  0.58984323599E+01  0.47234185388E+02  0.47000000000E+01 0.  1.
          5    1    3    3  503    0 -0.51950220180E+02 -0.32920621025E+02 -0.11698543706E+01  0.61693202419E+02  0.47000000000E+01 0. -1.
         -5    1    3    3    0  503  0.54310503923E+02  0.13206313438E+02 -0.48919508440E+02  0.74426110049E+02  0.47000000000E+01 0. -1.
<mgrwt>
<rscale>  0 0.12656755E+03</rscale>
<asrwt>0</asrwt>
<pdfrwt beam="1">  1        5 0.26087086E-01 0.12656825E+03</pdfrwt>
<pdfrwt beam="2">  1       -5 0.19192198E-01 0.12656825E+03</pdfrwt>
<totfact> 0.24732720E+02</totfact>
</mgrwt>
</event>
<event>
 8    1  0.3694627E-007  0.1323662E+03  0.7546771E-02  0.1223996E+00
          5   -1    0    0  501    0  0.00000000000E+00  0.00000000000E+00  0.47462573617E+02  0.47694715581E+02  0.47000000000E+01 0. -1.
         -5   -1    0    0    0  501 -0.00000000000E+00 -0.00000000000E+00 -0.48789491999E+03  0.48791755754E+03  0.47000000000E+01 0. -1.
         25    2    1    2    0    0 -0.35131013901E+02  0.25665762546E+02 -0.35296064643E+03  0.37695504642E+03  0.12498387733E+03 0.  0.
         25    2    1    2    0    0  0.35131013901E+02 -0.25665762546E+02 -0.87471699950E+02  0.15865722670E+03  0.12501159061E+03 0.  0.
          5    1    4    4  502    0  0.33331626245E+02 -0.58043450866E+02 -0.20084706084E+01  0.67127963255E+02  0.47000000000E+01 0.  1.
         -5    1    4    4    0  502  0.17993876558E+01  0.32377688321E+02 -0.85463229342E+02  0.91529263443E+02  0.47000000000E+01 0.  1.
          5    1    3    3  503    0  0.26554707418E+02  0.36188860848E+01 -0.26893537987E+03  0.27030830059E+03  0.47000000000E+01 0.  1.
         -5    1    3    3    0  503 -0.61685721319E+02  0.22046876461E+02 -0.84025266553E+02  0.10664674583E+03  0.47000000000E+01 0.  1.
<mgrwt>
<rscale>  0 0.13235968E+03</rscale>
<asrwt>0</asrwt>
<pdfrwt beam="1">  1        5 0.73215332E-02 0.13236622E+03</pdfrwt>
<pdfrwt beam="2">  1       -5 0.75080352E-01 0.13236622E+03</pdfrwt>
<totfact> 0.15306838E+02</totfact>
</mgrwt>
</event>
<event>
 8    1  0.3694627E-007  0.1517825E+03  0.7546771E-02  0.1198300E+00
          5   -1    0    0  501    0  0.00000000000E+00  0.00000000000E+00  0.10010523541E+04  0.10010633875E+04  0.47000000000E+01 0.  1.
         -5   -1    0    0    0  501 -0.00000000000E+00 -0.00000000000E+00 -0.23307947856E+02  0.23777098924E+02  0.47000000000E+01 0.  1.
         25    2    1    2    0    0 -0.76246104323E+02  0.39995177167E+02  0.41127168374E+03  0.43838602957E+03  0.12499932182E+03 0.  0.
         25    2    1    2    0    0  0.76246104323E+02 -0.39995177167E+02  0.56647272254E+03  0.58645445682E+03  0.12499760764E+03 0.  0.
          5    1    3    3  502    0 -0.49718891381E+02  0.14203973467E+01  0.37670191749E+03  0.38000053991E+03  0.47000000000E+01 0.  1.
         -5    1    3    3    0  502 -0.26527212941E+02  0.38574779820E+02  0.34569766244E+02  0.58385489660E+02  0.47000000000E+01 0.  1.
          5    1    4    4  503    0  0.10124244023E+03 -0.30555944093E+02  0.53279226369E+03  0.54320657550E+03  0.47000000000E+01 0.  1.
         -5    1    4    4    0  503 -0.24996335906E+02 -0.94392330741E+01  0.33680458857E+02  0.43247881319E+02  0.47000000000E+01 0.  1.
<mgrwt>
<rscale>  0 0.15178210E+03</rscale>
<asrwt>0</asrwt>
<pdfrwt beam="1">  1        5 0.15404500E+00 0.15178245E+03</pdfrwt>
<pdfrwt beam="2">  1       -5 0.36227752E-02 0.15178245E+03</pdfrwt>
<totfact> 0.86158287E+01</totfact>
</mgrwt>
</event>
<event>
 8    1  0.3694627E-007  0.1544457E+03  0.7546771E-02  0.1195116E+00
         -5   -1    0    0    0  501 -0.00000000000E+00  0.00000000000E+00  0.23705250043E+02  0.24166689463E+02  0.47000000000E+01 0. -1.
          5   -1    0    0  501    0  0.00000000000E+00 -0.00000000000E+00 -0.10296557346E+04  0.10296664614E+04  0.47000000000E+01 0. -1.
         25    2    1    2    0    0 -0.89842927694E+02 -0.12454844415E+02 -0.40780697458E+03  0.43607337588E+03  0.12500634318E+03 0.  0.
         25    2    1    2    0    0  0.89842927694E+02  0.12454844415E+02 -0.59814350994E+03  0.61775977496E+03  0.12499842511E+03 0.  0.
          5    1    4    4  502    0  0.40769754687E+02  0.36948743154E+02 -0.83052033912E+02  0.99735213715E+02  0.47000000000E+01 0.  1.
         -5    1    4    4    0  502  0.49073173007E+02 -0.24493898739E+02 -0.51509147602E+03  0.51802456125E+03  0.47000000000E+01 0.  1.
          5    1    3    3  503    0 -0.44804111953E+02  0.22097589016E+02 -0.40797910327E+02  0.64670483030E+02  0.47000000000E+01 0. -1.
         -5    1    3    3    0  503 -0.45038815741E+02 -0.34552433431E+02 -0.36700906425E+03  0.37140289285E+03  0.47000000000E+01 0. -1.
<mgrwt>
<rscale>  0 0.15444405E+03</rscale>
<asrwt>0</asrwt>
<pdfrwt beam="2">  1        5 0.15844486E+00 0.15444566E+03</pdfrwt>
<pdfrwt beam="1">  1       -5 0.36832828E-02 0.15444566E+03</pdfrwt>
<totfact> 0.77935770E+01</totfact>
</mgrwt>
</event>
<event>
 8    1  0.3694627E-007  0.1595177E+03  0.7546771E-02  0.1189245E+00
          5   -1    0    0  501    0  0.00000000000E+00  0.00000000000E+00  0.95001848472E+03  0.95003011074E+03  0.47000000000E+01 0. -1.
         -5   -1    0    0    0  501 -0.00000000000E+00 -0.00000000000E+00 -0.30933272914E+02  0.31288294507E+02  0.47000000000E+01 0. -1.
         25    2    1    2    0    0 -0.92207364037E+02  0.36291086090E+02  0.27632199137E+03  0.31905679212E+03  0.12499661103E+03 0.  0.
         25    2    1    2    0    0  0.92207364037E+02 -0.36291086090E+02  0.64276322044E+03  0.66226161313E+03  0.12500658289E+03 0.  0.
          5    1    4    4  502    0 -0.27508557699E+02 -0.22181400832E+02  0.97496597545E+02  0.10380949775E+03  0.47000000000E+01 0. -1.
         -5    1    4    4    0  502  0.11971592174E+03 -0.14109685258E+02  0.54526662289E+03  0.55845211538E+03  0.47000000000E+01 0. -1.
          5    1    3    3  503    0  0.40944381570E+01 -0.35981740969E+02  0.90455992623E+02  0.97549098963E+02  0.47000000000E+01 0. -1.
         -5    1    3    3    0  503 -0.96301802194E+02  0.72272827060E+02  0.18586599875E+03  0.22150769316E+03  0.47000000000E+01 0. -1.
<mgrwt>
<rscale>  0 0.15951572E+03</rscale>
<asrwt>0</asrwt>
<pdfrwt beam="1">  1        5 0.14618487E+00 0.15951767E+03</pdfrwt>
<pdfrwt beam="2">  1       -5 0.47871693E-02 0.15951767E+03</pdfrwt>
<totfact> 0.63763683E+01</totfact>
</mgrwt>
</event>
<event>
 8    1  0.3694627E-007  0.1365239E+03  0.7546771E-02  0.1218086E+00
          5   -1    0    0  501    0  0.00000000000E+00  0.00000000000E+00  0.25018419209E+03  0.25022833567E+03  0.47000000000E+01 0. -1.
         -5   -1    0    0    0  501 -0.00000000000E+00 -0.00000000000E+00 -0.78018501301E+02  0.78159942075E+02  0.47000000000E+01 0. -1.
         25    2    1    2    0    0 -0.47254442252E+00 -0.54894626179E+02  0.50627248850E+02  0.14560323799E+03  0.12499416508E+03 0.  0.
         25    2    1    2    0    0  0.47254442252E+00  0.54894626179E+02  0.12153844194E+03  0.18278503975E+03  0.12500053843E+03 0.  0.
          5    1    3    3  502    0 -0.40857998030E+01  0.25131667090E+02  0.59479756271E+02  0.64870839804E+02  0.47000000000E+01 0.  1.
         -5    1    3    3    0  502  0.36132553804E+01 -0.80026293269E+02 -0.88525074208E+01  0.80732398183E+02  0.47000000000E+01 0.  1.
          5    1    4    4  503    0 -0.12602074730E+02  0.43492668541E+02  0.14571417374E+03  0.15266019433E+03  0.47000000000E+01 0.  1.
         -5    1    4    4    0  503  0.13074619152E+02  0.11401957638E+02 -0.24175731800E+02  0.30124845428E+02  0.47000000000E+01 0.  1.
<mgrwt>
<rscale>  0 0.13652245E+03</rscale>
<asrwt>0</asrwt>
<pdfrwt beam="1">  1        5 0.38504151E-01 0.13652391E+03</pdfrwt>
<pdfrwt beam="2">  1       -5 0.12017122E-01 0.13652391E+03</pdfrwt>
<totfact> 0.27488354E+02</totfact>
</mgrwt>
</event>
<event>
 8    1  0.3694627E-007  0.1454013E+03  0.7546771E-02  0.1206241E+00
          5   -1    0    0  501    0  0.00000000000E+00  0.00000000000E+00  0.80128107633E+03  0.80129486039E+03  0.47000000000E+01 0.  1.
         -5   -1    0    0    0  501 -0.00000000000E+00 -0.00000000000E+00 -0.30626986204E+02  0.30985517325E+02  0.47000000000E+01 0.  1.
         25    2    1    2    0    0  0.74070692329E+02  0.53985663067E+01  0.22745169482E+03  0.26995520271E+03  0.12500370400E+03 0.  0.
         25    2    1    2    0    0 -0.74070692329E+02 -0.53985663067E+01  0.54320239531E+03  0.56232517501E+03  0.12500059279E+03 0.  0.
          5    1    4    4  502    0  0.30271076722E+02 -0.12609854789E+02  0.22284263084E+03  0.22529153256E+03  0.47000000000E+01 0.  1.
         -5    1    4    4    0  502 -0.10434176905E+03  0.72112884827E+01  0.32035976447E+03  0.33703364245E+03  0.47000000000E+01 0.  1.
          5    1    3    3  503    0 -0.33492207665E+02  0.20783816700E+01  0.31075194294E+02  0.45976138866E+02  0.47000000000E+01 0.  1.
         -5    1    3    3    0  503  0.10756289999E+03  0.33201846367E+01  0.19637650052E+03  0.22397906384E+03  0.47000000000E+01 0.  1.
<mgrwt>
<rscale>  0 0.14540063E+03</rscale>
<asrwt>0</asrwt>
<pdfrwt beam="1">  1        5 0.12330264E+00 0.14540130E+03</pdfrwt>
<pdfrwt beam="2">  1       -5 0.47404839E-02 0.14540130E+03</pdfrwt>
<totfact> 0.98780286E+01</totfact>
</mgrwt>
</event>
<event>
 8    1  0.3694627E-007  0.1307765E+03  0.7546771E-02  0.1226310E+00
          5   -1    0    0  501    0  0.00000000000E+00  0.00000000000E+00  0.29576789301E+03  0.29580523413E+03  0.47000000000E+01 0. -1.
         -5   -1    0    0    0  501 -0.00000000000E+00 -0.00000000000E+00 -0.60700238702E+02  0.60881926534E+02  0.47000000000E+01 0. -1.
         25    2    1    2    0    0  0.13563784106E+02  0.35971850697E+02  0.77861045746E+02  0.15219998980E+03  0.12499817666E+03 0.  0.
         25    2    1    2    0    0 -0.13563784106E+02 -0.35971850697E+02  0.15720660857E+03  0.20448717086E+03  0.12499253973E+03 0.  0.
          5    1    4    4  502    0  0.11200026042E+02  0.43877335973E+02  0.41084658737E+02  0.61324549562E+02  0.47000000000E+01 0.  1.
         -5    1    4    4    0  502 -0.24763810148E+02 -0.79849186670E+02  0.11612194983E+03  0.14316262130E+03  0.47000000000E+01 0.  1.
          5    1    3    3  503    0 -0.21096081517E+02 -0.35397159972E+01  0.94394209322E+02  0.96901656324E+02  0.47000000000E+01 0. -1.
         -5    1    3    3    0  503  0.34659865623E+02  0.39511566694E+02 -0.16533163576E+02  0.55298333478E+02  0.47000000000E+01 0. -1.
<mgrwt>
<rscale>  0 0.13077516E+03</rscale>
<asrwt>0</asrwt>
<pdfrwt beam="1">  1        5 0.45519601E-01 0.13077651E+03</pdfrwt>
<pdfrwt beam="2">  1       -5 0.93553467E-02 0.13077651E+03</pdfrwt>
<totfact> 0.29757639E+02</totfact>
</mgrwt>
</event>
<event>
 8    1  0.3694627E-007  0.1302564E+03  0.7546771E-02  0.1227078E+00
          5   -1    0    0  501    0  0.00000000000E+00  0.00000000000E+00  0.21417545317E+02  0.21927180562E+02  0.47000000000E+01 0.  1.
         -5   -1    0    0    0  501 -0.00000000000E+00 -0.00000000000E+00 -0.78596041901E+03  0.78597447175E+03  0.47000000000E+01 0.  1.
         25    2    1    2    0    0 -0.54149189655E+01  0.36198507911E+02 -0.35481953413E+03  0.37797307165E+03  0.12500835080E+03 0.  0.
         25    2    1    2    0    0  0.54149189655E+01 -0.36198507911E+02 -0.40972333956E+03  0.42992858066E+03  0.12500286464E+03 0.  0.
          5    1    4    4  502    0 -0.21888330975E+01 -0.77756930345E+02 -0.33514534330E+03  0.34408635885E+03  0.47000000000E+01 0.  1.
         -5    1    4    4    0  502  0.76037520630E+01  0.41558422434E+02 -0.74577996254E+02  0.85842221814E+02  0.47000000000E+01 0.  1.
          5    1    3    3  503    0 -0.57180619056E+02  0.44889257077E+02 -0.15410987049E+03  0.17045999759E+03  0.47000000000E+01 0.  1.
         -5    1    3    3    0  503  0.51765700090E+02 -0.86907491651E+01 -0.20070966365E+03  0.20751307406E+03  0.47000000000E+01 0.  1.
<mgrwt>
<rscale>  0 0.13025513E+03</rscale>
<asrwt>0</asrwt>
<pdfrwt beam="1">  1        5 0.33352913E-02 0.13025644E+03</pdfrwt>
<pdfrwt beam="2">  1       -5 0.12095725E+00 0.13025644E+03</pdfrwt>
<totfact> 0.17824661E+02</totfact>
</mgrwt>
</event>
<event>
 8    1  0.3694627E-007  0.1270695E+03  0.7546771E-02  0.1231872E+00
         -5   -1    0    0    0  501 -0.00000000000E+00  0.00000000000E+00  0.62214077073E+02  0.62391356661E+02  0.47000000000E+01 0.  1.
          5   -1    0    0  501    0  0.00000000000E+00 -0.00000000000E+00 -0.25895592252E+03  0.25899857106E+03  0.47000000000E+01 0.  1.
         25    2    1    2    0    0 -0.76707942094E+01  0.21468303337E+02 -0.98721570638E+02  0.16090745551E+03  0.12500212637E+03 0.  0.
         25    2    1    2    0    0  0.76707942094E+01 -0.21468303337E+02 -0.98020274812E+02  0.16048247221E+03  0.12500768169E+03 0.  0.
          5    1    3    3  502    0 -0.59242565316E+02 -0.13240946329E+02 -0.29192890210E+02  0.67522729831E+02  0.47000000000E+01 0. -1.
         -5    1    3    3    0  502  0.51571771107E+02  0.34709249666E+02 -0.69528680427E+02  0.93384725675E+02  0.47000000000E+01 0. -1.
          5    1    4    4  503    0  0.57730733483E+02 -0.95030853487E+01 -0.11667939022E+02  0.59844607281E+02  0.47000000000E+01 0. -1.
         -5    1    4    4    0  503 -0.50059939273E+02 -0.11965217988E+02 -0.86352335790E+02  0.10063786493E+03  0.47000000000E+01 0. -1.
<mgrwt>
<rscale>  0 0.12706810E+03</rscale>
<asrwt>0</asrwt>
<pdfrwt beam="2">  1        5 0.39856290E-01 0.12706947E+03</pdfrwt>
<pdfrwt beam="1">  1       -5 0.95883142E-02 0.12706947E+03</pdfrwt>
<totfact> 0.37111992E+02</totfact>
</mgrwt>
</event>
<event>
 8    1  0.3694627E-007  0.1375870E+03  0.7546771E-02  0.1216615E+00
         -5   -1    0    0    0  501 -0.00000000000E+00  0.00000000000E+00  0.25858928967E+03  0.25863199866E+03  0.47000000000E+01 0.  1.
          5   -1    0    0  501    0  0.00000000000E+00 -0.00000000000E+00 -0.85128760100E+02  0.85258406015E+02  0.47000000000E+01 0.  1.
         25    2    1    2    0    0  0.56201710268E+02  0.12092439612E+02  0.15135260539E+03  0.20453855395E+03  0.12499419811E+03 0.  0.
         25    2    1    2    0    0 -0.56201710268E+02 -0.12092439612E+02  0.22107924184E+02  0.13935185073E+03  0.12500127462E+03 0.  0.
          5    1    3    3  502    0 -0.29146617565E+02 -0.16902930154E+02  0.87765249558E+02  0.94127909747E+02  0.47000000000E+01 0.  1.
         -5    1    3    3    0  502  0.85348327833E+02  0.28995369766E+02  0.63587355830E+02  0.11041064420E+03  0.47000000000E+01 0.  1.
          5    1    4    4  503    0  0.31504884538E+02  0.10690704569E+02  0.34042328301E+02  0.47831151252E+02  0.47000000000E+01 0. -1.
         -5    1    4    4    0  503 -0.87706594806E+02 -0.22783144181E+02 -0.11934404117E+02  0.91520699478E+02  0.47000000000E+01 0. -1.
<mgrwt>
<rscale>  0 0.13758538E+03</rscale>
<asrwt>0</asrwt>
<pdfrwt beam="2">  1        5 0.13109990E-01 0.13758698E+03</pdfrwt>
<pdfrwt beam="1">  1       -5 0.39796226E-01 0.13758698E+03</pdfrwt>
<totfact> 0.22070342E+02</totfact>
</mgrwt>
</event>
<event>
 8    1  0.3694627E-007  0.2092387E+03  0.7546771E-02  0.1142171E+00
          5   -1    0    0  501    0  0.00000000000E+00  0.00000000000E+00  0.15328517352E+03  0.15335721184E+03  0.47000000000E+01 0. -1.
         -5   -1    0    0    0  501 -0.00000000000E+00 -0.00000000000E+00 -0.28585411389E+03  0.28589274987E+03  0.47000000000E+01 0. -1.
         25    2    1    2    0    0  0.13025118162E+03  0.10578141341E+03 -0.74507969261E+02  0.22210501002E+03  0.12499648098E+03 0.  0.
         25    2    1    2    0    0 -0.13025118162E+03 -0.10578141341E+03 -0.58060971106E+02  0.21714495168E+03  0.12500310371E+03 0.  0.
          5    1    4    4  502    0 -0.10759314497E+03 -0.52394388878E+02 -0.90879267672E+02  0.15034157151E+03  0.47000000000E+01 0. -1.
         -5    1    4    4    0  502 -0.22658036651E+02 -0.53387024533E+02  0.32818296566E+02  0.66803380175E+02  0.47000000000E+01 0. -1.
          5    1    3    3  503    0  0.97468223879E+02  0.12585597846E+03 -0.86928964921E+02  0.18143460784E+03  0.47000000000E+01 0.  1.
         -5    1    3    3    0  503  0.32782957744E+02 -0.20074565051E+02  0.12420995660E+02  0.40670402182E+02  0.47000000000E+01 0.  1.
<mgrwt>
<rscale>  0 0.20923776E+03</rscale>
<asrwt>0</asrwt>
<pdfrwt beam="1">  1        5 0.23590848E-01 0.20923875E+03</pdfrwt>
<pdfrwt beam="2">  1       -5 0.43986069E-01 0.20923875E+03</pdfrwt>
<totfact> 0.68714371E+01</totfact>
</mgrwt>
</event>
<event>
 8    1  0.3694627E-007  0.1256610E+03  0.7546771E-02  0.1234041E+00
         -5   -1    0    0    0  501 -0.00000000000E+00  0.00000000000E+00  0.14972915301E+03  0.14980290138E+03  0.47000000000E+01 0. -1.
          5   -1    0    0  501    0  0.00000000000E+00 -0.00000000000E+00 -0.11149548959E+03  0.11159450793E+03  0.47000000000E+01 0. -1.
         25    2    1    2    0    0  0.12520387373E+02  0.28727307345E+01  0.49885610551E+02  0.13520083230E+03  0.12500271291E+03 0.  0.
         25    2    1    2    0    0 -0.12520387373E+02 -0.28727307345E+01 -0.11651947129E+02  0.12619657700E+03  0.12499918197E+03 0.  0.
          5    1    3    3  502    0  0.25319284455E+02  0.22704076849E+02 -0.33767506346E+02  0.48154706475E+02  0.47000000000E+01 0. -1.
         -5    1    3    3    0  502 -0.12798897082E+02 -0.19831346114E+02  0.83653116897E+02  0.87046125829E+02  0.47000000000E+01 0. -1.
          5    1    4    4  503    0 -0.22850997985E+02 -0.54101310689E+02  0.23075388506E+02  0.63274666984E+02  0.47000000000E+01 0.  1.
         -5    1    4    4    0  503  0.10330610612E+02  0.51228579955E+02 -0.34727335635E+02  0.62921910017E+02  0.47000000000E+01 0.  1.
<mgrwt>
<rscale>  0 0.12566014E+03</rscale>
<asrwt>0</asrwt>
<pdfrwt beam="2">  1        5 0.17166442E-01 0.12566102E+03</pdfrwt>
<pdfrwt beam="1">  1       -5 0.23048544E-01 0.12566102E+03</pdfrwt>
<totfact> 0.38375593E+02</totfact>
</mgrwt>
</event>
<event>
 8    1  0.3694627E-007  0.1410316E+03  0.7546771E-02  0.1211950E+00
          5   -1    0    0  501    0  0.00000000000E+00  0.00000000000E+00  0.37959745392E+03  0.37962654942E+03  0.47000000000E+01 0. -1.
         -5   -1    0    0    0  501 -0.00000000000E+00 -0.00000000000E+00 -0.52590055146E+02  0.52799658145E+02  0.47000000000E+01 0. -1.
         25    2    1    2    0    0 -0.34507879866E+02 -0.55428278650E+02  0.14635323247E+03  0.20324103763E+03  0.12499825148E+03 0.  0.
         25    2    1    2    0    0  0.34507879866E+02  0.55428278650E+02  0.18065416630E+03  0.22918516993E+03  0.12500730566E+03 0.  0.
          5    1    3    3  502    0 -0.66745973619E+02  0.94324925999E+01  0.81841043489E+02  0.10613219733E+03  0.47000000000E+01 0. -1.
         -5    1    3    3    0  502  0.32238093753E+02 -0.64860771250E+02  0.64512188983E+02  0.97108840294E+02  0.47000000000E+01 0. -1.
          5    1    4    4  503    0  0.67477739104E+02  0.60834185725E+02  0.17164643500E+03  0.19426433557E+03  0.47000000000E+01 0. -1.
         -5    1    4    4    0  503 -0.32969859238E+02 -0.54059070757E+01  0.90077313052E+01  0.34920834365E+02  0.47000000000E+01 0. -1.
<mgrwt>
<rscale>  0 0.14102960E+03</rscale>
<asrwt>0</asrwt>
<pdfrwt beam="1">  1        5 0.58417971E-01 0.14103161E+03</pdfrwt>
<pdfrwt beam="2">  1       -5 0.81091390E-02 0.14103161E+03</pdfrwt>
<totfact> 0.22967859E+02</totfact>
</mgrwt>
</event>
<event>
 8    1  0.3694627E-007  0.1257002E+03  0.7546771E-02  0.1233985E+00
         -5   -1    0    0    0  501 -0.00000000000E+00  0.00000000000E+00  0.53619430995E+03  0.53621490843E+03  0.47000000000E+01 0. -1.
          5   -1    0    0  501    0  0.00000000000E+00 -0.00000000000E+00 -0.38708341329E+02  0.38992636336E+02  0.47000000000E+01 0. -1.
         25    2    1    2    0    0  0.40260858917E+01  0.12521100856E+02  0.39024054306E+03  0.40998562413E+03  0.12501017245E+03 0.  0.
         25    2    1    2    0    0 -0.40260858917E+01 -0.12521100856E+02  0.10724542556E+03  0.16522192063E+03  0.12499485757E+03 0.  0.
          5    1    4    4  502    0  0.42412028693E+02 -0.49032627149E+02  0.43652780710E+02  0.78298365033E+02  0.47000000000E+01 0. -1.
         -5    1    4    4    0  502 -0.46438114585E+02  0.36511526294E+02  0.63592644850E+02  0.86923555596E+02  0.47000000000E+01 0. -1.
          5    1    3    3  503    0  0.10728447361E+02 -0.34970928274E+02  0.32937830377E+02  0.49447508299E+02  0.47000000000E+01 0.  1.
         -5    1    3    3    0  503 -0.67023614691E+01  0.47492029129E+02  0.35730271268E+03  0.36053811583E+03  0.47000000000E+01 0.  1.
<mgrwt>
<rscale>  0 0.12569635E+03</rscale>
<asrwt>0</asrwt>
<pdfrwt beam="2">  1        5 0.59785832E-02 0.12570016E+03</pdfrwt>
<pdfrwt beam="1">  1       -5 0.82514880E-01 0.12570016E+03</pdfrwt>
<totfact> 0.17033740E+02</totfact>
</mgrwt>
</event>
<event>
 8    1  0.3694627E-007  0.1798446E+03  0.7546771E-02  0.1167954E+00
         -5   -1    0    0    0  501 -0.00000000000E+00  0.00000000000E+00  0.68077639069E+02  0.68239687435E+02  0.47000000000E+01 0.  1.
          5   -1    0    0  501    0  0.00000000000E+00 -0.00000000000E+00 -0.51645611799E+03  0.51647750368E+03  0.47000000000E+01 0.  1.
         25    2    1    2    0    0  0.10713906361E+03  0.72384514380E+02 -0.14073800124E+03  0.22836520523E+03  0.12500074037E+03 0.  0.
         25    2    1    2    0    0 -0.10713906361E+03 -0.72384514380E+02 -0.30764047767E+03  0.35635198588E+03  0.12500310982E+03 0.  0.
          5    1    4    4  502    0 -0.63117092889E+02 -0.10208426848E+03 -0.16510742003E+03  0.20417520769E+03  0.47000000000E+01 0. -1.
         -5    1    4    4    0  502 -0.44021970721E+02  0.29699754102E+02 -0.14253305764E+03  0.15217677819E+03  0.47000000000E+01 0. -1.
          5    1    3    3  503    0  0.74586445709E+02 -0.15145767812E+02 -0.10151977093E+03  0.12696805132E+03  0.47000000000E+01 0. -1.
         -5    1    3    3    0  503  0.32552617902E+02  0.87530282192E+02 -0.39218230319E+02  0.10139715392E+03  0.47000000000E+01 0. -1.
<mgrwt>
<rscale>  0 0.17984417E+03</rscale>
<asrwt>0</asrwt>
<pdfrwt beam="2">  1        5 0.79468895E-01 0.17984458E+03</pdfrwt>
<pdfrwt beam="1">  1       -5 0.10487594E-01 0.17984458E+03</pdfrwt>
<totfact> 0.79262059E+01</totfact>
</mgrwt>
</event>
<event>
 8    1  0.3694627E-007  0.1686720E+03  0.7546771E-02  0.1179243E+00
          5   -1    0    0  501    0  0.00000000000E+00  0.00000000000E+00  0.20678453130E+02  0.21205858244E+02  0.47000000000E+01 0. -1.
         -5   -1    0    0    0  501 -0.00000000000E+00 -0.00000000000E+00 -0.13623411545E+04  0.13623492619E+04  0.47000000000E+01 0. -1.
         25    2    1    2    0    0 -0.11051148417E+03  0.24730886892E+02 -0.71033204661E+03  0.73008082930E+03  0.12498798329E+03 0.  0.
         25    2    1    2    0    0  0.11051148417E+03 -0.24730886892E+02 -0.63133065479E+03  0.65347429081E+03  0.12500339268E+03 0.  0.
          5    1    3    3  502    0  0.17347280715E+02 -0.17629046529E+02 -0.22430190666E+03  0.22571031602E+03  0.47000000000E+01 0.  1.
         -5    1    3    3    0  502 -0.12785876489E+03  0.42359933420E+02 -0.48603013996E+03  0.50437051328E+03  0.47000000000E+01 0.  1.
          5    1    4    4  503    0  0.68437709554E+02 -0.74270144487E+02 -0.43567181000E+03  0.44724913692E+03  0.47000000000E+01 0. -1.
         -5    1    4    4    0  503  0.42073774620E+02  0.49539257596E+02 -0.19565884479E+03  0.20622515389E+03  0.47000000000E+01 0. -1.
<mgrwt>
<rscale>  0 0.16866917E+03</rscale>
<asrwt>0</asrwt>
<pdfrwt beam="1">  1        5 0.32224948E-02 0.16867203E+03</pdfrwt>
<pdfrwt beam="2">  1       -5 0.20963207E+00 0.16867203E+03</pdfrwt>
<totfact> 0.42992205E+01</totfact>
</mgrwt>
</event>
<event>
 8    1  0.3694627E-007  0.1322157E+03  0.7546771E-02  0.1224206E+00
          5   -1    0    0  501    0  0.00000000000E+00  0.00000000000E+00  0.28375044386E+03  0.28378936624E+03  0.47000000000E+01 0.  1.
         -5   -1    0    0    0  501 -0.00000000000E+00 -0.00000000000E+00 -0.69508984891E+02  0.69667703999E+02  0.47000000000E+01 0.  1.
         25    2    1    2    0    0 -0.43075729938E+02  0.22251732579E+00  0.47116488110E+02  0.14035675390E+03  0.12499794754E+03 0.  0.
         25    2    1    2    0    0  0.43075729938E+02 -0.22251732579E+00  0.16712497086E+03  0.21310031633E+03  0.12500168365E+03 0.  0.
          5    1    3    3  502    0 -0.34227587848E+02 -0.60620290734E+02  0.32572108013E+02  0.77002465149E+02  0.47000000000E+01 0.  1.
         -5    1    3    3    0  502 -0.88481420898E+01  0.60842808060E+02  0.14544380097E+02  0.63354288753E+02  0.47000000000E+01 0.  1.
          5    1    4    4  503    0 -0.35236525453E+01  0.50326279384E+02  0.28111567613E+02  0.57943944960E+02  0.47000000000E+01 0. -1.
         -5    1    4    4    0  503  0.46599382483E+02 -0.50548796710E+02  0.13901340324E+03  0.15515637137E+03  0.47000000000E+01 0. -1.
<mgrwt>
<rscale>  0 0.13221481E+03</rscale>
<asrwt>0</asrwt>
<pdfrwt beam="1">  1        5 0.43669118E-01 0.13221569E+03</pdfrwt>
<pdfrwt beam="2">  1       -5 0.10708893E-01 0.13221569E+03</pdfrwt>
<totfact> 0.25729789E+02</totfact>
</mgrwt>
</event>
<event>
 8    1  0.3694627E-007  0.1324335E+03  0.7546771E-02  0.1223891E+00
         -5   -1    0    0    0  501 -0.00000000000E+00  0.00000000000E+00  0.70272345261E+02  0.70429344086E+02  0.47000000000E+01 0. -1.
          5   -1    0    0  501    0  0.00000000000E+00 -0.00000000000E+00 -0.28993605841E+03  0.28997415051E+03  0.47000000000E+01 0. -1.
         25    2    1    2    0    0 -0.27834830851E+02 -0.33734628610E+02 -0.42235195796E+02  0.13899999280E+03  0.12499753301E+03 0.  0.
         25    2    1    2    0    0  0.27834830851E+02  0.33734628610E+02 -0.17742851735E+03  0.22140350180E+03  0.12500331541E+03 0.  0.
          5    1    4    4  502    0  0.77082714278E+02  0.24695238377E+02 -0.95548386799E+02  0.12531234520E+03  0.47000000000E+01 0. -1.
         -5    1    4    4    0  502 -0.49247883428E+02  0.90393902326E+01 -0.81880130552E+02  0.96091156602E+02  0.47000000000E+01 0. -1.
          5    1    3    3  503    0  0.20798376319E+02 -0.10177885610E+02 -0.72939311869E+02  0.76670692112E+02  0.47000000000E+01 0. -1.
         -5    1    3    3    0  503 -0.48633207169E+02 -0.23556743000E+02  0.30704116073E+02  0.62329300687E+02  0.47000000000E+01 0. -1.
<mgrwt>
<rscale>  0 0.13243214E+03</rscale>
<asrwt>0</asrwt>
<pdfrwt beam="2">  1        5 0.44620554E-01 0.13243350E+03</pdfrwt>
<pdfrwt beam="1">  1       -5 0.10826137E-01 0.13243350E+03</pdfrwt>
<totfact> 0.24152893E+02</totfact>
</mgrwt>
</event>
<event>
 8    1  0.3694627E-007  0.1346030E+03  0.7546771E-02  0.1220785E+00
          5   -1    0    0  501    0  0.00000000000E+00  0.00000000000E+00  0.42439256335E+03  0.42441858798E+03  0.47000000000E+01 0.  1.
         -5   -1    0    0    0  501 -0.00000000000E+00 -0.00000000000E+00 -0.55276097992E+02  0.55475553258E+02  0.47000000000E+01 0.  1.
         25    2    1    2    0    0  0.49581381792E+02  0.56521588026E+01  0.69613818503E+02  0.15153894677E+03  0.12501083290E+03 0.  0.
         25    2    1    2    0    0 -0.49581381792E+02 -0.56521588026E+01  0.29950264685E+03  0.32835519447E+03  0.12500015178E+03 0.  0.
          5    1    3    3  502    0 -0.54777316623E+00 -0.45451867254E+02 -0.73945745810E+01  0.46291921818E+02  0.47000000000E+01 0. -1.
         -5    1    3    3    0  502  0.50129154958E+02  0.51104026057E+02  0.77008393084E+02  0.10524702495E+03  0.47000000000E+01 0. -1.
          5    1    4    4  503    0 -0.97652867307E+01 -0.37182691174E+02  0.26249822903E+03  0.26534001506E+03  0.47000000000E+01 0. -1.
         -5    1    4    4    0  503 -0.39816095061E+02  0.31530532371E+02  0.37004417819E+02  0.63015179407E+02  0.47000000000E+01 0. -1.
<mgrwt>
<rscale>  0 0.13460052E+03</rscale>
<asrwt>0</asrwt>
<pdfrwt beam="1">  1        5 0.65308506E-01 0.13460300E+03</pdfrwt>
<pdfrwt beam="2">  1       -5 0.85213600E-02 0.13460300E+03</pdfrwt>
<totfact> 0.16248370E+02</totfact>
</mgrwt>
</event>
<event>
 8    1  0.3694627E-007  0.1285797E+03  0.7546771E-02  0.1229582E+00
          5   -1    0    0  501    0  0.00000000000E+00  0.00000000000E+00  0.23572531592E+03  0.23577216665E+03  0.47000000000E+01 0.  1.
         -5   -1    0    0    0  501 -0.00000000000E+00 -0.00000000000E+00 -0.70669873397E+02  0.70825991034E+02  0.47000000000E+01 0.  1.
         25    2    1    2    0    0  0.24515648569E+02  0.17546287851E+02  0.97452218768E+02  0.16133712088E+03  0.12499536947E+03 0.  0.
         25    2    1    2    0    0 -0.24515648569E+02 -0.17546287851E+02  0.67603223757E+02  0.14526103681E+03  0.12498673413E+03 0.  0.
          5    1    4    4  502    0 -0.43963886735E+02  0.24114921860E+02  0.82539007369E+02  0.96690902005E+02  0.47000000000E+01 0. -1.
         -5    1    4    4    0  502  0.19448238166E+02 -0.41661209711E+02 -0.14935783612E+02  0.48570134800E+02  0.47000000000E+01 0. -1.
          5    1    3    3  503    0  0.15287519224E+02  0.58840831102E+02  0.70120952165E+01  0.61377610968E+02  0.47000000000E+01 0. -1.
         -5    1    3    3    0  503  0.92281293449E+01 -0.41294543251E+02  0.90440123552E+02  0.99959509910E+02  0.47000000000E+01 0. -1.
<mgrwt>
<rscale>  0 0.12857757E+03</rscale>
<asrwt>0</asrwt>
<pdfrwt beam="1">  1        5 0.36281047E-01 0.12857967E+03</pdfrwt>
<pdfrwt beam="2">  1       -5 0.10887901E-01 0.12857967E+03</pdfrwt>
<totfact> 0.36119241E+02</totfact>
</mgrwt>
</event>
<event>
 8    1  0.3694627E-007  0.1462137E+03  0.7546771E-02  0.1205206E+00
         -5   -1    0    0    0  501 -0.00000000000E+00  0.00000000000E+00  0.24509663440E+03  0.24514169412E+03  0.47000000000E+01 0.  1.
          5   -1    0    0  501    0  0.00000000000E+00 -0.00000000000E+00 -0.10850475233E+03  0.10860649740E+03  0.47000000000E+01 0.  1.
         25    2    1    2    0    0  0.73976316384E+02 -0.16743356165E+02  0.14678986272E+03  0.20718519558E+03  0.12500242442E+03 0.  0.
         25    2    1    2    0    0 -0.73976316384E+02  0.16743356165E+02 -0.10197980648E+02  0.14656299594E+03  0.12499551035E+03 0.  0.
          5    1    3    3  502    0  0.96693319870E+02 -0.10878836804E+02  0.54046709700E+02  0.11140504489E+03  0.47000000000E+01 0. -1.
         -5    1    3    3    0  502 -0.22717003486E+02 -0.58645193612E+01  0.92743153019E+02  0.95780150693E+02  0.47000000000E+01 0. -1.
          5    1    4    4  503    0 -0.10774887876E+03  0.19043114824E+02  0.39114888507E+01  0.10958946501E+03  0.47000000000E+01 0. -1.
         -5    1    4    4    0  503  0.33772562378E+02 -0.22997586586E+01 -0.14109469499E+02  0.36973530924E+02  0.47000000000E+01 0. -1.
<mgrwt>
<rscale>  0 0.14621221E+03</rscale>
<asrwt>0</asrwt>
<pdfrwt beam="2">  1        5 0.16704332E-01 0.14621368E+03</pdfrwt>
<pdfrwt beam="1">  1       -5 0.37718467E-01 0.14621368E+03</pdfrwt>
<totfact> 0.16203924E+02</totfact>
</mgrwt>
</event>
<event>
 8    1  0.3694627E-007  0.1264067E+03  0.7546771E-02  0.1232889E+00
         -5   -1    0    0    0  501 -0.00000000000E+00  0.00000000000E+00  0.13667880103E+03  0.13675958706E+03  0.47000000000E+01 0. -1.
          5   -1    0    0  501    0  0.00000000000E+00 -0.00000000000E+00 -0.13416741561E+03  0.13424971289E+03  0.47000000000E+01 0. -1.
         25    2    1    2    0    0 -0.39636458915E+01  0.18312662918E+02  0.50063389442E+02  0.13595958273E+03  0.12501040381E+03 0.  0.
         25    2    1    2    0    0  0.39636458915E+01 -0.18312662918E+02 -0.47552004013E+02  0.13504971722E+03  0.12500467560E+03 0.  0.
          5    1    3    3  502    0 -0.13124314214E+01  0.16793309219E+02 -0.41078179263E+02  0.44645767126E+02  0.47000000000E+01 0.  1.
         -5    1    3    3    0  502 -0.26512144701E+01  0.15193536981E+01  0.91141568704E+02  0.91313815601E+02  0.47000000000E+01 0.  1.
          5    1    4    4  503    0 -0.27147050794E+02  0.41543129751E+02  0.40142227604E+01  0.50009978811E+02  0.47000000000E+01 0.  1.
         -5    1    4    4    0  503  0.31110696685E+02 -0.59855792669E+02 -0.51566226773E+02  0.85039738405E+02  0.47000000000E+01 0.  1.
<mgrwt>
<rscale>  0 0.12640533E+03</rscale>
<asrwt>0</asrwt>
<pdfrwt beam="2">  1        5 0.20653686E-01 0.12640674E+03</pdfrwt>
<pdfrwt beam="1">  1       -5 0.21040053E-01 0.12640674E+03</pdfrwt>
<totfact> 0.32430526E+02</totfact>
</mgrwt>
</event>
<event>
 8    1  0.3694627E-007  0.1367485E+03  0.7546771E-02  0.1217774E+00
          5   -1    0    0  501    0  0.00000000000E+00  0.00000000000E+00  0.48560729560E+02  0.48787646545E+02  0.47000000000E+01 0. -1.
         -5   -1    0    0    0  501 -0.00000000000E+00 -0.00000000000E+00 -0.38833599597E+03  0.38836443679E+03  0.47000000000E+01 0. -1.
         25    2    1    2    0    0  0.39685776772E+02  0.38705815512E+02 -0.19316128830E+03  0.23666733414E+03  0.12500817061E+03 0.  0.
         25    2    1    2    0    0 -0.39685776772E+02 -0.38705815512E+02 -0.14661397811E+03  0.20048474920E+03  0.12500150019E+03 0.  0.
          5    1    3    3  502    0  0.75620670065E+02  0.29980265702E+02 -0.68177113646E+02  0.10624269809E+03  0.47000000000E+01 0.  1.
         -5    1    3    3    0  502 -0.35934893293E+02  0.87255498102E+01 -0.12498417465E+03  0.13042463605E+03  0.47000000000E+01 0.  1.
          5    1    4    4  503    0  0.26065051596E+02 -0.60737575913E+02 -0.83547801735E+02  0.10663379022E+03  0.47000000000E+01 0.  1.
         -5    1    4    4    0  503 -0.65750828369E+02  0.22031760401E+02 -0.63066176376E+02  0.93850958974E+02  0.47000000000E+01 0.  1.
<mgrwt>
<rscale>  0 0.13674694E+03</rscale>
<asrwt>0</asrwt>
<pdfrwt beam="1">  1        5 0.74905246E-02 0.13674847E+03</pdfrwt>
<pdfrwt beam="2">  1       -5 0.59763640E-01 0.13674847E+03</pdfrwt>
<totfact> 0.24775087E+02</totfact>
</mgrwt>
</event>
<event>
 8    1  0.3694627E-007  0.1496938E+03  0.7546771E-02  0.1200852E+00
         -5   -1    0    0    0  501 -0.00000000000E+00  0.00000000000E+00  0.16695851821E+02  0.17344782156E+02  0.47000000000E+01 0. -1.
          5   -1    0    0  501    0  0.00000000000E+00 -0.00000000000E+00 -0.15056028456E+04  0.15056101815E+04  0.47000000000E+01 0. -1.
         25    2    1    2    0    0  0.59323502663E+02  0.57143136730E+02 -0.47418928948E+03  0.49725618449E+03  0.12499445871E+03 0.  0.
         25    2    1    2    0    0 -0.59323502663E+02 -0.57143136730E+02 -0.10147177043E+04  0.10256987792E+04  0.12498539979E+03 0.  0.
          5    1    3    3  502    0  0.56012049670E+01  0.86837618831E+02 -0.30542299891E+03  0.31761209643E+03  0.47000000000E+01 0.  1.
         -5    1    3    3    0  502  0.53722297696E+02 -0.29694482101E+02 -0.16876629058E+03  0.17964408805E+03  0.47000000000E+01 0.  1.
          5    1    4    4  503    0 -0.54136935074E+02  0.30002371221E+02 -0.44680380542E+03  0.45109497953E+03  0.47000000000E+01 0.  1.
         -5    1    4    4    0  503 -0.51865675894E+01 -0.87145507951E+02 -0.56791389885E+03  0.57460379963E+03  0.47000000000E+01 0.  1.
<mgrwt>
<rscale>  0 0.14969190E+03</rscale>
<asrwt>0</asrwt>
<pdfrwt beam="2">  1        5 0.23168158E+00 0.14969379E+03</pdfrwt>
<pdfrwt beam="1">  1       -5 0.26190758E-02 0.14969379E+03</pdfrwt>
<totfact> 0.41794212E+01</totfact>
</mgrwt>
</event>
<event>
 8    1  0.3694627E-007  0.1446353E+03  0.7546771E-02  0.1207225E+00
          5   -1    0    0  501    0  0.00000000000E+00  0.00000000000E+00  0.34545380317E+02  0.34863638670E+02  0.47000000000E+01 0. -1.
         -5   -1    0    0    0  501 -0.00000000000E+00 -0.00000000000E+00 -0.69878238764E+03  0.69879819353E+03  0.47000000000E+01 0. -1.
         25    2    1    2    0    0  0.11959091659E+02 -0.71769274964E+02 -0.46828405700E+03  0.49011153540E+03  0.12500204154E+03 0.  0.
         25    2    1    2    0    0 -0.11959091659E+02  0.71769274964E+02 -0.19595295033E+03  0.24355029680E+03  0.12500135851E+03 0.  0.
          5    1    4    4  502    0 -0.66660631349E+02  0.26176003082E+02 -0.11573334606E+03  0.13618046960E+03  0.47000000000E+01 0. -1.
         -5    1    4    4    0  502  0.54701539690E+02  0.45593271881E+02 -0.80219604267E+02  0.10736982721E+03  0.47000000000E+01 0. -1.
          5    1    3    3  503    0  0.66247926403E+02 -0.19722145348E+02 -0.22406220645E+03  0.23452870428E+03  0.47000000000E+01 0. -1.
         -5    1    3    3    0  503 -0.54288834744E+02 -0.52047129616E+02 -0.24422185055E+03  0.25558283112E+03  0.47000000000E+01 0. -1.
<mgrwt>
<rscale>  0 0.14463511E+03</rscale>
<asrwt>0</asrwt>
<pdfrwt beam="1">  1        5 0.53403717E-02 0.14463526E+03</pdfrwt>
<pdfrwt beam="2">  1       -5 0.10753067E+00 0.14463526E+03</pdfrwt>
<totfact> 0.11419667E+02</totfact>
</mgrwt>
</event>
<event>
 8    1  0.3694627E-007  0.1329123E+03  0.7546771E-02  0.1223198E+00
         -5   -1    0    0    0  501 -0.00000000000E+00  0.00000000000E+00  0.34482904748E+02  0.34801734438E+02  0.47000000000E+01 0.  1.
          5   -1    0    0  501    0  0.00000000000E+00 -0.00000000000E+00 -0.11681959066E+04  0.11682053613E+04  0.47000000000E+01 0.  1.
         25    2    1    2    0    0  0.28607563794E+02 -0.34949838681E+02 -0.11528826097E+03  0.17594616149E+03  0.12500313875E+03 0.  0.
         25    2    1    2    0    0 -0.28607563794E+02  0.34949838681E+02 -0.10184247409E+04  0.10270609342E+04  0.12500130359E+03 0.  0.
          5    1    3    3  502    0  0.10099861436E+02 -0.53404048928E+02 -0.13318389075E+03  0.14392372424E+03  0.47000000000E+01 0. -1.
         -5    1    3    3    0  502  0.18507702358E+02  0.18454210247E+02  0.17895629784E+02  0.32022437255E+02  0.47000000000E+01 0. -1.
          5    1    4    4  503    0 -0.42958645316E+02 -0.88767908509E+01 -0.12723731057E+03  0.13466872623E+03  0.47000000000E+01 0.  1.
         -5    1    4    4    0  503  0.14351081522E+02  0.43826629532E+02 -0.89118743028E+03  0.89239220799E+03  0.47000000000E+01 0.  1.
<mgrwt>
<rscale>  0 0.13291183E+03</rscale>
<asrwt>0</asrwt>
<pdfrwt beam="2">  1        5 0.17974767E+00 0.13291226E+03</pdfrwt>
<pdfrwt beam="1">  1       -5 0.53303158E-02 0.13291226E+03</pdfrwt>
<totfact> 0.28253816E+01</totfact>
</mgrwt>
</event>
<event>
 8    1  0.3694627E-007  0.1350623E+03  0.7546771E-02  0.1220133E+00
         -5   -1    0    0    0  501 -0.00000000000E+00  0.00000000000E+00  0.21932121968E+03  0.21937157382E+03  0.47000000000E+01 0.  1.
          5   -1    0    0  501    0  0.00000000000E+00 -0.00000000000E+00 -0.88008435679E+02  0.88133845659E+02  0.47000000000E+01 0.  1.
         25    2    1    2    0    0  0.49850340106E+02 -0.11430146888E+02  0.10213221502E+03  0.16932682645E+03  0.12499952057E+03 0.  0.
         25    2    1    2    0    0 -0.49850340106E+02  0.11430146888E+02  0.29180568975E+02  0.13817859303E+03  0.12500445312E+03 0.  0.
          5    1    3    3  502    0  0.54012597335E+02 -0.62658998970E+02  0.70498300350E+02  0.10879159515E+03  0.47000000000E+01 0. -1.
         -5    1    3    3    0  502 -0.41622572288E+01  0.51228852082E+02  0.31633914675E+02  0.60535231300E+02  0.47000000000E+01 0. -1.
          5    1    4    4  503    0  0.23110336527E+02  0.13777659468E+02  0.54344205624E+02  0.60821823713E+02  0.47000000000E+01 0.  1.
         -5    1    4    4    0  503 -0.72960676633E+02 -0.23475125798E+01 -0.25163636649E+02  0.77356769319E+02  0.47000000000E+01 0.  1.
<mgrwt>
<rscale>  0 0.13506113E+03</rscale>
<asrwt>0</asrwt>
<pdfrwt beam="2">  1        5 0.13553280E-01 0.13506227E+03</pdfrwt>
<pdfrwt beam="1">  1       -5 0.33755246E-01 0.13506227E+03</pdfrwt>
<totfact> 0.28808398E+02</totfact>
</mgrwt>
</event>
<event>
 8    1  0.3694627E-007  0.1518820E+03  0.7546771E-02  0.1198193E+00
         -5   -1    0    0    0  501 -0.00000000000E+00  0.00000000000E+00  0.13209081590E+03  0.13217440617E+03  0.47000000000E+01 0. -1.
          5   -1    0    0  501    0  0.00000000000E+00 -0.00000000000E+00 -0.18612998709E+03  0.18618931789E+03  0.47000000000E+01 0. -1.
         25    2    1    2    0    0 -0.47351691710E+02  0.72126321687E+02  0.12892269455E+02  0.15242823723E+03  0.12499507153E+03 0.  0.
         25    2    1    2    0    0  0.47351691710E+02 -0.72126321687E+02 -0.66931440647E+02  0.16593548682E+03  0.12494150252E+03 0.  0.
          5    1    4    4  502    0  0.61634246873E+02 -0.99335992313E+02 -0.36818142378E+02  0.12265433284E+03  0.47000000000E+01 0.  1.
         -5    1    4    4    0  502 -0.14282555163E+02  0.27209670626E+02 -0.30113298269E+02  0.43281153984E+02  0.47000000000E+01 0.  1.
          5    1    3    3  503    0 -0.65732455454E+02  0.72906295984E+02  0.50356939528E+02  0.11042642371E+03  0.47000000000E+01 0. -1.
         -5    1    3    3    0  503  0.18380763745E+02 -0.77997429632E+00 -0.37464670073E+02  0.42001813525E+02  0.47000000000E+01 0. -1.
<mgrwt>
<rscale>  0 0.15187103E+03</rscale>
<asrwt>0</asrwt>
<pdfrwt beam="2">  1        5 0.28646377E-01 0.15188205E+03</pdfrwt>
<pdfrwt beam="1">  1       -5 0.20332658E-01 0.15188205E+03</pdfrwt>
<totfact> 0.19713382E+02</totfact>
</mgrwt>
</event>
<event>
 8    1  0.3694627E-007  0.1492743E+03  0.7546771E-02  0.1201373E+00
         -5   -1    0    0    0  501 -0.00000000000E+00  0.00000000000E+00  0.13682566293E+03  0.13690636229E+03  0.47000000000E+01 0. -1.
          5   -1    0    0  501    0  0.00000000000E+00 -0.00000000000E+00 -0.16601813348E+03  0.16608464904E+03  0.47000000000E+01 0. -1.
         25    2    1    2    0    0  0.49092291706E+02 -0.65176852947E+02  0.68998816616E+01  0.14941539495E+03  0.12497710436E+03 0.  0.
         25    2    1    2    0    0 -0.49092291706E+02  0.65176852947E+02 -0.36092352219E+02  0.15357561638E+03  0.12499894716E+03 0.  0.
          5    1    3    3  502    0  0.56498794589E+02 -0.38989606290E+02 -0.50745662083E+02  0.85495704037E+02  0.47000000000E+01 0. -1.
         -5    1    3    3    0  502 -0.74065028822E+01 -0.26187246658E+02  0.57645543744E+02  0.63919690910E+02  0.47000000000E+01 0. -1.
          5    1    4    4  503    0 -0.45903561784E+02 -0.94644299312E+01 -0.58808735873E+02  0.75347659774E+02  0.47000000000E+01 0. -1.
         -5    1    4    4    0  503 -0.31887299221E+01  0.74641282878E+02  0.22716383654E+02  0.78227956605E+02  0.47000000000E+01 0. -1.
<mgrwt>
<rscale>  0 0.14926971E+03</rscale>
<asrwt>0</asrwt>
<pdfrwt beam="2">  1        5 0.25552576E-01 0.14927428E+03</pdfrwt>
<pdfrwt beam="1">  1       -5 0.21061426E-01 0.14927428E+03</pdfrwt>
<totfact> 0.22898313E+02</totfact>
</mgrwt>
</event>
<event>
 8    1  0.3694627E-007  0.1331970E+03  0.7546771E-02  0.1222794E+00
          5   -1    0    0  501    0  0.00000000000E+00  0.00000000000E+00  0.87769105372E+02  0.87894856834E+02  0.47000000000E+01 0. -1.
         -5   -1    0    0    0  501 -0.00000000000E+00 -0.00000000000E+00 -0.25118524204E+03  0.25122920973E+03  0.47000000000E+01 0. -1.
         25    2    1    2    0    0  0.43635175458E+02  0.14509479535E+02 -0.15686037805E+03  0.20578291631E+03  0.12500750742E+03 0.  0.
         25    2    1    2    0    0 -0.43635175458E+02 -0.14509479535E+02 -0.65557586247E+01  0.13334115025E+03  0.12498932292E+03 0.  0.
          5    1    4    4  502    0  0.32822918390E+02  0.28105309412E+02 -0.13213342277E+02  0.45430549225E+02  0.47000000000E+01 0.  1.
         -5    1    4    4    0  502 -0.76458093848E+02 -0.42614788947E+02  0.66575836519E+01  0.87910601022E+02  0.47000000000E+01 0.  1.
          5    1    3    3  503    0  0.36674570485E+02  0.58775810254E+02 -0.39083624748E+02  0.79682116656E+02  0.47000000000E+01 0. -1.
         -5    1    3    3    0  503  0.69606049727E+01 -0.44266330719E+02 -0.11777675330E+03  0.12610079966E+03  0.47000000000E+01 0. -1.
<mgrwt>
<rscale>  0 0.13319269E+03</rscale>
<asrwt>0</asrwt>
<pdfrwt beam="1">  1        5 0.13515995E-01 0.13319696E+03</pdfrwt>
<pdfrwt beam="2">  1       -5 0.38656938E-01 0.13319696E+03</pdfrwt>
<totfact> 0.21931404E+02</totfact>
</mgrwt>
</event>
<event>
 8    1  0.3694627E-007  0.1400048E+03  0.7546771E-02  0.1213323E+00
         -5   -1    0    0    0  501 -0.00000000000E+00  0.00000000000E+00  0.81844512125E+02  0.81979352065E+02  0.47000000000E+01 0. -1.
          5   -1    0    0  501    0  0.00000000000E+00 -0.00000000000E+00 -0.23997344656E+03  0.24001946808E+03  0.47000000000E+01 0. -1.
         25    2    1    2    0    0  0.59582232341E+02  0.20618283065E+02 -0.88572781581E+02  0.16566980910E+03  0.12500476792E+03 0.  0.
         25    2    1    2    0    0 -0.59582232341E+02 -0.20618283065E+02 -0.69556152859E+02  0.15632901104E+03  0.12500218113E+03 0.  0.
          5    1    3    3  502    0  0.13011767848E+02  0.59310878132E+02 -0.33131373492E+01  0.60993059002E+02  0.47000000000E+01 0.  1.
         -5    1    3    3    0  502  0.46570464494E+02 -0.38692595068E+02 -0.85259644232E+02  0.10467675010E+03  0.47000000000E+01 0.  1.
          5    1    4    4  503    0  0.13629077188E+02 -0.39053941827E+02 -0.69115683321E+02  0.80684755674E+02  0.47000000000E+01 0. -1.
         -5    1    4    4    0  503 -0.73211309530E+02  0.18435658763E+02 -0.44046953798E+00  0.75644255370E+02  0.47000000000E+01 0. -1.
<mgrwt>
<rscale>  0 0.14000424E+03</rscale>
<asrwt>0</asrwt>
<pdfrwt beam="2">  1        5 0.36932904E-01 0.14000481E+03</pdfrwt>
<pdfrwt beam="1">  1       -5 0.12605376E-01 0.14000481E+03</pdfrwt>
<totfact> 0.27712225E+02</totfact>
</mgrwt>
</event>
<event>
 8    1  0.3694627E-007  0.1475061E+03  0.7546771E-02  0.1203572E+00
          5   -1    0    0  501    0  0.00000000000E+00  0.00000000000E+00  0.76383856483E+03  0.76385302456E+03  0.47000000000E+01 0. -1.
         -5   -1    0    0    0  501 -0.00000000000E+00 -0.00000000000E+00 -0.29318297534E+02  0.29692634950E+02  0.47000000000E+01 0. -1.
         25    2    1    2    0    0 -0.71262311331E+02  0.32469102286E+02  0.29294976777E+03  0.32799024889E+03  0.12500190923E+03 0.  0.
         25    2    1    2    0    0  0.71262311331E+02 -0.32469102286E+02  0.44157049953E+03  0.46555541062E+03  0.12499909873E+03 0.  0.
          5    1    3    3  502    0 -0.72174477768E+02  0.14187695363E+02  0.62131004375E+02  0.96399157908E+02  0.47000000000E+01 0. -1.
         -5    1    3    3    0  502  0.91216643653E+00  0.18281406923E+02  0.23081876340E+03  0.23159109098E+03  0.47000000000E+01 0. -1.
          5    1    4    4  503    0 -0.34507070861E+01  0.41316518540E+02  0.10638331674E+03  0.11427362848E+03  0.47000000000E+01 0. -1.
         -5    1    4    4    0  503  0.74713018417E+02 -0.73785620826E+02  0.33518718278E+03  0.35128178214E+03  0.47000000000E+01 0. -1.
<mgrwt>
<rscale>  0 0.14750546E+03</rscale>
<asrwt>0</asrwt>
<pdfrwt beam="1">  1        5 0.11754352E+00 0.14750606E+03</pdfrwt>
<pdfrwt beam="2">  1       -5 0.45404153E-02 0.14750606E+03</pdfrwt>
<totfact> 0.12042690E+02</totfact>
</mgrwt>
</event>
<event>
 8    1  0.3694627E-007  0.1619283E+03  0.7546771E-02  0.1186537E+00
         -5   -1    0    0    0  501 -0.00000000000E+00  0.00000000000E+00  0.16012351000E+03  0.16019247315E+03  0.47000000000E+01 0. -1.
          5   -1    0    0  501    0  0.00000000000E+00 -0.00000000000E+00 -0.21236975724E+03  0.21242175922E+03  0.47000000000E+01 0. -1.
         25    2    1    2    0    0  0.43494197068E+02 -0.93294454771E+02  0.63119069698E+02  0.17379291098E+03  0.12499743388E+03 0.  0.
         25    2    1    2    0    0 -0.43494197068E+02  0.93294454771E+02 -0.11536531695E+03  0.19882132140E+03  0.12500064407E+03 0.  0.
          5    1    4    4  502    0 -0.51410111034E+02  0.64276529902E+02 -0.13809311908E+03  0.16082994544E+03  0.47000000000E+01 0.  1.
         -5    1    4    4    0  502  0.79159139655E+01  0.29017924869E+02  0.22727802130E+02  0.37991375959E+02  0.47000000000E+01 0.  1.
          5    1    3    3  503    0  0.20293121648E+02 -0.39196143454E+02 -0.36847168305E+02  0.57688406634E+02  0.47000000000E+01 0.  1.
         -5    1    3    3    0  503  0.23201075421E+02 -0.54098311317E+02  0.99966238003E+02  0.11610450434E+03  0.47000000000E+01 0.  1.
<mgrwt>
<rscale>  0 0.16192764E+03</rscale>
<asrwt>0</asrwt>
<pdfrwt beam="2">  1        5 0.32681576E-01 0.16192826E+03</pdfrwt>
<pdfrwt beam="1">  1       -5 0.24643691E-01 0.16192826E+03</pdfrwt>
<totfact> 0.10775608E+02</totfact>
</mgrwt>
</event>
<event>
 8    1  0.3694627E-007  0.1314812E+03  0.7546771E-02  0.1225276E+00
         -5   -1    0    0    0  501 -0.00000000000E+00  0.00000000000E+00  0.34477859695E+03  0.34481063051E+03  0.47000000000E+01 0.  1.
          5   -1    0    0  501    0  0.00000000000E+00 -0.00000000000E+00 -0.50123354099E+02  0.50343228205E+02  0.47000000000E+01 0.  1.
         25    2    1    2    0    0  0.40642448321E+02 -0.31587223545E+01  0.15732516239E+03  0.20503297185E+03  0.12500210676E+03 0.  0.
         25    2    1    2    0    0 -0.40642448321E+02  0.31587223545E+01  0.13733008046E+03  0.19012088687E+03  0.12499845795E+03 0.  0.
          5    1    4    4  502    0 -0.12238852772E+00  0.58476255047E+02  0.40138244295E+02  0.71082037382E+02  0.47000000000E+01 0. -1.
         -5    1    4    4    0  502 -0.40520059793E+02 -0.55317532693E+02  0.97191836167E+02  0.11903884948E+03  0.47000000000E+01 0. -1.
          5    1    3    3  503    0  0.47712268938E+02  0.53540093651E+02  0.68309745506E+02  0.99152980623E+02  0.47000000000E+01 0. -1.
         -5    1    3    3    0  503 -0.70698206167E+01 -0.56698816005E+02  0.89015416882E+02  0.10587999123E+03  0.47000000000E+01 0. -1.
<mgrwt>
<rscale>  0 0.13148036E+03</rscale>
<asrwt>0</asrwt>
<pdfrwt beam="2">  1        5 0.77306630E-02 0.13148123E+03</pdfrwt>
<pdfrwt beam="1">  1       -5 0.53062237E-01 0.13148123E+03</pdfrwt>
<totfact> 0.29951958E+02</totfact>
</mgrwt>
</event>
<event>
 8    1  0.3694627E-007  0.1440112E+03  0.7546771E-02  0.1208037E+00
         -5   -1    0    0    0  501 -0.00000000000E+00  0.00000000000E+00  0.41489321886E+03  0.41491983931E+03  0.47000000000E+01 0. -1.
          5   -1    0    0  501    0  0.00000000000E+00 -0.00000000000E+00 -0.49938598634E+02  0.50159282626E+02  0.47000000000E+01 0. -1.
         25    2    1    2    0    0 -0.69606678445E+01  0.71145490182E+02  0.19265216902E+03  0.24051874298E+03  0.12499710328E+03 0.  0.
         25    2    1    2    0    0  0.69606678445E+01 -0.71145490182E+02  0.17230245121E+03  0.22456037896E+03  0.12501638866E+03 0.  0.
          5    1    3    3  502    0 -0.39504824452E+02 -0.40958141383E+01  0.13338416203E+03  0.13925096599E+03  0.47000000000E+01 0. -1.
         -5    1    3    3    0  502  0.32544156608E+02  0.75241304320E+02  0.59268006988E+02  0.10126777699E+03  0.47000000000E+01 0. -1.
          5    1    4    4  503    0  0.60847546742E+02 -0.91097591686E+01  0.73781235998E+02  0.96183015351E+02  0.47000000000E+01 0. -1.
         -5    1    4    4    0  503 -0.53886878897E+02 -0.62035731013E+02  0.98521215210E+02  0.12837736360E+03  0.47000000000E+01 0. -1.
<mgrwt>
<rscale>  0 0.14400703E+03</rscale>
<asrwt>0</asrwt>
<pdfrwt beam="2">  1        5 0.77018849E-02 0.14401121E+03</pdfrwt>
<pdfrwt beam="1">  1       -5 0.63848748E-01 0.14401121E+03</pdfrwt>
<totfact> 0.20781514E+02</totfact>
</mgrwt>
</event>
<event>
 8    1  0.3694627E-007  0.1324019E+03  0.7546771E-02  0.1223938E+00
          5   -1    0    0  501    0  0.00000000000E+00  0.00000000000E+00  0.32285744619E+03  0.32289165452E+03  0.47000000000E+01 0. -1.
         -5   -1    0    0    0  501 -0.00000000000E+00 -0.00000000000E+00 -0.69634669627E+02  0.69793102912E+02  0.47000000000E+01 0. -1.
         25    2    1    2    0    0 -0.13107549075E+01 -0.43630004436E+02  0.34177365401E+02  0.13673326226E+03  0.12499038898E+03 0.  0.
         25    2    1    2    0    0  0.13107549075E+01  0.43630004436E+02  0.21904541116E+03  0.25595149517E+03  0.12499992145E+03 0.  0.
          5    1    4    4  502    0 -0.45074065839E+02 -0.22848142747E+02  0.74137616459E+02  0.89845340516E+02  0.47000000000E+01 0. -1.
         -5    1    4    4    0  502  0.46384820746E+02  0.66478147183E+02  0.14490779470E+03  0.16610615465E+03  0.47000000000E+01 0. -1.
          5    1    3    3  503    0 -0.35307385637E+00  0.42607158123E+02 -0.24060617236E+01  0.42934528267E+02  0.47000000000E+01 0. -1.
         -5    1    3    3    0  503 -0.95768105116E+00 -0.86237162559E+02  0.36583427125E+02  0.93798733997E+02  0.47000000000E+01 0. -1.
<mgrwt>
<rscale>  0 0.13239970E+03</rscale>
<asrwt>0</asrwt>
<pdfrwt beam="1">  1        5 0.49685193E-01 0.13240195E+03</pdfrwt>
<pdfrwt beam="2">  1       -5 0.10727845E-01 0.13240195E+03</pdfrwt>
<totfact> 0.19586886E+02</totfact>
</mgrwt>
</event>
<event>
 8    1  0.3694627E-007  0.1812643E+03  0.7546771E-02  0.1166585E+00
          5   -1    0    0  501    0  0.00000000000E+00  0.00000000000E+00  0.58984960066E+02  0.59171914909E+02  0.47000000000E+01 0.  1.
         -5   -1    0    0    0  501 -0.00000000000E+00 -0.00000000000E+00 -0.62575687458E+03  0.62577452495E+03  0.47000000000E+01 0.  1.
         25    2    1    2    0    0 -0.12975752923E+03 -0.19851090705E+02 -0.39775269426E+03  0.43710861795E+03  0.12500262359E+03 0.  0.
         25    2    1    2    0    0  0.12975752923E+03  0.19851090705E+02 -0.16901922025E+03  0.24783782191E+03  0.12500002785E+03 0.  0.
          5    1    3    3  502    0 -0.11359751293E+03  0.36757748010E+02 -0.22863843652E+03  0.25797897519E+03  0.47000000000E+01 0. -1.
         -5    1    3    3    0  502 -0.16160016296E+02 -0.56608838715E+02 -0.16911425773E+03  0.17912964276E+03  0.47000000000E+01 0. -1.
          5    1    4    4  503    0 -0.16373811293E+02  0.28753018370E+02 -0.20334018405E+02  0.39120328042E+02  0.47000000000E+01 0.  1.
         -5    1    4    4    0  503  0.14613134052E+03 -0.89019276644E+01 -0.14868520185E+03  0.20871749387E+03  0.47000000000E+01 0.  1.
<mgrwt>
<rscale>  0 0.18126383E+03</rscale>
<asrwt>0</asrwt>
<pdfrwt beam="1">  1        5 0.90903485E-02 0.18126428E+03</pdfrwt>
<pdfrwt beam="2">  1       -5 0.96286023E-01 0.18126428E+03</pdfrwt>
<totfact> 0.64708848E+01</totfact>
</mgrwt>
</event>
<event>
 8    1  0.3694627E-007  0.1282537E+03  0.7546771E-02  0.1230073E+00
          5   -1    0    0  501    0  0.00000000000E+00  0.00000000000E+00  0.15155290429E+03  0.15162576562E+03  0.47000000000E+01 0.  1.
         -5   -1    0    0    0  501 -0.00000000000E+00 -0.00000000000E+00 -0.11185657255E+03  0.11195527153E+03  0.47000000000E+01 0.  1.
         25    2    1    2    0    0 -0.43102654083E+01 -0.28357766380E+02 -0.33707975225E+01  0.12828958095E+03  0.12499645196E+03 0.  0.
         25    2    1    2    0    0  0.43102654083E+01  0.28357766380E+02  0.43067129262E+02  0.13529145620E+03  0.12500503668E+03 0.  0.
          5    1    3    3  502    0  0.53506332656E+02  0.12838850676E+02 -0.12314603502E+02  0.56581827298E+02  0.47000000000E+01 0. -1.
         -5    1    3    3    0  502 -0.57816598064E+02 -0.41196617056E+02  0.89438059792E+01  0.71707753653E+02  0.47000000000E+01 0. -1.
          5    1    4    4  503    0  0.98338879484E+01  0.51456062372E+02 -0.28441969741E+02  0.59795211763E+02  0.47000000000E+01 0.  1.
         -5    1    4    4    0  503 -0.55236225400E+01 -0.23098295992E+02  0.71509099003E+02  0.75496244436E+02  0.47000000000E+01 0.  1.
<mgrwt>
<rscale>  0 0.12825156E+03</rscale>
<asrwt>0</asrwt>
<pdfrwt beam="1">  1        5 0.23329028E-01 0.12825366E+03</pdfrwt>
<pdfrwt beam="2">  1       -5 0.17221900E-01 0.12825366E+03</pdfrwt>
<totfact> 0.37567707E+02</totfact>
</mgrwt>
</event>
<event>
 8    1  0.3694627E-007  0.1267193E+03  0.7546771E-02  0.1232407E+00
          5   -1    0    0  501    0  0.00000000000E+00  0.00000000000E+00  0.54935621971E+03  0.54937632469E+03  0.47000000000E+01 0. -1.
         -5   -1    0    0    0  501 -0.00000000000E+00 -0.00000000000E+00 -0.30715634149E+02  0.31073142441E+02  0.47000000000E+01 0. -1.
         25    2    1    2    0    0 -0.19648847236E+02 -0.68552872022E+01  0.19155782475E+03  0.22967756990E+03  0.12499725491E+03 0.  0.
         25    2    1    2    0    0  0.19648847236E+02  0.68552872022E+01  0.32708276081E+03  0.35077189723E+03  0.12499887722E+03 0.  0.
          5    1    4    4  502    0  0.66501745708E+02 -0.42681979340E+01  0.11282776737E+03  0.13112167931E+03  0.47000000000E+01 0.  1.
         -5    1    4    4    0  502 -0.46852898472E+02  0.11123485136E+02  0.21425499344E+03  0.21965021792E+03  0.47000000000E+01 0.  1.
          5    1    3    3  503    0  0.16769418631E+02  0.12612601872E+02 -0.10117385091E+02  0.23764313756E+02  0.47000000000E+01 0. -1.
         -5    1    3    3    0  503 -0.36418265867E+02 -0.19467889074E+02  0.20167520984E+03  0.20591325615E+03  0.47000000000E+01 0. -1.
<mgrwt>
<rscale>  0 0.12671894E+03</rscale>
<asrwt>0</asrwt>
<pdfrwt beam="1">  1        5 0.84545385E-01 0.12671934E+03</pdfrwt>
<pdfrwt beam="2">  1       -5 0.47545295E-02 0.12671934E+03</pdfrwt>
<totfact> 0.23639085E+02</totfact>
</mgrwt>
</event>
<event>
 8    1  0.3694627E-007  0.1263867E+03  0.7546771E-02  0.1232920E+00
          5   -1    0    0  501    0  0.00000000000E+00  0.00000000000E+00  0.70733804641E+03  0.70735366112E+03  0.47000000000E+01 0. -1.
         -5   -1    0    0    0  501 -0.00000000000E+00 -0.00000000000E+00 -0.22900550126E+02  0.23377878348E+02  0.47000000000E+01 0. -1.
         25    2    1    2    0    0  0.15495018113E+02 -0.10444102485E+02  0.28471331860E+03  0.31150245320E+03  0.12499171850E+03 0.  0.
         25    2    1    2    0    0 -0.15495018113E+02  0.10444102485E+02  0.39972417769E+03  0.41922908628E+03  0.12499773474E+03 0.  0.
          5    1    3    3  502    0  0.59485064785E+02 -0.40646485575E+02  0.17842108947E+03  0.19247541372E+03  0.47000000000E+01 0.  1.
         -5    1    3    3    0  502 -0.43990046672E+02  0.30202383090E+02  0.10629222914E+03  0.11902703947E+03  0.47000000000E+01 0.  1.
          5    1    4    4  503    0  0.16944528529E+02 -0.84281204826E+01  0.37156153683E+03  0.37207286372E+03  0.47000000000E+01 0.  1.
         -5    1    4    4    0  503 -0.32439546642E+02  0.18872222968E+02  0.28162640852E+02  0.47156222557E+02  0.47000000000E+01 0.  1.
<mgrwt>
<rscale>  0 0.12638525E+03</rscale>
<asrwt>0</asrwt>
<pdfrwt beam="1">  1        5 0.10885917E+00 0.12638674E+03</pdfrwt>
<pdfrwt beam="2">  1       -5 0.35610799E-02 0.12638674E+03</pdfrwt>
<totfact> 0.20654123E+02</totfact>
</mgrwt>
</event>
<event>
 8    1  0.3694627E-007  0.1378382E+03  0.7546771E-02  0.1216271E+00
          5   -1    0    0  501    0  0.00000000000E+00  0.00000000000E+00  0.70220677107E+02  0.70377791195E+02  0.47000000000E+01 0.  1.
         -5   -1    0    0    0  501 -0.00000000000E+00 -0.00000000000E+00 -0.28615659698E+03  0.28619519213E+03  0.47000000000E+01 0.  1.
         25    2    1    2    0    0 -0.55155117433E+02  0.18177949120E+02 -0.15022776476E+03  0.20388170521E+03  0.12500737418E+03 0.  0.
         25    2    1    2    0    0  0.55155117433E+02 -0.18177949120E+02 -0.65708155116E+02  0.15269127811E+03  0.12499815979E+03 0.  0.
          5    1    4    4  502    0 -0.29676512291E+02 -0.30109821386E+02  0.31891454326E+01  0.42656270046E+02  0.47000000000E+01 0. -1.
         -5    1    4    4    0  502  0.84831629725E+02  0.11931872266E+02 -0.68897300548E+02  0.11003500807E+03  0.47000000000E+01 0. -1.
          5    1    3    3  503    0 -0.34912298940E+02  0.51215706480E+02 -0.16130610463E+02  0.64219964196E+02  0.47000000000E+01 0.  1.
         -5    1    3    3    0  503 -0.20242818494E+02 -0.33037757359E+02 -0.13409715429E+03  0.13966174101E+03  0.47000000000E+01 0.  1.
<mgrwt>
<rscale>  0 0.13783611E+03</rscale>
<asrwt>0</asrwt>
<pdfrwt beam="1">  1        5 0.10818236E-01 0.13783820E+03</pdfrwt>
<pdfrwt beam="2">  1       -5 0.44039146E-01 0.13783820E+03</pdfrwt>
<totfact> 0.25192139E+02</totfact>
</mgrwt>
</event>
<event>
 8    1  0.3694627E-007  0.1476942E+03  0.7546771E-02  0.1203337E+00
         -5   -1    0    0    0  501 -0.00000000000E+00  0.00000000000E+00  0.25523936785E+03  0.25528263728E+03  0.47000000000E+01 0. -1.
          5   -1    0    0  501    0  0.00000000000E+00 -0.00000000000E+00 -0.85423655112E+02  0.85552854147E+02  0.47000000000E+01 0. -1.
         25    2    1    2    0    0 -0.78621145048E+02  0.26610999256E+01  0.90064853476E+02  0.17298913891E+03  0.12500079379E+03 0.  0.
         25    2    1    2    0    0  0.78621145048E+02 -0.26610999256E+01  0.79750859258E+02  0.16784635252E+03  0.12499533032E+03 0.  0.
          5    1    3    3  502    0 -0.13433586934E+02 -0.96646421922E+01 -0.30659719334E+02  0.35156435489E+02  0.47000000000E+01 0. -1.
         -5    1    3    3    0  502 -0.65187558113E+02  0.12325742118E+02  0.12072457281E+03  0.13783270342E+03  0.47000000000E+01 0. -1.
          5    1    4    4  503    0  0.81349907951E+02 -0.23497977620E+02  0.10479898629E+03  0.13481424259E+03  0.47000000000E+01 0.  1.
         -5    1    4    4    0  503 -0.27287629035E+01  0.20836877694E+02 -0.25048127035E+02  0.33032109938E+02  0.47000000000E+01 0.  1.
<mgrwt>
<rscale>  0 0.14769300E+03</rscale>
<asrwt>0</asrwt>
<pdfrwt beam="2">  1        5 0.13155368E-01 0.14769416E+03</pdfrwt>
<pdfrwt beam="1">  1       -5 0.39280861E-01 0.14769416E+03</pdfrwt>
<totfact> 0.23067067E+02</totfact>
</mgrwt>
</event>
<event>
 8    1  0.3694627E-007  0.1323503E+03  0.7546771E-02  0.1224011E+00
         -5   -1    0    0    0  501 -0.00000000000E+00  0.00000000000E+00  0.25099868315E+03  0.25104268350E+03  0.47000000000E+01 0.  1.
          5   -1    0    0  501    0  0.00000000000E+00 -0.00000000000E+00 -0.76516658086E+02  0.76660869840E+02  0.47000000000E+01 0.  1.
         25    2    1    2    0    0 -0.24066767542E+02  0.36208017465E+02  0.13624288382E+03  0.18994403470E+03  0.12500553226E+03 0.  0.
         25    2    1    2    0    0  0.24066767542E+02 -0.36208017465E+02  0.38239141237E+02  0.13775951865E+03  0.12500089290E+03 0.  0.
          5    1    4    4  502    0  0.53509818138E+02 -0.45107393443E+02  0.65812994974E+02  0.96184291274E+02  0.47000000000E+01 0. -1.
         -5    1    4    4    0  502 -0.29443050597E+02  0.88993759779E+01 -0.27573853737E+02  0.41575227374E+02  0.47000000000E+01 0. -1.
          5    1    3    3  503    0 -0.69795669436E+02  0.28026463554E+02  0.45869749485E+02  0.88221550933E+02  0.47000000000E+01 0. -1.
         -5    1    3    3    0  503  0.45728901894E+02  0.81815539115E+01  0.90373134338E+02  0.10172248376E+03  0.47000000000E+01 0. -1.
<mgrwt>
<rscale>  0 0.13234925E+03</rscale>
<asrwt>0</asrwt>
<pdfrwt beam="2">  1        5 0.11786272E-01 0.13235034E+03</pdfrwt>
<pdfrwt beam="1">  1       -5 0.38629659E-01 0.13235034E+03</pdfrwt>
<totfact> 0.27961581E+02</totfact>
</mgrwt>
</event>
<event>
 8    1  0.3694627E-007  0.1640654E+03  0.7546771E-02  0.1184189E+00
         -5   -1    0    0    0  501 -0.00000000000E+00  0.00000000000E+00  0.11881988491E+03  0.11891280440E+03  0.47000000000E+01 0.  1.
          5   -1    0    0  501    0  0.00000000000E+00 -0.00000000000E+00 -0.22818430493E+03  0.22823270365E+03  0.47000000000E+01 0.  1.
         25    2    1    2    0    0 -0.53023337825E+01 -0.10608937241E+03 -0.38911745794E+02  0.16861664660E+03  0.12503751385E+03 0.  0.
         25    2    1    2    0    0  0.53023337825E+01  0.10608937241E+03 -0.70452674220E+02  0.17852886145E+03  0.12500362148E+03 0.  0.
          5    1    4    4  502    0 -0.20517588956E+02  0.10689513024E+03 -0.93517985208E+02  0.14358009571E+03  0.47000000000E+01 0.  1.
         -5    1    4    4    0  502  0.25819922739E+02 -0.80575783329E+00  0.23065310988E+02  0.34948765742E+02  0.47000000000E+01 0.  1.
          5    1    3    3  503    0 -0.15054173980E+02 -0.46456386446E+02 -0.81090689444E+02  0.94776652770E+02  0.47000000000E+01 0.  1.
         -5    1    3    3    0  503  0.97518401978E+01 -0.59632985962E+02  0.42178943649E+02  0.73839993833E+02  0.47000000000E+01 0.  1.
<mgrwt>
<rscale>  0 0.16405892E+03</rscale>
<asrwt>0</asrwt>
<pdfrwt beam="2">  1        5 0.35116148E-01 0.16406538E+03</pdfrwt>
<pdfrwt beam="1">  1       -5 0.18290853E-01 0.16406538E+03</pdfrwt>
<totfact> 0.16435234E+02</totfact>
</mgrwt>
</event>
<event>
 8    1  0.3694627E-007  0.1466668E+03  0.7546771E-02  0.1204630E+00
          5   -1    0    0  501    0  0.00000000000E+00  0.00000000000E+00  0.30992469121E+03  0.30996032685E+03  0.47000000000E+01 0.  1.
         -5   -1    0    0    0  501 -0.00000000000E+00 -0.00000000000E+00 -0.75116430750E+02  0.75263325522E+02  0.47000000000E+01 0.  1.
         25    2    1    2    0    0  0.53749597304E+02 -0.54746641162E+02  0.63820392842E+02  0.15995062143E+03  0.12499977930E+03 0.  0.
         25    2    1    2    0    0 -0.53749597304E+02  0.54746641162E+02  0.17098786762E+03  0.22527303094E+03  0.12499949467E+03 0.  0.
          5    1    3    3  502    0  0.93421621202E+02 -0.51006047431E+02  0.46269901988E+02  0.11615597278E+03  0.47000000000E+01 0. -1.
         -5    1    3    3    0  502 -0.39672023897E+02 -0.37405937319E+01  0.17550490854E+02  0.43794648655E+02  0.47000000000E+01 0. -1.
          5    1    4    4  503    0 -0.88036216599E+02  0.80614131866E+01  0.10123782402E+03  0.13448624029E+03  0.47000000000E+01 0.  1.
         -5    1    4    4    0  503  0.34286619295E+02  0.46685227976E+02  0.69750043605E+02  0.90786790651E+02  0.47000000000E+01 0.  1.
<mgrwt>
<rscale>  0 0.14666677E+03</rscale>
<asrwt>0</asrwt>
<pdfrwt beam="1">  1        5 0.47694762E-01 0.14666683E+03</pdfrwt>
<pdfrwt beam="2">  1       -5 0.11570415E-01 0.14666683E+03</pdfrwt>
<totfact> 0.19337923E+02</totfact>
</mgrwt>
</event>
<event>
 8    1  0.3694627E-007  0.1550934E+03  0.7546771E-02  0.1194351E+00
          5   -1    0    0  501    0  0.00000000000E+00  0.00000000000E+00  0.88515375230E+03  0.88516623027E+03  0.47000000000E+01 0. -1.
         -5   -1    0    0    0  501 -0.00000000000E+00 -0.00000000000E+00 -0.30077514331E+02  0.30442517444E+02  0.47000000000E+01 0. -1.
         25    2    1    2    0    0  0.91603036707E+02  0.61463128928E+01  0.28107866169E+03  0.32102723573E+03  0.12499751409E+03 0.  0.
         25    2    1    2    0    0 -0.91603036707E+02 -0.61463128928E+01  0.57399757628E+03  0.59458151198E+03  0.12500025327E+03 0.  0.
          5    1    4    4  502    0  0.37052798261E+01  0.45973674800E+02  0.17281335523E+03  0.17892415605E+03  0.47000000000E+01 0.  1.
         -5    1    4    4    0  502 -0.95308316533E+02 -0.52119987693E+02  0.40118422105E+03  0.41565735593E+03  0.47000000000E+01 0.  1.
          5    1    3    3  503    0  0.85099297570E+01  0.42904510944E+02  0.28138043114E+02  0.52221216321E+02  0.47000000000E+01 0. -1.
         -5    1    3    3    0  503  0.83093106950E+02 -0.36758198051E+02  0.25294061858E+03  0.26880601941E+03  0.47000000000E+01 0. -1.
<mgrwt>
<rscale>  0 0.15509283E+03</rscale>
<asrwt>0</asrwt>
<pdfrwt beam="1">  1        5 0.13620657E+00 0.15509338E+03</pdfrwt>
<pdfrwt beam="2">  1       -5 0.46563458E-02 0.15509338E+03</pdfrwt>
<totfact> 0.80062111E+01</totfact>
</mgrwt>
</event>
<event>
 8    1  0.3694627E-007  0.1380746E+03  0.7546771E-02  0.1215947E+00
         -5   -1    0    0    0  501 -0.00000000000E+00  0.00000000000E+00  0.37313948623E+02  0.37608785700E+02  0.47000000000E+01 0.  1.
          5   -1    0    0  501    0  0.00000000000E+00 -0.00000000000E+00 -0.69041333772E+03  0.69042933520E+03  0.47000000000E+01 0.  1.
         25    2    1    2    0    0 -0.57926466719E+02  0.90992468798E+01 -0.13978423314E+03  0.19647957900E+03  0.12500528505E+03 0.  0.
         25    2    1    2    0    0  0.57926466719E+02 -0.90992468798E+01 -0.51331515596E+03  0.53155854190E+03  0.12499504904E+03 0.  0.
          5    1    3    3  502    0 -0.81548577906E+02 -0.34138567378E+02 -0.87101132011E+02  0.12419464376E+03  0.47000000000E+01 0.  1.
         -5    1    3    3    0  502  0.23622111187E+02  0.43237814257E+02 -0.52683101126E+02  0.72284935242E+02  0.47000000000E+01 0.  1.
          5    1    4    4  503    0  0.33369590759E+02 -0.50389527091E+02 -0.11201694402E+03  0.12736765592E+03  0.47000000000E+01 0. -1.
         -5    1    4    4    0  503  0.24556875960E+02  0.41290280211E+02 -0.40129821194E+03  0.40419088597E+03  0.47000000000E+01 0. -1.
<mgrwt>
<rscale>  0 0.13807228E+03</rscale>
<asrwt>0</asrwt>
<pdfrwt beam="2">  1        5 0.10624134E+00 0.13807459E+03</pdfrwt>
<pdfrwt beam="1">  1       -5 0.57645184E-02 0.13807459E+03</pdfrwt>
<totfact> 0.10203562E+02</totfact>
</mgrwt>
</event>
<event>
 8    1  0.3694627E-007  0.1405142E+03  0.7546771E-02  0.1212640E+00
          5   -1    0    0  501    0  0.00000000000E+00  0.00000000000E+00  0.45409883127E+02  0.45652464179E+02  0.47000000000E+01 0. -1.
         -5   -1    0    0    0  501 -0.00000000000E+00 -0.00000000000E+00 -0.55240334259E+03  0.55242333667E+03  0.47000000000E+01 0. -1.
         25    2    1    2    0    0  0.48422231823E+02  0.42115162046E+02 -0.39227301315E+03  0.41668015085E+03  0.12500332740E+03 0.  0.
         25    2    1    2    0    0 -0.48422231823E+02 -0.42115162046E+02 -0.11472044631E+03  0.18139565000E+03  0.12500080651E+03 0.  0.
          5    1    3    3  502    0  0.65683076745E+02  0.39266645066E+02 -0.39108189084E+03  0.39852637470E+03  0.47000000000E+01 0. -1.
         -5    1    3    3    0  502 -0.17260844922E+02  0.28485169798E+01 -0.11911223089E+01  0.18153776157E+02  0.47000000000E+01 0. -1.
          5    1    4    4  503    0 -0.25127769179E+02  0.63344360896E+01 -0.12388999641E+03  0.12665840310E+03  0.47000000000E+01 0.  1.
         -5    1    4    4    0  503 -0.23294462644E+02 -0.48449598136E+02  0.91695501000E+01  0.54737246902E+02  0.47000000000E+01 0.  1.
<mgrwt>
<rscale>  0 0.14051361E+03</rscale>
<asrwt>0</asrwt>
<pdfrwt beam="1">  1        5 0.70063344E-02 0.14051417E+03</pdfrwt>
<pdfrwt beam="2">  1       -5 0.85005323E-01 0.14051417E+03</pdfrwt>
<totfact> 0.12622904E+02</totfact>
</mgrwt>
</event>
<event>
 8    1  0.3694627E-007  0.1345511E+03  0.7546771E-02  0.1220856E+00
          5   -1    0    0  501    0  0.00000000000E+00  0.00000000000E+00  0.77134183836E+03  0.77135615743E+03  0.47000000000E+01 0. -1.
         -5   -1    0    0    0  501 -0.00000000000E+00 -0.00000000000E+00 -0.24811649405E+02  0.25252879958E+02  0.47000000000E+01 0. -1.
         25    2    1    2    0    0 -0.35937830622E+01  0.49652149965E+02  0.27333522631E+03  0.30465742056E+03  0.12500298670E+03 0.  0.
         25    2    1    2    0    0  0.35937830622E+01 -0.49652149965E+02  0.47319496265E+03  0.49195161683E+03  0.12499867743E+03 0.  0.
          5    1    4    4  502    0 -0.45531644216E+02 -0.60194910080E+02  0.19371403725E+03  0.20795137906E+03  0.47000000000E+01 0.  1.
         -5    1    4    4    0  502  0.49125427278E+02  0.10542760115E+02  0.27948092539E+03  0.28400023777E+03  0.47000000000E+01 0.  1.
          5    1    3    3  503    0  0.12767678082E+02  0.45861606226E+01  0.25125406286E+03  0.25166394374E+03  0.47000000000E+01 0. -1.
         -5    1    3    3    0  503 -0.16361461144E+02  0.45065989342E+02  0.22081163450E+02  0.52993476820E+02  0.47000000000E+01 0. -1.
<mgrwt>
<rscale>  0 0.13455010E+03</rscale>
<asrwt>0</asrwt>
<pdfrwt beam="1">  1        5 0.11870302E+00 0.13455110E+03</pdfrwt>
<pdfrwt beam="2">  1       -5 0.38522191E-02 0.13455110E+03</pdfrwt>
<totfact> 0.14950171E+02</totfact>
</mgrwt>
</event>
<event>
 8    1  0.3694627E-007  0.1483383E+03  0.7546771E-02  0.1202531E+00
         -5   -1    0    0    0  501 -0.00000000000E+00  0.00000000000E+00  0.55404059215E+02  0.55603055469E+02  0.47000000000E+01 0.  1.
          5   -1    0    0  501    0  0.00000000000E+00 -0.00000000000E+00 -0.39699692163E+03  0.39702474203E+03  0.47000000000E+01 0.  1.
         25    2    1    2    0    0 -0.10947597449E+02 -0.79110552645E+02 -0.16083606932E+03  0.21879785454E+03  0.12500372205E+03 0.  0.
         25    2    1    2    0    0  0.10947597449E+02  0.79110552645E+02 -0.18075679310E+03  0.23382994296E+03  0.12500037818E+03 0.  0.
          5    1    4    4  502    0  0.32263791760E+02  0.54527107787E+01 -0.14566803560E+03  0.14937185447E+03  0.47000000000E+01 0.  1.
         -5    1    4    4    0  502 -0.21316194311E+02  0.73657841867E+02 -0.35088757502E+02  0.84458088490E+02  0.47000000000E+01 0.  1.
          5    1    3    3  503    0  0.34239505793E+02 -0.94198218462E+02 -0.10456180359E+03  0.14491690339E+03  0.47000000000E+01 0.  1.
         -5    1    3    3    0  503 -0.45187103242E+02  0.15087665817E+02 -0.56274265729E+02  0.73880951148E+02  0.47000000000E+01 0.  1.
<mgrwt>
<rscale>  0 0.14833762E+03</rscale>
<asrwt>0</asrwt>
<pdfrwt beam="2">  1        5 0.61093895E-01 0.14833833E+03</pdfrwt>
<pdfrwt beam="1">  1       -5 0.85411491E-02 0.14833833E+03</pdfrwt>
<totfact> 0.19364807E+02</totfact>
</mgrwt>
</event>
<event>
 8    1  0.3694627E-007  0.1545112E+03  0.7546771E-02  0.1195037E+00
         -5   -1    0    0    0  501 -0.00000000000E+00  0.00000000000E+00  0.15223296021E+03  0.15230549621E+03  0.47000000000E+01 0.  1.
          5   -1    0    0  501    0  0.00000000000E+00 -0.00000000000E+00 -0.15804835191E+03  0.15811822015E+03  0.47000000000E+01 0.  1.
         25    2    1    2    0    0  0.90174269426E+02 -0.10833083550E+02  0.11537216724E+02  0.15494134155E+03  0.12499982955E+03 0.  0.
         25    2    1    2    0    0 -0.90174269426E+02  0.10833083550E+02 -0.17352608423E+02  0.15548237481E+03  0.12499960516E+03 0.  0.
          5    1    3    3  502    0 -0.16905952663E+02 -0.39722336405E+02  0.10410163051E+01  0.43437874716E+02  0.47000000000E+01 0. -1.
         -5    1    3    3    0  502  0.10708022209E+03  0.28889252856E+02  0.10496200419E+02  0.11150346684E+03  0.47000000000E+01 0. -1.
          5    1    4    4  503    0  0.22201416365E+02 -0.38699013870E+01 -0.33769248592E+02  0.40869685292E+02  0.47000000000E+01 0.  1.
         -5    1    4    4    0  503 -0.11237568579E+03  0.14702984937E+02  0.16416640170E+02  0.11461268951E+03  0.47000000000E+01 0.  1.
<mgrwt>
<rscale>  0 0.15451116E+03</rscale>
<asrwt>0</asrwt>
<pdfrwt beam="2">  1        5 0.24326085E-01 0.15451120E+03</pdfrwt>
<pdfrwt beam="1">  1       -5 0.23431410E-01 0.15451120E+03</pdfrwt>
<totfact> 0.20801939E+02</totfact>
</mgrwt>
</event>
<event>
 8    1  0.3694627E-007  0.1417100E+03  0.7546771E-02  0.1211047E+00
          5   -1    0    0  501    0  0.00000000000E+00  0.00000000000E+00  0.53527304943E+03  0.53529368336E+03  0.47000000000E+01 0. -1.
         -5   -1    0    0    0  501 -0.00000000000E+00 -0.00000000000E+00 -0.37761442609E+02  0.38052812615E+02  0.47000000000E+01 0. -1.
         25    2    1    2    0    0 -0.66473589087E+02  0.61846348649E+01  0.21887544723E+03  0.26074542190E+03  0.12499890355E+03 0.  0.
         25    2    1    2    0    0  0.66473589087E+02 -0.61846348649E+01  0.27863615959E+03  0.31260107407E+03  0.12499733727E+03 0.  0.
          5    1    3    3  502    0  0.32039932214E+02  0.10157167882E+02  0.21809909885E+02  0.40342130396E+02  0.47000000000E+01 0. -1.
         -5    1    3    3    0  502 -0.98513521301E+02 -0.39725330171E+01  0.19706553734E+03  0.22040329150E+03  0.47000000000E+01 0. -1.
          5    1    4    4  503    0 -0.36056635385E+02 -0.83011111277E+01  0.97590357778E+02  0.10447467316E+03  0.47000000000E+01 0. -1.
         -5    1    4    4    0  503  0.10253022447E+03  0.21164762628E+01  0.18104580181E+03  0.20812640091E+03  0.47000000000E+01 0. -1.
<mgrwt>
<rscale>  0 0.14170962E+03</rscale>
<asrwt>0</asrwt>
<pdfrwt beam="1">  1        5 0.82373700E-01 0.14170996E+03</pdfrwt>
<pdfrwt beam="2">  1       -5 0.58334530E-02 0.14170996E+03</pdfrwt>
<totfact> 0.18561099E+02</totfact>
</mgrwt>
</event>
<event>
 8    1  0.3694627E-007  0.1471833E+03  0.7546771E-02  0.1203988E+00
         -5   -1    0    0    0  501 -0.00000000000E+00  0.00000000000E+00  0.70345623305E+03  0.70347193392E+03  0.47000000000E+01 0.  1.
          5   -1    0    0  501    0  0.00000000000E+00 -0.00000000000E+00 -0.31500180388E+02  0.31848883253E+02  0.47000000000E+01 0.  1.
         25    2    1    2    0    0 -0.28003280531E+02 -0.72424822948E+02  0.39805863488E+03  0.42439791764E+03  0.12503350352E+03 0.  0.
         25    2    1    2    0    0  0.28003280531E+02  0.72424822948E+02  0.27389741778E+03  0.31092289953E+03  0.12499486103E+03 0.  0.
          5    1    4    4  502    0 -0.88520274911E+01  0.84977728314E+02  0.95328726754E+02  0.12809851227E+03  0.47000000000E+01 0.  1.
         -5    1    4    4    0  502  0.36855308022E+02 -0.12552905365E+02  0.17856869103E+03  0.18282438727E+03  0.47000000000E+01 0.  1.
          5    1    3    3  503    0 -0.49345199139E+02  0.81405417123E+01  0.24459437485E+03  0.24969924971E+03  0.47000000000E+01 0.  1.
         -5    1    3    3    0  503  0.21341918608E+02 -0.80565364660E+02  0.15346426003E+03  0.17469866794E+03  0.47000000000E+01 0.  1.
<mgrwt>
<rscale>  0 0.14717507E+03</rscale>
<asrwt>0</asrwt>
<pdfrwt beam="2">  1        5 0.48742123E-02 0.14718327E+03</pdfrwt>
<pdfrwt beam="1">  1       -5 0.10825207E+00 0.14718327E+03</pdfrwt>
<totfact> 0.13148555E+02</totfact>
</mgrwt>
</event>
<event>
 8    1  0.3694627E-007  0.1998768E+03  0.7546771E-02  0.1149843E+00
          5   -1    0    0  501    0  0.00000000000E+00  0.00000000000E+00  0.20078814617E+03  0.20084314687E+03  0.47000000000E+01 0.  1.
         -5   -1    0    0    0  501 -0.00000000000E+00 -0.00000000000E+00 -0.26485934013E+03  0.26490103823E+03  0.47000000000E+01 0.  1.
         25    2    1    2    0    0  0.12781316628E+03 -0.89384008394E+02 -0.14826051567E+03  0.24886043430E+03  0.12499851529E+03 0.  0.
         25    2    1    2    0    0 -0.12781316628E+03  0.89384008394E+02  0.84189321708E+02  0.21688375079E+03  0.12500005215E+03 0.  0.
          5    1    4    4  502    0 -0.11664736844E+03  0.28725682584E+02  0.10511572113E+02  0.12068287597E+03  0.47000000000E+01 0. -1.
         -5    1    4    4    0  502 -0.11165797841E+02  0.60658325810E+02  0.73677749594E+02  0.96200874823E+02  0.47000000000E+01 0. -1.
          5    1    3    3  503    0  0.12256799091E+03 -0.23525008001E+02 -0.12973888456E+03  0.18008499816E+03  0.47000000000E+01 0.  1.
         -5    1    3    3    0  503  0.52451753782E+01 -0.65859000393E+02 -0.18521631104E+02  0.68775436140E+02  0.47000000000E+01 0.  1.
<mgrwt>
<rscale>  0 0.19987652E+03</rscale>
<asrwt>0</asrwt>
<pdfrwt beam="1">  1        5 0.30897922E-01 0.19987676E+03</pdfrwt>
<pdfrwt beam="2">  1       -5 0.40755029E-01 0.19987676E+03</pdfrwt>
<totfact> 0.47026054E+01</totfact>
</mgrwt>
</event>
<event>
 8    1  0.3694627E-007  0.1725795E+03  0.7546771E-02  0.1175188E+00
          5   -1    0    0  501    0  0.00000000000E+00  0.00000000000E+00  0.46498760740E+03  0.46501136011E+03  0.47000000000E+01 0.  1.
         -5   -1    0    0    0  501 -0.00000000000E+00 -0.00000000000E+00 -0.71527771771E+02  0.71682020999E+02  0.47000000000E+01 0.  1.
         25    2    1    2    0    0 -0.83853532326E+01  0.11868587374E+03  0.10942362979E+03  0.20434580443E+03  0.12500810477E+03 0.  0.
         25    2    1    2    0    0  0.83853532326E+01 -0.11868587374E+03  0.28403620584E+03  0.33234757668E+03  0.12498677819E+03 0.  0.
          5    1    4    4  502    0 -0.47101410876E+02 -0.83209065617E+02  0.10791527529E+03  0.14425702114E+03  0.47000000000E+01 0. -1.
         -5    1    4    4    0  502  0.55486764109E+02 -0.35476808124E+02  0.17612093055E+03  0.18809055554E+03  0.47000000000E+01 0. -1.
          5    1    3    3  503    0 -0.20226476735E+02 -0.56876111870E+01 -0.16326769854E+02  0.27020597624E+02  0.47000000000E+01 0. -1.
         -5    1    3    3    0  503  0.11841123502E+02  0.12437348493E+03  0.12575039964E+03  0.17732520681E+03  0.47000000000E+01 0. -1.
<mgrwt>
<rscale>  0 0.17257562E+03</rscale>
<asrwt>0</asrwt>
<pdfrwt beam="1">  1        5 0.71550249E-01 0.17257948E+03</pdfrwt>
<pdfrwt beam="2">  1       -5 0.11017965E-01 0.17257948E+03</pdfrwt>
<totfact> 0.91389130E+01</totfact>
</mgrwt>
</event>
<event>
 8    1  0.3694627E-007  0.1499511E+03  0.7546771E-02  0.1200534E+00
         -5   -1    0    0    0  501 -0.00000000000E+00  0.00000000000E+00  0.15240369105E+03  0.15247614583E+03  0.47000000000E+01 0. -1.
          5   -1    0    0  501    0  0.00000000000E+00 -0.00000000000E+00 -0.22813413272E+03  0.22818254209E+03  0.47000000000E+01 0. -1.
         25    2    1    2    0    0  0.82811546001E+02 -0.11186319216E+01  0.75331936253E+02  0.16781012298E+03  0.12500533295E+03 0.  0.
         25    2    1    2    0    0 -0.82811546001E+02  0.11186319216E+01 -0.15106237793E+03  0.21284856494E+03  0.12500266430E+03 0.  0.
          5    1    4    4  502    0  0.30200218215E+02 -0.16427376332E+02 -0.26338283542E+02  0.43562679593E+02  0.47000000000E+01 0. -1.
         -5    1    4    4    0  502 -0.11301176422E+03  0.17546008254E+02 -0.12472409439E+03  0.16928588535E+03  0.47000000000E+01 0. -1.
          5    1    3    3  503    0  0.10088202124E+03  0.35414953824E+02  0.65993283795E+02  0.12573227378E+03  0.47000000000E+01 0. -1.
         -5    1    3    3    0  503 -0.18070475242E+02 -0.36533585746E+02  0.93386524580E+01  0.42077849193E+02  0.47000000000E+01 0. -1.
<mgrwt>
<rscale>  0 0.14995056E+03</rscale>
<asrwt>0</asrwt>
<pdfrwt beam="2">  1        5 0.35106856E-01 0.14995111E+03</pdfrwt>
<pdfrwt beam="1">  1       -5 0.23456019E-01 0.14995111E+03</pdfrwt>
<totfact> 0.10018738E+02</totfact>
</mgrwt>
</event>
<event>
 8    1  0.3694627E-007  0.1766207E+03  0.7546771E-02  0.1171115E+00
          5   -1    0    0  501    0  0.00000000000E+00  0.00000000000E+00  0.33526439869E+02  0.33854278464E+02  0.47000000000E+01 0. -1.
         -5   -1    0    0    0  501 -0.00000000000E+00 -0.00000000000E+00 -0.10865511266E+04  0.10865612917E+04  0.47000000000E+01 0. -1.
         25    2    1    2    0    0 -0.83542130031E+02 -0.92681565167E+02 -0.74210128221E+03  0.76282972690E+03  0.12500287668E+03 0.  0.
         25    2    1    2    0    0  0.83542130031E+02  0.92681565167E+02 -0.31092340452E+03  0.35758584330E+03  0.12500044736E+03 0.  0.
          5    1    4    4  502    0  0.64823795187E+02  0.25688275853E+02 -0.26510007192E+03  0.27415716309E+03  0.47000000000E+01 0.  1.
         -5    1    4    4    0  502  0.18718334844E+02  0.66993289314E+02 -0.45823332600E+02  0.83428680218E+02  0.47000000000E+01 0.  1.
          5    1    3    3  503    0  0.24042863520E+02 -0.58432126891E+02 -0.24713063124E+03  0.25512352231E+03  0.47000000000E+01 0. -1.
         -5    1    3    3    0  503 -0.10758499355E+03 -0.34249438276E+02 -0.49497065097E+03  0.50770620459E+03  0.47000000000E+01 0. -1.
<mgrwt>
<rscale>  0 0.17662029E+03</rscale>
<asrwt>0</asrwt>
<pdfrwt beam="1">  1        5 0.51839149E-02 0.17662072E+03</pdfrwt>
<pdfrwt beam="2">  1       -5 0.16718769E+00 0.17662072E+03</pdfrwt>
<totfact> 0.39452303E+01</totfact>
</mgrwt>
</event>
<event>
 8    1  0.3694627E-007  0.1364723E+03  0.7546771E-02  0.1218162E+00
          5   -1    0    0  501    0  0.00000000000E+00  0.00000000000E+00  0.16126829891E+02  0.16797757063E+02  0.47000000000E+01 0. -1.
         -5   -1    0    0    0  501 -0.00000000000E+00 -0.00000000000E+00 -0.13342726134E+04  0.13342808913E+04  0.47000000000E+01 0. -1.
         25    2    1    2    0    0  0.18033251528E+02 -0.51680806246E+02 -0.92294345393E+03  0.93297631879E+03  0.12499635347E+03 0.  0.
         25    2    1    2    0    0 -0.18033251528E+02  0.51680806246E+02 -0.39520232954E+03  0.41810232953E+03  0.12501429032E+03 0.  0.
          5    1    3    3  502    0 -0.40063778110E+02 -0.54786505261E+02 -0.31647166439E+03  0.32370213443E+03  0.47000000000E+01 0. -1.
         -5    1    3    3    0  502  0.58097029638E+02  0.31056990147E+01 -0.60647178954E+03  0.60927418436E+03  0.47000000000E+01 0. -1.
          5    1    4    4  503    0  0.33157802827E+02  0.14554057709E+02 -0.30867363006E+03  0.31082593260E+03  0.47000000000E+01 0. -1.
         -5    1    4    4    0  503 -0.51191054355E+02  0.37126748536E+02 -0.86528699486E+02  0.10727639693E+03  0.47000000000E+01 0. -1.
<mgrwt>
<rscale>  0 0.13646815E+03</rscale>
<asrwt>0</asrwt>
<pdfrwt beam="1">  1        5 0.25332983E-02 0.13647226E+03</pdfrwt>
<pdfrwt beam="2">  1       -5 0.20532487E+00 0.13647226E+03</pdfrwt>
<totfact> 0.63949482E+01</totfact>
</mgrwt>
</event>
<event>
 8    1  0.3694627E-007  0.1301491E+03  0.7546771E-02  0.1227235E+00
          5   -1    0    0  501    0  0.00000000000E+00  0.00000000000E+00  0.10353199090E+03  0.10363861800E+03  0.47000000000E+01 0. -1.
         -5   -1    0    0    0  501 -0.00000000000E+00 -0.00000000000E+00 -0.26931664796E+03  0.26935765605E+03  0.47000000000E+01 0. -1.
         25    2    1    2    0    0  0.26400405960E+02  0.24853081137E+02 -0.19982368790E+03  0.23847072821E+03  0.12499649952E+03 0.  0.
         25    2    1    2    0    0 -0.26400405960E+02 -0.24853081137E+02  0.34039030836E+02  0.13452554583E+03  0.12499523904E+03 0.  0.
          5    1    3    3  502    0  0.64664293498E+02 -0.42151949018E+01 -0.52795929410E+02  0.83718211184E+02  0.47000000000E+01 0.  1.
         -5    1    3    3    0  502 -0.38263887538E+02  0.29068276039E+02 -0.14702775849E+03  0.15475251703E+03  0.47000000000E+01 0.  1.
          5    1    4    4  503    0  0.13449056430E+02 -0.61913251888E+02 -0.10061600543E+02  0.64323041623E+02  0.47000000000E+01 0. -1.
         -5    1    4    4    0  503 -0.39849462389E+02  0.37060170750E+02  0.44100631379E+02  0.70202504206E+02  0.47000000000E+01 0. -1.
<mgrwt>
<rscale>  0 0.13014877E+03</rscale>
<asrwt>0</asrwt>
<pdfrwt beam="1">  1        5 0.15939355E-01 0.13014908E+03</pdfrwt>
<pdfrwt beam="2">  1       -5 0.41444687E-01 0.13014908E+03</pdfrwt>
<totfact> 0.14010868E+02</totfact>
</mgrwt>
</event>
<event>
 8    1  0.3694627E-007  0.1857739E+03  0.7546771E-02  0.1162332E+00
         -5   -1    0    0    0  501 -0.00000000000E+00  0.00000000000E+00  0.58802370750E+02  0.58989904271E+02  0.47000000000E+01 0.  1.
          5   -1    0    0  501    0  0.00000000000E+00 -0.00000000000E+00 -0.58607152894E+03  0.58609037446E+03  0.47000000000E+01 0.  1.
         25    2    1    2    0    0  0.13330363329E+03  0.33419878099E+02 -0.27133737910E+03  0.32884028329E+03  0.12500084688E+03 0.  0.
         25    2    1    2    0    0 -0.13330363329E+03 -0.33419878099E+02 -0.25593177909E+03  0.31623999543E+03  0.12497964740E+03 0.  0.
          5    1    4    4  502    0 -0.11780927647E+03 -0.26669424961E+02 -0.26863603937E+03  0.29458054161E+03  0.47000000000E+01 0.  1.
         -5    1    4    4    0  502 -0.15494356820E+02 -0.67504531382E+01  0.12704260276E+02  0.21659453825E+02  0.47000000000E+01 0.  1.
          5    1    3    3  503    0  0.29167192636E+02  0.37883229061E+02 -0.19157539656E+03  0.19750718148E+03  0.47000000000E+01 0.  1.
         -5    1    3    3    0  503  0.10413644065E+03 -0.44633509621E+01 -0.79761982543E+02  0.13133310181E+03  0.47000000000E+01 0.  1.
<mgrwt>
<rscale>  0 0.18577038E+03</rscale>
<asrwt>0</asrwt>
<pdfrwt beam="2">  1        5 0.90180722E-01 0.18577394E+03</pdfrwt>
<pdfrwt beam="1">  1       -5 0.90623943E-02 0.18577394E+03</pdfrwt>
<totfact> 0.76687213E+01</totfact>
</mgrwt>
</event>
<event>
 8    1  0.3694627E-007  0.1312544E+03  0.7546771E-02  0.1225606E+00
         -5   -1    0    0    0  501 -0.00000000000E+00  0.00000000000E+00  0.27893623558E+03  0.27897582964E+03  0.47000000000E+01 0.  1.
          5   -1    0    0  501    0  0.00000000000E+00 -0.00000000000E+00 -0.63974164659E+02  0.64146580141E+02  0.47000000000E+01 0.  1.
         25    2    1    2    0    0  0.38090250562E+02 -0.12339220164E+02  0.74685553657E+02  0.15101542390E+03  0.12499841115E+03 0.  0.
         25    2    1    2    0    0 -0.38090250562E+02  0.12339220164E+02  0.14027651727E+03  0.19210698587E+03  0.12499787671E+03 0.  0.
          5    1    3    3  502    0 -0.26136100791E+02 -0.47331811777E+02  0.14491162859E+02  0.56173659055E+02  0.47000000000E+01 0.  1.
         -5    1    3    3    0  502  0.64226351353E+02  0.34992591613E+02  0.60194390799E+02  0.94841764848E+02  0.47000000000E+01 0.  1.
          5    1    4    4  503    0 -0.66060323523E+02  0.29461007242E+02  0.32653198434E+02  0.79499928677E+02  0.47000000000E+01 0. -1.
         -5    1    4    4    0  503  0.27970072961E+02 -0.17121787077E+02  0.10762331883E+03  0.11260705720E+03  0.47000000000E+01 0. -1.
<mgrwt>
<rscale>  0 0.13125431E+03</rscale>
<asrwt>0</asrwt>
<pdfrwt beam="2">  1        5 0.98584877E-02 0.13125443E+03</pdfrwt>
<pdfrwt beam="1">  1       -5 0.42929575E-01 0.13125443E+03</pdfrwt>
<totfact> 0.30721205E+02</totfact>
</mgrwt>
</event>
<event>
 8    1  0.3694627E-007  0.1288929E+03  0.7546771E-02  0.1229110E+00
          5   -1    0    0  501    0  0.00000000000E+00  0.00000000000E+00  0.76072996110E+03  0.76074447991E+03  0.47000000000E+01 0. -1.
         -5   -1    0    0    0  501 -0.00000000000E+00 -0.00000000000E+00 -0.26127674476E+02  0.26547040768E+02  0.47000000000E+01 0. -1.
         25    2    1    2    0    0 -0.29544612570E+02  0.10749976700E+02  0.20437096839E+03  0.24161888124E+03  0.12499497957E+03 0.  0.
         25    2    1    2    0    0  0.29544612570E+02 -0.10749976700E+02  0.53023131823E+03  0.54567263944E+03  0.12499972989E+03 0.  0.
          5    1    4    4  502    0  0.38402531486E+01 -0.48300311681E+02  0.45519377322E+03  0.45778939353E+03  0.47000000000E+01 0. -1.
         -5    1    4    4    0  502  0.25704359421E+02  0.37550334981E+02  0.75037545016E+02  0.87883245915E+02  0.47000000000E+01 0. -1.
          5    1    3    3  503    0 -0.49033435256E+02  0.56207302776E+02  0.15229792185E+03  0.16964753360E+03  0.47000000000E+01 0.  1.
         -5    1    3    3    0  503  0.19488822686E+02 -0.45457326076E+02  0.52073046542E+02  0.71971347631E+02  0.47000000000E+01 0.  1.
<mgrwt>
<rscale>  0 0.12889174E+03</rscale>
<asrwt>0</asrwt>
<pdfrwt beam="1">  1        5 0.11706874E+00 0.12889290E+03</pdfrwt>
<pdfrwt beam="2">  1       -5 0.40530184E-02 0.12889290E+03</pdfrwt>
<totfact> 0.14042889E+02</totfact>
</mgrwt>
</event>
<event>
 8    1  0.3694627E-007  0.1355919E+03  0.7546771E-02  0.1219387E+00
          5   -1    0    0  501    0  0.00000000000E+00  0.00000000000E+00  0.80101793561E+03  0.80103172419E+03  0.47000000000E+01 0.  1.
         -5   -1    0    0    0  501 -0.00000000000E+00 -0.00000000000E+00 -0.24283572811E+02  0.24734225447E+02  0.47000000000E+01 0.  1.
         25    2    1    2    0    0 -0.52461446974E+02 -0.27634856051E+01  0.28387482130E+03  0.31459503771E+03  0.12500113322E+03 0.  0.
         25    2    1    2    0    0  0.52461446974E+02  0.27634856051E+01  0.49285954149E+03  0.51117091193E+03  0.12500133318E+03 0.  0.
          5    1    3    3  502    0 -0.72738632820E+02  0.43409963107E+02  0.18371392418E+03  0.20235668889E+03  0.47000000000E+01 0.  1.
         -5    1    3    3    0  502  0.20277185847E+02 -0.46173448712E+02  0.10016089713E+03  0.11223834882E+03  0.47000000000E+01 0.  1.
          5    1    4    4  503    0  0.72432634648E+02  0.47136368001E+02  0.30293683734E+03  0.31505736171E+03  0.47000000000E+01 0. -1.
         -5    1    4    4    0  503 -0.19971187674E+02 -0.44372882396E+02  0.18992270415E+03  0.19611355022E+03  0.47000000000E+01 0. -1.
<mgrwt>
<rscale>  0 0.13559189E+03</rscale>
<asrwt>0</asrwt>
<pdfrwt beam="1">  1        5 0.12326925E+00 0.13559194E+03</pdfrwt>
<pdfrwt beam="2">  1       -5 0.37716606E-02 0.13559194E+03</pdfrwt>
<totfact> 0.14086396E+02</totfact>
</mgrwt>
</event>
<event>
 8    1  0.3694627E-007  0.2052341E+03  0.7546771E-02  0.1145399E+00
         -5   -1    0    0    0  501 -0.00000000000E+00  0.00000000000E+00  0.80903681806E+03  0.80905046998E+03  0.47000000000E+01 0. -1.
          5   -1    0    0  501    0  0.00000000000E+00 -0.00000000000E+00 -0.61666845626E+02  0.61845693864E+02  0.47000000000E+01 0. -1.
         25    2    1    2    0    0  0.16228391054E+03 -0.12493831947E+02  0.54632069106E+03  0.58359519966E+03  0.12499958449E+03 0.  0.
         25    2    1    2    0    0 -0.16228391054E+03  0.12493831947E+02  0.20104928138E+03  0.28730096419E+03  0.12501546715E+03 0.  0.
          5    1    3    3  502    0  0.14651176697E+03 -0.55119403755E+02  0.45998755513E+03  0.48591613207E+03  0.47000000000E+01 0.  1.
         -5    1    3    3    0  502  0.15772143566E+02  0.42625571808E+02  0.86333135927E+02  0.97679067582E+02  0.47000000000E+01 0.  1.
          5    1    4    4  503    0 -0.11831955130E+03 -0.45722406887E+02  0.95225002814E+02  0.15868190153E+03  0.47000000000E+01 0. -1.
         -5    1    4    4    0  503 -0.43964359239E+02  0.58216238834E+02  0.10582427856E+03  0.12861906266E+03  0.47000000000E+01 0. -1.
<mgrwt>
<rscale>  0 0.20523167E+03</rscale>
<asrwt>0</asrwt>
<pdfrwt beam="2">  1        5 0.95020148E-02 0.20523409E+03</pdfrwt>
<pdfrwt beam="1">  1       -5 0.12448201E+00 0.20523409E+03</pdfrwt>
<totfact> 0.32479638E+01</totfact>
</mgrwt>
</event>
<event>
 8    1  0.3694627E-007  0.1455600E+03  0.7546771E-02  0.1206047E+00
         -5   -1    0    0    0  501 -0.00000000000E+00  0.00000000000E+00  0.18897415396E+04  0.18897473843E+04  0.47000000000E+01 0.  1.
          5   -1    0    0  501    0  0.00000000000E+00 -0.00000000000E+00 -0.12749997806E+02  0.13588688092E+02  0.47000000000E+01 0.  1.
         25    2    1    2    0    0 -0.70106759189E+02  0.25357785281E+02  0.13061504147E+04  0.13142361360E+04  0.12501895961E+03 0.  0.
         25    2    1    2    0    0  0.70106759189E+02 -0.25357785281E+02  0.57084112702E+03  0.58909993637E+03  0.12498467017E+03 0.  0.
          5    1    4    4  502    0  0.94352622474E+02  0.55669593675E+01  0.49043420291E+03  0.49948093637E+03  0.47000000000E+01 0.  1.
         -5    1    4    4    0  502 -0.24245863285E+02 -0.30924744649E+02  0.80406924101E+02  0.89619000002E+02  0.47000000000E+01 0.  1.
          5    1    3    3  503    0  0.10749781681E+02 -0.34898278481E+02  0.57118393983E+03  0.57236931327E+03  0.47000000000E+01 0.  1.
         -5    1    3    3    0  503 -0.80856540870E+02  0.60256063762E+02  0.73496647490E+03  0.74186682272E+03  0.47000000000E+01 0.  1.
<mgrwt>
<rscale>  0 0.14555264E+03</rscale>
<asrwt>0</asrwt>
<pdfrwt beam="2">  1        5 0.20265017E-02 0.14556001E+03</pdfrwt>
<pdfrwt beam="1">  1       -5 0.29079452E+00 0.14556001E+03</pdfrwt>
<totfact> 0.26387674E+01</totfact>
</mgrwt>
</event>
<event>
 8    1  0.3694627E-007  0.1268425E+03  0.7546771E-02  0.1232219E+00
         -5   -1    0    0    0  501 -0.00000000000E+00  0.00000000000E+00  0.58552279504E+02  0.58740611463E+02  0.47000000000E+01 0. -1.
          5   -1    0    0  501    0  0.00000000000E+00 -0.00000000000E+00 -0.28123000104E+03  0.28126927220E+03  0.47000000000E+01 0. -1.
         25    2    1    2    0    0 -0.12465487076E+02  0.17567713407E+02 -0.84325141606E+02  0.15231465220E+03  0.12500004338E+03 0.  0.
         25    2    1    2    0    0  0.12465487076E+02 -0.17567713407E+02 -0.13835257993E+03  0.18769523147E+03  0.12499620243E+03 0.  0.
          5    1    3    3  502    0 -0.44213947184E+02  0.58854037046E+02 -0.40903583601E+02  0.84343725040E+02  0.47000000000E+01 0.  1.
         -5    1    3    3    0  502  0.31748460108E+02 -0.41286323639E+02 -0.43421558005E+02  0.67970927156E+02  0.47000000000E+01 0.  1.
          5    1    4    4  503    0  0.76792849082E+01  0.39383681733E+02 -0.27821725165E+01  0.40495386002E+02  0.47000000000E+01 0.  1.
         -5    1    4    4    0  503  0.47862021675E+01 -0.56951395140E+02 -0.13557040742E+03  0.14719984547E+03  0.47000000000E+01 0.  1.
<mgrwt>
<rscale>  0 0.12684157E+03</rscale>
<asrwt>0</asrwt>
<pdfrwt beam="2">  1        5 0.43283661E-01 0.12684252E+03</pdfrwt>
<pdfrwt beam="1">  1       -5 0.90255511E-02 0.12684252E+03</pdfrwt>
<totfact> 0.34765543E+02</totfact>
</mgrwt>
</event>
<event>
 8    1  0.3694627E-007  0.1300074E+03  0.7546771E-02  0.1227447E+00
         -5   -1    0    0    0  501 -0.00000000000E+00  0.00000000000E+00  0.89649321259E+02  0.89772438989E+02  0.47000000000E+01 0. -1.
          5   -1    0    0  501    0  0.00000000000E+00 -0.00000000000E+00 -0.18938685110E+03  0.18944516190E+03  0.47000000000E+01 0. -1.
         25    2    1    2    0    0 -0.35362412203E+02 -0.51459202118E+01 -0.39017919346E+02  0.13572968332E+03  0.12499267263E+03 0.  0.
         25    2    1    2    0    0  0.35362412203E+02  0.51459202118E+01 -0.60719610493E+02  0.14348791757E+03  0.12499972280E+03 0.  0.
          5    1    4    4  502    0 -0.12489984638E+02 -0.41053643798E+02 -0.63460094379E+02  0.76750732661E+02  0.47000000000E+01 0.  1.
         -5    1    4    4    0  502  0.47852396841E+02  0.46199564010E+02  0.27404838860E+01  0.66737184913E+02  0.47000000000E+01 0.  1.
          5    1    3    3  503    0 -0.50482366189E+02 -0.33054332329E+02  0.23924011190E+02  0.65080768996E+02  0.47000000000E+01 0. -1.
         -5    1    3    3    0  503  0.15119953986E+02  0.27908412117E+02 -0.62941930536E+02  0.70648914323E+02  0.47000000000E+01 0. -1.
<mgrwt>
<rscale>  0 0.13000566E+03</rscale>
<asrwt>0</asrwt>
<pdfrwt beam="2">  1        5 0.29150395E-01 0.13000735E+03</pdfrwt>
<pdfrwt beam="1">  1       -5 0.13806159E-01 0.13000735E+03</pdfrwt>
<totfact> 0.36720176E+02</totfact>
</mgrwt>
</event>
<event>
 8    1  0.3694627E-007  0.1285813E+03  0.7546771E-02  0.1229576E+00
         -5   -1    0    0    0  501 -0.00000000000E+00  0.00000000000E+00  0.16996979231E+03  0.17003476203E+03  0.47000000000E+01 0. -1.
          5   -1    0    0  501    0  0.00000000000E+00 -0.00000000000E+00 -0.10181672742E+03  0.10192514892E+03  0.47000000000E+01 0. -1.
         25    2    1    2    0    0 -0.18199401226E+02 -0.24026364951E+02  0.63225581347E+02  0.14328509362E+03  0.12499863799E+03 0.  0.
         25    2    1    2    0    0  0.18199401226E+02  0.24026364951E+02  0.49274835444E+01  0.12867481733E+03  0.12499777639E+03 0.  0.
          5    1    4    4  502    0 -0.34895194760E+02  0.55360813757E+02 -0.60124468773E+01  0.65884245724E+02  0.47000000000E+01 0.  1.
         -5    1    4    4    0  502  0.53094595986E+02 -0.31334448806E+02  0.10939930422E+02  0.62790571606E+02  0.47000000000E+01 0.  1.
          5    1    3    3  503    0 -0.56758928254E+02 -0.12920218048E+02 -0.10384630775E+02  0.59316427129E+02  0.47000000000E+01 0.  1.
         -5    1    3    3    0  503  0.38559527028E+02 -0.11106146903E+02  0.73610212122E+02  0.83968666491E+02  0.47000000000E+01 0.  1.
<mgrwt>
<rscale>  0 0.12858106E+03</rscale>
<asrwt>0</asrwt>
<pdfrwt beam="2">  1        5 0.15677450E-01 0.12858127E+03</pdfrwt>
<pdfrwt beam="1">  1       -5 0.26162537E-01 0.12858127E+03</pdfrwt>
<totfact> 0.35855065E+02</totfact>
</mgrwt>
</event>
<event>
 8    1  0.3694627E-007  0.1518879E+03  0.7546771E-02  0.1198173E+00
          5   -1    0    0  501    0  0.00000000000E+00  0.00000000000E+00  0.21739020025E+02  0.22241290242E+02  0.47000000000E+01 0. -1.
         -5   -1    0    0    0  501 -0.00000000000E+00 -0.00000000000E+00 -0.15684501525E+04  0.15684571944E+04  0.47000000000E+01 0. -1.
         25    2    1    2    0    0  0.42851694379E+01  0.86174703418E+02 -0.12311780192E+04  0.12405112775E+04  0.12499789053E+03 0.  0.
         25    2    1    2    0    0 -0.42851694379E+01 -0.86174703418E+02 -0.31553311327E+03  0.35018720713E+03  0.12500196911E+03 0.  0.
          5    1    3    3  502    0  0.52786501554E+02  0.37552189693E+01 -0.32835174370E+03  0.33262211894E+03  0.47000000000E+01 0.  1.
         -5    1    3    3    0  502 -0.48501332116E+02  0.82419484448E+02 -0.90282627546E+03  0.90788915860E+03  0.47000000000E+01 0.  1.
          5    1    4    4  503    0  0.60006542685E+02 -0.45022193471E+02 -0.16630912179E+03  0.18250643019E+03  0.47000000000E+01 0.  1.
         -5    1    4    4    0  503 -0.64291712123E+02 -0.41152509947E+02 -0.14922399148E+03  0.16768077694E+03  0.47000000000E+01 0.  1.
<mgrwt>
<rscale>  0 0.15188706E+03</rscale>
<asrwt>0</asrwt>
<pdfrwt beam="1">  1        5 0.33836437E-02 0.15188790E+03</pdfrwt>
<pdfrwt beam="2">  1       -5 0.24133911E+00 0.15188790E+03</pdfrwt>
<totfact> 0.24039098E+01</totfact>
</mgrwt>
</event>
<event>
 8    1  0.3694627E-007  0.1642133E+03  0.7546771E-02  0.1184022E+00
          5   -1    0    0  501    0  0.00000000000E+00  0.00000000000E+00  0.41488671678E+02  0.41754040255E+02  0.47000000000E+01 0. -1.
         -5   -1    0    0    0  501 -0.00000000000E+00 -0.00000000000E+00 -0.76812445515E+03  0.76813883419E+03  0.47000000000E+01 0. -1.
         25    2    1    2    0    0  0.19040903465E+02 -0.10477178203E+03 -0.52370066625E+03  0.54884278448E+03  0.12500532761E+03 0.  0.
         25    2    1    2    0    0 -0.19040903465E+02  0.10477178203E+03 -0.20293511722E+03  0.26105008996E+03  0.12499922142E+03 0.  0.
          5    1    3    3  502    0  0.49596315414E+02 -0.10297750344E+03 -0.48957068317E+03  0.50275809744E+03  0.47000000000E+01 0.  1.
         -5    1    3    3    0  502 -0.30555411948E+02 -0.17942785894E+01 -0.34129983081E+02  0.46084687046E+02  0.47000000000E+01 0.  1.
          5    1    4    4  503    0  0.22519604384E+02 -0.62104750700E+01 -0.10371801550E+03  0.10642001373E+03  0.47000000000E+01 0.  1.
         -5    1    4    4    0  503 -0.41560507849E+02  0.11098225710E+03 -0.99217101716E+02  0.15463007624E+03  0.47000000000E+01 0.  1.
<mgrwt>
<rscale>  0 0.16421216E+03</rscale>
<asrwt>0</asrwt>
<pdfrwt beam="1">  1        5 0.64043922E-02 0.16421332E+03</pdfrwt>
<pdfrwt beam="2">  1       -5 0.11819450E+00 0.16421332E+03</pdfrwt>
<totfact> 0.68995198E+01</totfact>
</mgrwt>
</event>
<event>
 8    1  0.3694627E-007  0.1587972E+03  0.7546771E-02  0.1190064E+00
          5   -1    0    0  501    0  0.00000000000E+00  0.00000000000E+00  0.19684888272E+04  0.19684944381E+04  0.47000000000E+01 0.  1.
         -5   -1    0    0    0  501 -0.00000000000E+00 -0.00000000000E+00 -0.16320416737E+02  0.16983698138E+02  0.47000000000E+01 0.  1.
         25    2    1    2    0    0  0.95577948954E+02  0.21317832711E+02  0.49889824878E+03  0.52355792430E+03  0.12499537248E+03 0.  0.
         25    2    1    2    0    0 -0.95577948954E+02 -0.21317832711E+02  0.14532701617E+04  0.14619202119E+04  0.12500779539E+03 0.  0.
          5    1    4    4  502    0 -0.66873132213E+02 -0.84414341786E+01  0.27354481607E+03  0.28176609097E+03  0.47000000000E+01 0.  1.
         -5    1    4    4    0  502 -0.28704816741E+02 -0.12876398532E+02  0.11797253456E+04  0.11801541210E+04  0.47000000000E+01 0.  1.
          5    1    3    3  503    0  0.60657401059E+02 -0.29777197655E+00  0.70300222069E+02  0.92971071815E+02  0.47000000000E+01 0. -1.
         -5    1    3    3    0  503  0.34920547895E+02  0.21615604687E+02  0.42859802671E+03  0.43058685248E+03  0.47000000000E+01 0. -1.
<mgrwt>
<rscale>  0 0.15879473E+03</rscale>
<asrwt>0</asrwt>
<pdfrwt beam="1">  1        5 0.30289581E+00 0.15879718E+03</pdfrwt>
<pdfrwt beam="2">  1       -5 0.25622873E-02 0.15879718E+03</pdfrwt>
<totfact> 0.15513148E+01</totfact>
</mgrwt>
</event>
<event>
 8    1  0.3694627E-007  0.1258913E+03  0.7546771E-02  0.1233698E+00
          5   -1    0    0  501    0  0.00000000000E+00  0.00000000000E+00  0.77117125026E+02  0.77260215973E+02  0.47000000000E+01 0.  1.
         -5   -1    0    0    0  501 -0.00000000000E+00 -0.00000000000E+00 -0.20535967031E+03  0.20541344695E+03  0.47000000000E+01 0.  1.
         25    2    1    2    0    0  0.67067738452E+01 -0.13319017375E+02 -0.58979487785E+02  0.13898655626E+03  0.12496521837E+03 0.  0.
         25    2    1    2    0    0 -0.67067738452E+01  0.13319017375E+02 -0.69263057497E+02  0.14368710667E+03  0.12500494570E+03 0.  0.
          5    1    3    3  502    0 -0.13884603534E+02 -0.18925041321E+02 -0.94388903364E+02  0.97377073701E+02  0.47000000000E+01 0. -1.
         -5    1    3    3    0  502  0.20591377379E+02  0.56060239465E+01  0.35409415579E+02  0.41609482555E+02  0.47000000000E+01 0. -1.
          5    1    4    4  503    0  0.57505342486E+02  0.27867246529E+01 -0.47893592132E+02  0.75036767095E+02  0.47000000000E+01 0. -1.
         -5    1    4    4    0  503 -0.64212116331E+02  0.10532292722E+02 -0.21369465365E+02  0.68650339575E+02  0.47000000000E+01 0. -1.
<mgrwt>
<rscale>  0 0.12588141E+03</rscale>
<asrwt>0</asrwt>
<pdfrwt beam="1">  1        5 0.11879317E-01 0.12589128E+03</pdfrwt>
<pdfrwt beam="2">  1       -5 0.31608939E-01 0.12589128E+03</pdfrwt>
<totfact> 0.40454194E+02</totfact>
</mgrwt>
</event>
<event>
 8    1  0.3694627E-007  0.1294297E+03  0.7546771E-02  0.1228306E+00
          5   -1    0    0  501    0  0.00000000000E+00  0.00000000000E+00  0.80334124605E+02  0.80471495426E+02  0.47000000000E+01 0.  1.
         -5   -1    0    0    0  501 -0.00000000000E+00 -0.00000000000E+00 -0.26241397337E+03  0.26245605998E+03  0.47000000000E+01 0.  1.
         25    2    1    2    0    0 -0.27024210744E+02  0.19951113175E+02 -0.16895940565E+03  0.21283456273E+03  0.12499166153E+03 0.  0.
         25    2    1    2    0    0  0.27024210744E+02 -0.19951113175E+02 -0.13120443113E+02  0.13009299267E+03  0.12499474321E+03 0.  0.
          5    1    4    4  502    0 -0.48880086569E+01 -0.15513331296E+02  0.53406237202E+02  0.56025639208E+02  0.47000000000E+01 0. -1.
         -5    1    4    4    0  502  0.31912219400E+02 -0.44377818790E+01 -0.66526680316E+02  0.74067353462E+02  0.47000000000E+01 0. -1.
          5    1    3    3  503    0 -0.27646170332E+02 -0.49457857085E+02 -0.53698877478E+02  0.78205177603E+02  0.47000000000E+01 0.  1.
         -5    1    3    3    0  503  0.62195958864E+00  0.69408970260E+02 -0.11526052817E+03  0.13462938513E+03  0.47000000000E+01 0.  1.
<mgrwt>
<rscale>  0 0.12942893E+03</rscale>
<asrwt>0</asrwt>
<pdfrwt beam="1">  1        5 0.12372901E-01 0.12942967E+03</pdfrwt>
<pdfrwt beam="2">  1       -5 0.40385185E-01 0.12942967E+03</pdfrwt>
<totfact> 0.23245433E+02</totfact>
</mgrwt>
</event>
<event>
 8    1  0.3694627E-007  0.1441063E+03  0.7546771E-02  0.1207911E+00
         -5   -1    0    0    0  501 -0.00000000000E+00  0.00000000000E+00  0.64147341956E+02  0.64319293217E+02  0.47000000000E+01 0. -1.
          5   -1    0    0  501    0  0.00000000000E+00 -0.00000000000E+00 -0.34538465068E+03  0.34541662804E+03  0.47000000000E+01 0. -1.
         25    2    1    2    0    0 -0.11477084034E+02  0.70780479990E+02 -0.88582075347E+02  0.16914776162E+03  0.12499032516E+03 0.  0.
         25    2    1    2    0    0  0.11477084034E+02 -0.70780479990E+02 -0.19265523338E+03  0.24058815964E+03  0.12500009521E+03 0.  0.
          5    1    4    4  502    0 -0.35601797238E+02 -0.44640681532E+02 -0.21654803016E+02  0.61247848190E+02  0.47000000000E+01 0.  1.
         -5    1    4    4    0  502  0.47078881272E+02 -0.26139798458E+02 -0.17100043036E+03  0.17934031145E+03  0.47000000000E+01 0.  1.
          5    1    3    3  503    0  0.52797413319E+02  0.48808662872E+02 -0.65145621598E+02  0.97138532200E+02  0.47000000000E+01 0.  1.
         -5    1    3    3    0  503 -0.64274497353E+02  0.21971817118E+02 -0.23436453749E+02  0.72009229421E+02  0.47000000000E+01 0.  1.
<mgrwt>
<rscale>  0 0.14410417E+03</rscale>
<asrwt>0</asrwt>
<pdfrwt beam="2">  1        5 0.53151786E-01 0.14410629E+03</pdfrwt>
<pdfrwt beam="1">  1       -5 0.98845089E-02 0.14410629E+03</pdfrwt>
<totfact> 0.20141159E+02</totfact>
</mgrwt>
</event>
<event>
 8    1  0.3694627E-007  0.1665275E+03  0.7546771E-02  0.1181520E+00
         -5   -1    0    0    0  501 -0.00000000000E+00  0.00000000000E+00  0.41698557640E+02  0.41962598933E+02  0.47000000000E+01 0. -1.
          5   -1    0    0  501    0  0.00000000000E+00 -0.00000000000E+00 -0.66316892017E+03  0.66318557484E+03  0.47000000000E+01 0. -1.
         25    2    1    2    0    0 -0.69073389066E+01 -0.10980618555E+03 -0.30090835606E+03  0.34391223749E+03  0.12499871452E+03 0.  0.
         25    2    1    2    0    0  0.69073389066E+01  0.10980618555E+03 -0.32056200647E+03  0.36123593629E+03  0.12500516773E+03 0.  0.
          5    1    4    4  502    0  0.45102178765E+02  0.71381480493E+02 -0.28242507701E+03  0.29481441012E+03  0.47000000000E+01 0.  1.
         -5    1    4    4    0  502 -0.38194839859E+02  0.38424705054E+02 -0.38136929450E+02  0.66421526166E+02  0.47000000000E+01 0.  1.
          5    1    3    3  503    0 -0.17711773387E+01 -0.72065582588E+01  0.11810447825E+02  0.14718975132E+02  0.47000000000E+01 0. -1.
         -5    1    3    3    0  503 -0.51361615679E+01 -0.10259962729E+03 -0.31271880389E+03  0.32919326235E+03  0.47000000000E+01 0. -1.
<mgrwt>
<rscale>  0 0.16652627E+03</rscale>
<asrwt>0</asrwt>
<pdfrwt beam="2">  1        5 0.10204757E+00 0.16652748E+03</pdfrwt>
<pdfrwt beam="1">  1       -5 0.64367552E-02 0.16652748E+03</pdfrwt>
<totfact> 0.99124073E+01</totfact>
</mgrwt>
</event>
<event>
 8    1  0.3694627E-007  0.1304532E+03  0.7546771E-02  0.1226786E+00
          5   -1    0    0  501    0  0.00000000000E+00  0.00000000000E+00  0.56640196857E+03  0.56642146852E+03  0.47000000000E+01 0.  1.
         -5   -1    0    0    0  501 -0.00000000000E+00 -0.00000000000E+00 -0.31255603568E+02  0.31607004831E+02  0.47000000000E+01 0.  1.
         25    2    1    2    0    0  0.18706061987E+00 -0.37330613627E+02  0.20434964947E+03  0.24243928921E+03  0.12499768002E+03 0.  0.
         25    2    1    2    0    0 -0.18706061987E+00  0.37330613627E+02  0.33079671553E+03  0.35558918414E+03  0.12499436453E+03 0.  0.
          5    1    4    4  502    0  0.12972658032E+02 -0.43392906927E+02  0.83958649653E+02  0.95511146363E+02  0.47000000000E+01 0. -1.
         -5    1    4    4    0  502 -0.13159718652E+02  0.80723520554E+02  0.24683806588E+03  0.26007803777E+03  0.47000000000E+01 0. -1.
          5    1    3    3  503    0 -0.29573245447E+02 -0.38485326104E+02  0.15454613405E+02  0.51153027742E+02  0.47000000000E+01 0. -1.
         -5    1    3    3    0  503  0.29760306067E+02  0.11547124771E+01  0.18889503606E+03  0.19128626147E+03  0.47000000000E+01 0. -1.
<mgrwt>
<rscale>  0 0.13045238E+03</rscale>
<asrwt>0</asrwt>
<pdfrwt beam="1">  1        5 0.87167295E-01 0.13045317E+03</pdfrwt>
<pdfrwt beam="2">  1       -5 0.48370853E-02 0.13045317E+03</pdfrwt>
<totfact> 0.21609719E+02</totfact>
</mgrwt>
</event>
<event>
 8    1  0.3694627E-007  0.1303976E+03  0.7546771E-02  0.1226905E+00
         -5   -1    0    0    0  501 -0.00000000000E+00  0.00000000000E+00  0.18941569736E+03  0.18947399929E+03  0.47000000000E+01 0. -1.
          5   -1    0    0  501    0  0.00000000000E+00 -0.00000000000E+00 -0.11297989177E+03  0.11307761027E+03  0.47000000000E+01 0. -1.
         25    2    1    2    0    0 -0.29817099508E+02  0.21635806221E+02  0.10702308592E+03  0.16861458430E+03  0.12497907659E+03 0.  0.
         25    2    1    2    0    0  0.29817099508E+02 -0.21635806221E+02 -0.30587280330E+02  0.13393702525E+03  0.12508548070E+03 0.  0.
          5    1    3    3  502    0  0.30021102223E+02 -0.35707951177E+02  0.32408044415E+02  0.56997330628E+02  0.47000000000E+01 0.  1.
         -5    1    3    3    0  502 -0.59838201731E+02  0.57343757398E+02  0.74615041508E+02  0.11161725368E+03  0.47000000000E+01 0.  1.
          5    1    4    4  503    0 -0.33372478986E+02  0.21473753425E+02  0.17323622313E+02  0.43555049418E+02  0.47000000000E+01 0.  1.
         -5    1    4    4    0  503  0.63189578494E+02 -0.43109559645E+02 -0.47910902643E+02  0.90381975831E+02  0.47000000000E+01 0.  1.
<mgrwt>
<rscale>  0 0.13037212E+03</rscale>
<asrwt>0</asrwt>
<pdfrwt beam="2">  1        5 0.17393523E-01 0.13039764E+03</pdfrwt>
<pdfrwt beam="1">  1       -5 0.29152878E-01 0.13039764E+03</pdfrwt>
<totfact> 0.24170586E+02</totfact>
</mgrwt>
</event>
<event>
 8    1  0.3694627E-007  0.1259623E+03  0.7546771E-02  0.1233574E+00
         -5   -1    0    0    0  501 -0.00000000000E+00  0.00000000000E+00  0.75396544121E+02  0.75542894209E+02  0.47000000000E+01 0.  1.
          5   -1    0    0  501    0  0.00000000000E+00 -0.00000000000E+00 -0.32025890080E+03  0.32029338667E+03  0.47000000000E+01 0.  1.
         25    2    1    2    0    0 -0.12150478110E+02  0.97640496838E+01 -0.63678034887E+01  0.12612135590E+03  0.12499230660E+03 0.  0.
         25    2    1    2    0    0  0.12150478110E+02 -0.97640496838E+01 -0.23849455319E+03  0.26971492497E+03  0.12499407213E+03 0.  0.
          5    1    4    4  502    0  0.50486573521E+02 -0.95461973545E+01 -0.34432805091E+02  0.62030089927E+02  0.47000000000E+01 0. -1.
         -5    1    4    4    0  502 -0.38336095411E+02 -0.21785232923E+00 -0.20406174810E+03  0.20768483505E+03  0.47000000000E+01 0. -1.
          5    1    3    3  503    0  0.29318738892E+02  0.59838165830E+01  0.48438842371E+02  0.57129729225E+02  0.47000000000E+01 0. -1.
         -5    1    3    3    0  503 -0.41469217003E+02  0.37802331008E+01 -0.54806645860E+02  0.68991626677E+02  0.47000000000E+01 0. -1.
<mgrwt>
<rscale>  0 0.12596181E+03</rscale>
<asrwt>0</asrwt>
<pdfrwt beam="2">  1        5 0.49284510E-01 0.12596225E+03</pdfrwt>
<pdfrwt beam="1">  1       -5 0.11613379E-01 0.12596225E+03</pdfrwt>
<totfact> 0.17026192E+02</totfact>
</mgrwt>
</event>
<event>
 8    1  0.3694627E-007  0.1266226E+03  0.7546771E-02  0.1232557E+00
         -5   -1    0    0    0  501 -0.00000000000E+00  0.00000000000E+00  0.29412184842E+02  0.29785342321E+02  0.47000000000E+01 0.  1.
          5   -1    0    0  501    0  0.00000000000E+00 -0.00000000000E+00 -0.55844491739E+03  0.55846469517E+03  0.47000000000E+01 0.  1.
         25    2    1    2    0    0 -0.18670345638E+01  0.20099484854E+02 -0.21298093107E+03  0.24777843111E+03  0.12500319522E+03 0.  0.
         25    2    1    2    0    0  0.18670345638E+01 -0.20099484854E+02 -0.31605180148E+03  0.34047160638E+03  0.12499879370E+03 0.  0.
          5    1    4    4  502    0 -0.53187773603E+02  0.10431535293E+01 -0.22950089012E+03  0.23563271419E+03  0.47000000000E+01 0.  1.
         -5    1    4    4    0  502  0.55054808167E+02 -0.21142638383E+02 -0.86550911359E+02  0.10483889220E+03  0.47000000000E+01 0.  1.
          5    1    3    3  503    0 -0.42810256279E+02 -0.26252900841E+02 -0.41146233812E+02  0.65092514179E+02  0.47000000000E+01 0. -1.
         -5    1    3    3    0  503  0.40943221715E+02  0.46352385695E+02 -0.17183469726E+03  0.18268591693E+03  0.47000000000E+01 0. -1.
<mgrwt>
<rscale>  0 0.12662148E+03</rscale>
<asrwt>0</asrwt>
<pdfrwt beam="2">  1        5 0.85944820E-01 0.12662256E+03</pdfrwt>
<pdfrwt beam="1">  1       -5 0.45551777E-02 0.12662256E+03</pdfrwt>
<totfact> 0.24409276E+02</totfact>
</mgrwt>
</event>
<event>
 8    1  0.3694627E-007  0.1580951E+03  0.7546771E-02  0.1190865E+00
         -5   -1    0    0    0  501 -0.00000000000E+00  0.00000000000E+00  0.83903813802E+03  0.83905130180E+03  0.47000000000E+01 0. -1.
          5   -1    0    0  501    0  0.00000000000E+00 -0.00000000000E+00 -0.29914979184E+02  0.30281941477E+02  0.47000000000E+01 0. -1.
         25    2    1    2    0    0 -0.50775636962E+01  0.96659649281E+02  0.44958765907E+03  0.47657435766E+03  0.12500074296E+03 0.  0.
         25    2    1    2    0    0  0.50775636962E+01 -0.96659649281E+02  0.35953549977E+03  0.39275888562E+03  0.12499958874E+03 0.  0.
          5    1    4    4  502    0  0.23180368855E+02  0.17356040730E+02  0.24049166059E+02  0.37934338510E+02  0.47000000000E+01 0.  1.
         -5    1    4    4    0  502 -0.18102805159E+02 -0.11401569001E+03  0.33548633371E+03  0.35482454710E+03  0.47000000000E+01 0.  1.
          5    1    3    3  503    0 -0.64343913259E+02  0.58409922706E+02  0.26423018511E+03  0.27819334818E+03  0.47000000000E+01 0. -1.
         -5    1    3    3    0  503  0.59266349563E+02  0.38249726575E+02  0.18535747395E+03  0.19838100948E+03  0.47000000000E+01 0. -1.
<mgrwt>
<rscale>  0 0.15809485E+03</rscale>
<asrwt>0</asrwt>
<pdfrwt beam="2">  1        5 0.46315449E-02 0.15809508E+03</pdfrwt>
<pdfrwt beam="1">  1       -5 0.12911203E+00 0.15809508E+03</pdfrwt>
<totfact> 0.93480299E+01</totfact>
</mgrwt>
</event>
<event>
 8    1  0.3694627E-007  0.1255801E+03  0.7546771E-02  0.1234170E+00
         -5   -1    0    0    0  501 -0.00000000000E+00  0.00000000000E+00  0.45137803092E+03  0.45140249977E+03  0.47000000000E+01 0.  1.
          5   -1    0    0  501    0  0.00000000000E+00 -0.00000000000E+00 -0.36496930278E+02  0.36798314088E+02  0.47000000000E+01 0.  1.
         25    2    1    2    0    0  0.58218767426E+01  0.10449178802E+02  0.26059052425E+03  0.28927110311E+03  0.12500908038E+03 0.  0.
         25    2    1    2    0    0 -0.58218767426E+01 -0.10449178802E+02  0.15429057639E+03  0.19892971075E+03  0.12499747305E+03 0.  0.
          5    1    3    3  502    0  0.38586532098E+02  0.55512809840E+02  0.11747726531E+03  0.13562297144E+03  0.47000000000E+01 0.  1.
         -5    1    3    3    0  502 -0.32764655356E+02 -0.45063631038E+02  0.14311325894E+03  0.15364813167E+03  0.47000000000E+01 0.  1.
          5    1    4    4  503    0  0.16397299813E+02 -0.63672485472E+02  0.98696445174E+02  0.11868502491E+03  0.47000000000E+01 0. -1.
         -5    1    4    4    0  503 -0.22219176556E+02  0.53223306670E+02  0.55594131219E+02  0.80244685841E+02  0.47000000000E+01 0. -1.
<mgrwt>
<rscale>  0 0.12557716E+03</rscale>
<asrwt>0</asrwt>
<pdfrwt beam="2">  1        5 0.56399782E-02 0.12558005E+03</pdfrwt>
<pdfrwt beam="1">  1       -5 0.69467836E-01 0.12558005E+03</pdfrwt>
<totfact> 0.27813054E+02</totfact>
</mgrwt>
</event>
<event>
 8    1  0.3694627E-007  0.1358660E+03  0.7546771E-02  0.1219004E+00
          5   -1    0    0  501    0  0.00000000000E+00  0.00000000000E+00  0.25493744856E+03  0.25498076923E+03  0.47000000000E+01 0.  1.
         -5   -1    0    0    0  501 -0.00000000000E+00 -0.00000000000E+00 -0.79991003012E+02  0.80128962073E+02  0.47000000000E+01 0.  1.
         25    2    1    2    0    0 -0.46965646618E+02  0.25061148972E+02  0.35512757269E+02  0.14043046856E+03  0.12500290965E+03 0.  0.
         25    2    1    2    0    0  0.46965646618E+02 -0.25061148972E+02  0.13943368827E+03  0.19467926274E+03  0.12499771504E+03 0.  0.
          5    1    4    4  502    0  0.15492217006E+02  0.21473860797E+02 -0.14637254794E+02  0.30618208850E+02  0.47000000000E+01 0. -1.
         -5    1    4    4    0  502  0.31473429612E+02 -0.46535009769E+02  0.15407094307E+03  0.16406105389E+03  0.47000000000E+01 0. -1.
          5    1    3    3  503    0 -0.60832857843E+02 -0.32337746997E+02 -0.40892758511E+01  0.69174985733E+02  0.47000000000E+01 0.  1.
         -5    1    3    3    0  503  0.13867211225E+02  0.57398895969E+02  0.39602033121E+02  0.71255482827E+02  0.47000000000E+01 0.  1.
<mgrwt>
<rscale>  0 0.13586477E+03</rscale>
<asrwt>0</asrwt>
<pdfrwt beam="1">  1        5 0.39235090E-01 0.13586597E+03</pdfrwt>
<pdfrwt beam="2">  1       -5 0.12320253E-01 0.13586597E+03</pdfrwt>
<totfact> 0.25270639E+02</totfact>
</mgrwt>
</event>
<event>
 8    1  0.3694627E-007  0.1362969E+03  0.7546771E-02  0.1218404E+00
          5   -1    0    0  501    0  0.00000000000E+00  0.00000000000E+00  0.16610098720E+02  0.17262253025E+02  0.47000000000E+01 0. -1.
         -5   -1    0    0    0  501 -0.00000000000E+00 -0.00000000000E+00 -0.11437520148E+04  0.11437616716E+04  0.47000000000E+01 0. -1.
         25    2    1    2    0    0 -0.15284866183E+02 -0.52133954242E+02 -0.68201023907E+03  0.69549609240E+03  0.12500108809E+03 0.  0.
         25    2    1    2    0    0  0.15284866183E+02  0.52133954242E+02 -0.44513167700E+03  0.46552783219E+03  0.12498950498E+03 0.  0.
          5    1    3    3  502    0  0.15436379019E+02  0.30921393576E+02 -0.35385323008E+03  0.35556801433E+03  0.47000000000E+01 0. -1.
         -5    1    3    3    0  502 -0.30721245202E+02 -0.83055347818E+02 -0.32815700900E+03  0.33992807807E+03  0.47000000000E+01 0. -1.
          5    1    4    4  503    0  0.35492589691E+02 -0.25874866863E+02 -0.78122509464E+02  0.89746582905E+02  0.47000000000E+01 0.  1.
         -5    1    4    4    0  503 -0.20207723507E+02  0.78008821104E+02 -0.36700916753E+03  0.37578124928E+03  0.47000000000E+01 0.  1.
<mgrwt>
<rscale>  0 0.13629426E+03</rscale>
<asrwt>0</asrwt>
<pdfrwt beam="1">  1        5 0.26063093E-02 0.13629691E+03</pdfrwt>
<pdfrwt beam="2">  1       -5 0.17601270E+00 0.13629691E+03</pdfrwt>
<totfact> 0.97389112E+01</totfact>
</mgrwt>
</event>
<event>
 8    1  0.3694627E-007  0.1378242E+03  0.7546771E-02  0.1216289E+00
         -5   -1    0    0    0  501 -0.00000000000E+00  0.00000000000E+00  0.29256880994E+03  0.29260655931E+03  0.47000000000E+01 0.  1.
          5   -1    0    0  501    0  0.00000000000E+00 -0.00000000000E+00 -0.64804321024E+02  0.64974533652E+02  0.47000000000E+01 0.  1.
         25    2    1    2    0    0 -0.31736248562E+02 -0.48615886972E+02  0.11577035884E+03  0.17999115071E+03  0.12499337746E+03 0.  0.
         25    2    1    2    0    0  0.31736248562E+02  0.48615886972E+02  0.11199413007E+03  0.17758994225E+03  0.12499923391E+03 0.  0.
          5    1    4    4  502    0  0.66494767775E+02  0.48070917619E+02  0.28433970687E+02  0.86965211155E+02  0.47000000000E+01 0.  1.
         -5    1    4    4    0  502 -0.34758519213E+02  0.54496935258E+00  0.83560159385E+02  0.90624731094E+02  0.47000000000E+01 0.  1.
          5    1    3    3  503    0  0.29565191973E+02  0.24912682356E+02  0.17428104176E+02  0.42668151281E+02  0.47000000000E+01 0. -1.
         -5    1    3    3    0  503 -0.61301440535E+02 -0.73528569328E+02  0.98342254667E+02  0.13732299943E+03  0.47000000000E+01 0. -1.
<mgrwt>
<rscale>  0 0.13782284E+03</rscale>
<asrwt>0</asrwt>
<pdfrwt beam="2">  1        5 0.99858926E-02 0.13782417E+03</pdfrwt>
<pdfrwt beam="1">  1       -5 0.45026583E-01 0.13782417E+03</pdfrwt>
<totfact> 0.27675420E+02</totfact>
</mgrwt>
</event>
<event>
 8    1  0.3694627E-007  0.1283697E+03  0.7546771E-02  0.1229896E+00
         -5   -1    0    0    0  501 -0.00000000000E+00  0.00000000000E+00  0.33156267207E+02  0.33487729918E+02  0.47000000000E+01 0. -1.
          5   -1    0    0  501    0  0.00000000000E+00 -0.00000000000E+00 -0.49577894330E+03  0.49580122088E+03  0.47000000000E+01 0. -1.
         25    2    1    2    0    0 -0.29018751431E+02 -0.33717871996E+01 -0.21629374662E+03  0.25151893771E+03  0.12500133726E+03 0.  0.
         25    2    1    2    0    0  0.29018751431E+02  0.33717871996E+01 -0.24632892948E+03  0.27777001309E+03  0.12499912715E+03 0.  0.
          5    1    4    4  502    0 -0.49046861759E+01 -0.57494589763E+02 -0.98041582506E+02  0.11385923633E+03  0.47000000000E+01 0.  1.
         -5    1    4    4    0  502  0.33923437607E+02  0.60866376963E+02 -0.14828734697E+03  0.16391077675E+03  0.47000000000E+01 0.  1.
          5    1    3    3  503    0  0.32072187531E+02  0.22768040087E+02 -0.20292906429E+02  0.44507313037E+02  0.47000000000E+01 0. -1.
         -5    1    3    3    0  503 -0.61090938962E+02 -0.26139827286E+02 -0.19600084019E+03  0.20701162467E+03  0.47000000000E+01 0. -1.
<mgrwt>
<rscale>  0 0.12836921E+03</rscale>
<asrwt>0</asrwt>
<pdfrwt beam="2">  1        5 0.76300889E-01 0.12836974E+03</pdfrwt>
<pdfrwt beam="1">  1       -5 0.51281753E-02 0.12836974E+03</pdfrwt>
<totfact> 0.26557650E+02</totfact>
</mgrwt>
</event>
<event>
 8    1  0.3694627E-007  0.2367739E+03  0.7546771E-02  0.1121963E+00
         -5   -1    0    0    0  501 -0.00000000000E+00  0.00000000000E+00  0.13603275144E+03  0.13611392091E+03  0.47000000000E+01 0. -1.
          5   -1    0    0  501    0  0.00000000000E+00 -0.00000000000E+00 -0.77832953316E+03  0.77834372368E+03  0.47000000000E+01 0. -1.
         25    2    1    2    0    0 -0.19989387477E+03 -0.21745044573E+02 -0.74300176777E+01  0.23687540044E+03  0.12499736812E+03 0.  0.
         25    2    1    2    0    0  0.19989387477E+03  0.21745044573E+02 -0.63486676404E+03  0.67758224415E+03  0.12502592279E+03 0.  0.
          5    1    3    3  502    0  0.17313821763E+02 -0.38539929453E+00  0.35545722648E+01  0.18293221167E+02  0.47000000000E+01 0.  1.
         -5    1    3    3    0  502 -0.21720769653E+03 -0.21359645278E+02 -0.10984589943E+02  0.21858217927E+03  0.47000000000E+01 0.  1.
          5    1    4    4  503    0  0.11155495010E+03  0.71488755788E+02 -0.40925363239E+03  0.43019271811E+03  0.47000000000E+01 0.  1.
         -5    1    4    4    0  503  0.88338924674E+02 -0.49743711216E+02 -0.22561313165E+03  0.24738952604E+03  0.47000000000E+01 0.  1.
<mgrwt>
<rscale>  0 0.23677015E+03</rscale>
<asrwt>0</asrwt>
<pdfrwt beam="2">  1        5 0.11975034E+00 0.23677392E+03</pdfrwt>
<pdfrwt beam="1">  1       -5 0.20935451E-01 0.23677392E+03</pdfrwt>
<totfact> 0.88342674E+00</totfact>
</mgrwt>
</event>
<event>
 8    1  0.3694627E-007  0.1439720E+03  0.7546771E-02  0.1208086E+00
          5   -1    0    0  501    0  0.00000000000E+00  0.00000000000E+00  0.56070831879E+03  0.56072801675E+03  0.47000000000E+01 0.  1.
         -5   -1    0    0    0  501 -0.00000000000E+00 -0.00000000000E+00 -0.38145017441E+02  0.38433479619E+02  0.47000000000E+01 0.  1.
         25    2    1    2    0    0  0.13608369998E+02  0.70103639568E+02  0.20513141338E+03  0.25060598452E+03  0.12499901881E+03 0.  0.
         25    2    1    2    0    0 -0.13608369998E+02 -0.70103639568E+02  0.31743188797E+03  0.34855551185E+03  0.12501293263E+03 0.  0.
          5    1    3    3  502    0  0.53750539317E+02  0.56990260142E+02  0.58340734192E+02  0.97789270853E+02  0.47000000000E+01 0. -1.
         -5    1    3    3    0  502 -0.40142169319E+02  0.13113379427E+02  0.14679067919E+03  0.15281671366E+03  0.47000000000E+01 0. -1.
          5    1    4    4  503    0  0.12143476663E+02  0.32723161867E+02  0.11095732066E+03  0.11641256958E+03  0.47000000000E+01 0. -1.
         -5    1    4    4    0  503 -0.25751846661E+02 -0.10282680144E+03  0.20647456731E+03  0.23214294227E+03  0.47000000000E+01 0. -1.
<mgrwt>
<rscale>  0 0.14396900E+03</rscale>
<asrwt>0</asrwt>
<pdfrwt beam="1">  1        5 0.86286524E-01 0.14397202E+03</pdfrwt>
<pdfrwt beam="2">  1       -5 0.58921688E-02 0.14397202E+03</pdfrwt>
<totfact> 0.16457929E+02</totfact>
</mgrwt>
</event>
<event>
 8    1  0.3694627E-007  0.1664688E+03  0.7546771E-02  0.1181583E+00
         -5   -1    0    0    0  501 -0.00000000000E+00  0.00000000000E+00  0.34063508143E+03  0.34066750462E+03  0.47000000000E+01 0. -1.
          5   -1    0    0  501    0  0.00000000000E+00 -0.00000000000E+00 -0.82711823041E+02  0.82845251347E+02  0.47000000000E+01 0. -1.
         25    2    1    2    0    0  0.99888765398E+02 -0.45907886328E+02  0.15712307484E+03  0.22890944777E+03  0.12500630045E+03 0.  0.
         25    2    1    2    0    0 -0.99888765398E+02  0.45907886328E+02  0.10080018356E+03  0.19460330820E+03  0.12499788429E+03 0.  0.
          5    1    4    4  502    0 -0.14576151445E+02  0.42391543722E+02  0.99327984083E+02  0.10907632920E+03  0.47000000000E+01 0.  1.
         -5    1    4    4    0  502 -0.85312613954E+02  0.35163426061E+01  0.14721994723E+01  0.85526978996E+02  0.47000000000E+01 0.  1.
          5    1    3    3  503    0  0.11424917335E+03 -0.70527779013E+02  0.10999074165E+03  0.17362918670E+03  0.47000000000E+01 0. -1.
         -5    1    3    3    0  503 -0.14360407955E+02  0.24619892685E+02  0.47132333186E+02  0.55280261070E+02  0.47000000000E+01 0. -1.
<mgrwt>
<rscale>  0 0.16646726E+03</rscale>
<asrwt>0</asrwt>
<pdfrwt beam="2">  1        5 0.12737654E-01 0.16646884E+03</pdfrwt>
<pdfrwt beam="1">  1       -5 0.52418155E-01 0.16646884E+03</pdfrwt>
<totfact> 0.13884256E+02</totfact>
</mgrwt>
</event>
<event>
 8    1  0.3694627E-007  0.1346249E+03  0.7546771E-02  0.1220751E+00
         -5   -1    0    0    0  501 -0.00000000000E+00  0.00000000000E+00  0.30216811441E+03  0.30220466470E+03  0.47000000000E+01 0.  1.
          5   -1    0    0  501    0  0.00000000000E+00 -0.00000000000E+00 -0.62723322408E+02  0.62899166719E+02  0.47000000000E+01 0.  1.
         25    2    1    2    0    0  0.43356271187E+02  0.24876584179E+02  0.15875059109E+03  0.20814708040E+03  0.12499938486E+03 0.  0.
         25    2    1    2    0    0 -0.43356271187E+02 -0.24876584179E+02  0.80694200911E+02  0.15695675102E+03  0.12500102775E+03 0.  0.
          5    1    4    4  502    0 -0.29090403080E+02  0.49703687471E+02  0.43171172270E+02  0.72128692036E+02  0.47000000000E+01 0. -1.
         -5    1    4    4    0  502 -0.14265868107E+02 -0.74580271650E+02  0.37523028641E+02  0.84828058982E+02  0.47000000000E+01 0. -1.
          5    1    3    3  503    0  0.11278531205E+02 -0.50855896363E+01  0.16323864313E+03  0.16377427484E+03  0.47000000000E+01 0. -1.
         -5    1    3    3    0  503  0.32077739982E+02  0.29962173815E+02 -0.44880520418E+01  0.44372805559E+02  0.47000000000E+01 0. -1.
<mgrwt>
<rscale>  0 0.13462453E+03</rscale>
<asrwt>0</asrwt>
<pdfrwt beam="2">  1        5 0.96660801E-02 0.13462491E+03</pdfrwt>
<pdfrwt beam="1">  1       -5 0.46503739E-01 0.13462491E+03</pdfrwt>
<totfact> 0.27162539E+02</totfact>
</mgrwt>
</event>
<event>
 8    1  0.3694627E-007  0.1550934E+03  0.7546771E-02  0.1194351E+00
         -5   -1    0    0    0  501 -0.00000000000E+00  0.00000000000E+00  0.67239495901E+02  0.67403559320E+02  0.47000000000E+01 0.  1.
          5   -1    0    0  501    0  0.00000000000E+00 -0.00000000000E+00 -0.37447431237E+03  0.37450380589E+03  0.47000000000E+01 0.  1.
         25    2    1    2    0    0  0.80110579288E+02 -0.44848799487E+02 -0.10605991742E+03  0.18789008363E+03  0.12499943086E+03 0.  0.
         25    2    1    2    0    0 -0.80110579288E+02  0.44848799487E+02 -0.20117489905E+03  0.25401728158E+03  0.12499727838E+03 0.  0.
          5    1    3    3  502    0  0.48537042731E+02 -0.87802751369E+02 -0.58110212821E+02  0.11603471247E+03  0.47000000000E+01 0. -1.
         -5    1    3    3    0  502  0.31573536557E+02  0.42953951882E+02 -0.47949704597E+02  0.71855371156E+02  0.47000000000E+01 0. -1.
          5    1    4    4  503    0  0.87143436373E+01  0.10547068471E+02 -0.13999595056E+03  0.14074138201E+03  0.47000000000E+01 0.  1.
         -5    1    4    4    0  503 -0.88824922926E+02  0.34301731016E+02 -0.61178948493E+02  0.11327589956E+03  0.47000000000E+01 0.  1.
<mgrwt>
<rscale>  0 0.15509301E+03</rscale>
<asrwt>0</asrwt>
<pdfrwt beam="2">  1        5 0.57626320E-01 0.15509345E+03</pdfrwt>
<pdfrwt beam="1">  1       -5 0.10359427E-01 0.15509345E+03</pdfrwt>
<totfact> 0.15959715E+02</totfact>
</mgrwt>
</event>
<event>
 8    1  0.3694627E-007  0.1702002E+03  0.7546771E-02  0.1177640E+00
         -5   -1    0    0    0  501 -0.00000000000E+00  0.00000000000E+00  0.39707811994E+03  0.39710593465E+03  0.47000000000E+01 0.  1.
          5   -1    0    0  501    0  0.00000000000E+00 -0.00000000000E+00 -0.14580449970E+03  0.14588023215E+03  0.47000000000E+01 0.  1.
         25    2    1    2    0    0  0.73790245015E+02  0.88864260236E+02  0.31759225733E+03  0.36032338671E+03  0.12500497626E+03 0.  0.
         25    2    1    2    0    0 -0.73790245015E+02 -0.88864260236E+02 -0.66318637097E+02  0.18266278009E+03  0.12500269035E+03 0.  0.
          5    1    3    3  502    0  0.10013604341E+03  0.33331382213E+02  0.23120436115E+03  0.25419629196E+03  0.47000000000E+01 0. -1.
         -5    1    3    3    0  502 -0.26345798397E+02  0.55532878024E+02  0.86387896184E+02  0.10612709476E+03  0.47000000000E+01 0. -1.
          5    1    4    4  503    0 -0.69547881479E+02  0.10181052762E+02 -0.34493225765E+02  0.78437454556E+02  0.47000000000E+01 0.  1.
         -5    1    4    4    0  503 -0.42423635360E+01 -0.99045312999E+02 -0.31825411331E+02  0.10422532553E+03  0.47000000000E+01 0.  1.
<mgrwt>
<rscale>  0 0.17019976E+03</rscale>
<asrwt>0</asrwt>
<pdfrwt beam="2">  1        5 0.22439427E-01 0.17020018E+03</pdfrwt>
<pdfrwt beam="1">  1       -5 0.61096905E-01 0.17020018E+03</pdfrwt>
<totfact> 0.35319282E+01</totfact>
</mgrwt>
</event>
<event>
 8    1  0.3694627E-007  0.1731220E+03  0.7546771E-02  0.1174631E+00
         -5   -1    0    0    0  501 -0.00000000000E+00  0.00000000000E+00  0.11228973994E+04  0.11229072355E+04  0.47000000000E+01 0. -1.
          5   -1    0    0  501    0  0.00000000000E+00 -0.00000000000E+00 -0.33961907574E+02  0.34285582481E+02  0.47000000000E+01 0. -1.
         25    2    1    2    0    0  0.11930060565E+03 -0.10633458880E+02  0.81464630619E+03  0.83283842172E+03  0.12500211020E+03 0.  0.
         25    2    1    2    0    0 -0.11930060565E+03  0.10633458880E+02  0.27428918560E+03  0.32435439624E+03  0.12500204825E+03 0.  0.
          5    1    4    4  502    0 -0.49421247958E+01 -0.45221094240E+02  0.69705479410E+02  0.83368554153E+02  0.47000000000E+01 0. -1.
         -5    1    4    4    0  502 -0.11435848085E+03  0.55854553120E+02  0.20458370619E+03  0.24098584208E+03  0.47000000000E+01 0. -1.
          5    1    3    3  503    0 -0.22223022722E+02  0.28111640782E+01  0.23009584679E+03  0.23123138648E+03  0.47000000000E+01 0. -1.
         -5    1    3    3    0  503  0.14152362837E+03 -0.13444622958E+02  0.58455045940E+03  0.60160703524E+03  0.47000000000E+01 0. -1.
<mgrwt>
<rscale>  0 0.17312201E+03</rscale>
<asrwt>0</asrwt>
<pdfrwt beam="2">  1        5 0.52505628E-02 0.17312202E+03</pdfrwt>
<pdfrwt beam="1">  1       -5 0.17277913E+00 0.17312202E+03</pdfrwt>
<totfact> 0.34939443E+01</totfact>
</mgrwt>
</event>
<event>
 8    1  0.3694627E-007  0.1274016E+03  0.7546771E-02  0.1231389E+00
         -5   -1    0    0    0  501 -0.00000000000E+00  0.00000000000E+00  0.68381622601E+03  0.68383237782E+03  0.47000000000E+01 0.  1.
          5   -1    0    0  501    0  0.00000000000E+00 -0.00000000000E+00 -0.26822954893E+02  0.27231615986E+02  0.47000000000E+01 0.  1.
         25    2    1    2    0    0  0.45964370199E-01 -0.24259823064E+02  0.45299566640E+03  0.47055164347E+03  0.12500093709E+03 0.  0.
         25    2    1    2    0    0 -0.45964370199E-01  0.24259823064E+02  0.20399760472E+03  0.24051235034E+03  0.12507048734E+03 0.  0.
          5    1    4    4  502    0  0.45061313533E+02 -0.24595447816E+02  0.46246541100E+02  0.69255256799E+02  0.47000000000E+01 0.  1.
         -5    1    4    4    0  502 -0.45107277903E+02  0.48855270879E+02  0.15775106362E+03  0.17125709354E+03  0.47000000000E+01 0.  1.
          5    1    3    3  503    0 -0.23285152290E+02 -0.28206788002E+02  0.44284581356E+03  0.44437858386E+03  0.47000000000E+01 0.  1.
         -5    1    3    3    0  503  0.23331116660E+02  0.39469649385E+01  0.10149852836E+02  0.26173059611E+02  0.47000000000E+01 0.  1.
<mgrwt>
<rscale>  0 0.12738453E+03</rscale>
<asrwt>0</asrwt>
<pdfrwt beam="2">  1        5 0.41592863E-02 0.12740160E+03</pdfrwt>
<pdfrwt beam="1">  1       -5 0.10523518E+00 0.12740160E+03</pdfrwt>
<totfact> 0.17473237E+02</totfact>
</mgrwt>
</event>
<event>
 8    1  0.3694627E-007  0.1255251E+03  0.7546771E-02  0.1234256E+00
          5   -1    0    0  501    0  0.00000000000E+00  0.00000000000E+00  0.19279500044E+03  0.19285228076E+03  0.47000000000E+01 0. -1.
         -5   -1    0    0    0  501 -0.00000000000E+00 -0.00000000000E+00 -0.81581436705E+02  0.81716710744E+02  0.47000000000E+01 0. -1.
         25    2    1    2    0    0 -0.79499674777E+01  0.80101955660E+01  0.55726586909E+02  0.13732701943E+03  0.12500357019E+03 0.  0.
         25    2    1    2    0    0  0.79499674777E+01 -0.80101955660E+01  0.55486976824E+02  0.13724197208E+03  0.12501675522E+03 0.  0.
          5    1    3    3  502    0  0.29230040297E+02  0.34538658839E+02  0.74849270186E+02  0.87588911727E+02  0.47000000000E+01 0.  1.
         -5    1    3    3    0  502 -0.37180007775E+02 -0.26528463273E+02 -0.19122683278E+02  0.49738107699E+02  0.47000000000E+01 0.  1.
          5    1    4    4  503    0  0.44349621432E+02  0.16863072012E+02  0.74943071068E+02  0.88824580044E+02  0.47000000000E+01 0. -1.
         -5    1    4    4    0  503 -0.36399653955E+02 -0.24873267578E+02 -0.19456094244E+02  0.48417392033E+02  0.47000000000E+01 0. -1.
<mgrwt>
<rscale>  0 0.12552183E+03</rscale>
<asrwt>0</asrwt>
<pdfrwt beam="1">  1        5 0.29675581E-01 0.12552511E+03</pdfrwt>
<pdfrwt beam="2">  1       -5 0.12565802E-01 0.12552511E+03</pdfrwt>
<totfact> 0.41409450E+02</totfact>
</mgrwt>
</event>
<event>
 8    1  0.3694627E-007  0.1884560E+03  0.7546771E-02  0.1159864E+00
          5   -1    0    0  501    0  0.00000000000E+00  0.00000000000E+00  0.53938092985E+02  0.54142477547E+02  0.47000000000E+01 0. -1.
         -5   -1    0    0    0  501 -0.00000000000E+00 -0.00000000000E+00 -0.65937104928E+03  0.65938779988E+03  0.47000000000E+01 0. -1.
         25    2    1    2    0    0  0.11142055947E+03 -0.86462260094E+02 -0.28111117699E+03  0.33843635532E+03  0.12500163709E+03 0.  0.
         25    2    1    2    0    0 -0.11142055947E+03  0.86462260094E+02 -0.32432177930E+03  0.37509392210E+03  0.12498228026E+03 0.  0.
          5    1    3    3  502    0 -0.16094383110E+02  0.15999250394E+02 -0.51514591745E+02  0.56487594599E+02  0.47000000000E+01 0.  1.
         -5    1    3    3    0  502  0.12751494258E+03 -0.10246151049E+03 -0.22959658525E+03  0.28194876072E+03  0.47000000000E+01 0.  1.
          5    1    4    4  503    0 -0.55368080486E+02  0.14331881248E+00 -0.29762405024E+02  0.63035986784E+02  0.47000000000E+01 0.  1.
         -5    1    4    4    0  503 -0.56052478984E+02  0.86318941281E+02 -0.29455937427E+03  0.31205793532E+03  0.47000000000E+01 0.  1.
<mgrwt>
<rscale>  0 0.18845281E+03</rscale>
<asrwt>0</asrwt>
<pdfrwt beam="1">  1        5 0.83151790E-02 0.18845602E+03</pdfrwt>
<pdfrwt beam="2">  1       -5 0.10145870E+00 0.18845602E+03</pdfrwt>
<totfact> 0.67184393E+01</totfact>
</mgrwt>
</event>
<event>
 8    1  0.3694627E-007  0.1270883E+03  0.7546771E-02  0.1231845E+00
         -5   -1    0    0    0  501 -0.00000000000E+00  0.00000000000E+00  0.13126669504E+04  0.13126753646E+04  0.47000000000E+01 0.  1.
          5   -1    0    0  501    0  0.00000000000E+00 -0.00000000000E+00 -0.19671454490E+02  0.20225135890E+02  0.47000000000E+01 0.  1.
         25    2    1    2    0    0  0.93074881572E+01  0.20925951321E+02  0.10592244385E+04  0.10668213750E+04  0.12500764091E+03 0.  0.
         25    2    1    2    0    0 -0.93074881572E+01 -0.20925951321E+02  0.23377105743E+03  0.26607912544E+03  0.12499867571E+03 0.  0.
          5    1    3    3  502    0 -0.23334371141E+02  0.24093747121E+01  0.96490405100E+03  0.96520060899E+03  0.47000000000E+01 0. -1.
         -5    1    3    3    0  502  0.32641859298E+02  0.18516576609E+02  0.94320387512E+02  0.10162076603E+03  0.47000000000E+01 0. -1.
          5    1    4    4  503    0  0.52841377850E+02 -0.98180393759E+01  0.16008608011E+03  0.16893267344E+03  0.47000000000E+01 0. -1.
         -5    1    4    4    0  503 -0.62148866008E+02 -0.11107911945E+02  0.73684977314E+02  0.97146451997E+02  0.47000000000E+01 0. -1.
<mgrwt>
<rscale>  0 0.12708609E+03</rscale>
<asrwt>0</asrwt>
<pdfrwt beam="2">  1        5 0.30696157E-02 0.12708830E+03</pdfrwt>
<pdfrwt beam="1">  1       -5 0.20199200E+00 0.12708830E+03</pdfrwt>
<totfact> 0.48405964E+01</totfact>
</mgrwt>
</event>
<event>
 8    1  0.3694627E-007  0.1915064E+03  0.7546771E-02  0.1157111E+00
         -5   -1    0    0    0  501 -0.00000000000E+00  0.00000000000E+00  0.34406894436E+03  0.34410104399E+03  0.47000000000E+01 0. -1.
          5   -1    0    0  501    0  0.00000000000E+00 -0.00000000000E+00 -0.31363053470E+03  0.31366574932E+03  0.47000000000E+01 0. -1.
         25    2    1    2    0    0 -0.77381417409E+02  0.12271524020E+03  0.28245017565E+03  0.34124725548E+03  0.12499869484E+03 0.  0.
         25    2    1    2    0    0  0.77381417409E+02 -0.12271524020E+03 -0.25201176599E+03  0.31651953782E+03  0.12501109427E+03 0.  0.
          5    1    3    3  502    0 -0.93341489922E+01 -0.13627544533E+02  0.10890122192E+03  0.11024700650E+03  0.47000000000E+01 0. -1.
         -5    1    3    3    0  502 -0.68047268417E+02  0.13634278473E+03  0.17354895373E+03  0.23100024898E+03  0.47000000000E+01 0. -1.
          5    1    4    4  503    0  0.10460243430E+03 -0.11255789020E+03 -0.23937797998E+03  0.28449051866E+03  0.47000000000E+01 0.  1.
         -5    1    4    4    0  503 -0.27221016895E+02 -0.10157349994E+02 -0.12633786014E+02  0.32029019166E+02  0.47000000000E+01 0.  1.
<mgrwt>
<rscale>  0 0.19150434E+03</rscale>
<asrwt>0</asrwt>
<pdfrwt beam="2">  1        5 0.48256030E-01 0.19150636E+03</pdfrwt>
<pdfrwt beam="1">  1       -5 0.52938862E-01 0.19150636E+03</pdfrwt>
<totfact> 0.10753411E+01</totfact>
</mgrwt>
</event>
<event>
 8    1  0.3694627E-007  0.1398986E+03  0.7546771E-02  0.1213466E+00
          5   -1    0    0  501    0  0.00000000000E+00  0.00000000000E+00  0.97250833848E+02  0.97364339900E+02  0.47000000000E+01 0.  1.
         -5   -1    0    0    0  501 -0.00000000000E+00 -0.00000000000E+00 -0.20811448846E+03  0.20816755345E+03  0.47000000000E+01 0.  1.
         25    2    1    2    0    0  0.47136025655E+02 -0.41529376589E+02 -0.83686367788E+02  0.16301798016E+03  0.12499983867E+03 0.  0.
         25    2    1    2    0    0 -0.47136025655E+02  0.41529376589E+02 -0.27177286829E+02  0.14251391319E+03  0.12500046599E+03 0.  0.
          5    1    3    3  502    0  0.14752530977E+02  0.29162981755E+02 -0.78248776504E+02  0.84929839864E+02  0.47000000000E+01 0.  1.
         -5    1    3    3    0  502  0.32383494678E+02 -0.70692358344E+02 -0.54375912841E+01  0.78088140295E+02  0.47000000000E+01 0.  1.
          5    1    4    4  503    0 -0.23227692120E+02  0.68810217848E+02 -0.59265832204E+02  0.93855743715E+02  0.47000000000E+01 0.  1.
         -5    1    4    4    0  503 -0.23908333535E+02 -0.27280841259E+02  0.32088545375E+02  0.48658169474E+02  0.47000000000E+01 0.  1.
<mgrwt>
<rscale>  0 0.13989843E+03</rscale>
<asrwt>0</asrwt>
<pdfrwt beam="1">  1        5 0.14974480E-01 0.13989857E+03</pdfrwt>
<pdfrwt beam="2">  1       -5 0.32030427E-01 0.13989857E+03</pdfrwt>
<totfact> 0.27038677E+02</totfact>
</mgrwt>
</event>
<event>
 8    1  0.3694627E-007  0.1258112E+03  0.7546771E-02  0.1233807E+00
          5   -1    0    0  501    0  0.00000000000E+00  0.00000000000E+00  0.15805861015E+04  0.15805930894E+04  0.47000000000E+01 0.  1.
         -5   -1    0    0    0  501 -0.00000000000E+00 -0.00000000000E+00 -0.94570969351E+01  0.10560619416E+02  0.47000000000E+01 0.  1.
         25    2    1    2    0    0 -0.45603263566E+01 -0.13519711182E+02  0.79564019640E+03  0.80552577722E+03  0.12499950591E+03 0.  0.
         25    2    1    2    0    0  0.45603263566E+01  0.13519711182E+02  0.77548880818E+03  0.78562793160E+03  0.12499910455E+03 0.  0.
          5    1    3    3  502    0 -0.27959038941E+02  0.50052967672E+02  0.39633355798E+03  0.40048643749E+03  0.47000000000E+01 0.  1.
         -5    1    3    3    0  502  0.23398712584E+02 -0.63572678854E+02  0.39930663842E+03  0.40503933974E+03  0.47000000000E+01 0.  1.
          5    1    4    4  503    0  0.11608146890E+02 -0.56023475834E+01  0.75865854001E+03  0.75878258131E+03  0.47000000000E+01 0.  1.
         -5    1    4    4    0  503 -0.70478205338E+01  0.19122058766E+02  0.16830268173E+02  0.26845350295E+02  0.47000000000E+01 0.  1.
<mgrwt>
<rscale>  0 0.12581109E+03</rscale>
<asrwt>0</asrwt>
<pdfrwt beam="1">  1        5 0.24325263E+00 0.12581119E+03</pdfrwt>
<pdfrwt beam="2">  1       -5 0.15403612E-02 0.12581119E+03</pdfrwt>
<totfact> 0.77941202E+01</totfact>
</mgrwt>
</event>
<event>
 8    1  0.3694627E-007  0.1310210E+03  0.7546771E-02  0.1225949E+00
         -5   -1    0    0    0  501 -0.00000000000E+00  0.00000000000E+00  0.19528999801E+02  0.20086608306E+02  0.47000000000E+01 0. -1.
          5   -1    0    0  501    0  0.00000000000E+00 -0.00000000000E+00 -0.87399228669E+03  0.87400492401E+03  0.47000000000E+01 0. -1.
         25    2    1    2    0    0  0.28670495302E+02 -0.26816443253E+02 -0.38472826096E+03  0.40642619190E+03  0.12500118301E+03 0.  0.
         25    2    1    2    0    0 -0.28670495302E+02  0.26816443253E+02 -0.46973502593E+03  0.48766534041E+03  0.12500148289E+03 0.  0.
          5    1    3    3  502    0 -0.16017529316E+01 -0.20719681034E+02 -0.37213976704E+03  0.37274920121E+03  0.47000000000E+01 0. -1.
         -5    1    3    3    0  502  0.30272248234E+02 -0.60967622184E+01 -0.12588493922E+02  0.33676990690E+02  0.47000000000E+01 0. -1.
          5    1    4    4  503    0  0.16260117017E+02  0.58151507156E+02 -0.12883835082E+03  0.14236361836E+03  0.47000000000E+01 0. -1.
         -5    1    4    4    0  503 -0.44930612319E+02 -0.31335063904E+02 -0.34089667511E+03  0.34530172205E+03  0.47000000000E+01 0. -1.
<mgrwt>
<rscale>  0 0.13102088E+03</rscale>
<asrwt>0</asrwt>
<pdfrwt beam="2">  1        5 0.13450419E+00 0.13102095E+03</pdfrwt>
<pdfrwt beam="1">  1       -5 0.30483273E-02 0.13102095E+03</pdfrwt>
<totfact> 0.15698771E+02</totfact>
</mgrwt>
</event>
<event>
 8    1  0.3694627E-007  0.1510559E+03  0.7546771E-02  0.1199182E+00
         -5   -1    0    0    0  501 -0.00000000000E+00  0.00000000000E+00  0.54813974660E+02  0.55015105363E+02  0.47000000000E+01 0.  1.
          5   -1    0    0  501    0  0.00000000000E+00 -0.00000000000E+00 -0.42045107193E+03  0.42047734052E+03  0.47000000000E+01 0.  1.
         25    2    1    2    0    0 -0.67795033891E+02 -0.50953881774E+02 -0.15651002208E+03  0.21751564805E+03  0.12500082179E+03 0.  0.
         25    2    1    2    0    0  0.67795033891E+02  0.50953881774E+02 -0.20912707519E+03  0.25797679783E+03  0.12500171980E+03 0.  0.
          5    1    4    4  502    0  0.19297486151E+02  0.69958302603E+02 -0.18799194240E+03  0.20156789795E+03  0.47000000000E+01 0. -1.
         -5    1    4    4    0  502  0.48497547740E+02 -0.19004420830E+02 -0.21135132787E+02  0.56408899881E+02  0.47000000000E+01 0. -1.
          5    1    3    3  503    0 -0.78386969117E+02 -0.63908973349E+02 -0.16837431739E+03  0.19647105272E+03  0.47000000000E+01 0.  1.
         -5    1    3    3    0  503  0.10591935227E+02  0.12955091575E+02  0.11864295305E+02  0.21044595331E+02  0.47000000000E+01 0.  1.
<mgrwt>
<rscale>  0 0.15105575E+03</rscale>
<asrwt>0</asrwt>
<pdfrwt beam="2">  1        5 0.64702270E-01 0.15105593E+03</pdfrwt>
<pdfrwt beam="1">  1       -5 0.84504117E-02 0.15105593E+03</pdfrwt>
<totfact> 0.17477733E+02</totfact>
</mgrwt>
</event>
<event>
 8    1  0.3694627E-007  0.1644371E+03  0.7546771E-02  0.1183780E+00
         -5   -1    0    0    0  501 -0.00000000000E+00  0.00000000000E+00  0.16534001781E+03  0.16540680605E+03  0.47000000000E+01 0. -1.
          5   -1    0    0  501    0  0.00000000000E+00 -0.00000000000E+00 -0.28492605764E+03  0.28496481945E+03  0.47000000000E+01 0. -1.
         25    2    1    2    0    0  0.26462259273E+02  0.10350771293E+03  0.87245985421E+02  0.18613868139E+03  0.12498659502E+03 0.  0.
         25    2    1    2    0    0 -0.26462259273E+02 -0.10350771293E+03 -0.20683202525E+03  0.26423294411E+03  0.12500185710E+03 0.  0.
          5    1    3    3  502    0  0.27663162131E+02  0.61303604019E+02 -0.20378999633E+02  0.70432776680E+02  0.47000000000E+01 0. -1.
         -5    1    3    3    0  502 -0.12009028581E+01  0.42204108913E+02  0.10762498505E+03  0.11570590471E+03  0.47000000000E+01 0. -1.
          5    1    4    4  503    0 -0.24024510546E+01 -0.12134615210E+03 -0.11401492764E+03  0.16658977797E+03  0.47000000000E+01 0. -1.
         -5    1    4    4    0  503 -0.24059808218E+02  0.17838439167E+02 -0.92817097612E+02  0.97643166133E+02  0.47000000000E+01 0. -1.
<mgrwt>
<rscale>  0 0.16443421E+03</rscale>
<asrwt>0</asrwt>
<pdfrwt beam="2">  1        5 0.43842897E-01 0.16443711E+03</pdfrwt>
<pdfrwt beam="1">  1       -5 0.25445045E-01 0.16443711E+03</pdfrwt>
<totfact> 0.55975684E+01</totfact>
</mgrwt>
</event>
<event>
 8    1  0.3694627E-007  0.1353452E+03  0.7546771E-02  0.1219734E+00
          5   -1    0    0  501    0  0.00000000000E+00  0.00000000000E+00  0.31787021968E+03  0.31790496466E+03  0.47000000000E+01 0. -1.
         -5   -1    0    0    0  501 -0.00000000000E+00 -0.00000000000E+00 -0.59722991837E+02  0.59907643535E+02  0.47000000000E+01 0. -1.
         25    2    1    2    0    0  0.22600559293E+01  0.51849239230E+02  0.92645143263E+02  0.16401539100E+03  0.12499789779E+03 0.  0.
         25    2    1    2    0    0 -0.22600559293E+01 -0.51849239230E+02  0.16550208458E+03  0.21379721720E+03  0.12499943449E+03 0.  0.
          5    1    4    4  502    0  0.58707366397E+02 -0.15005273622E+02  0.53455659058E+02  0.80940166735E+02  0.47000000000E+01 0. -1.
         -5    1    4    4    0  502 -0.60967422326E+02 -0.36843965607E+02  0.11204642552E+03  0.13285705047E+03  0.47000000000E+01 0. -1.
          5    1    3    3  503    0 -0.15360784610E+02  0.90843549039E+02  0.61238328190E+02  0.11072816690E+03  0.47000000000E+01 0.  1.
         -5    1    3    3    0  503  0.17620840540E+02 -0.38994309810E+02  0.31406815073E+02  0.53287224096E+02  0.47000000000E+01 0.  1.
<mgrwt>
<rscale>  0 0.13534480E+03</rscale>
<asrwt>0</asrwt>
<pdfrwt beam="1">  1        5 0.48919988E-01 0.13534515E+03</pdfrwt>
<pdfrwt beam="2">  1       -5 0.92050291E-02 0.13534515E+03</pdfrwt>
<totfact> 0.26629849E+02</totfact>
</mgrwt>
</event>
<event>
 8    1  0.3694627E-007  0.1306776E+03  0.7546771E-02  0.1226454E+00
         -5   -1    0    0    0  501 -0.00000000000E+00  0.00000000000E+00  0.17409350058E+03  0.17415693195E+03  0.47000000000E+01 0. -1.
          5   -1    0    0  501    0  0.00000000000E+00 -0.00000000000E+00 -0.15030316679E+03  0.15037663365E+03  0.47000000000E+01 0. -1.
         25    2    1    2    0    0 -0.37255833002E+02 -0.79826177252E+01  0.10761174580E+03  0.16928358426E+03  0.12499969915E+03 0.  0.
         25    2    1    2    0    0  0.37255833002E+02  0.79826177252E+01 -0.83821412009E+02  0.15524998134E+03  0.12499923326E+03 0.  0.
          5    1    4    4  502    0  0.74603474731E+02 -0.10965152662E+02 -0.18949342199E+02  0.77891466700E+02  0.47000000000E+01 0. -1.
         -5    1    4    4    0  502 -0.37347641729E+02  0.18947770387E+02 -0.64872069810E+02  0.77358514636E+02  0.47000000000E+01 0. -1.
          5    1    3    3  503    0 -0.43712363630E+02 -0.42626975557E+02  0.11739726135E+03  0.13240859773E+03  0.47000000000E+01 0.  1.
         -5    1    3    3    0  503  0.64565306277E+01  0.34644357832E+02 -0.97855155519E+01  0.36874986535E+02  0.47000000000E+01 0.  1.
<mgrwt>
<rscale>  0 0.13067752E+03</rscale>
<asrwt>0</asrwt>
<pdfrwt beam="2">  1        5 0.23134095E-01 0.13067763E+03</pdfrwt>
<pdfrwt beam="1">  1       -5 0.26794146E-01 0.13067763E+03</pdfrwt>
<totfact> 0.16738695E+02</totfact>
</mgrwt>
</event>
<event>
 8    1  0.3694627E-007  0.1273019E+03  0.7546771E-02  0.1231518E+00
          5   -1    0    0  501    0  0.00000000000E+00  0.00000000000E+00  0.41753181380E+02  0.42016879410E+02  0.47000000000E+01 0. -1.
         -5   -1    0    0    0  501 -0.00000000000E+00 -0.00000000000E+00 -0.40498394481E+03  0.40501121658E+03  0.47000000000E+01 0. -1.
         25    2    1    2    0    0  0.44121969914E+01 -0.23671755213E+02 -0.22921651112E+03  0.26219454192E+03  0.12500379742E+03 0.  0.
         25    2    1    2    0    0 -0.44121969914E+01  0.23671755213E+02 -0.13401425231E+03  0.18483355406E+03  0.12499521354E+03 0.  0.
          5    1    4    4  502    0 -0.57787497894E+01  0.75126393750E+02 -0.75724839854E+02  0.10692852920E+03  0.47000000000E+01 0. -1.
         -5    1    4    4    0  502  0.13665527980E+01 -0.51454638537E+02 -0.58289412455E+02  0.77905024856E+02  0.47000000000E+01 0. -1.
          5    1    3    3  503    0  0.42181910050E+01  0.29900133036E+02 -0.19731248713E+03  0.19966501613E+03  0.47000000000E+01 0.  1.
         -5    1    3    3    0  503  0.19400598646E+00 -0.53571888249E+02 -0.31904023990E+02  0.62529525791E+02  0.47000000000E+01 0.  1.
<mgrwt>
<rscale>  0 0.12729977E+03</rscale>
<asrwt>0</asrwt>
<pdfrwt beam="1">  1        5 0.64459489E-02 0.12730188E+03</pdfrwt>
<pdfrwt beam="2">  1       -5 0.62327602E-01 0.12730188E+03</pdfrwt>
<totfact> 0.28425723E+02</totfact>
</mgrwt>
</event>
<event>
 8    1  0.3694627E-007  0.1292831E+03  0.7546771E-02  0.1228528E+00
          5   -1    0    0  501    0  0.00000000000E+00  0.00000000000E+00  0.67532115349E+02  0.67695469594E+02  0.47000000000E+01 0.  1.
         -5   -1    0    0    0  501 -0.00000000000E+00 -0.00000000000E+00 -0.25790503298E+03  0.25794785527E+03  0.47000000000E+01 0.  1.
         25    2    1    2    0    0 -0.25018771031E+02  0.21523031218E+02 -0.12866966758E+03  0.18240067076E+03  0.12499976624E+03 0.  0.
         25    2    1    2    0    0  0.25018771031E+02 -0.21523031218E+02 -0.61703250053E+02  0.14324265410E+03  0.12498794786E+03 0.  0.
          5    1    4    4  502    0  0.50442077964E+02 -0.59528523278E+02 -0.57593533423E+02  0.97093529162E+02  0.47000000000E+01 0. -1.
         -5    1    4    4    0  502 -0.25423306933E+02  0.38005492060E+02 -0.41097166300E+01  0.46149124942E+02  0.47000000000E+01 0. -1.
          5    1    3    3  503    0  0.84119795154E+01 -0.49111609952E+02 -0.39630090752E+02  0.63838434540E+02  0.47000000000E+01 0.  1.
         -5    1    3    3    0  503 -0.33430750547E+02  0.70634641171E+02 -0.89039576826E+02  0.11856223622E+03  0.47000000000E+01 0.  1.
<mgrwt>
<rscale>  0 0.12928025E+03</rscale>
<asrwt>0</asrwt>
<pdfrwt beam="1">  1        5 0.10405416E-01 0.12928311E+03</pdfrwt>
<pdfrwt beam="2">  1       -5 0.39693556E-01 0.12928311E+03</pdfrwt>
<totfact> 0.32658665E+02</totfact>
</mgrwt>
</event>
<event>
 8    1  0.3694627E-007  0.1837717E+03  0.7546771E-02  0.1164205E+00
         -5   -1    0    0    0  501 -0.00000000000E+00  0.00000000000E+00  0.11369951686E+03  0.11379661741E+03  0.47000000000E+01 0. -1.
          5   -1    0    0  501    0  0.00000000000E+00 -0.00000000000E+00 -0.37122717535E+03  0.37125692683E+03  0.47000000000E+01 0. -1.
         25    2    1    2    0    0 -0.10560382504E+03  0.83615616379E+02 -0.20161023585E+02  0.18486203576E+03  0.12499506481E+03 0.  0.
         25    2    1    2    0    0  0.10560382504E+03 -0.83615616379E+02 -0.23736663491E+03  0.30019150848E+03  0.12501313222E+03 0.  0.
          5    1    4    4  502    0  0.14201736228E+02  0.13485596068E+01  0.13349680744E+02  0.20095071557E+02  0.47000000000E+01 0. -1.
         -5    1    4    4    0  502  0.91402088813E+02 -0.84964175986E+02 -0.25071631566E+03  0.28009643692E+03  0.47000000000E+01 0. -1.
          5    1    3    3  503    0  0.24605598107E+01  0.68500249449E+02  0.14612963926E+02  0.70242204150E+02  0.47000000000E+01 0.  1.
         -5    1    3    3    0  503 -0.10806438485E+03  0.15115366930E+02 -0.34773987511E+02  0.11461983161E+03  0.47000000000E+01 0.  1.
<mgrwt>
<rscale>  0 0.18376859E+03</rscale>
<asrwt>0</asrwt>
<pdfrwt beam="2">  1        5 0.57121630E-01 0.18377166E+03</pdfrwt>
<pdfrwt beam="1">  1       -5 0.17501991E-01 0.18377166E+03</pdfrwt>
<totfact> 0.66603272E+01</totfact>
</mgrwt>
</event>
<event>
 8    1  0.3694627E-007  0.1309390E+03  0.7546771E-02  0.1226072E+00
          5   -1    0    0  501    0  0.00000000000E+00  0.00000000000E+00  0.81958754387E+02  0.82093406683E+02  0.47000000000E+01 0. -1.
         -5   -1    0    0    0  501 -0.00000000000E+00 -0.00000000000E+00 -0.21625848725E+03  0.21630955436E+03  0.47000000000E+01 0. -1.
         25    2    1    2    0    0  0.27818058411E+02 -0.27273546896E+02 -0.94763032036E+02  0.16162518015E+03  0.12499990354E+03 0.  0.
         25    2    1    2    0    0 -0.27818058411E+02  0.27273546896E+02 -0.39536700830E+02  0.13677778090E+03  0.12500927926E+03 0.  0.
          5    1    3    3  502    0 -0.32124435666E+02 -0.55652055947E+02 -0.45500499465E+02  0.78876588095E+02  0.47000000000E+01 0.  1.
         -5    1    3    3    0  502  0.59942494076E+02  0.28378509050E+02 -0.49262532571E+02  0.82748592056E+02  0.47000000000E+01 0.  1.
          5    1    4    4  503    0 -0.43410866823E+02 -0.41466715296E+02 -0.15829152405E+02  0.62262700725E+02  0.47000000000E+01 0. -1.
         -5    1    4    4    0  503  0.15592808412E+02  0.68740262192E+02 -0.23707548425E+02  0.74515080170E+02  0.47000000000E+01 0. -1.
<mgrwt>
<rscale>  0 0.13093672E+03</rscale>
<asrwt>0</asrwt>
<pdfrwt beam="1">  1        5 0.12623325E-01 0.13093896E+03</pdfrwt>
<pdfrwt beam="2">  1       -5 0.33284822E-01 0.13093896E+03</pdfrwt>
<totfact> 0.33268425E+02</totfact>
</mgrwt>
</event>
<event>
 8    1  0.3694627E-007  0.1602997E+03  0.7546771E-02  0.1188361E+00
         -5   -1    0    0    0  501 -0.00000000000E+00  0.00000000000E+00  0.16538466476E+03  0.16545143498E+03  0.47000000000E+01 0. -1.
          5   -1    0    0  501    0  0.00000000000E+00 -0.00000000000E+00 -0.16101879473E+03  0.16108737460E+03  0.47000000000E+01 0. -1.
         25    2    1    2    0    0  0.99605678571E+02  0.12213881971E+02  0.33124568817E+02  0.16368634732E+03  0.12500205247E+03 0.  0.
         25    2    1    2    0    0 -0.99605678571E+02 -0.12213881971E+02 -0.28758698791E+02  0.16285246226E+03  0.12499356620E+03 0.  0.
          5    1    4    4  502    0 -0.81513756183E+01  0.42096454789E+02  0.17781067165E+02  0.46656326257E+02  0.47000000000E+01 0. -1.
         -5    1    4    4    0  502 -0.91454302953E+02 -0.54310336760E+02 -0.46539765956E+02  0.11619613601E+03  0.47000000000E+01 0. -1.
          5    1    3    3  503    0  0.38993718399E+02  0.19773485895E+02  0.76766728840E+02  0.88468759887E+02  0.47000000000E+01 0.  1.
         -5    1    3    3    0  503  0.60611960173E+02 -0.75596039245E+01 -0.43642160023E+02  0.75217587431E+02  0.47000000000E+01 0.  1.
<mgrwt>
<rscale>  0 0.16029801E+03</rscale>
<asrwt>0</asrwt>
<pdfrwt beam="2">  1        5 0.24782534E-01 0.16029967E+03</pdfrwt>
<pdfrwt beam="1">  1       -5 0.25454206E-01 0.16029967E+03</pdfrwt>
<totfact> 0.17336109E+02</totfact>
</mgrwt>
</event>
<event>
 8    1  0.3694627E-007  0.1254329E+03  0.7546771E-02  0.1234395E+00
         -5   -1    0    0    0  501 -0.00000000000E+00  0.00000000000E+00  0.64697730912E+02  0.64868223231E+02  0.47000000000E+01 0. -1.
          5   -1    0    0  501    0  0.00000000000E+00 -0.00000000000E+00 -0.24823812528E+03  0.24828261486E+03  0.47000000000E+01 0. -1.
         25    2    1    2    0    0 -0.71680325456E+01 -0.75323738678E+01 -0.68327388251E+02  0.14283508608E+03  0.12500044993E+03 0.  0.
         25    2    1    2    0    0  0.71680325456E+01  0.75323738678E+01 -0.11521300612E+03  0.17031575202E+03  0.12500120503E+03 0.  0.
          5    1    4    4  502    0 -0.22261292247E+02 -0.32619453940E+02  0.50327340882E+01  0.40087558172E+02  0.47000000000E+01 0. -1.
         -5    1    4    4    0  502  0.29429324793E+02  0.40151827807E+02 -0.12024574021E+03  0.13022819384E+03  0.47000000000E+01 0. -1.
          5    1    3    3  503    0  0.21463020505E+02  0.32919635334E+02  0.17767791276E+02  0.43383730205E+02  0.47000000000E+01 0. -1.
         -5    1    3    3    0  503 -0.28631053051E+02 -0.40452009201E+02 -0.86095179528E+02  0.99451355874E+02  0.47000000000E+01 0. -1.
<mgrwt>
<rscale>  0 0.12543274E+03</rscale>
<asrwt>0</asrwt>
<pdfrwt beam="2">  1        5 0.38207017E-01 0.12543292E+03</pdfrwt>
<pdfrwt beam="1">  1       -5 0.99700343E-02 0.12543292E+03</pdfrwt>
<totfact> 0.37607263E+02</totfact>
</mgrwt>
</event>
<event>
 8    1  0.3694627E-007  0.1732398E+03  0.7546771E-02  0.1174512E+00
         -5   -1    0    0    0  501 -0.00000000000E+00  0.00000000000E+00  0.46456240794E+02  0.46693386134E+02  0.47000000000E+01 0.  1.
          5   -1    0    0  501    0  0.00000000000E+00 -0.00000000000E+00 -0.69062722755E+03  0.69064322008E+03  0.47000000000E+01 0.  1.
         25    2    1    2    0    0 -0.10947830356E+03  0.49010026838E+02 -0.22642753396E+03  0.28509592518E+03  0.12499110664E+03 0.  0.
         25    2    1    2    0    0  0.10947830356E+03 -0.49010026838E+02 -0.41774345280E+03  0.45224068103E+03  0.12499823814E+03 0.  0.
          5    1    3    3  502    0 -0.87809810450E+02  0.85835412599E+02 -0.12671953885E+03  0.17651688983E+03  0.47000000000E+01 0.  1.
         -5    1    3    3    0  502 -0.21668493115E+02 -0.36825385761E+02 -0.99707995106E+02  0.10857903535E+03  0.47000000000E+01 0.  1.
          5    1    4    4  503    0 -0.21298974308E+02  0.11284834494E+02 -0.10604545419E+03  0.10885183577E+03  0.47000000000E+01 0.  1.
         -5    1    4    4    0  503  0.13077727787E+03 -0.60294861332E+02 -0.31169799861E+03  0.34338884526E+03  0.47000000000E+01 0.  1.
<mgrwt>
<rscale>  0 0.17323855E+03</rscale>
<asrwt>0</asrwt>
<pdfrwt beam="2">  1        5 0.10626981E+00 0.17323984E+03</pdfrwt>
<pdfrwt beam="1">  1       -5 0.71665866E-02 0.17323984E+03</pdfrwt>
<totfact> 0.75537519E+01</totfact>
</mgrwt>
</event>
<event>
 8    1  0.3694627E-007  0.1259801E+03  0.7546771E-02  0.1233547E+00
         -5   -1    0    0    0  501 -0.00000000000E+00  0.00000000000E+00  0.52517502112E+03  0.52519605178E+03  0.47000000000E+01 0. -1.
          5   -1    0    0  501    0  0.00000000000E+00 -0.00000000000E+00 -0.34815410482E+02  0.35131222681E+02  0.47000000000E+01 0. -1.
         25    2    1    2    0    0 -0.14781571333E+02  0.51617860258E+01  0.34868041353E+03  0.37074118801E+03  0.12500343525E+03 0.  0.
         25    2    1    2    0    0  0.14781571333E+02 -0.51617860258E+01  0.14167919711E+03  0.18958608645E+03  0.12499900158E+03 0.  0.
          5    1    4    4  502    0 -0.14617248669E+02  0.53850293064E+02  0.88611520409E+02  0.10482179912E+03  0.47000000000E+01 0. -1.
         -5    1    4    4    0  502  0.29398820002E+02 -0.59012079090E+02  0.53067676699E+02  0.84764287328E+02  0.47000000000E+01 0. -1.
          5    1    3    3  503    0  0.54594736082E+01  0.63329692490E+02  0.19311887707E+03  0.20336530305E+03  0.47000000000E+01 0. -1.
         -5    1    3    3    0  503 -0.20241044941E+02 -0.58167906464E+02  0.15556153646E+03  0.16737588497E+03  0.47000000000E+01 0. -1.
<mgrwt>
<rscale>  0 0.12597905E+03</rscale>
<asrwt>0</asrwt>
<pdfrwt beam="2">  1        5 0.53821274E-02 0.12598015E+03</pdfrwt>
<pdfrwt beam="1">  1       -5 0.80822077E-01 0.12598015E+03</pdfrwt>
<totfact> 0.21321688E+02</totfact>
</mgrwt>
</event>
<event>
 8    1  0.3694627E-007  0.1254344E+03  0.7546771E-02  0.1234394E+00
          5   -1    0    0  501    0  0.00000000000E+00  0.00000000000E+00  0.17105439794E+03  0.17111895586E+03  0.47000000000E+01 0. -1.
         -5   -1    0    0    0  501 -0.00000000000E+00 -0.00000000000E+00 -0.92072675984E+02  0.92192557524E+02  0.47000000000E+01 0. -1.
         25    2    1    2    0    0  0.66038186179E+00  0.10341185085E+02  0.46156918888E+02  0.13365723744E+03  0.12500567885E+03 0.  0.
         25    2    1    2    0    0 -0.66038186179E+00 -0.10341185085E+02  0.32824803073E+02  0.12965427595E+03  0.12500154944E+03 0.  0.
          5    1    4    4  502    0 -0.30337353780E+02  0.37937284547E+02 -0.19332392576E+02  0.52492132705E+02  0.47000000000E+01 0.  1.
         -5    1    4    4    0  502  0.29676971918E+02 -0.48278469632E+02  0.52157195649E+02  0.77162143245E+02  0.47000000000E+01 0.  1.
          5    1    3    3  503    0 -0.30628225924E+02  0.52808358400E+02 -0.31361539646E+01  0.61308534494E+02  0.47000000000E+01 0.  1.
         -5    1    3    3    0  503  0.31288607786E+02 -0.42467173315E+02  0.49293072852E+02  0.72348702944E+02  0.47000000000E+01 0.  1.
<mgrwt>
<rscale>  0 0.12543340E+03</rscale>
<asrwt>0</asrwt>
<pdfrwt beam="1">  1        5 0.26330249E-01 0.12543443E+03</pdfrwt>
<pdfrwt beam="2">  1       -5 0.14179215E-01 0.12543443E+03</pdfrwt>
<totfact> 0.42075522E+02</totfact>
</mgrwt>
</event>
<event>
 8    1  0.3694627E-007  0.1300113E+03  0.7546771E-02  0.1227445E+00
         -5   -1    0    0    0  501 -0.00000000000E+00  0.00000000000E+00  0.17538889265E+03  0.17545185569E+03  0.47000000000E+01 0.  1.
          5   -1    0    0  501    0  0.00000000000E+00 -0.00000000000E+00 -0.97509681023E+02  0.97622886113E+02  0.47000000000E+01 0.  1.
         25    2    1    2    0    0 -0.13456592524E+02  0.33092703381E+02  0.54594493123E+02  0.14099476458E+03  0.12499103191E+03 0.  0.
         25    2    1    2    0    0  0.13456592524E+02 -0.33092703381E+02  0.23284718506E+02  0.13207997723E+03  0.12500694129E+03 0.  0.
          5    1    4    4  502    0  0.59057228251E+02  0.12852680032E+02  0.28460180452E+02  0.66970287920E+02  0.47000000000E+01 0. -1.
         -5    1    4    4    0  502 -0.45600635727E+02 -0.45945383413E+02 -0.51754619458E+01  0.65109689310E+02  0.47000000000E+01 0. -1.
          5    1    3    3  503    0 -0.23711589773E+01  0.73785225765E+02  0.63667948428E+02  0.97599075780E+02  0.47000000000E+01 0. -1.
         -5    1    3    3    0  503 -0.11085433546E+02 -0.40692522384E+02 -0.90734553043E+01  0.43395688796E+02  0.47000000000E+01 0. -1.
<mgrwt>
<rscale>  0 0.13000749E+03</rscale>
<asrwt>0</asrwt>
<pdfrwt beam="2">  1        5 0.15015041E-01 0.13001132E+03</pdfrwt>
<pdfrwt beam="1">  1       -5 0.26996458E-01 0.13001132E+03</pdfrwt>
<totfact> 0.36645245E+02</totfact>
</mgrwt>
</event>
<event>
 8    1  0.3694627E-007  0.1409882E+03  0.7546771E-02  0.1212006E+00
         -5   -1    0    0    0  501 -0.00000000000E+00  0.00000000000E+00  0.37238042883E+03  0.37241008817E+03  0.47000000000E+01 0.  1.
          5   -1    0    0  501    0  0.00000000000E+00 -0.00000000000E+00 -0.55408382387E+02  0.55607363171E+02  0.47000000000E+01 0.  1.
         25    2    1    2    0    0  0.16840509988E+02 -0.63001711710E+02  0.20070063580E+03  0.24527211238E+03  0.12499938178E+03 0.  0.
         25    2    1    2    0    0 -0.16840509988E+02  0.63001711710E+02  0.11627141064E+03  0.18274533897E+03  0.12499599804E+03 0.  0.
          5    1    3    3  502    0 -0.70011108589E+01  0.28976906619E+02  0.93787689940E+01  0.31602657773E+02  0.47000000000E+01 0.  1.
         -5    1    3    3    0  502  0.23841620847E+02 -0.91978618329E+02  0.19132186680E+03  0.21366945460E+03  0.47000000000E+01 0.  1.
          5    1    4    4  503    0 -0.61133890338E+02  0.63496503005E+02  0.45974492003E+02  0.99523375931E+02  0.47000000000E+01 0. -1.
         -5    1    4    4    0  503  0.44293380350E+02 -0.49479129483E+00  0.70296918640E+02  0.83221963036E+02  0.47000000000E+01 0. -1.
<mgrwt>
<rscale>  0 0.14098742E+03</rscale>
<asrwt>0</asrwt>
<pdfrwt beam="2">  1        5 0.85419544E-02 0.14098817E+03</pdfrwt>
<pdfrwt beam="1">  1       -5 0.57306884E-01 0.14098817E+03</pdfrwt>
<totfact> 0.21896056E+02</totfact>
</mgrwt>
</event>
<event>
 8    1  0.3694627E-007  0.1589772E+03  0.7546771E-02  0.1189860E+00
          5   -1    0    0  501    0  0.00000000000E+00  0.00000000000E+00  0.39568589948E+03  0.39571381205E+03  0.47000000000E+01 0.  1.
         -5   -1    0    0    0  501 -0.00000000000E+00 -0.00000000000E+00 -0.75328808528E+02  0.75475289958E+02  0.47000000000E+01 0.  1.
         25    2    1    2    0    0 -0.75256427035E+02 -0.63130960153E+02  0.67937421464E+02  0.17288501370E+03  0.12499874714E+03 0.  0.
         25    2    1    2    0    0  0.75256427035E+02  0.63130960153E+02  0.25241966949E+03  0.29830408831E+03  0.12498236523E+03 0.  0.
          5    1    4    4  502    0  0.78208764240E+02 -0.15710008006E+02  0.12919802373E+03  0.15191324660E+03  0.47000000000E+01 0.  1.
         -5    1    4    4    0  502 -0.29523372055E+01  0.78840968158E+02  0.12322164576E+03  0.14639084172E+03  0.47000000000E+01 0.  1.
          5    1    3    3  503    0 -0.45574519403E+02  0.34079703541E+02  0.21132286844E+02  0.60886177081E+02  0.47000000000E+01 0. -1.
         -5    1    3    3    0  503 -0.29681907632E+02 -0.97210663694E+02  0.46805134620E+02  0.11199883662E+03  0.47000000000E+01 0. -1.
<mgrwt>
<rscale>  0 0.15897393E+03</rscale>
<asrwt>0</asrwt>
<pdfrwt beam="1">  1        5 0.60888168E-01 0.15897715E+03</pdfrwt>
<pdfrwt beam="2">  1       -5 0.11602462E-01 0.15897715E+03</pdfrwt>
<totfact> 0.11677580E+02</totfact>
</mgrwt>
</event>
<event>
 8    1  0.3694627E-007  0.1413749E+03  0.7546771E-02  0.1211505E+00
         -5   -1    0    0    0  501 -0.00000000000E+00  0.00000000000E+00  0.72690142979E+03  0.72691662427E+03  0.47000000000E+01 0.  1.
          5   -1    0    0  501    0  0.00000000000E+00 -0.00000000000E+00 -0.28998810335E+02  0.29377219079E+02  0.47000000000E+01 0.  1.
         25    2    1    2    0    0 -0.57112965501E+02  0.32991361584E+02  0.44055807548E+03  0.46267322884E+03  0.12499911221E+03 0.  0.
         25    2    1    2    0    0  0.57112965501E+02 -0.32991361584E+02  0.25734454398E+03  0.29362061450E+03  0.12504611220E+03 0.  0.
          5    1    3    3  502    0 -0.86524483679E+02  0.20896427126E+02  0.40519088958E+03  0.41487937276E+03  0.47000000000E+01 0. -1.
         -5    1    3    3    0  502  0.29411518177E+02  0.12094934458E+02  0.35367185896E+02  0.47793856083E+02  0.47000000000E+01 0. -1.
          5    1    4    4  503    0  0.31013514554E+02 -0.18801699881E+02  0.26079483183E+03  0.26334649478E+03  0.47000000000E+01 0.  1.
         -5    1    4    4    0  503  0.26099450947E+02 -0.14189661703E+02 -0.34502878460E+01  0.30274119727E+02  0.47000000000E+01 0.  1.
<mgrwt>
<rscale>  0 0.14136447E+03</rscale>
<asrwt>0</asrwt>
<pdfrwt beam="2">  1        5 0.44916327E-02 0.14137486E+03</pdfrwt>
<pdfrwt beam="1">  1       -5 0.11186126E+00 0.14137486E+03</pdfrwt>
<totfact> 0.13697565E+02</totfact>
</mgrwt>
</event>
<event>
 8    1  0.3694627E-007  0.1625881E+03  0.7546771E-02  0.1185807E+00
          5   -1    0    0  501    0  0.00000000000E+00  0.00000000000E+00  0.31583666604E+02  0.31931457783E+02  0.47000000000E+01 0. -1.
         -5   -1    0    0    0  501 -0.00000000000E+00 -0.00000000000E+00 -0.84142173098E+03  0.84143485747E+03  0.47000000000E+01 0. -1.
         25    2    1    2    0    0  0.90967584191E+02  0.50334510676E+02 -0.45107792648E+03  0.47948532010E+03  0.12500484829E+03 0.  0.
         25    2    1    2    0    0 -0.90967584191E+02 -0.50334510676E+02 -0.35876013790E+03  0.39388099515E+03  0.12499894984E+03 0.  0.
          5    1    4    4  502    0 -0.63491399236E+02  0.26942020757E+02 -0.94101047110E+02  0.11676526593E+03  0.47000000000E+01 0. -1.
         -5    1    4    4    0  502 -0.27476184955E+02 -0.77276531433E+02 -0.26465909078E+03  0.27711572923E+03  0.47000000000E+01 0. -1.
          5    1    3    3  503    0 -0.85794724068E+01  0.50539360664E+02 -0.78996002042E+02  0.94288348494E+02  0.47000000000E+01 0.  1.
         -5    1    3    3    0  503  0.99547056598E+02 -0.20484998776E+00 -0.37208192444E+03  0.38519697161E+03  0.47000000000E+01 0.  1.
<mgrwt>
<rscale>  0 0.16258692E+03</rscale>
<asrwt>0</asrwt>
<pdfrwt beam="1">  1        5 0.48867892E-02 0.16258806E+03</pdfrwt>
<pdfrwt beam="2">  1       -5 0.12947724E+00 0.16258806E+03</pdfrwt>
<totfact> 0.85581508E+01</totfact>
</mgrwt>
</event>
<event>
 8    1  0.3694627E-007  0.1465419E+03  0.7546771E-02  0.1204790E+00
         -5   -1    0    0    0  501 -0.00000000000E+00  0.00000000000E+00  0.22182009155E+03  0.22186987857E+03  0.47000000000E+01 0. -1.
          5   -1    0    0  501    0  0.00000000000E+00 -0.00000000000E+00 -0.11172508983E+03  0.11182390486E+03  0.47000000000E+01 0. -1.
         25    2    1    2    0    0 -0.72919456267E+02 -0.23019319075E+02  0.11621695013E+03  0.18703183337E+03  0.12500956380E+03 0.  0.
         25    2    1    2    0    0  0.72919456267E+02  0.23019319075E+02 -0.61219484168E+01  0.14666195006E+03  0.12500045276E+03 0.  0.
          5    1    3    3  502    0 -0.91273129958E+02  0.24380724073E+02  0.65356797180E+02  0.11497306161E+03  0.47000000000E+01 0. -1.
         -5    1    3    3    0  502  0.18353673690E+02 -0.47400043148E+02  0.50860152953E+02  0.72058771754E+02  0.47000000000E+01 0. -1.
          5    1    4    4  503    0 -0.26512051318E+02  0.37134869750E+02 -0.47477556145E+01  0.46114190873E+02  0.47000000000E+01 0. -1.
         -5    1    4    4    0  503  0.99431507585E+02 -0.14115550676E+02 -0.13741928024E+01  0.10054775919E+03  0.47000000000E+01 0. -1.
<mgrwt>
<rscale>  0 0.14653995E+03</rscale>
<asrwt>0</asrwt>
<pdfrwt beam="2">  1        5 0.17199907E-01 0.14654190E+03</pdfrwt>
<pdfrwt beam="1">  1       -5 0.34137598E-01 0.14654190E+03</pdfrwt>
<totfact> 0.18789159E+02</totfact>
</mgrwt>
</event>
<event>
 8    1  0.3694627E-007  0.1473222E+03  0.7546771E-02  0.1203806E+00
          5   -1    0    0  501    0  0.00000000000E+00  0.00000000000E+00  0.41658576410E+02  0.41922869517E+02  0.47000000000E+01 0. -1.
         -5   -1    0    0    0  501 -0.00000000000E+00 -0.00000000000E+00 -0.65406150391E+03  0.65407839048E+03  0.47000000000E+01 0. -1.
         25    2    1    2    0    0 -0.44230452430E+01  0.77820914519E+02 -0.46429562161E+03  0.48710806629E+03  0.12501274307E+03 0.  0.
         25    2    1    2    0    0  0.44230452430E+01 -0.77820914519E+02 -0.14810730589E+03  0.20889319371E+03  0.12499973702E+03 0.  0.
          5    1    3    3  502    0 -0.12974260518E+02  0.66671171914E+02 -0.46709368109E+03  0.47202963203E+03  0.47000000000E+01 0.  1.
         -5    1    3    3    0  502  0.85512152751E+01  0.11149742605E+02  0.27980594793E+01  0.15078434259E+02  0.47000000000E+01 0.  1.
          5    1    4    4  503    0 -0.44580350340E+02 -0.97322960651E+01 -0.10473114810E+03  0.11433647102E+03  0.47000000000E+01 0.  1.
         -5    1    4    4    0  503  0.49003395583E+02 -0.68088618454E+02 -0.43376157793E+02  0.94556722694E+02  0.47000000000E+01 0.  1.
<mgrwt>
<rscale>  0 0.14731949E+03</rscale>
<asrwt>0</asrwt>
<pdfrwt beam="1">  1        5 0.64306415E-02 0.14732225E+03</pdfrwt>
<pdfrwt beam="2">  1       -5 0.10064647E+00 0.14732225E+03</pdfrwt>
<totfact> 0.98964426E+01</totfact>
</mgrwt>
</event>
<event>
 8    1  0.3694627E-007  0.1518577E+03  0.7546771E-02  0.1198210E+00
         -5   -1    0    0    0  501 -0.00000000000E+00  0.00000000000E+00  0.31447329573E+03  0.31450841599E+03  0.47000000000E+01 0.  1.
          5   -1    0    0  501    0  0.00000000000E+00 -0.00000000000E+00 -0.14342402877E+03  0.14350101751E+03  0.47000000000E+01 0.  1.
         25    2    1    2    0    0  0.86129929384E+02  0.41869874202E+01  0.24566807261E+03  0.28881404520E+03  0.12499942083E+03 0.  0.
         25    2    1    2    0    0 -0.86129929384E+02 -0.41869874202E+01 -0.74618805644E+02  0.16919538830E+03  0.12499287047E+03 0.  0.
          5    1    4    4  502    0 -0.11138800484E+03 -0.21037637417E+02 -0.78873716955E+02  0.13817750554E+03  0.47000000000E+01 0.  1.
         -5    1    4    4    0  502  0.25258075455E+02  0.16850649997E+02  0.42549113101E+01  0.31017882765E+02  0.47000000000E+01 0.  1.
          5    1    3    3  503    0  0.96919773467E-01 -0.26496713821E+02  0.25500518707E+00  0.26911712402E+02  0.47000000000E+01 0.  1.
         -5    1    3    3    0  503  0.86033009610E+02  0.30683701241E+02  0.24541306742E+03  0.26190233280E+03  0.47000000000E+01 0.  1.
<mgrwt>
<rscale>  0 0.15185632E+03</rscale>
<asrwt>0</asrwt>
<pdfrwt beam="2">  1        5 0.22073859E-01 0.15185767E+03</pdfrwt>
<pdfrwt beam="1">  1       -5 0.48389130E-01 0.15185767E+03</pdfrwt>
<totfact> 0.58298415E+01</totfact>
</mgrwt>
</event>
<event>
 8    1  0.3694627E-007  0.1293341E+03  0.7546771E-02  0.1228450E+00
          5   -1    0    0  501    0  0.00000000000E+00  0.00000000000E+00  0.53739715217E+03  0.53741770454E+03  0.47000000000E+01 0. -1.
         -5   -1    0    0    0  501 -0.00000000000E+00 -0.00000000000E+00 -0.43346236956E+02  0.43600301126E+02  0.47000000000E+01 0. -1.
         25    2    1    2    0    0  0.32732630351E+02 -0.52635510190E+01  0.92105044360E+02  0.15877862837E+03  0.12501273364E+03 0.  0.
         25    2    1    2    0    0 -0.32732630351E+02  0.52635510190E+01  0.40194587085E+03  0.42223937730E+03  0.12500591421E+03 0.  0.
          5    1    3    3  502    0  0.38930954113E+02  0.47948839504E+02  0.84037734095E+02  0.10439895186E+03  0.47000000000E+01 0.  1.
         -5    1    3    3    0  502 -0.61983237623E+01 -0.53212390523E+02  0.80673102645E+01  0.54379676512E+02  0.47000000000E+01 0.  1.
          5    1    4    4  503    0 -0.38953295494E+02  0.29559593687E+02  0.39165858691E+03  0.39472733311E+03  0.47000000000E+01 0.  1.
         -5    1    4    4    0  503  0.62206651438E+01 -0.24296042668E+02  0.10287283942E+02  0.27512044182E+02  0.47000000000E+01 0.  1.
<mgrwt>
<rscale>  0 0.12933247E+03</rscale>
<asrwt>0</asrwt>
<pdfrwt beam="1">  1        5 0.82697610E-01 0.12933412E+03</pdfrwt>
<pdfrwt beam="2">  1       -5 0.66897761E-02 0.12933412E+03</pdfrwt>
<totfact> 0.14164324E+02</totfact>
</mgrwt>
</event>
<event>
 8    1  0.3694627E-007  0.1327521E+03  0.7546771E-02  0.1223457E+00
         -5   -1    0    0    0  501 -0.00000000000E+00  0.00000000000E+00  0.12234930300E+03  0.12243954404E+03  0.47000000000E+01 0.  1.
          5   -1    0    0  501    0  0.00000000000E+00 -0.00000000000E+00 -0.17233052957E+03  0.17239460961E+03  0.47000000000E+01 0.  1.
         25    2    1    2    0    0 -0.39849675659E+02 -0.19738597265E+02  0.34985899240E+02  0.13728490911E+03  0.12508207007E+03 0.  0.
         25    2    1    2    0    0  0.39849675659E+02  0.19738597265E+02 -0.84967125811E+02  0.15754924454E+03  0.12499897245E+03 0.  0.
          5    1    4    4  502    0  0.29568696177E+02  0.42572310692E+02 -0.11008678343E+03  0.12176986211E+03  0.47000000000E+01 0. -1.
         -5    1    4    4    0  502  0.10280979482E+02 -0.22833713426E+02  0.25119657623E+02  0.35779382429E+02  0.47000000000E+01 0. -1.
          5    1    3    3  503    0  0.37170015359E+01  0.45794847024E+02  0.35818115528E+02  0.58446655287E+02  0.47000000000E+01 0.  1.
         -5    1    3    3    0  503 -0.43566677195E+02 -0.65533444289E+02 -0.83221628765E+00  0.78838253825E+02  0.47000000000E+01 0.  1.
<mgrwt>
<rscale>  0 0.13273257E+03</rscale>
<asrwt>0</asrwt>
<pdfrwt beam="2">  1        5 0.26524260E-01 0.13275215E+03</pdfrwt>
<pdfrwt beam="1">  1       -5 0.18834841E-01 0.13275215E+03</pdfrwt>
<totfact> 0.25233354E+02</totfact>
</mgrwt>
</event>
<event>
 8    1  0.3694627E-007  0.1288441E+03  0.7546771E-02  0.1229182E+00
         -5   -1    0    0    0  501 -0.00000000000E+00  0.00000000000E+00  0.12784703844E+04  0.12784790236E+04  0.47000000000E+01 0.  1.
          5   -1    0    0  501    0  0.00000000000E+00 -0.00000000000E+00 -0.23279169631E+02  0.23748889210E+02  0.47000000000E+01 0.  1.
         25    2    1    2    0    0  0.65822762290E+00  0.31220367156E+02  0.10634019583E+04  0.10711790350E+04  0.12500262231E+03 0.  0.
         25    2    1    2    0    0 -0.65822762290E+00 -0.31220367156E+02  0.19178925652E+03  0.23104887784E+03  0.12500128176E+03 0.  0.
          5    1    3    3  502    0  0.42488803639E+01  0.72998012151E+02  0.41600968908E+03  0.42241320312E+03  0.47000000000E+01 0. -1.
         -5    1    3    3    0  502 -0.35906527410E+01 -0.41777644995E+02  0.64739226921E+03  0.64876583190E+03  0.47000000000E+01 0. -1.
          5    1    4    4  503    0 -0.38785159743E+02  0.23280740525E+02  0.13824027323E+03  0.14552918827E+03  0.47000000000E+01 0. -1.
         -5    1    4    4    0  503  0.38126932120E+02 -0.54501107681E+02  0.53548983290E+02  0.85519689562E+02  0.47000000000E+01 0. -1.
<mgrwt>
<rscale>  0 0.12884377E+03</rscale>
<asrwt>0</asrwt>
<pdfrwt beam="2">  1        5 0.36182076E-02 0.12884409E+03</pdfrwt>
<pdfrwt beam="1">  1       -5 0.19672455E+00 0.12884409E+03</pdfrwt>
<totfact> 0.40405897E+01</totfact>
</mgrwt>
</event>
<event>
 8    1  0.3694627E-007  0.1573786E+03  0.7546771E-02  0.1191702E+00
          5   -1    0    0  501    0  0.00000000000E+00  0.00000000000E+00  0.11146059054E+03  0.11155963985E+03  0.47000000000E+01 0.  1.
         -5   -1    0    0    0  501 -0.00000000000E+00 -0.00000000000E+00 -0.24205373551E+03  0.24209936158E+03  0.47000000000E+01 0.  1.
         25    2    1    2    0    0 -0.64849261384E+02 -0.70195459642E+02 -0.11626462834E+03  0.19562949288E+03  0.12498242047E+03 0.  0.
         25    2    1    2    0    0  0.64849261384E+02  0.70195459642E+02 -0.14328516641E+02  0.15802950854E+03  0.12504075305E+03 0.  0.
          5    1    3    3  502    0  0.13645854073E+02  0.19139857632E+02  0.63035923222E+01  0.24786463235E+02  0.47000000000E+01 0.  1.
         -5    1    3    3    0  502 -0.78495115456E+02 -0.89335317274E+02 -0.12256822066E+03  0.17084302965E+03  0.47000000000E+01 0.  1.
          5    1    4    4  503    0  0.56030675401E+02  0.33113258652E+02 -0.66551846921E+02  0.93204950583E+02  0.47000000000E+01 0.  1.
         -5    1    4    4    0  503  0.88185859824E+01  0.37082200990E+02  0.52223330280E+02  0.64824557959E+02  0.47000000000E+01 0.  1.
<mgrwt>
<rscale>  0 0.15736700E+03</rscale>
<asrwt>0</asrwt>
<pdfrwt beam="1">  1        5 0.17158912E-01 0.15737859E+03</pdfrwt>
<pdfrwt beam="2">  1       -5 0.37250165E-01 0.15737859E+03</pdfrwt>
<totfact> 0.16203487E+02</totfact>
</mgrwt>
</event>
<event>
 8    1  0.3694627E-007  0.1996712E+03  0.7546771E-02  0.1150018E+00
          5   -1    0    0  501    0  0.00000000000E+00  0.00000000000E+00  0.32822976177E+03  0.32826341025E+03  0.47000000000E+01 0. -1.
         -5   -1    0    0    0  501 -0.00000000000E+00 -0.00000000000E+00 -0.14076344954E+03  0.14084189265E+03  0.47000000000E+01 0. -1.
         25    2    1    2    0    0 -0.23825029132E+02  0.15386700754E+03  0.67253106773E+01  0.19978445670E+03  0.12500364520E+03 0.  0.
         25    2    1    2    0    0  0.23825029132E+02 -0.15386700754E+03  0.18074100155E+03  0.26932084621E+03  0.12499488205E+03 0.  0.
          5    1    4    4  502    0  0.25146287258E+02 -0.17502588510E+03  0.15148470747E+03  0.23288645907E+03  0.47000000000E+01 0. -1.
         -5    1    4    4    0  502 -0.13212581255E+01  0.21158877569E+02  0.29256294078E+02  0.36434387139E+02  0.47000000000E+01 0. -1.
          5    1    3    3  503    0  0.58558100814E+01  0.85398733027E+01  0.45091880203E+02  0.46503630051E+02  0.47000000000E+01 0. -1.
         -5    1    3    3    0  503 -0.29680839214E+02  0.14532713423E+03 -0.38366569525E+02  0.15328082665E+03  0.47000000000E+01 0. -1.
<mgrwt>
<rscale>  0 0.19966986E+03</rscale>
<asrwt>0</asrwt>
<pdfrwt beam="1">  1        5 0.50505508E-01 0.19967123E+03</pdfrwt>
<pdfrwt beam="2">  1       -5 0.21664538E-01 0.19967123E+03</pdfrwt>
<totfact> 0.59610278E+01</totfact>
</mgrwt>
</event>
<event>
 8    1  0.3694627E-007  0.1528285E+03  0.7546771E-02  0.1197043E+00
          5   -1    0    0  501    0  0.00000000000E+00  0.00000000000E+00  0.52637945286E+02  0.52847358344E+02  0.47000000000E+01 0. -1.
         -5   -1    0    0    0  501 -0.00000000000E+00 -0.00000000000E+00 -0.46912906633E+03  0.46915260937E+03  0.47000000000E+01 0. -1.
         25    2    1    2    0    0 -0.87072984717E+02  0.12153633975E+02 -0.14617180593E+03  0.21146965083E+03  0.12499520346E+03 0.  0.
         25    2    1    2    0    0  0.87072984717E+02 -0.12153633975E+02 -0.27031931512E+03  0.31053031688E+03  0.12500852007E+03 0.  0.
          5    1    3    3  502    0 -0.14369603951E+02  0.62306100514E+02 -0.55440584575E+02  0.84760156306E+02  0.47000000000E+01 0.  1.
         -5    1    3    3    0  502 -0.72703380766E+02 -0.50152466539E+02 -0.90731221352E+02  0.12670949453E+03  0.47000000000E+01 0.  1.
          5    1    4    4  503    0  0.47109029519E+02 -0.40538306749E+02 -0.24932686140E+03  0.25699919998E+03  0.47000000000E+01 0. -1.
         -5    1    4    4    0  503  0.39963955199E+02  0.28384672774E+02 -0.20992453723E+02  0.53531116903E+02  0.47000000000E+01 0. -1.
<mgrwt>
<rscale>  0 0.15282576E+03</rscale>
<asrwt>0</asrwt>
<pdfrwt beam="1">  1        5 0.81160655E-02 0.15282848E+03</pdfrwt>
<pdfrwt beam="2">  1       -5 0.72191619E-01 0.15282848E+03</pdfrwt>
<totfact> 0.14703840E+02</totfact>
</mgrwt>
</event>
<event>
 8    1  0.3694627E-007  0.1401808E+03  0.7546771E-02  0.1213088E+00
          5   -1    0    0  501    0  0.00000000000E+00  0.00000000000E+00  0.21735112389E+02  0.22237470867E+02  0.47000000000E+01 0. -1.
         -5   -1    0    0    0  501 -0.00000000000E+00 -0.00000000000E+00 -0.10209793826E+04  0.10209902005E+04  0.47000000000E+01 0. -1.
         25    2    1    2    0    0 -0.65683108830E+01  0.63126413372E+02 -0.68408252430E+03  0.69829639136E+03  0.12498345236E+03 0.  0.
         25    2    1    2    0    0  0.65683108830E+01 -0.63126413372E+02 -0.31516174587E+03  0.34493128005E+03  0.12499030012E+03 0.  0.
          5    1    3    3  502    0  0.12959669403E+02  0.38979050125E+02 -0.56937784642E+02  0.70365621575E+02  0.47000000000E+01 0. -1.
         -5    1    3    3    0  502 -0.19527980286E+02  0.24147363247E+02 -0.62714473966E+03  0.62793076979E+03  0.47000000000E+01 0. -1.
          5    1    4    4  503    0 -0.17780921800E+02 -0.71876324317E+02 -0.83165347770E+02  0.11144923619E+03  0.47000000000E+01 0. -1.
         -5    1    4    4    0  503  0.24349232683E+02  0.87499109445E+01 -0.23199639810E+03  0.23348204386E+03  0.47000000000E+01 0. -1.
<mgrwt>
<rscale>  0 0.14017929E+03</rscale>
<asrwt>0</asrwt>
<pdfrwt beam="1">  1        5 0.33833394E-02 0.14018082E+03</pdfrwt>
<pdfrwt beam="2">  1       -5 0.15711319E+00 0.14018082E+03</pdfrwt>
<totfact> 0.89036735E+01</totfact>
</mgrwt>
</event>
<event>
 8    1  0.3694627E-007  0.1738475E+03  0.7546771E-02  0.1173895E+00
         -5   -1    0    0    0  501 -0.00000000000E+00  0.00000000000E+00  0.20753940297E+02  0.21279474567E+02  0.47000000000E+01 0. -1.
          5   -1    0    0  501    0  0.00000000000E+00 -0.00000000000E+00 -0.15833010866E+04  0.15833080625E+04  0.47000000000E+01 0. -1.
         25    2    1    2    0    0  0.11870527490E+03  0.22514713497E+02 -0.53784368944E+03  0.56524222518E+03  0.12500033695E+03 0.  0.
         25    2    1    2    0    0 -0.11870527490E+03 -0.22514713497E+02 -0.10247034568E+04  0.10393453119E+04  0.12499459296E+03 0.  0.
          5    1    3    3  502    0  0.21146020132E+02 -0.15871752908E+02 -0.34200027840E+03  0.34305298007E+03  0.47000000000E+01 0.  1.
         -5    1    3    3    0  502  0.97559254763E+02  0.38386466405E+02 -0.19584341104E+03  0.22218924511E+03  0.47000000000E+01 0.  1.
          5    1    4    4  503    0 -0.13259381108E+03 -0.49012235648E+02 -0.77376217070E+03  0.78658331077E+03  0.47000000000E+01 0. -1.
         -5    1    4    4    0  503  0.13888536187E+02  0.26497522151E+02 -0.25094128612E+03  0.25276200109E+03  0.47000000000E+01 0. -1.
<mgrwt>
<rscale>  0 0.17384643E+03</rscale>
<asrwt>0</asrwt>
<pdfrwt beam="2">  1        5 0.24362565E+00 0.17384746E+03</pdfrwt>
<pdfrwt beam="1">  1       -5 0.32338775E-02 0.17384746E+03</pdfrwt>
<totfact> 0.25838743E+01</totfact>
</mgrwt>
</event>
<event>
 8    1  0.3694627E-007  0.1683872E+03  0.7546771E-02  0.1179540E+00
          5   -1    0    0  501    0  0.00000000000E+00  0.00000000000E+00  0.97231302153E+02  0.97344830979E+02  0.47000000000E+01 0.  1.
         -5   -1    0    0    0  501 -0.00000000000E+00 -0.00000000000E+00 -0.42586704756E+03  0.42589298209E+03  0.47000000000E+01 0.  1.
         25    2    1    2    0    0 -0.90326322576E+02  0.67604532123E+02 -0.31134853051E+03  0.35396633338E+03  0.12500016160E+03 0.  0.
         25    2    1    2    0    0  0.90326322576E+02 -0.67604532123E+02 -0.17287214898E+02  0.16927147970E+03  0.12499907490E+03 0.  0.
          5    1    3    3  502    0 -0.44712871431E+02  0.99221690841E+02 -0.16852400383E+03  0.20066542969E+03  0.47000000000E+01 0.  1.
         -5    1    3    3    0  502 -0.45613451145E+02 -0.31617158717E+02 -0.14282452668E+03  0.15330090369E+03  0.47000000000E+01 0.  1.
          5    1    4    4  503    0  0.28470850275E+02  0.35716532422E+02  0.66740985092E+01  0.46399284419E+02  0.47000000000E+01 0. -1.
         -5    1    4    4    0  503  0.61855472301E+02 -0.10332106455E+03 -0.23961313407E+02  0.12287219528E+03  0.47000000000E+01 0. -1.
<mgrwt>
<rscale>  0 0.16838702E+03</rscale>
<asrwt>0</asrwt>
<pdfrwt beam="1">  1        5 0.14969390E-01 0.16838723E+03</pdfrwt>
<pdfrwt beam="2">  1       -5 0.65528734E-01 0.16838723E+03</pdfrwt>
<totfact> 0.63899810E+01</totfact>
</mgrwt>
</event>
<event>
 8    1  0.3694627E-007  0.1314525E+03  0.7546771E-02  0.1225319E+00
         -5   -1    0    0    0  501 -0.00000000000E+00  0.00000000000E+00  0.48779724692E+02  0.49005627646E+02  0.47000000000E+01 0. -1.
          5   -1    0    0  501    0  0.00000000000E+00 -0.00000000000E+00 -0.39508037540E+03  0.39510833075E+03  0.47000000000E+01 0. -1.
         25    2    1    2    0    0  0.39453663257E+02  0.98357596655E+01 -0.10084591687E+03  0.16567936904E+03  0.12500568252E+03 0.  0.
         25    2    1    2    0    0 -0.39453663257E+02 -0.98357596655E+01 -0.24545473384E+03  0.27843458936E+03  0.12499784188E+03 0.  0.
          5    1    4    4  502    0 -0.81599905773E+02  0.55156244171E+01 -0.12157052936E+03  0.14659621531E+03  0.47000000000E+01 0. -1.
         -5    1    4    4    0  502  0.42146242516E+02 -0.15351384083E+02 -0.12388420449E+03  0.13183837405E+03  0.47000000000E+01 0. -1.
          5    1    3    3  503    0  0.38849138765E+02 -0.29144291646E+02  0.84721398854E+01  0.49522847986E+02  0.47000000000E+01 0. -1.
         -5    1    3    3    0  503  0.60452449233E+00  0.38980051312E+02 -0.10931805675E+03  0.11615652105E+03  0.47000000000E+01 0. -1.
<mgrwt>
<rscale>  0 0.13145062E+03</rscale>
<asrwt>0</asrwt>
<pdfrwt beam="2">  1        5 0.60801122E-01 0.13145248E+03</pdfrwt>
<pdfrwt beam="1">  1       -5 0.75241009E-02 0.13145248E+03</pdfrwt>
<totfact> 0.23359697E+02</totfact>
</mgrwt>
</event>
<event>
 8    1  0.3694627E-007  0.1406717E+03  0.7546771E-02  0.1212430E+00
          5   -1    0    0  501    0  0.00000000000E+00  0.00000000000E+00  0.67384683671E+03  0.67386322748E+03  0.47000000000E+01 0. -1.
         -5   -1    0    0    0  501 -0.00000000000E+00 -0.00000000000E+00 -0.31262873460E+02  0.31614193916E+02  0.47000000000E+01 0. -1.
         25    2    1    2    0    0 -0.14881377266E+02 -0.62802396031E+02  0.23035273516E+03  0.26990526686E+03  0.12498349551E+03 0.  0.
         25    2    1    2    0    0  0.14881377266E+02  0.62802396031E+02  0.41223122809E+03  0.43557215453E+03  0.12499167992E+03 0.  0.
          5    1    3    3  502    0 -0.69238729007E+02 -0.23029257409E+02  0.11712977633E+03  0.13807904545E+03  0.47000000000E+01 0. -1.
         -5    1    3    3    0  502  0.54357351741E+02 -0.39773138622E+02  0.11322295883E+03  0.13182622141E+03  0.47000000000E+01 0. -1.
          5    1    4    4  503    0 -0.47937289702E+01  0.95576842553E+02  0.34534505245E+03  0.35838974305E+03  0.47000000000E+01 0. -1.
         -5    1    4    4    0  503  0.19675106236E+02 -0.32774446521E+02  0.66886175643E+02  0.77182411483E+02  0.47000000000E+01 0. -1.
<mgrwt>
<rscale>  0 0.14066984E+03</rscale>
<asrwt>0</asrwt>
<pdfrwt beam="1">  1        5 0.10369703E+00 0.14067166E+03</pdfrwt>
<pdfrwt beam="2">  1       -5 0.48379583E-02 0.14067166E+03</pdfrwt>
<totfact> 0.14593729E+02</totfact>
</mgrwt>
</event>
<event>
 8    1  0.3694627E-007  0.1293026E+03  0.7546771E-02  0.1228496E+00
          5   -1    0    0  501    0  0.00000000000E+00  0.00000000000E+00  0.14246826254E+03  0.14254576750E+03  0.47000000000E+01 0. -1.
         -5   -1    0    0    0  501 -0.00000000000E+00 -0.00000000000E+00 -0.14008074705E+03  0.14015957225E+03  0.47000000000E+01 0. -1.
         25    2    1    2    0    0  0.32943616227E+02 -0.28251786328E+01 -0.55908854648E+02  0.14087218935E+03  0.12500364082E+03 0.  0.
         25    2    1    2    0    0 -0.32943616227E+02  0.28251786328E+01  0.58296370140E+02  0.14183315040E+03  0.12499964918E+03 0.  0.
          5    1    3    3  502    0 -0.11961092254E+02  0.14604309347E+02 -0.83108709232E+02  0.85355147060E+02  0.47000000000E+01 0.  1.
         -5    1    3    3    0  502  0.44904708481E+02 -0.17429487980E+02  0.27199854584E+02  0.55517042288E+02  0.47000000000E+01 0.  1.
          5    1    4    4  503    0 -0.38696503046E+02 -0.42314603198E+02  0.73758923749E+02  0.93543646627E+02  0.47000000000E+01 0.  1.
         -5    1    4    4    0  503  0.57528868188E+01  0.45139781831E+02 -0.15462553609E+02  0.48289503772E+02  0.47000000000E+01 0.  1.
<mgrwt>
<rscale>  0 0.12930168E+03</rscale>
<asrwt>0</asrwt>
<pdfrwt beam="1">  1        5 0.21930220E-01 0.12930264E+03</pdfrwt>
<pdfrwt beam="2">  1       -5 0.21562909E-01 0.12930264E+03</pdfrwt>
<totfact> 0.27902907E+02</totfact>
</mgrwt>
</event>
<event>
 8    1  0.3694627E-007  0.2388730E+03  0.7546771E-02  0.1120546E+00
          5   -1    0    0  501    0  0.00000000000E+00  0.00000000000E+00  0.12384720846E+03  0.12393635884E+03  0.47000000000E+01 0.  1.
         -5   -1    0    0    0  501 -0.00000000000E+00 -0.00000000000E+00 -0.46796483241E+03  0.46798843402E+03  0.47000000000E+01 0.  1.
         25    2    1    2    0    0  0.13378707613E+03 -0.15341251742E+03 -0.20952839196E+03  0.31774592734E+03  0.12500378018E+03 0.  0.
         25    2    1    2    0    0 -0.13378707613E+03  0.15341251742E+03 -0.13458923200E+03  0.27417886552E+03  0.12500162673E+03 0.  0.
          5    1    3    3  502    0  0.65661927413E+02 -0.27917992386E+02 -0.97930273656E+01  0.72172684552E+02  0.47000000000E+01 0.  1.
         -5    1    3    3    0  502  0.68125148718E+02 -0.12549452504E+03 -0.19973536459E+03  0.24557324278E+03  0.47000000000E+01 0.  1.
          5    1    4    4  503    0 -0.33979161139E+02 -0.40076085021E+01  0.12461843190E+02  0.36715553289E+02  0.47000000000E+01 0. -1.
         -5    1    4    4    0  503 -0.99807914992E+02  0.15742012593E+03 -0.14705107519E+03  0.23746331223E+03  0.47000000000E+01 0. -1.
<mgrwt>
<rscale>  0 0.23887275E+03</rscale>
<asrwt>0</asrwt>
<pdfrwt beam="1">  1        5 0.19062090E-01 0.23887304E+03</pdfrwt>
<pdfrwt beam="2">  1       -5 0.72003262E-01 0.23887304E+03</pdfrwt>
<totfact> 0.36231346E+01</totfact>
</mgrwt>
</event>
<event>
 8    1  0.3694627E-007  0.1475425E+03  0.7546771E-02  0.1203527E+00
         -5   -1    0    0    0  501 -0.00000000000E+00  0.00000000000E+00  0.22139608212E+03  0.22144596447E+03  0.47000000000E+01 0.  1.
          5   -1    0    0  501    0  0.00000000000E+00 -0.00000000000E+00 -0.10315757576E+03  0.10326458946E+03  0.47000000000E+01 0.  1.
         25    2    1    2    0    0  0.21848912425E+02 -0.75274983019E+02  0.94664113993E+02  0.17529659214E+03  0.12499561070E+03 0.  0.
         25    2    1    2    0    0 -0.21848912425E+02  0.75274983019E+02  0.23574392366E+02  0.14941396179E+03  0.12500032784E+03 0.  0.
          5    1    3    3  502    0 -0.18094870498E+02 -0.71402601627E+02  0.15857767620E+01  0.73826557182E+02  0.47000000000E+01 0. -1.
         -5    1    3    3    0  502  0.39943782923E+02 -0.38723813919E+01  0.93078337231E+02  0.10147003495E+03  0.47000000000E+01 0. -1.
          5    1    4    4  503    0 -0.26866230318E+02  0.96788535700E+02  0.51920102705E+02  0.11317067659E+03  0.47000000000E+01 0.  1.
         -5    1    4    4    0  503  0.50173178928E+01 -0.21513552681E+02 -0.28345710338E+02  0.36243285204E+02  0.47000000000E+01 0.  1.
<mgrwt>
<rscale>  0 0.14754147E+03</rscale>
<asrwt>0</asrwt>
<pdfrwt beam="2">  1        5 0.15882465E-01 0.14754247E+03</pdfrwt>
<pdfrwt beam="1">  1       -5 0.34073004E-01 0.14754247E+03</pdfrwt>
<totfact> 0.21871031E+02</totfact>
</mgrwt>
</event>
<event>
 8    1  0.3694627E-007  0.1794252E+03  0.7546771E-02  0.1168366E+00
         -5   -1    0    0    0  501 -0.00000000000E+00  0.00000000000E+00  0.12680023722E+03  0.12688731284E+03  0.47000000000E+01 0.  1.
          5   -1    0    0  501    0  0.00000000000E+00 -0.00000000000E+00 -0.25371348600E+03  0.25375701562E+03  0.47000000000E+01 0.  1.
         25    2    1    2    0    0  0.11009042398E+03 -0.66634370477E+02 -0.66168709517E+02  0.19121540412E+03  0.12499996749E+03 0.  0.
         25    2    1    2    0    0 -0.11009042398E+03  0.66634370477E+02 -0.60744539262E+02  0.18942892434E+03  0.12503350570E+03 0.  0.
          5    1    4    4  502    0 -0.12949485446E+03  0.82750525339E+02 -0.52996879301E+02  0.16262633856E+03  0.47000000000E+01 0.  1.
         -5    1    4    4    0  502  0.19404430486E+02 -0.16116154861E+02 -0.77476599611E+01  0.26802585787E+02  0.47000000000E+01 0.  1.
          5    1    3    3  503    0  0.94009876079E+02 -0.70892268197E+02 -0.99135286101E+02  0.15399177069E+03  0.47000000000E+01 0. -1.
         -5    1    3    3    0  503  0.16080547900E+02  0.42578977196E+01  0.32966576584E+02  0.37223633425E+02  0.47000000000E+01 0. -1.
<mgrwt>
<rscale>  0 0.17941940E+03</rscale>
<asrwt>0</asrwt>
<pdfrwt beam="2">  1        5 0.39042891E-01 0.17942524E+03</pdfrwt>
<pdfrwt beam="1">  1       -5 0.19517775E-01 0.17942524E+03</pdfrwt>
<totfact> 0.12063814E+02</totfact>
</mgrwt>
</event>
<event>
 8    1  0.3694627E-007  0.1252075E+03  0.7546771E-02  0.1234749E+00
          5   -1    0    0  501    0  0.00000000000E+00  0.00000000000E+00  0.12708702352E+03  0.12717390278E+03  0.47000000000E+01 0. -1.
         -5   -1    0    0    0  501 -0.00000000000E+00 -0.00000000000E+00 -0.12889401051E+03  0.12897967261E+03  0.47000000000E+01 0. -1.
         25    2    1    2    0    0 -0.71555526479E+01 -0.19736034093E+00 -0.27869038870E+02  0.12826239945E+03  0.12499327542E+03 0.  0.
         25    2    1    2    0    0  0.71555526479E+01  0.19736034093E+00  0.26062051876E+02  0.12789117594E+03  0.12500272577E+03 0.  0.
          5    1    4    4  502    0 -0.53471988810E+01 -0.19189756794E+02 -0.46928451519E+02  0.51197742759E+02  0.47000000000E+01 0. -1.
         -5    1    4    4    0  502  0.12502751529E+02  0.19387117135E+02  0.72990503395E+02  0.76693433177E+02  0.47000000000E+01 0. -1.
          5    1    3    3  503    0 -0.30776915192E+02  0.18835536780E+02 -0.68365522637E+02  0.77446308111E+02  0.47000000000E+01 0.  1.
         -5    1    3    3    0  503  0.23621362544E+02 -0.19032897121E+02  0.40496483767E+02  0.50816091337E+02  0.47000000000E+01 0.  1.
<mgrwt>
<rscale>  0 0.12520516E+03</rscale>
<asrwt>0</asrwt>
<pdfrwt beam="1">  1        5 0.19565122E-01 0.12520752E+03</pdfrwt>
<pdfrwt beam="2">  1       -5 0.19843120E-01 0.12520752E+03</pdfrwt>
<totfact> 0.39881737E+02</totfact>
</mgrwt>
</event>
<event>
 8    1  0.3694627E-007  0.1378137E+03  0.7546771E-02  0.1216305E+00
         -5   -1    0    0    0  501 -0.00000000000E+00  0.00000000000E+00  0.97021647886E+02  0.97135421750E+02  0.47000000000E+01 0. -1.
          5   -1    0    0  501    0  0.00000000000E+00 -0.00000000000E+00 -0.19894894735E+03  0.19900445636E+03  0.47000000000E+01 0. -1.
         25    2    1    2    0    0  0.56638025254E+02  0.12606823779E+02 -0.31437291345E+02  0.14134499214E+03  0.12499322224E+03 0.  0.
         25    2    1    2    0    0 -0.56638025254E+02 -0.12606823779E+02 -0.70490008115E+02  0.15479488597E+03  0.12500327023E+03 0.  0.
          5    1    4    4  502    0 -0.82068582410E+02  0.25869859044E+02 -0.24732479554E+02  0.89656496533E+02  0.47000000000E+01 0.  1.
         -5    1    4    4    0  502  0.25430557155E+02 -0.38476682823E+02 -0.45757528561E+02  0.65138389436E+02  0.47000000000E+01 0.  1.
          5    1    3    3  503    0  0.73122674204E+01  0.59525287845E+02 -0.40482746361E+02  0.72509805549E+02  0.47000000000E+01 0. -1.
         -5    1    3    3    0  503  0.49325757834E+02 -0.46918464067E+02  0.90454550160E+01  0.68835186589E+02  0.47000000000E+01 0. -1.
<mgrwt>
<rscale>  0 0.13781142E+03</rscale>
<asrwt>0</asrwt>
<pdfrwt beam="2">  1        5 0.30620552E-01 0.13781370E+03</pdfrwt>
<pdfrwt beam="1">  1       -5 0.14939429E-01 0.13781370E+03</pdfrwt>
<totfact> 0.29525669E+02</totfact>
</mgrwt>
</event>
<event>
 8    1  0.3694627E-007  0.1267889E+03  0.7546771E-02  0.1232305E+00
          5   -1    0    0  501    0  0.00000000000E+00  0.00000000000E+00  0.12727474227E+04  0.12727561008E+04  0.47000000000E+01 0. -1.
         -5   -1    0    0    0  501 -0.00000000000E+00 -0.00000000000E+00 -0.12262586501E+02  0.13132441803E+02  0.47000000000E+01 0. -1.
         25    2    1    2    0    0 -0.19480543803E+01 -0.21058778677E+02  0.58015620265E+03  0.59384628659E+03  0.12499970219E+03 0.  0.
         25    2    1    2    0    0  0.19480543803E+01  0.21058778677E+02  0.68032863358E+03  0.69204225599E+03  0.12501266869E+03 0.  0.
          5    1    3    3  502    0 -0.98806322252E+01 -0.71553413941E+02  0.40104982083E+03  0.40752983539E+03  0.47000000000E+01 0.  1.
         -5    1    3    3    0  502  0.79325778449E+01  0.50494635264E+02  0.17910638181E+03  0.18631645120E+03  0.47000000000E+01 0.  1.
          5    1    4    4  503    0 -0.43022988582E+01  0.39205623117E+02  0.66705779260E+03  0.66823931292E+03  0.47000000000E+01 0. -1.
         -5    1    4    4    0  503  0.62503532385E+01 -0.18146844440E+02  0.13270840984E+02  0.23802943078E+02  0.47000000000E+01 0. -1.
<mgrwt>
<rscale>  0 0.12678574E+03</rscale>
<asrwt>0</asrwt>
<pdfrwt beam="1">  1        5 0.19587483E+00 0.12678894E+03</pdfrwt>
<pdfrwt beam="2">  1       -5 0.19541318E-02 0.12678894E+03</pdfrwt>
<totfact> 0.10944065E+02</totfact>
</mgrwt>
</event>
<event>
 8    1  0.3694627E-007  0.1381892E+03  0.7546771E-02  0.1215797E+00
         -5   -1    0    0    0  501 -0.00000000000E+00  0.00000000000E+00  0.25601739671E+03  0.25606053468E+03  0.47000000000E+01 0.  1.
          5   -1    0    0  501    0  0.00000000000E+00 -0.00000000000E+00 -0.76903501367E+02  0.77046989055E+02  0.47000000000E+01 0.  1.
         25    2    1    2    0    0 -0.53768473673E+02 -0.23894602544E+02  0.11928138686E+03  0.18254942287E+03  0.12503696152E+03 0.  0.
         25    2    1    2    0    0  0.53768473673E+02  0.23894602544E+02  0.59832508483E+02  0.15055810086E+03  0.12500324745E+03 0.  0.
          5    1    4    4  502    0  0.11237056114E+02  0.72138712371E+02  0.38251890535E+02  0.82556419388E+02  0.47000000000E+01 0.  1.
         -5    1    4    4    0  502  0.42531417559E+02 -0.48244109828E+02  0.21580617948E+02  0.68001681477E+02  0.47000000000E+01 0.  1.
          5    1    3    3  503    0  0.18614468281E+01  0.43850354258E+02  0.67436152077E+02  0.80598034466E+02  0.47000000000E+01 0. -1.
         -5    1    3    3    0  503 -0.55629920501E+02 -0.67744956802E+02  0.51845234785E+02  0.10195138840E+03  0.47000000000E+01 0. -1.
<mgrwt>
<rscale>  0 0.13818153E+03</rscale>
<asrwt>0</asrwt>
<pdfrwt beam="2">  1        5 0.11845664E-01 0.13818915E+03</pdfrwt>
<pdfrwt beam="1">  1       -5 0.39401647E-01 0.13818915E+03</pdfrwt>
<totfact> 0.27015907E+02</totfact>
</mgrwt>
</event>
<event>
 8    1  0.3694627E-007  0.1476254E+03  0.7546771E-02  0.1203422E+00
         -5   -1    0    0    0  501 -0.00000000000E+00  0.00000000000E+00  0.11420353381E+03  0.11430020619E+03  0.47000000000E+01 0.  1.
          5   -1    0    0  501    0  0.00000000000E+00 -0.00000000000E+00 -0.20997296232E+03  0.21002555774E+03  0.47000000000E+01 0.  1.
         25    2    1    2    0    0 -0.63491399510E+02  0.46217223939E+02  0.13269307272E+01  0.14763135460E+03  0.12500426599E+03 0.  0.
         25    2    1    2    0    0  0.63491399510E+02 -0.46217223939E+02 -0.97096359237E+02  0.17669440933E+03  0.12500408677E+03 0.  0.
          5    1    4    4  502    0  0.10159773909E+03 -0.35404466335E+02 -0.68919417457E+02  0.12785754936E+03  0.47000000000E+01 0. -1.
         -5    1    4    4    0  502 -0.38106339584E+02 -0.10812757604E+02 -0.28176941780E+02  0.48836859968E+02  0.47000000000E+01 0. -1.
          5    1    3    3  503    0 -0.47692983644E+02  0.88025014110E+02 -0.11536151218E+02  0.10088704864E+03  0.47000000000E+01 0.  1.
         -5    1    3    3    0  503 -0.15798415866E+02 -0.41807790171E+02  0.12863081945E+02  0.46744305963E+02  0.47000000000E+01 0.  1.
<mgrwt>
<rscale>  0 0.14762535E+03</rscale>
<asrwt>0</asrwt>
<pdfrwt beam="2">  1        5 0.32315015E-01 0.14762539E+03</pdfrwt>
<pdfrwt beam="1">  1       -5 0.17581257E-01 0.14762539E+03</pdfrwt>
<totfact> 0.20179876E+02</totfact>
</mgrwt>
</event>
<event>
 8    1  0.3694627E-007  0.1359912E+03  0.7546771E-02  0.1218829E+00
          5   -1    0    0  501    0  0.00000000000E+00  0.00000000000E+00  0.13232937730E+04  0.13233021196E+04  0.47000000000E+01 0.  1.
         -5   -1    0    0    0  501 -0.00000000000E+00 -0.00000000000E+00 -0.13847277233E+02  0.14623169518E+02  0.47000000000E+01 0.  1.
         25    2    1    2    0    0  0.51156157007E+02 -0.15866725834E+02  0.56284456805E+03  0.57904026398E+03  0.12499965656E+03 0.  0.
         25    2    1    2    0    0 -0.51156157007E+02  0.15866725834E+02  0.74660192771E+03  0.75888502510E+03  0.12499334972E+03 0.  0.
          5    1    4    4  502    0 -0.23361541532E+02 -0.48774619048E+02  0.18280258012E+03  0.19069241827E+03  0.47000000000E+01 0.  1.
         -5    1    4    4    0  502 -0.27794615476E+02  0.64641344882E+02  0.56379934758E+03  0.56819260683E+03  0.47000000000E+01 0.  1.
          5    1    3    3  503    0  0.66711239491E+02  0.23564350680E+02  0.48607735530E+03  0.49122189837E+03  0.47000000000E+01 0. -1.
         -5    1    3    3    0  503 -0.15555082484E+02 -0.39431076514E+02  0.76767212749E+02  0.87818365615E+02  0.47000000000E+01 0. -1.
<mgrwt>
<rscale>  0 0.13598980E+03</rscale>
<asrwt>0</asrwt>
<pdfrwt beam="1">  1        5 0.20364411E+00 0.13599125E+03</pdfrwt>
<pdfrwt beam="2">  1       -5 0.21906751E-02 0.13599125E+03</pdfrwt>
<totfact> 0.82674115E+01</totfact>
</mgrwt>
</event>
<event>
 8    1  0.3694627E-007  0.1268615E+03  0.7546771E-02  0.1232190E+00
          5   -1    0    0  501    0  0.00000000000E+00  0.00000000000E+00  0.35885268966E+03  0.35888346698E+03  0.47000000000E+01 0. -1.
         -5   -1    0    0    0  501 -0.00000000000E+00 -0.00000000000E+00 -0.45393231460E+02  0.45635901025E+02  0.47000000000E+01 0. -1.
         25    2    1    2    0    0 -0.21489742148E+02 -0.26115630591E+01  0.13164386308E+03  0.18281969636E+03  0.12499722162E+03 0.  0.
         25    2    1    2    0    0  0.21489742148E+02  0.26115630591E+01  0.18181559511E+03  0.22169967165E+03  0.12500081801E+03 0.  0.
          5    1    4    4  502    0  0.41172189930E+02  0.54875970762E+02  0.11962939943E+03  0.13798479844E+03  0.47000000000E+01 0.  1.
         -5    1    4    4    0  502 -0.19682447782E+02 -0.52264407703E+02  0.62186195681E+02  0.83714873210E+02  0.47000000000E+01 0.  1.
          5    1    3    3  503    0  0.51390487414E+02 -0.76946968192E+01  0.68738132893E+02  0.86297227473E+02  0.47000000000E+01 0. -1.
         -5    1    3    3    0  503 -0.72880229563E+02  0.50831337601E+01  0.62905730188E+02  0.96522468889E+02  0.47000000000E+01 0. -1.
<mgrwt>
<rscale>  0 0.12686059E+03</rscale>
<asrwt>0</asrwt>
<pdfrwt beam="1">  1        5 0.55229138E-01 0.12686147E+03</pdfrwt>
<pdfrwt beam="2">  1       -5 0.70046087E-02 0.12686147E+03</pdfrwt>
<totfact> 0.32091661E+02</totfact>
</mgrwt>
</event>
<event>
 8    1  0.3694627E-007  0.1364059E+03  0.7546771E-02  0.1218249E+00
         -5   -1    0    0    0  501 -0.00000000000E+00  0.00000000000E+00  0.61738916369E+03  0.61740705328E+03  0.47000000000E+01 0.  1.
          5   -1    0    0  501    0  0.00000000000E+00 -0.00000000000E+00 -0.30125420436E+02  0.30489850056E+02  0.47000000000E+01 0.  1.
         25    2    1    2    0    0 -0.52746345908E+02  0.14094281076E+02  0.31917710434E+03  0.34710292456E+03  0.12500236213E+03 0.  0.
         25    2    1    2    0    0  0.52746345908E+02 -0.14094281076E+02  0.26808663891E+03  0.30079397878E+03  0.12500298372E+03 0.  0.
          5    1    3    3  502    0 -0.35717351601E+02 -0.24194233986E+02  0.25333237215E+02  0.50248911146E+02  0.47000000000E+01 0. -1.
         -5    1    3    3    0  502 -0.17028994308E+02  0.38288515063E+02  0.29384386712E+03  0.29685401341E+03  0.47000000000E+01 0. -1.
          5    1    4    4  503    0  0.35019601510E+02 -0.83377206096E+01  0.45852052027E+01  0.36592406066E+02  0.47000000000E+01 0.  1.
         -5    1    4    4    0  503  0.17726744398E+02 -0.57565604667E+01  0.26350143371E+03  0.26420157271E+03  0.47000000000E+01 0.  1.
<mgrwt>
<rscale>  0 0.13640577E+03</rscale>
<asrwt>0</asrwt>
<pdfrwt beam="2">  1        5 0.46640895E-02 0.13640591E+03</pdfrwt>
<pdfrwt beam="1">  1       -5 0.95012353E-01 0.13640591E+03</pdfrwt>
<totfact> 0.18987395E+02</totfact>
</mgrwt>
</event>
<event>
 8    1  0.3694627E-007  0.1507517E+03  0.7546771E-02  0.1199557E+00
          5   -1    0    0  501    0  0.00000000000E+00  0.00000000000E+00  0.11210148917E+03  0.11219997270E+03  0.47000000000E+01 0. -1.
         -5   -1    0    0    0  501 -0.00000000000E+00 -0.00000000000E+00 -0.25502263823E+03  0.25506594444E+03  0.47000000000E+01 0. -1.
         25    2    1    2    0    0 -0.71222772569E+02 -0.44993347339E+02 -0.15478090674E+03  0.21606294592E+03  0.12501593046E+03 0.  0.
         25    2    1    2    0    0  0.71222772569E+02  0.44993347339E+02  0.11859757679E+02  0.15120297123E+03  0.12499840006E+03 0.  0.
          5    1    3    3  502    0 -0.66451625032E+02 -0.84944634608E+02 -0.12826890373E+03  0.16764966771E+03  0.47000000000E+01 0. -1.
         -5    1    3    3    0  502 -0.47711475369E+01  0.39951287269E+02 -0.26512003007E+02  0.48413278207E+02  0.47000000000E+01 0. -1.
          5    1    4    4  503    0  0.65329674031E+02  0.84459413625E+02 -0.63936978221E+01  0.10707160329E+03  0.47000000000E+01 0.  1.
         -5    1    4    4    0  503  0.58930985383E+01 -0.39466066285E+02  0.18253455501E+02  0.44131367939E+02  0.47000000000E+01 0.  1.
<mgrwt>
<rscale>  0 0.15074804E+03</rscale>
<asrwt>0</asrwt>
<pdfrwt beam="1">  1        5 0.17257290E-01 0.15075167E+03</pdfrwt>
<pdfrwt beam="2">  1       -5 0.39245159E-01 0.15075167E+03</pdfrwt>
<totfact> 0.14219939E+02</totfact>
</mgrwt>
</event>
<event>
 8    1  0.3694627E-007  0.1367374E+03  0.7546771E-02  0.1217789E+00
          5   -1    0    0  501    0  0.00000000000E+00  0.00000000000E+00  0.50395201874E+02  0.50613895048E+02  0.47000000000E+01 0.  1.
         -5   -1    0    0    0  501 -0.00000000000E+00 -0.00000000000E+00 -0.47051738099E+03  0.47054085457E+03  0.47000000000E+01 0.  1.
         25    2    1    2    0    0  0.52369075939E+02  0.18105000483E+02 -0.33048943927E+03  0.35765815094E+03  0.12500308918E+03 0.  0.
         25    2    1    2    0    0 -0.52369075939E+02 -0.18105000483E+02 -0.89632739849E+02  0.16349659868E+03  0.12500719407E+03 0.  0.
          5    1    3    3  502    0 -0.16852552531E+02 -0.44492864078E+01  0.11499606912E+01  0.18089142764E+02  0.47000000000E+01 0. -1.
         -5    1    3    3    0  502  0.69221628470E+02  0.22554286890E+02 -0.33163939996E+03  0.33956900817E+03  0.47000000000E+01 0. -1.
          5    1    4    4  503    0 -0.41498336425E+02 -0.70844702533E+02 -0.47570444782E+02  0.95005899921E+02  0.47000000000E+01 0. -1.
         -5    1    4    4    0  503 -0.10870739513E+02  0.52739702050E+02 -0.42062295067E+02  0.68490698757E+02  0.47000000000E+01 0. -1.
<mgrwt>
<rscale>  0 0.13673644E+03</rscale>
<asrwt>0</asrwt>
<pdfrwt beam="1">  1        5 0.77717365E-02 0.13673738E+03</pdfrwt>
<pdfrwt beam="2">  1       -5 0.72405915E-01 0.13673738E+03</pdfrwt>
<totfact> 0.15175397E+02</totfact>
</mgrwt>
</event>
<event>
 8    1  0.3694627E-007  0.1531380E+03  0.7546771E-02  0.1196671E+00
         -5   -1    0    0    0  501 -0.00000000000E+00  0.00000000000E+00  0.76209051452E+02  0.76353844195E+02  0.47000000000E+01 0. -1.
          5   -1    0    0  501    0  0.00000000000E+00 -0.00000000000E+00 -0.34842346990E+03  0.34845516839E+03  0.47000000000E+01 0. -1.
         25    2    1    2    0    0  0.38653392873E+02 -0.79576650196E+02 -0.63114206060E+02  0.16562925245E+03  0.12499247267E+03 0.  0.
         25    2    1    2    0    0 -0.38653392873E+02  0.79576650196E+02 -0.20910021239E+03  0.25917976013E+03  0.12499888482E+03 0.  0.
          5    1    4    4  502    0  0.30830371604E+02 -0.27845610559E+01 -0.10222784997E+02  0.32937227063E+02  0.47000000000E+01 0.  1.
         -5    1    4    4    0  502 -0.69483764477E+02  0.82361211252E+02 -0.19887742739E+03  0.22624253307E+03  0.47000000000E+01 0.  1.
          5    1    3    3  503    0  0.43183106100E+02  0.72930201557E+01 -0.64972196471E+02  0.78494873143E+02  0.47000000000E+01 0.  1.
         -5    1    3    3    0  503 -0.45297132273E+01 -0.86869670351E+02  0.18579904108E+01  0.87134379307E+02  0.47000000000E+01 0.  1.
<mgrwt>
<rscale>  0 0.15313670E+03</rscale>
<asrwt>0</asrwt>
<pdfrwt beam="2">  1        5 0.53617186E-01 0.15313801E+03</pdfrwt>
<pdfrwt beam="1">  1       -5 0.11738046E-01 0.15313801E+03</pdfrwt>
<totfact> 0.14904952E+02</totfact>
</mgrwt>
</event>
<event>
 8    1  0.3694627E-007  0.1598571E+03  0.7546771E-02  0.1188859E+00
         -5   -1    0    0    0  501 -0.00000000000E+00  0.00000000000E+00  0.23168404933E+03  0.23173171711E+03  0.47000000000E+01 0. -1.
          5   -1    0    0  501    0  0.00000000000E+00 -0.00000000000E+00 -0.12677373749E+03  0.12686083129E+03  0.47000000000E+01 0. -1.
         25    2    1    2    0    0  0.84095618444E+02 -0.53455547094E+02  0.11727235855E+03  0.19826017973E+03  0.12499889691E+03 0.  0.
         25    2    1    2    0    0 -0.84095618444E+02  0.53455547094E+02 -0.12362046710E+02  0.16033236868E+03  0.12499631871E+03 0.  0.
          5    1    3    3  502    0  0.66624717048E+02 -0.15458335589E+02  0.13591898779E+03  0.15222967615E+03  0.47000000000E+01 0.  1.
         -5    1    3    3    0  502  0.17470901396E+02 -0.37997211505E+02 -0.18646629231E+02  0.46030503576E+02  0.47000000000E+01 0.  1.
          5    1    4    4  503    0  0.29965919563E+02  0.31016201787E+02 -0.62345928895E+01  0.43828315699E+02  0.47000000000E+01 0. -1.
         -5    1    4    4    0  503 -0.11406153801E+03  0.22439345307E+02 -0.61274538201E+01  0.11650405298E+03  0.47000000000E+01 0. -1.
<mgrwt>
<rscale>  0 0.15985660E+03</rscale>
<asrwt>0</asrwt>
<pdfrwt beam="2">  1        5 0.19514018E-01 0.15985710E+03</pdfrwt>
<pdfrwt beam="1">  1       -5 0.35654066E-01 0.15985710E+03</pdfrwt>
<totfact> 0.14020465E+02</totfact>
</mgrwt>
</event>
<event>
 8    1  0.3694627E-007  0.1434809E+03  0.7546771E-02  0.1208724E+00
         -5   -1    0    0    0  501 -0.00000000000E+00  0.00000000000E+00  0.64013126517E+02  0.64185437340E+02  0.47000000000E+01 0. -1.
          5   -1    0    0  501    0  0.00000000000E+00 -0.00000000000E+00 -0.34022296075E+03  0.34025542321E+03  0.47000000000E+01 0. -1.
         25    2    1    2    0    0  0.27351686519E+02 -0.64899487458E+02 -0.89993928809E+02  0.16935971812E+03  0.12499499459E+03 0.  0.
         25    2    1    2    0    0 -0.27351686519E+02  0.64899487458E+02 -0.18621590543E+03  0.23508114243E+03  0.12500688726E+03 0.  0.
          5    1    3    3  502    0 -0.43562995656E+01  0.26333265393E+02  0.11260212513E+02  0.29347923232E+02  0.47000000000E+01 0.  1.
         -5    1    3    3    0  502  0.31707986085E+02 -0.91232752851E+02 -0.10125414132E+03  0.14001179489E+03  0.47000000000E+01 0.  1.
          5    1    4    4  503    0 -0.36586573410E+02  0.70437014880E+02 -0.20102450414E+03  0.21617791673E+03  0.47000000000E+01 0. -1.
         -5    1    4    4    0  503  0.92348868907E+01 -0.55375274225E+01  0.14808598710E+02  0.18903225693E+02  0.47000000000E+01 0. -1.
<mgrwt>
<rscale>  0 0.14347835E+03</rscale>
<asrwt>0</asrwt>
<pdfrwt beam="2">  1        5 0.52357745E-01 0.14348094E+03</pdfrwt>
<pdfrwt beam="1">  1       -5 0.98639253E-02 0.14348094E+03</pdfrwt>
<totfact> 0.20846388E+02</totfact>
</mgrwt>
</event>
<event>
 8    1  0.3694627E-007  0.1321618E+03  0.7546771E-02  0.1224283E+00
          5   -1    0    0  501    0  0.00000000000E+00  0.00000000000E+00  0.10015481341E+03  0.10026503203E+03  0.47000000000E+01 0. -1.
         -5   -1    0    0    0  501 -0.00000000000E+00 -0.00000000000E+00 -0.20773546431E+03  0.20778862609E+03  0.47000000000E+01 0. -1.
         25    2    1    2    0    0 -0.41407381775E+02 -0.11292295134E+02 -0.11569049074E+03  0.17564331636E+03  0.12499679091E+03 0.  0.
         25    2    1    2    0    0  0.41407381775E+02  0.11292295134E+02  0.81098398339E+01  0.13241034176E+03  0.12499856763E+03 0.  0.
          5    1    4    4  502    0  0.21959582753E+02 -0.20568234153E+02  0.60605127979E+02  0.67825858404E+02  0.47000000000E+01 0.  1.
         -5    1    4    4    0  502  0.19447799022E+02  0.31860529286E+02 -0.52495288145E+02  0.64584483358E+02  0.47000000000E+01 0.  1.
          5    1    3    3  503    0 -0.17558746281E+02  0.12810985150E+02  0.23471356491E+02  0.32333040176E+02  0.47000000000E+01 0.  1.
         -5    1    3    3    0  503 -0.23848635495E+02 -0.24103280284E+02 -0.13916184723E+03  0.14331027618E+03  0.47000000000E+01 0.  1.
<mgrwt>
<rscale>  0 0.13216133E+03</rscale>
<asrwt>0</asrwt>
<pdfrwt beam="1">  1        5 0.15421001E-01 0.13216175E+03</pdfrwt>
<pdfrwt beam="2">  1       -5 0.31971870E-01 0.13216175E+03</pdfrwt>
<totfact> 0.25234411E+02</totfact>
</mgrwt>
</event>
<event>
 8    1  0.3694627E-007  0.1487799E+03  0.7546771E-02  0.1201980E+00
          5   -1    0    0  501    0  0.00000000000E+00  0.00000000000E+00  0.65089604323E+03  0.65091301193E+03  0.47000000000E+01 0. -1.
         -5   -1    0    0    0  501 -0.00000000000E+00 -0.00000000000E+00 -0.37938925473E+02  0.38228942779E+02  0.47000000000E+01 0. -1.
         25    2    1    2    0    0 -0.39286642384E+02  0.70476419283E+02  0.19353100062E+03  0.24410967045E+03  0.12499966824E+03 0.  0.
         25    2    1    2    0    0  0.39286642384E+02 -0.70476419283E+02  0.41942611713E+03  0.44503228426E+03  0.12500040140E+03 0.  0.
          5    1    3    3  502    0 -0.32981859201E+02 -0.11601540449E+02  0.14325982172E+03  0.14753936863E+03  0.47000000000E+01 0.  1.
         -5    1    3    3    0  502 -0.63047831829E+01  0.82077959732E+02  0.50271178907E+02  0.96570301820E+02  0.47000000000E+01 0.  1.
          5    1    4    4  503    0  0.70592617484E+02 -0.76675704101E+02  0.22579713034E+03  0.24873462829E+03  0.47000000000E+01 0. -1.
         -5    1    4    4    0  503 -0.31305975100E+02  0.61992848180E+01  0.19362898680E+03  0.19629765597E+03  0.47000000000E+01 0. -1.
<mgrwt>
<rscale>  0 0.14877977E+03</rscale>
<asrwt>0</asrwt>
<pdfrwt beam="1">  1        5 0.10016146E+00 0.14877993E+03</pdfrwt>
<pdfrwt beam="2">  1       -5 0.58603726E-02 0.14877993E+03</pdfrwt>
<totfact> 0.11746686E+02</totfact>
</mgrwt>
</event>
<event>
 8    1  0.3694627E-007  0.1698939E+03  0.7546771E-02  0.1177963E+00
          5   -1    0    0  501    0  0.00000000000E+00  0.00000000000E+00  0.36889591224E+02  0.37187792898E+02  0.47000000000E+01 0. -1.
         -5   -1    0    0    0  501 -0.00000000000E+00 -0.00000000000E+00 -0.78126089066E+03  0.78127502794E+03  0.47000000000E+01 0. -1.
         25    2    1    2    0    0 -0.71159995326E+02  0.90403845832E+02 -0.34974936788E+03  0.38882297596E+03  0.12498834356E+03 0.  0.
         25    2    1    2    0    0  0.71159995326E+02 -0.90403845832E+02 -0.39462193156E+03  0.42963984487E+03  0.12500930830E+03 0.  0.
          5    1    4    4  502    0  0.98006352140E+02 -0.38500880028E+02 -0.19595537165E+03  0.22250429322E+03  0.47000000000E+01 0.  1.
         -5    1    4    4    0  502 -0.26846356814E+02 -0.51902965804E+02 -0.19866655991E+03  0.20713555166E+03  0.47000000000E+01 0.  1.
          5    1    3    3  503    0 -0.32778374329E+01  0.81859455865E+02 -0.27676539849E+03  0.28867436764E+03  0.47000000000E+01 0. -1.
         -5    1    3    3    0  503 -0.67882157893E+02  0.85443899673E+01 -0.72983969393E+02  0.10014860832E+03  0.47000000000E+01 0. -1.
<mgrwt>
<rscale>  0 0.16989001E+03</rscale>
<asrwt>0</asrwt>
<pdfrwt beam="1">  1        5 0.56993484E-02 0.16989387E+03</pdfrwt>
<pdfrwt beam="2">  1       -5 0.12021800E+00 0.16989387E+03</pdfrwt>
<totfact> 0.81197154E+01</totfact>
</mgrwt>
</event>
<event>
 8    1  0.3694627E-007  0.1349984E+03  0.7546771E-02  0.1220255E+00
         -5   -1    0    0    0  501 -0.00000000000E+00  0.00000000000E+00  0.17137617785E+03  0.17144061460E+03  0.47000000000E+01 0.  1.
          5   -1    0    0  501    0  0.00000000000E+00 -0.00000000000E+00 -0.13381967249E+03  0.13390218350E+03  0.47000000000E+01 0.  1.
         25    2    1    2    0    0  0.50725861732E+02  0.20680946205E+01  0.88188416714E+02  0.16125066034E+03  0.12508872273E+03 0.  0.
         25    2    1    2    0    0 -0.50725861732E+02 -0.20680946205E+01 -0.50631911348E+02  0.14409213775E+03  0.12498625385E+03 0.  0.
          5    1    3    3  502    0 -0.23058183485E+02  0.11662067143E+02 -0.17756795670E+02  0.31702956142E+02  0.47000000000E+01 0. -1.
         -5    1    3    3    0  502  0.73784045217E+02 -0.95939725222E+01  0.10594521238E+03  0.12954770420E+03  0.47000000000E+01 0. -1.
          5    1    4    4  503    0 -0.30312773568E+02 -0.49697272196E+02  0.15038674054E+02  0.60307004754E+02  0.47000000000E+01 0.  1.
         -5    1    4    4    0  503 -0.20413088164E+02  0.47629177575E+02 -0.65670585403E+02  0.83785133001E+02  0.47000000000E+01 0.  1.
<mgrwt>
<rscale>  0 0.13497470E+03</rscale>
<asrwt>0</asrwt>
<pdfrwt beam="2">  1        5 0.20598946E-01 0.13499844E+03</pdfrwt>
<pdfrwt beam="1">  1       -5 0.26376869E-01 0.13499844E+03</pdfrwt>
<totfact> 0.21712297E+02</totfact>
</mgrwt>
</event>
<event>
 8    1  0.3694627E-007  0.1442339E+03  0.7546771E-02  0.1207748E+00
          5   -1    0    0  501    0  0.00000000000E+00  0.00000000000E+00  0.15624423928E+03  0.15631491390E+03  0.47000000000E+01 0. -1.
         -5   -1    0    0    0  501 -0.00000000000E+00 -0.00000000000E+00 -0.14185806588E+03  0.14193590404E+03  0.47000000000E+01 0. -1.
         25    2    1    2    0    0 -0.15268552880E+01 -0.71964056743E+02 -0.30075572103E+02  0.14731944961E+03  0.12496929002E+03 0.  0.
         25    2    1    2    0    0  0.15268552880E+01  0.71964056743E+02  0.44461745499E+02  0.15093136833E+03  0.12498909706E+03 0.  0.
          5    1    4    4  502    0  0.18513034279E+02  0.36360610060E+02 -0.40163128017E+02  0.57445567751E+02  0.47000000000E+01 0.  1.
         -5    1    4    4    0  502 -0.16986178991E+02  0.35603446683E+02  0.84624873515E+02  0.93485800579E+02  0.47000000000E+01 0.  1.
          5    1    3    3  503    0 -0.25673483623E+02 -0.10203547995E+03 -0.23590940972E+02  0.10793048422E+03  0.47000000000E+01 0.  1.
         -5    1    3    3    0  503  0.24146628335E+02  0.30071423203E+02 -0.64846311317E+01  0.39388965388E+02  0.47000000000E+01 0.  1.
<mgrwt>
<rscale>  0 0.14422965E+03</rscale>
<asrwt>0</asrwt>
<pdfrwt beam="1">  1        5 0.24048999E-01 0.14423395E+03</pdfrwt>
<pdfrwt beam="2">  1       -5 0.21835742E-01 0.14423395E+03</pdfrwt>
<totfact> 0.23755233E+02</totfact>
</mgrwt>
</event>
<event>
 8    1  0.3694627E-007  0.1291277E+03  0.7546771E-02  0.1228757E+00
         -5   -1    0    0    0  501 -0.00000000000E+00  0.00000000000E+00  0.71570620031E+02  0.71724777111E+02  0.47000000000E+01 0.  1.
          5   -1    0    0  501    0  0.00000000000E+00 -0.00000000000E+00 -0.25189445379E+03  0.25193829771E+03  0.47000000000E+01 0.  1.
         25    2    1    2    0    0  0.31435646983E+02  0.76858456948E+01 -0.45318098240E+02  0.13684920407E+03  0.12500680982E+03 0.  0.
         25    2    1    2    0    0 -0.31435646983E+02 -0.76858456948E+01 -0.13500573552E+03  0.18681387075E+03  0.12500240620E+03 0.  0.
          5    1    3    3  502    0  0.68964907598E+01  0.38708129722E+02 -0.76581325414E+02  0.86212935767E+02  0.47000000000E+01 0. -1.
         -5    1    3    3    0  502  0.24539156223E+02 -0.31022284027E+02  0.31263227174E+02  0.50636268304E+02  0.47000000000E+01 0. -1.
          5    1    4    4  503    0  0.26222128843E+02 -0.30988362784E+02 -0.31907370375E+01  0.40989626394E+02  0.47000000000E+01 0.  1.
         -5    1    4    4    0  503 -0.57657775826E+02  0.23302517089E+02 -0.13181499848E+03  0.14582424435E+03  0.47000000000E+01 0.  1.
<mgrwt>
<rscale>  0 0.12912668E+03</rscale>
<asrwt>0</asrwt>
<pdfrwt beam="2">  1        5 0.38768224E-01 0.12912775E+03</pdfrwt>
<pdfrwt beam="1">  1       -5 0.11026096E-01 0.12912775E+03</pdfrwt>
<totfact> 0.30942533E+02</totfact>
</mgrwt>
</event>
<event>
 8    1  0.3694627E-007  0.1267417E+03  0.7546771E-02  0.1232375E+00
         -5   -1    0    0    0  501 -0.00000000000E+00  0.00000000000E+00  0.27055849091E+02  0.27461044592E+02  0.47000000000E+01 0. -1.
          5   -1    0    0  501    0  0.00000000000E+00 -0.00000000000E+00 -0.59122729924E+03  0.59124598043E+03  0.47000000000E+01 0. -1.
         25    2    1    2    0    0 -0.90473169957E+01 -0.18824145347E+02 -0.26249530514E+03  0.29149139603E+03  0.12500898506E+03 0.  0.
         25    2    1    2    0    0  0.90473169957E+01  0.18824145347E+02 -0.30167614501E+03  0.32721562898E+03  0.12500147596E+03 0.  0.
          5    1    3    3  502    0  0.50466637392E+02 -0.38056329048E+02 -0.11730992159E+03  0.13333744176E+03  0.47000000000E+01 0. -1.
         -5    1    3    3    0  502 -0.59513954387E+02  0.19232183701E+02 -0.14518538355E+03  0.15815395428E+03  0.47000000000E+01 0. -1.
          5    1    4    4  503    0  0.42596950554E+02 -0.21193437947E+02 -0.46446186565E+02  0.66655834365E+02  0.47000000000E+01 0. -1.
         -5    1    4    4    0  503 -0.33549633558E+02  0.40017583294E+02 -0.25522995844E+03  0.26055979462E+03  0.47000000000E+01 0. -1.
<mgrwt>
<rscale>  0 0.12673981E+03</rscale>
<asrwt>0</asrwt>
<pdfrwt beam="2">  1        5 0.90990642E-01 0.12674166E+03</pdfrwt>
<pdfrwt beam="1">  1       -5 0.41950447E-02 0.12674166E+03</pdfrwt>
<totfact> 0.24441677E+02</totfact>
</mgrwt>
</event>
<event>
 8    1  0.3694627E-007  0.1407109E+03  0.7546771E-02  0.1212376E+00
          5   -1    0    0  501    0  0.00000000000E+00  0.00000000000E+00  0.25649998273E+03  0.25654303955E+03  0.47000000000E+01 0.  1.
         -5   -1    0    0    0  501 -0.00000000000E+00 -0.00000000000E+00 -0.11277851189E+03  0.11287640473E+03  0.47000000000E+01 0.  1.
         25    2    1    2    0    0 -0.28735685672E+02  0.57880718625E+02 -0.31999652236E+02  0.14430290003E+03  0.12499372782E+03 0.  0.
         25    2    1    2    0    0  0.28735685672E+02 -0.57880718625E+02  0.17572112307E+03  0.22511654424E+03  0.12499451259E+03 0.  0.
          5    1    4    4  502    0  0.67137252159E+02 -0.72873414208E+02  0.12205771305E+03  0.15728356698E+03  0.47000000000E+01 0.  1.
         -5    1    4    4    0  502 -0.38401566487E+02  0.14992695583E+02  0.53663410023E+02  0.67832977266E+02  0.47000000000E+01 0.  1.
          5    1    3    3  503    0  0.31329579582E+01  0.90969908515E+02 -0.60837176773E+01  0.91347913504E+02  0.47000000000E+01 0.  1.
         -5    1    3    3    0  503 -0.31868643630E+02 -0.33089189890E+02 -0.25915934559E+02  0.52954986530E+02  0.47000000000E+01 0.  1.
<mgrwt>
<rscale>  0 0.14071068E+03</rscale>
<asrwt>0</asrwt>
<pdfrwt beam="1">  1        5 0.39472378E-01 0.14071086E+03</pdfrwt>
<pdfrwt beam="2">  1       -5 0.17361383E-01 0.14071086E+03</pdfrwt>
<totfact> 0.13591240E+02</totfact>
</mgrwt>
</event>
<event>
 8    1  0.3694627E-007  0.1299547E+03  0.7546771E-02  0.1227523E+00
         -5   -1    0    0    0  501 -0.00000000000E+00  0.00000000000E+00  0.39062205432E+03  0.39065032871E+03  0.47000000000E+01 0.  1.
          5   -1    0    0  501    0  0.00000000000E+00 -0.00000000000E+00 -0.77777950496E+02  0.77919827922E+02  0.47000000000E+01 0.  1.
         25    2    1    2    0    0  0.28514007876E+02  0.21193033110E+02  0.31268607805E+03  0.33861600641E+03  0.12500409232E+03 0.  0.
         25    2    1    2    0    0 -0.28514007876E+02 -0.21193033110E+02  0.15802577039E+00  0.12995415021E+03  0.12500345151E+03 0.  0.
          5    1    4    4  502    0 -0.58467027916E+02 -0.24551178855E+02  0.43435788224E+02  0.77005918183E+02  0.47000000000E+01 0.  1.
         -5    1    4    4    0  502  0.29953020040E+02  0.33581457449E+01 -0.43277762453E+02  0.52948232032E+02  0.47000000000E+01 0.  1.
          5    1    3    3  503    0  0.14862924834E+02  0.72912134398E+02  0.15418618459E+03  0.17126749661E+03  0.47000000000E+01 0. -1.
         -5    1    3    3    0  503  0.13651083042E+02 -0.51719101288E+02  0.15849989346E+03  0.16734850981E+03  0.47000000000E+01 0. -1.
<mgrwt>
<rscale>  0 0.12995452E+03</rscale>
<asrwt>0</asrwt>
<pdfrwt beam="2">  1        5 0.11978927E-01 0.12995467E+03</pdfrwt>
<pdfrwt beam="1">  1       -5 0.60108789E-01 0.12995467E+03</pdfrwt>
<totfact> 0.10638253E+02</totfact>
</mgrwt>
</event>
<event>
 8    1  0.3694627E-007  0.1261033E+03  0.7546771E-02  0.1233359E+00
          5   -1    0    0  501    0  0.00000000000E+00  0.00000000000E+00  0.20479925157E+03  0.20485317533E+03  0.47000000000E+01 0. -1.
         -5   -1    0    0    0  501 -0.00000000000E+00 -0.00000000000E+00 -0.77582600713E+02  0.77724834727E+02  0.47000000000E+01 0. -1.
         25    2    1    2    0    0 -0.98988821205E+00  0.16537487499E+02  0.59157017200E+02  0.13928959747E+03  0.12501028321E+03 0.  0.
         25    2    1    2    0    0  0.98988821205E+00 -0.16537487499E+02  0.68059633657E+02  0.14328841259E+03  0.12499994831E+03 0.  0.
          5    1    4    4  502    0  0.25658591740E+02  0.44257714208E+02  0.40921369013E+01  0.51535853359E+02  0.47000000000E+01 0.  1.
         -5    1    4    4    0  502 -0.24668703528E+02 -0.60795201707E+02  0.63967496756E+02  0.91752559232E+02  0.47000000000E+01 0.  1.
          5    1    3    3  503    0  0.68937663618E+00 -0.58384031636E+00 -0.39117914347E+02  0.39409609647E+02  0.47000000000E+01 0.  1.
         -5    1    3    3    0  503 -0.16792648482E+01  0.17121327815E+02  0.98274931548E+02  0.99879987822E+02  0.47000000000E+01 0.  1.
<mgrwt>
<rscale>  0 0.12610073E+03</rscale>
<asrwt>0</asrwt>
<pdfrwt beam="1">  1        5 0.31522666E-01 0.12610329E+03</pdfrwt>
<pdfrwt beam="2">  1       -5 0.11950874E-01 0.12610329E+03</pdfrwt>
<totfact> 0.40268406E+02</totfact>
</mgrwt>
</event>
<event>
 8    1  0.3694627E-007  0.1670444E+03  0.7546771E-02  0.1180966E+00
          5   -1    0    0  501    0  0.00000000000E+00  0.00000000000E+00  0.62551307647E+02  0.62727634168E+02  0.47000000000E+01 0.  1.
         -5   -1    0    0    0  501 -0.00000000000E+00 -0.00000000000E+00 -0.46571319195E+03  0.46573690766E+03  0.47000000000E+01 0.  1.
         25    2    1    2    0    0 -0.10796968616E+03 -0.24934056170E+02 -0.25691800367E+03  0.30644853418E+03  0.12499873282E+03 0.  0.
         25    2    1    2    0    0  0.10796968616E+03  0.24934056170E+02 -0.14624388064E+03  0.22201600765E+03  0.12499869896E+03 0.  0.
          5    1    3    3  502    0 -0.49545463945E+02  0.32869496626E+02 -0.33633609665E+02  0.68472377680E+02  0.47000000000E+01 0. -1.
         -5    1    3    3    0  502 -0.58424222215E+02 -0.57803552796E+02 -0.22328439401E+03  0.23797615650E+03  0.47000000000E+01 0. -1.
          5    1    4    4  503    0  0.55301516150E+02  0.23110297194E+02  0.64026078954E+01  0.60460126635E+02  0.47000000000E+01 0.  1.
         -5    1    4    4    0  503  0.52668170010E+02  0.18237589756E+01 -0.15264648853E+03  0.16155588101E+03  0.47000000000E+01 0.  1.
<mgrwt>
<rscale>  0 0.16704443E+03</rscale>
<asrwt>0</asrwt>
<pdfrwt beam="1">  1        5 0.96386663E-02 0.16704444E+03</pdfrwt>
<pdfrwt beam="2">  1       -5 0.71663569E-01 0.16704444E+03</pdfrwt>
<totfact> 0.11407608E+02</totfact>
</mgrwt>
</event>
<event>
 8    1  0.3694627E-007  0.1486122E+03  0.7546771E-02  0.1202189E+00
          5   -1    0    0  501    0  0.00000000000E+00  0.00000000000E+00  0.13742558939E+03  0.13750593667E+03  0.47000000000E+01 0.  1.
         -5   -1    0    0    0  501 -0.00000000000E+00 -0.00000000000E+00 -0.18020801086E+03  0.18026929073E+03  0.47000000000E+01 0.  1.
         25    2    1    2    0    0 -0.66164591336E+02 -0.45635144327E+02 -0.73852169047E+02  0.16595102674E+03  0.12500112342E+03 0.  0.
         25    2    1    2    0    0  0.66164591336E+02  0.45635144327E+02  0.31069747571E+02  0.15182420066E+03  0.12499975659E+03 0.  0.
          5    1    3    3  502    0  0.23602833901E+02 -0.46895249162E+00  0.17740087277E+02  0.29901745454E+02  0.47000000000E+01 0. -1.
         -5    1    3    3    0  502 -0.89767425237E+02 -0.45166191836E+02 -0.91592256324E+02  0.13604928128E+03  0.47000000000E+01 0. -1.
          5    1    4    4  503    0 -0.12272052459E+02 -0.19601387963E+02  0.42950947576E+02  0.49007056423E+02  0.47000000000E+01 0.  1.
         -5    1    4    4    0  503  0.78436643795E+02  0.65236532290E+02 -0.11881200005E+02  0.10281714423E+03  0.47000000000E+01 0.  1.
<mgrwt>
<rscale>  0 0.14861196E+03</rscale>
<asrwt>0</asrwt>
<pdfrwt beam="1">  1        5 0.21153293E-01 0.14861225E+03</pdfrwt>
<pdfrwt beam="2">  1       -5 0.27735204E-01 0.14861225E+03</pdfrwt>
<totfact> 0.19353520E+02</totfact>
</mgrwt>
</event>
<event>
 8    1  0.3694627E-007  0.1304056E+03  0.7546771E-02  0.1226866E+00
         -5   -1    0    0    0  501 -0.00000000000E+00  0.00000000000E+00  0.15281164159E+03  0.15288390303E+03  0.47000000000E+01 0.  1.
          5   -1    0    0  501    0  0.00000000000E+00 -0.00000000000E+00 -0.12296539341E+03  0.12305518265E+03  0.47000000000E+01 0.  1.
         25    2    1    2    0    0 -0.29925296702E+02  0.21993080645E+02  0.57729480541E+02  0.14258585700E+03  0.12497525641E+03 0.  0.
         25    2    1    2    0    0  0.29925296702E+02 -0.21993080645E+02 -0.27883232369E+02  0.13335322867E+03  0.12500555976E+03 0.  0.
          5    1    3    3  502    0  0.30752431973E+02 -0.35111900646E+02  0.19938214485E+02  0.50972345797E+02  0.47000000000E+01 0. -1.
         -5    1    3    3    0  502 -0.60677728676E+02  0.57104981291E+02  0.37791266056E+02  0.91613511207E+02  0.47000000000E+01 0. -1.
          5    1    4    4  503    0 -0.87706379825E+01  0.95436423639E+01  0.43775061731E+02  0.45895002231E+02  0.47000000000E+01 0.  1.
         -5    1    4    4    0  503  0.38695934685E+02 -0.31536723009E+02 -0.71658294100E+02  0.87458226443E+02  0.47000000000E+01 0.  1.
<mgrwt>
<rscale>  0 0.13039829E+03</rscale>
<asrwt>0</asrwt>
<pdfrwt beam="2">  1        5 0.18930218E-01 0.13040556E+03</pdfrwt>
<pdfrwt beam="1">  1       -5 0.23521949E-01 0.13040556E+03</pdfrwt>
<totfact> 0.31259424E+02</totfact>
</mgrwt>
</event>
<event>
 8    1  0.3694627E-007  0.1277208E+03  0.7546771E-02  0.1230880E+00
          5   -1    0    0  501    0  0.00000000000E+00  0.00000000000E+00  0.52821107980E+02  0.53029797739E+02  0.47000000000E+01 0. -1.
         -5   -1    0    0    0  501 -0.00000000000E+00 -0.00000000000E+00 -0.32515090632E+03  0.32518487338E+03  0.47000000000E+01 0. -1.
         25    2    1    2    0    0  0.21831414600E+02 -0.14569447574E+02 -0.17960930745E+03  0.22038660132E+03  0.12498748439E+03 0.  0.
         25    2    1    2    0    0 -0.21831414600E+02  0.14569447574E+02 -0.92720490884E+02  0.15782806980E+03  0.12499492278E+03 0.  0.
          5    1    4    4  502    0 -0.69103327421E+02  0.18987133034E+02 -0.81857908209E+02  0.10889714513E+03  0.47000000000E+01 0.  1.
         -5    1    4    4    0  502  0.47271912821E+02 -0.44176854602E+01 -0.10862582674E+02  0.48930924669E+02  0.47000000000E+01 0.  1.
          5    1    3    3  503    0  0.36097280434E+02 -0.73849641928E+01 -0.19452088137E+03  0.19803538735E+03  0.47000000000E+01 0.  1.
         -5    1    3    3    0  503 -0.14265865834E+02 -0.71844833810E+01  0.14911573921E+02  0.22351213977E+02  0.47000000000E+01 0.  1.
<mgrwt>
<rscale>  0 0.12771901E+03</rscale>
<asrwt>0</asrwt>
<pdfrwt beam="1">  1        5 0.81449904E-02 0.12772083E+03</pdfrwt>
<pdfrwt beam="2">  1       -5 0.50041881E-01 0.12772083E+03</pdfrwt>
<totfact> 0.30703759E+02</totfact>
</mgrwt>
</event>
<event>
 8    1  0.3694627E-007  0.1492846E+03  0.7546771E-02  0.1201356E+00
         -5   -1    0    0    0  501 -0.00000000000E+00  0.00000000000E+00  0.97054750027E+02  0.97168485131E+02  0.47000000000E+01 0.  1.
          5   -1    0    0  501    0  0.00000000000E+00 -0.00000000000E+00 -0.23540017667E+03  0.23544709210E+03  0.47000000000E+01 0.  1.
         25    2    1    2    0    0 -0.74539435040E+02 -0.33225549436E+02 -0.42507981327E+02  0.15521571775E+03  0.12499970419E+03 0.  0.
         25    2    1    2    0    0  0.74539435040E+02  0.33225549436E+02 -0.95837445318E+02  0.17739985948E+03  0.12500331878E+03 0.  0.
          5    1    3    3  502    0 -0.33695292481E+01 -0.68351272709E+02 -0.29429694769E+02  0.74642127130E+02  0.47000000000E+01 0. -1.
         -5    1    3    3    0  502 -0.71169905792E+02  0.35125723273E+02 -0.13078286558E+02  0.80573590619E+02  0.47000000000E+01 0. -1.
          5    1    4    4  503    0 -0.23630165904E+01 -0.37124123290E+02 -0.27815495710E+01  0.37598023824E+02  0.47000000000E+01 0. -1.
         -5    1    4    4    0  503  0.76902451630E+02  0.70349672726E+02 -0.93055895747E+02  0.13980183566E+03  0.47000000000E+01 0. -1.
<mgrwt>
<rscale>  0 0.14928385E+03</rscale>
<asrwt>0</asrwt>
<pdfrwt beam="2">  1        5 0.36227769E-01 0.14928461E+03</pdfrwt>
<pdfrwt beam="1">  1       -5 0.14943858E-01 0.14928461E+03</pdfrwt>
<totfact> 0.21684565E+02</totfact>
</mgrwt>
</event>
<event>
 8    1  0.3694627E-007  0.1898168E+03  0.7546771E-02  0.1158629E+00
          5   -1    0    0  501    0  0.00000000000E+00  0.00000000000E+00  0.26027546100E+03  0.26031789335E+03  0.47000000000E+01 0. -1.
         -5   -1    0    0    0  501 -0.00000000000E+00 -0.00000000000E+00 -0.20850189034E+03  0.20855485676E+03  0.47000000000E+01 0. -1.
         25    2    1    2    0    0  0.74600742367E+02  0.12182171097E+03 -0.11008122034E+03  0.21941853083E+03  0.12498326519E+03 0.  0.
         25    2    1    2    0    0 -0.74600742367E+02 -0.12182171097E+03  0.16185479100E+03  0.24945421928E+03  0.12499853648E+03 0.  0.
          5    1    3    3  502    0  0.91665466874E+02  0.70307871999E+02 -0.24836179254E+02  0.11825684116E+03  0.47000000000E+01 0.  1.
         -5    1    3    3    0  502 -0.17064724507E+02  0.51513838967E+02 -0.85245041083E+02  0.10116168967E+03  0.47000000000E+01 0.  1.
          5    1    4    4  503    0 -0.91429836226E+02 -0.62775725633E+02  0.15022546299E+03  0.18678861424E+03  0.47000000000E+01 0.  1.
         -5    1    4    4    0  503  0.16829093859E+02 -0.59045985333E+02  0.11629328009E+02  0.62665605032E+02  0.47000000000E+01 0.  1.
<mgrwt>
<rscale>  0 0.18981433E+03</rscale>
<asrwt>0</asrwt>
<pdfrwt beam="1">  1        5 0.40049717E-01 0.18981684E+03</pdfrwt>
<pdfrwt beam="2">  1       -5 0.32084552E-01 0.18981684E+03</pdfrwt>
<totfact> 0.44620645E+01</totfact>
</mgrwt>
</event>
<event>
 8    1  0.3694627E-007  0.1327015E+03  0.7546771E-02  0.1223502E+00
          5   -1    0    0  501    0  0.00000000000E+00  0.00000000000E+00  0.26878067448E+03  0.26882176432E+03  0.47000000000E+01 0.  1.
         -5   -1    0    0    0  501 -0.00000000000E+00 -0.00000000000E+00 -0.70775944244E+02  0.70931828425E+02  0.47000000000E+01 0.  1.
         25    2    1    2    0    0 -0.44071745154E+02  0.64600037989E+01  0.52185952847E+02  0.14259170013E+03  0.12499987561E+03 0.  0.
         25    2    1    2    0    0  0.44071745154E+02 -0.64600037989E+01  0.14581877739E+03  0.19716189262E+03  0.12500258274E+03 0.  0.
          5    1    3    3  502    0 -0.12697641818E+02  0.60436966535E+02  0.50575788427E+02  0.79961599576E+02  0.47000000000E+01 0. -1.
         -5    1    3    3    0  502 -0.31374103336E+02 -0.53976962736E+02  0.16101644206E+01  0.62630100557E+02  0.47000000000E+01 0. -1.
          5    1    4    4  503    0  0.97207114958E+01  0.25208004269E+02 -0.13856679472E+02  0.30725124527E+02  0.47000000000E+01 0.  1.
         -5    1    4    4    0  503  0.34351033658E+02 -0.31668008067E+02  0.15967545686E+03  0.16643676809E+03  0.47000000000E+01 0.  1.
<mgrwt>
<rscale>  0 0.13270089E+03</rscale>
<asrwt>0</asrwt>
<pdfrwt beam="1">  1        5 0.41366024E-01 0.13270153E+03</pdfrwt>
<pdfrwt beam="2">  1       -5 0.10903759E-01 0.13270153E+03</pdfrwt>
<totfact> 0.27912665E+02</totfact>
</mgrwt>
</event>
<event>
 8    1  0.3694627E-007  0.1357878E+03  0.7546771E-02  0.1219113E+00
         -5   -1    0    0    0  501 -0.00000000000E+00  0.00000000000E+00  0.20681798372E+03  0.20687138127E+03  0.47000000000E+01 0.  1.
          5   -1    0    0  501    0  0.00000000000E+00 -0.00000000000E+00 -0.11295925090E+03  0.11305698724E+03  0.47000000000E+01 0.  1.
         25    2    1    2    0    0  0.17790166684E+02 -0.49963985072E+02  0.12051198141E+03  0.18154944249E+03  0.12499669023E+03 0.  0.
         25    2    1    2    0    0 -0.17790166684E+02  0.49963985072E+02 -0.26653248598E+02  0.13837892602E+03  0.12500176667E+03 0.  0.
          5    1    3    3  502    0  0.16969619186E+01 -0.84660798794E+02  0.11459343069E+03  0.14256252975E+03  0.47000000000E+01 0. -1.
         -5    1    3    3    0  502  0.16093204765E+02  0.34696813722E+02  0.59185507213E+01  0.38986912736E+02  0.47000000000E+01 0. -1.
          5    1    4    4  503    0  0.13447123256E+02 -0.17813283010E+01 -0.65051289604E+02  0.66616503462E+02  0.47000000000E+01 0.  1.
         -5    1    4    4    0  503 -0.31237289940E+02  0.51745313373E+02  0.38398041006E+02  0.71762422562E+02  0.47000000000E+01 0.  1.
<mgrwt>
<rscale>  0 0.13578665E+03</rscale>
<asrwt>0</asrwt>
<pdfrwt beam="2">  1        5 0.17389972E-01 0.13578782E+03</pdfrwt>
<pdfrwt beam="1">  1       -5 0.31829777E-01 0.13578782E+03</pdfrwt>
<totfact> 0.20633353E+02</totfact>
</mgrwt>
</event>
<event>
 8    1  0.3694627E-007  0.1264721E+03  0.7546771E-02  0.1232791E+00
          5   -1    0    0  501    0  0.00000000000E+00  0.00000000000E+00  0.10699461202E+03  0.10709779176E+03  0.47000000000E+01 0.  1.
         -5   -1    0    0    0  501 -0.00000000000E+00 -0.00000000000E+00 -0.15056911136E+03  0.15064244852E+03  0.47000000000E+01 0.  1.
         25    2    1    2    0    0 -0.11759462116E+02 -0.15255972117E+02 -0.33748577620E+02  0.13088706234E+03  0.12498570703E+03 0.  0.
         25    2    1    2    0    0  0.11759462116E+02  0.15255972117E+02 -0.98259217202E+01  0.12685317794E+03  0.12499660148E+03 0.  0.
          5    1    4    4  502    0  0.28417615975E+02 -0.34738310041E+01  0.52237978526E+02  0.59753868494E+02  0.47000000000E+01 0. -1.
         -5    1    4    4    0  502 -0.16658153859E+02  0.18729803121E+02 -0.62063900246E+02  0.67099309450E+02  0.47000000000E+01 0. -1.
          5    1    3    3  503    0  0.45901372677E+01  0.53018648856E+02 -0.27930784068E+02  0.60284866968E+02  0.47000000000E+01 0. -1.
         -5    1    3    3    0  503 -0.16349599384E+02 -0.68274620972E+02 -0.58177935522E+01  0.70602195368E+02  0.47000000000E+01 0. -1.
<mgrwt>
<rscale>  0 0.12646936E+03</rscale>
<asrwt>0</asrwt>
<pdfrwt beam="1">  1        5 0.16474288E-01 0.12647205E+03</pdfrwt>
<pdfrwt beam="2">  1       -5 0.23178057E-01 0.12647205E+03</pdfrwt>
<totfact> 0.41035562E+02</totfact>
</mgrwt>
</event>
<event>
 8    1  0.3694627E-007  0.1922408E+03  0.7546771E-02  0.1156456E+00
          5   -1    0    0  501    0  0.00000000000E+00  0.00000000000E+00  0.51380085523E+03  0.51382235143E+03  0.47000000000E+01 0. -1.
         -5   -1    0    0    0  501 -0.00000000000E+00 -0.00000000000E+00 -0.71841640182E+02  0.71995216952E+02  0.47000000000E+01 0. -1.
         25    2    1    2    0    0  0.88405114264E+02 -0.11625518424E+03  0.22515955985E+03  0.29606306185E+03  0.12500310841E+03 0.  0.
         25    2    1    2    0    0 -0.88405114264E+02  0.11625518424E+03  0.21679965520E+03  0.28975450653E+03  0.12499940589E+03 0.  0.
          5    1    3    3  502    0  0.54035782411E+02  0.13905741412E+02  0.83930532928E+02  0.10089430005E+03  0.47000000000E+01 0. -1.
         -5    1    3    3    0  502  0.34369331853E+02 -0.13016092565E+03  0.14122902692E+03  0.19516876180E+03  0.47000000000E+01 0. -1.
          5    1    4    4  503    0  0.18666242360E+02  0.10179102278E+02  0.90420729634E+02  0.93005597006E+02  0.47000000000E+01 0.  1.
         -5    1    4    4    0  503 -0.10707135662E+03  0.10607608196E+03  0.12637892556E+03  0.19674890953E+03  0.47000000000E+01 0.  1.
<mgrwt>
<rscale>  0 0.19224016E+03</rscale>
<asrwt>0</asrwt>
<pdfrwt beam="1">  1        5 0.79059750E-01 0.19224076E+03</pdfrwt>
<pdfrwt beam="2">  1       -5 0.11066028E-01 0.19224076E+03</pdfrwt>
<totfact> 0.74350250E+01</totfact>
</mgrwt>
</event>
<event>
 8    1  0.3694627E-007  0.1695171E+03  0.7546771E-02  0.1178354E+00
         -5   -1    0    0    0  501 -0.00000000000E+00  0.00000000000E+00  0.37251720770E+03  0.37254685615E+03  0.47000000000E+01 0.  1.
          5   -1    0    0  501    0  0.00000000000E+00 -0.00000000000E+00 -0.78021749360E+02  0.78163184257E+02  0.47000000000E+01 0.  1.
         25    2    1    2    0    0 -0.25580974591E+02  0.11160935443E+03  0.17258487033E+03  0.24191238257E+03  0.12500011648E+03 0.  0.
         25    2    1    2    0    0  0.25580974591E+02 -0.11160935443E+03  0.12191058801E+03  0.20879765784E+03  0.12499294457E+03 0.  0.
          5    1    3    3  502    0 -0.35112005270E+02 -0.16293851168E+02  0.24959732978E+02  0.46297092460E+02  0.47000000000E+01 0.  1.
         -5    1    3    3    0  502  0.95310306784E+01  0.12790320560E+03  0.14762513735E+03  0.19561529011E+03  0.47000000000E+01 0.  1.
          5    1    4    4  503    0  0.31103653316E+02 -0.12275229152E+03  0.50910082287E+02  0.13656313119E+03  0.47000000000E+01 0.  1.
         -5    1    4    4    0  503 -0.55226787250E+01  0.11142937081E+02  0.71000505722E+02  0.72234526647E+02  0.47000000000E+01 0.  1.
<mgrwt>
<rscale>  0 0.16951583E+03</rscale>
<asrwt>0</asrwt>
<pdfrwt beam="2">  1        5 0.12016507E-01 0.16951715E+03</pdfrwt>
<pdfrwt beam="1">  1       -5 0.57323499E-01 0.16951715E+03</pdfrwt>
<totfact> 0.12765692E+02</totfact>
</mgrwt>
</event>
<event>
 8    1  0.3694627E-007  0.1250439E+03  0.7546771E-02  0.1235003E+00
          5   -1    0    0  501    0  0.00000000000E+00  0.00000000000E+00  0.46474051413E+02  0.46711106332E+02  0.47000000000E+01 0. -1.
         -5   -1    0    0    0  501 -0.00000000000E+00 -0.00000000000E+00 -0.33831379939E+03  0.33834644502E+03  0.47000000000E+01 0. -1.
         25    2    1    2    0    0  0.20251578424E+01  0.26164879842E+01 -0.12781200187E+03  0.17880265777E+03  0.12499414118E+03 0.  0.
         25    2    1    2    0    0 -0.20251578424E+01 -0.26164879842E+01 -0.16402774610E+03  0.20625489358E+03  0.12500012945E+03 0.  0.
          5    1    4    4  502    0 -0.40181913704E+02  0.65467645995E+01 -0.16153686436E+03  0.16665441748E+03  0.47000000000E+01 0.  1.
         -5    1    4    4    0  502  0.38156755862E+02 -0.91632525838E+01 -0.24908817343E+01  0.39600476104E+02  0.47000000000E+01 0.  1.
          5    1    3    3  503    0  0.22487031375E+02 -0.80029308186E+01  0.18530611481E+02  0.30580828040E+02  0.47000000000E+01 0.  1.
         -5    1    3    3    0  503 -0.20461873533E+02  0.10619418803E+02 -0.14634261336E+03  0.14822182973E+03  0.47000000000E+01 0.  1.
<mgrwt>
<rscale>  0 0.12504241E+03</rscale>
<asrwt>0</asrwt>
<pdfrwt beam="1">  1        5 0.71706005E-02 0.12504391E+03</pdfrwt>
<pdfrwt beam="2">  1       -5 0.52069021E-01 0.12504391E+03</pdfrwt>
<totfact> 0.34803159E+02</totfact>
</mgrwt>
</event>
<event>
 8    1  0.3694627E-007  0.2468499E+03  0.7546771E-02  0.1115312E+00
         -5   -1    0    0    0  501 -0.00000000000E+00  0.00000000000E+00  0.33755744703E+03  0.33759016580E+03  0.47000000000E+01 0. -1.
          5   -1    0    0  501    0  0.00000000000E+00 -0.00000000000E+00 -0.18564951545E+03  0.18570899975E+03  0.47000000000E+01 0. -1.
         25    2    1    2    0    0 -0.19376627819E+03  0.88118634819E+02  0.11975448847E+03  0.27436477729E+03  0.12499851657E+03 0.  0.
         25    2    1    2    0    0  0.19376627819E+03 -0.88118634819E+02  0.32153443108E+02  0.24893438825E+03  0.12499688550E+03 0.  0.
          5    1    3    3  502    0 -0.11043785771E+03  0.54352342012E+02  0.13533028952E+03  0.18299473970E+03  0.47000000000E+01 0.  1.
         -5    1    3    3    0  502 -0.83328420486E+02  0.33766292808E+02 -0.15575801056E+02  0.91370037590E+02  0.47000000000E+01 0.  1.
          5    1    4    4  503    0  0.12061677218E+03 -0.11471948829E+03  0.58130414295E+01  0.16662787334E+03  0.47000000000E+01 0. -1.
         -5    1    4    4    0  503  0.73149506014E+02  0.26600853473E+02  0.26340401678E+02  0.82306514907E+02  0.47000000000E+01 0. -1.
<mgrwt>
<rscale>  0 0.24684973E+03</rscale>
<asrwt>0</asrwt>
<pdfrwt beam="2">  1        5 0.28568557E-01 0.24684994E+03</pdfrwt>
<pdfrwt beam="1">  1       -5 0.51939007E-01 0.24684994E+03</pdfrwt>
<totfact> 0.34678460E+01</totfact>
</mgrwt>
</event>
<event>
 8    1  0.3694627E-007  0.1292917E+03  0.7546771E-02  0.1228511E+00
          5   -1    0    0  501    0  0.00000000000E+00  0.00000000000E+00  0.77776345147E+03  0.77777765231E+03  0.47000000000E+01 0. -1.
         -5   -1    0    0    0  501 -0.00000000000E+00 -0.00000000000E+00 -0.25700556938E+02  0.26126779881E+02  0.47000000000E+01 0. -1.
         25    2    1    2    0    0  0.31404448585E+02 -0.10211655026E+02  0.20978568562E+03  0.24642722181E+03  0.12500329783E+03 0.  0.
         25    2    1    2    0    0 -0.31404448585E+02  0.10211655026E+02  0.54227720891E+03  0.55747721039E+03  0.12500300599E+03 0.  0.
          5    1    4    4  502    0  0.34969818015E+02  0.71032794949E+01  0.38494943511E+03  0.38662837757E+03  0.47000000000E+01 0. -1.
         -5    1    4    4    0  502 -0.66374266600E+02  0.31083755315E+01  0.15732777381E+03  0.17084883282E+03  0.47000000000E+01 0. -1.
          5    1    3    3  503    0 -0.39483655172E+02  0.20014525508E+01  0.14200271947E+03  0.14747822611E+03  0.47000000000E+01 0.  1.
         -5    1    3    3    0  503  0.70888103757E+02 -0.12213107577E+02  0.67782966144E+02  0.98948995701E+02  0.47000000000E+01 0.  1.
<mgrwt>
<rscale>  0 0.12929162E+03</rscale>
<asrwt>0</asrwt>
<pdfrwt beam="1">  1        5 0.11968979E+00 0.12929169E+03</pdfrwt>
<pdfrwt beam="2">  1       -5 0.39878109E-02 0.12929169E+03</pdfrwt>
<totfact> 0.13649850E+02</totfact>
</mgrwt>
</event>
<event>
 8    1  0.3694627E-007  0.1389226E+03  0.7546771E-02  0.1214805E+00
         -5   -1    0    0    0  501 -0.00000000000E+00  0.00000000000E+00  0.45780415312E+02  0.46021043297E+02  0.47000000000E+01 0.  1.
          5   -1    0    0  501    0  0.00000000000E+00 -0.00000000000E+00 -0.42903827540E+03  0.42906401826E+03  0.47000000000E+01 0.  1.
         25    2    1    2    0    0 -0.46042394797E+02  0.39224984397E+02 -0.15720584749E+03  0.20975694990E+03  0.12500319207E+03 0.  0.
         25    2    1    2    0    0  0.46042394797E+02 -0.39224984397E+02 -0.22605201261E+03  0.26532811165E+03  0.12506395528E+03 0.  0.
          5    1    4    4  502    0  0.47680861413E+01  0.20211829563E+02  0.60722550214E+01  0.22140799009E+02  0.47000000000E+01 0.  1.
         -5    1    4    4    0  502  0.41274308655E+02 -0.59436813960E+02 -0.23212426763E+03  0.24318731264E+03  0.47000000000E+01 0.  1.
          5    1    3    3  503    0 -0.80524035243E+02  0.11543288935E+02 -0.55031518878E+02  0.98325611319E+02  0.47000000000E+01 0. -1.
         -5    1    3    3    0  503  0.34481640446E+02  0.27681695462E+02 -0.10217432861E+03  0.11143133858E+03  0.47000000000E+01 0. -1.
<mgrwt>
<rscale>  0 0.13890894E+03</rscale>
<asrwt>0</asrwt>
<pdfrwt beam="2">  1        5 0.66026376E-01 0.13892262E+03</pdfrwt>
<pdfrwt beam="1">  1       -5 0.70636312E-02 0.13892262E+03</pdfrwt>
<totfact> 0.22089727E+02</totfact>
</mgrwt>
</event>
<event>
 8    1  0.3694627E-007  0.1827109E+03  0.7546771E-02  0.1165206E+00
          5   -1    0    0  501    0  0.00000000000E+00  0.00000000000E+00  0.37142727936E+03  0.37145701481E+03  0.47000000000E+01 0.  1.
         -5   -1    0    0    0  501 -0.00000000000E+00 -0.00000000000E+00 -0.90062943762E+02  0.90185496833E+02  0.47000000000E+01 0.  1.
         25    2    1    2    0    0 -0.87530026153E+02  0.10047966340E+03  0.15355682748E+03  0.23866915108E+03  0.12500238468E+03 0.  0.
         25    2    1    2    0    0  0.87530026153E+02 -0.10047966340E+03  0.12780750812E+03  0.22297336057E+03  0.12499876861E+03 0.  0.
          5    1    4    4  502    0  0.66313234508E+01 -0.94777322252E+02  0.97640116982E+02  0.13631726856E+03  0.47000000000E+01 0. -1.
         -5    1    4    4    0  502  0.80898702702E+02 -0.57023411484E+01  0.30167391138E+02  0.86656092004E+02  0.47000000000E+01 0. -1.
          5    1    3    3  503    0 -0.38354094473E+02  0.89910933329E+02  0.16018990095E+03  0.18771762534E+03  0.47000000000E+01 0.  1.
         -5    1    3    3    0  503 -0.49175931679E+02  0.10568730071E+02 -0.66330734730E+01  0.50951525743E+02  0.47000000000E+01 0.  1.
<mgrwt>
<rscale>  0 0.18271026E+03</rscale>
<asrwt>0</asrwt>
<pdfrwt beam="1">  1        5 0.57154373E-01 0.18271088E+03</pdfrwt>
<pdfrwt beam="2">  1       -5 0.13867552E-01 0.18271088E+03</pdfrwt>
<totfact> 0.10159551E+02</totfact>
</mgrwt>
</event>
<event>
 8    1  0.3694627E-007  0.1431423E+03  0.7546771E-02  0.1209165E+00
         -5   -1    0    0    0  501 -0.00000000000E+00  0.00000000000E+00  0.31047500810E+03  0.31051058058E+03  0.47000000000E+01 0.  1.
          5   -1    0    0  501    0  0.00000000000E+00 -0.00000000000E+00 -0.68663741791E+02  0.68824410181E+02  0.47000000000E+01 0.  1.
         25    2    1    2    0    0  0.90160119169E+01  0.69163127977E+02  0.15911646461E+03  0.21402272034E+03  0.12499139477E+03 0.  0.
         25    2    1    2    0    0 -0.90160119169E+01 -0.69163127977E+02  0.82694801690E+02  0.16531227042E+03  0.12499955913E+03 0.  0.
          5    1    4    4  502    0  0.15693015132E+02 -0.30565092053E+01 -0.28800812495E+02  0.33274461270E+02  0.47000000000E+01 0.  1.
         -5    1    4    4    0  502 -0.24709027049E+02 -0.66106618772E+02  0.11149561418E+03  0.13203780915E+03  0.47000000000E+01 0.  1.
          5    1    3    3  503    0  0.42498844393E+02  0.39134891568E+01  0.12655938300E+03  0.13364443347E+03  0.47000000000E+01 0.  1.
         -5    1    3    3    0  503 -0.33482832476E+02  0.65249638821E+02  0.32557081615E+02  0.80378286870E+02  0.47000000000E+01 0.  1.
<mgrwt>
<rscale>  0 0.14314051E+03</rscale>
<asrwt>0</asrwt>
<pdfrwt beam="2">  1        5 0.10578748E-01 0.14314229E+03</pdfrwt>
<pdfrwt beam="1">  1       -5 0.47780482E-01 0.14314229E+03</pdfrwt>
<totfact> 0.22377636E+02</totfact>
</mgrwt>
</event>
<event>
 8    1  0.3694627E-007  0.1293889E+03  0.7546771E-02  0.1228369E+00
          5   -1    0    0  501    0  0.00000000000E+00  0.00000000000E+00  0.41901725444E+03  0.41904361291E+03  0.47000000000E+01 0. -1.
         -5   -1    0    0    0  501 -0.00000000000E+00 -0.00000000000E+00 -0.43355677841E+02  0.43609687009E+02  0.47000000000E+01 0. -1.
         25    2    1    2    0    0 -0.17164843224E+02  0.28659423271E+02  0.25400038290E+03  0.28505733618E+03  0.12500198402E+03 0.  0.
         25    2    1    2    0    0  0.17164843224E+02 -0.28659423271E+02  0.12166119370E+03  0.17759596374E+03  0.12499154332E+03 0.  0.
          5    1    4    4  502    0  0.10745103140E+02 -0.78262083616E+02  0.73573699461E+02  0.10805364513E+03  0.47000000000E+01 0.  1.
         -5    1    4    4    0  502  0.64197400835E+01  0.49602660345E+02  0.48087494237E+02  0.69542318612E+02  0.47000000000E+01 0.  1.
          5    1    3    3  503    0 -0.82440491545E+01 -0.30846659606E+02  0.10124500467E+02  0.33824196443E+02  0.47000000000E+01 0.  1.
         -5    1    3    3    0  503 -0.89207940693E+01  0.59506082877E+02  0.24387588244E+03  0.25123313973E+03  0.47000000000E+01 0.  1.
<mgrwt>
<rscale>  0 0.12938639E+03</rscale>
<asrwt>0</asrwt>
<pdfrwt beam="1">  1        5 0.64485756E-01 0.12938891E+03</pdfrwt>
<pdfrwt beam="2">  1       -5 0.66916714E-02 0.12938891E+03</pdfrwt>
<totfact> 0.24899242E+02</totfact>
</mgrwt>
</event>
<event>
 8    1  0.3694627E-007  0.1251939E+03  0.7546771E-02  0.1234771E+00
         -5   -1    0    0    0  501 -0.00000000000E+00  0.00000000000E+00  0.39344743029E+03  0.39347550165E+03  0.47000000000E+01 0. -1.
          5   -1    0    0  501    0  0.00000000000E+00 -0.00000000000E+00 -0.50954848721E+02  0.51171150155E+02  0.47000000000E+01 0. -1.
         25    2    1    2    0    0 -0.66106449140E+01 -0.12697547121E+01  0.27561155224E+03  0.30270796390E+03  0.12500028310E+03 0.  0.
         25    2    1    2    0    0  0.66106449140E+01  0.12697547121E+01  0.66881029322E+02  0.14193868791E+03  0.12501282390E+03 0.  0.
          5    1    4    4  502    0 -0.51017755605E+02 -0.14446896470E+02  0.62155761499E+02  0.81834912428E+02  0.47000000000E+01 0. -1.
         -5    1    4    4    0  502  0.57628400519E+02  0.15716651183E+02  0.47252678230E+01  0.60103775478E+02  0.47000000000E+01 0. -1.
          5    1    3    3  503    0 -0.21022178237E+02  0.27870808579E+02  0.26622558248E+03  0.26854583355E+03  0.47000000000E+01 0.  1.
         -5    1    3    3    0  503  0.14411533323E+02 -0.29140563291E+02  0.93859697600E+01  0.34162130349E+02  0.47000000000E+01 0.  1.
<mgrwt>
<rscale>  0 0.12519079E+03</rscale>
<asrwt>0</asrwt>
<pdfrwt beam="2">  1        5 0.78580054E-02 0.12519393E+03</pdfrwt>
<pdfrwt beam="1">  1       -5 0.60549172E-01 0.12519393E+03</pdfrwt>
<totfact> 0.21509612E+02</totfact>
</mgrwt>
</event>
<event>
 8    1  0.3694627E-007  0.1429026E+03  0.7546771E-02  0.1209476E+00
          5   -1    0    0  501    0  0.00000000000E+00  0.00000000000E+00  0.55796577894E+02  0.55994179203E+02  0.47000000000E+01 0. -1.
         -5   -1    0    0    0  501 -0.00000000000E+00 -0.00000000000E+00 -0.44871790535E+03  0.44874251925E+03  0.47000000000E+01 0. -1.
         25    2    1    2    0    0 -0.28138775719E+00 -0.69247244156E+02 -0.30535665122E+03  0.33713976335E+03  0.12500110234E+03 0.  0.
         25    2    1    2    0    0  0.28138775719E+00  0.69247244156E+02 -0.87564676238E+02  0.16759693510E+03  0.12500360046E+03 0.  0.
          5    1    4    4  502    0  0.17890490686E+02  0.99740421450E+02 -0.84346693027E+02  0.13192678254E+03  0.47000000000E+01 0. -1.
         -5    1    4    4    0  502 -0.17609102929E+02 -0.30493177294E+02 -0.32179832112E+01  0.35670152556E+02  0.47000000000E+01 0. -1.
          5    1    3    3  503    0  0.21735756223E+02 -0.73867321115E+00 -0.23613256705E+03  0.23717855712E+03  0.47000000000E+01 0. -1.
         -5    1    3    3    0  503 -0.22017143980E+02 -0.68508570944E+02 -0.69224084167E+02  0.99961206228E+02  0.47000000000E+01 0. -1.
<mgrwt>
<rscale>  0 0.14290208E+03</rscale>
<asrwt>0</asrwt>
<pdfrwt beam="1">  1        5 0.86011827E-02 0.14290262E+03</pdfrwt>
<pdfrwt beam="2">  1       -5 0.69050615E-01 0.14290262E+03</pdfrwt>
<totfact> 0.14396535E+02</totfact>
</mgrwt>
</event>
<event>
 8    1  0.3694627E-007  0.1334110E+03  0.7546771E-02  0.1222484E+00
          5   -1    0    0  501    0  0.00000000000E+00  0.00000000000E+00  0.16718352824E+03  0.16724958032E+03  0.47000000000E+01 0.  1.
         -5   -1    0    0    0  501 -0.00000000000E+00 -0.00000000000E+00 -0.17132288221E+03  0.17138733899E+03  0.47000000000E+01 0.  1.
         25    2    1    2    0    0 -0.21588691372E+01  0.46581597411E+02 -0.10632337672E+03  0.17058910004E+03  0.12498589794E+03 0.  0.
         25    2    1    2    0    0  0.21588691372E+01 -0.46581597411E+02  0.10218402276E+03  0.16804781927E+03  0.12499595642E+03 0.  0.
          5    1    4    4  502    0 -0.50353093055E+02  0.12472908267E+02  0.55631996359E+02  0.76210343391E+02  0.47000000000E+01 0.  1.
         -5    1    4    4    0  502  0.52511962192E+02 -0.59054505678E+02  0.46552026396E+02  0.91837475879E+02  0.47000000000E+01 0.  1.
          5    1    3    3  503    0  0.39064563552E+02  0.36223250385E+02  0.26278171337E+01  0.53545862743E+02  0.47000000000E+01 0. -1.
         -5    1    3    3    0  503 -0.41223432689E+02  0.10358347026E+02 -0.10895119385E+03  0.11704323730E+03  0.47000000000E+01 0. -1.
<mgrwt>
<rscale>  0 0.13340864E+03</rscale>
<asrwt>0</asrwt>
<pdfrwt beam="1">  1        5 0.25730582E-01 0.13341100E+03</pdfrwt>
<pdfrwt beam="2">  1       -5 0.26367406E-01 0.13341100E+03</pdfrwt>
<totfact> 0.14193717E+02</totfact>
</mgrwt>
</event>
<event>
 8    1  0.3694627E-007  0.2101453E+03  0.7546771E-02  0.1141451E+00
          5   -1    0    0  501    0  0.00000000000E+00  0.00000000000E+00  0.44288351997E+02  0.44537042141E+02  0.47000000000E+01 0.  1.
         -5   -1    0    0    0  501 -0.00000000000E+00 -0.00000000000E+00 -0.10008993430E+04  0.10009103780E+04  0.47000000000E+01 0.  1.
         25    2    1    2    0    0  0.15393310969E+03 -0.69569349134E+02 -0.43514728869E+03  0.48323309593E+03  0.12500306215E+03 0.  0.
         25    2    1    2    0    0 -0.15393310969E+03  0.69569349134E+02 -0.52146370229E+03  0.56221432420E+03  0.12500102775E+03 0.  0.
          5    1    4    4  502    0 -0.18128417893E+02 -0.17993349513E+02 -0.20710013642E+03  0.20872219974E+03  0.47000000000E+01 0. -1.
         -5    1    4    4    0  502 -0.13580469180E+03  0.87562698647E+02 -0.31436356587E+03  0.35349212446E+03  0.47000000000E+01 0. -1.
          5    1    3    3  503    0  0.26444623220E+02 -0.11146461719E+02 -0.24604978870E+03  0.24776228572E+03  0.47000000000E+01 0.  1.
         -5    1    3    3    0  503  0.12748848647E+03 -0.58422887415E+02 -0.18909749999E+03  0.23547081020E+03  0.47000000000E+01 0.  1.
<mgrwt>
<rscale>  0 0.21014503E+03</rscale>
<asrwt>0</asrwt>
<pdfrwt beam="1">  1        5 0.68335722E-02 0.21014534E+03</pdfrwt>
<pdfrwt beam="2">  1       -5 0.15400448E+00 0.21014534E+03</pdfrwt>
<totfact> 0.32583794E+01</totfact>
</mgrwt>
</event>
<event>
 8    1  0.3694627E-007  0.1532600E+03  0.7546771E-02  0.1196524E+00
          5   -1    0    0  501    0  0.00000000000E+00  0.00000000000E+00  0.49955085490E+03  0.49957296427E+03  0.47000000000E+01 0.  1.
         -5   -1    0    0    0  501 -0.00000000000E+00 -0.00000000000E+00 -0.46885474162E+02  0.47120459329E+02  0.47000000000E+01 0.  1.
         25    2    1    2    0    0 -0.88676605450E+02  0.76551257820E+00  0.22301840554E+03  0.27060273757E+03  0.12499802403E+03 0.  0.
         25    2    1    2    0    0  0.88676605450E+02 -0.76551257820E+00  0.22964697520E+03  0.27609068603E+03  0.12499682927E+03 0.  0.
          5    1    4    4  502    0  0.63422512447E+01  0.27213443520E+02 -0.22072413948E+01  0.28421076223E+02  0.47000000000E+01 0. -1.
         -5    1    4    4    0  502  0.82334354206E+02 -0.27978956099E+02  0.23185421660E+03  0.24766960981E+03  0.47000000000E+01 0. -1.
          5    1    3    3  503    0 -0.41982650196E+02  0.43651039502E+02  0.30727255357E+02  0.68075034990E+02  0.47000000000E+01 0. -1.
         -5    1    3    3    0  503 -0.46693955254E+02 -0.42885526924E+02  0.19229115018E+03  0.20252770258E+03  0.47000000000E+01 0. -1.
<mgrwt>
<rscale>  0 0.15325977E+03</rscale>
<asrwt>0</asrwt>
<pdfrwt beam="1">  1        5 0.76873756E-01 0.15326002E+03</pdfrwt>
<pdfrwt beam="2">  1       -5 0.72329262E-02 0.15326002E+03</pdfrwt>
<totfact> 0.15528354E+02</totfact>
</mgrwt>
</event>
<event>
 8    1  0.3694627E-007  0.1267478E+03  0.7546771E-02  0.1232372E+00
          5   -1    0    0  501    0  0.00000000000E+00  0.00000000000E+00  0.50311803528E+03  0.50313998790E+03  0.47000000000E+01 0. -1.
         -5   -1    0    0    0  501 -0.00000000000E+00 -0.00000000000E+00 -0.32653204529E+02  0.32989722127E+02  0.47000000000E+01 0. -1.
         25    2    1    2    0    0  0.11355432488E+02  0.17582183055E+02  0.19040481704E+03  0.22873347721E+03  0.12500772070E+03 0.  0.
         25    2    1    2    0    0 -0.11355432488E+02 -0.17582183055E+02  0.28006001371E+03  0.30739623282E+03  0.12498301350E+03 0.  0.
          5    1    4    4  502    0 -0.74214980745E+01 -0.47425427418E+02  0.27149921736E+03  0.27575018554E+03  0.47000000000E+01 0.  1.
         -5    1    4    4    0  502 -0.39339344139E+01  0.29843244362E+02  0.85607963476E+01  0.31646047275E+02  0.47000000000E+01 0.  1.
          5    1    3    3  503    0 -0.63862867206E+00  0.70256198023E+02  0.86572531980E+02  0.11159406122E+03  0.47000000000E+01 0. -1.
         -5    1    3    3    0  503  0.11994061160E+02 -0.52674014967E+02  0.10383228506E+03  0.11713941599E+03  0.47000000000E+01 0. -1.
<mgrwt>
<rscale>  0 0.12674173E+03</rscale>
<asrwt>0</asrwt>
<pdfrwt beam="1">  1        5 0.77430347E-01 0.12674782E+03</pdfrwt>
<pdfrwt beam="2">  1       -5 0.50511447E-02 0.12674782E+03</pdfrwt>
<totfact> 0.26211911E+02</totfact>
</mgrwt>
</event>
<event>
 8    1  0.3694627E-007  0.1460120E+03  0.7546771E-02  0.1205461E+00
          5   -1    0    0  501    0  0.00000000000E+00  0.00000000000E+00  0.18247184468E+03  0.18253236453E+03  0.47000000000E+01 0. -1.
         -5   -1    0    0    0  501 -0.00000000000E+00 -0.00000000000E+00 -0.14562036198E+03  0.14569619014E+03  0.47000000000E+01 0. -1.
         25    2    1    2    0    0  0.72818376698E+02  0.19826680180E+02 -0.54662534395E+02  0.15590859594E+03  0.12499553748E+03 0.  0.
         25    2    1    2    0    0 -0.72818376698E+02 -0.19826680180E+02  0.91514017102E+02  0.17231995873E+03  0.12499495838E+03 0.  0.
          5    1    4    4  502    0  0.33195197502E+02 -0.12774164715E+02  0.71799504851E+01  0.36588824938E+02  0.47000000000E+01 0.  1.
         -5    1    4    4    0  502 -0.10601357420E+03 -0.70525154651E+01  0.84334066617E+02  0.13573113379E+03  0.47000000000E+01 0.  1.
          5    1    3    3  503    0  0.79058347704E+02  0.61683907650E+02 -0.52472941495E+02  0.11327235494E+03  0.47000000000E+01 0.  1.
         -5    1    3    3    0  503 -0.62399710064E+01 -0.41857227470E+02 -0.21895929001E+01  0.42636241001E+02  0.47000000000E+01 0.  1.
<mgrwt>
<rscale>  0 0.14601185E+03</rscale>
<asrwt>0</asrwt>
<pdfrwt beam="1">  1        5 0.28083080E-01 0.14601198E+03</pdfrwt>
<pdfrwt beam="2">  1       -5 0.22413621E-01 0.14601198E+03</pdfrwt>
<totfact> 0.16837443E+02</totfact>
</mgrwt>
</event>
<event>
 8    1  0.3694627E-007  0.1389276E+03  0.7546771E-02  0.1214785E+00
         -5   -1    0    0    0  501 -0.00000000000E+00  0.00000000000E+00  0.21405634412E+03  0.21410793647E+03  0.47000000000E+01 0.  1.
          5   -1    0    0  501    0  0.00000000000E+00 -0.00000000000E+00 -0.90035086322E+02  0.90157677261E+02  0.47000000000E+01 0.  1.
         25    2    1    2    0    0  0.60209962675E+02 -0.68994164817E+01  0.62689677027E+02  0.15240240359E+03  0.12499462173E+03 0.  0.
         25    2    1    2    0    0 -0.60209962675E+02  0.68994164817E+01  0.61331580771E+02  0.15186321013E+03  0.12501212037E+03 0.  0.
          5    1    3    3  502    0  0.50585923639E+02  0.31762389421E+02  0.86894087666E+02  0.10554836580E+03  0.47000000000E+01 0.  1.
         -5    1    3    3    0  502  0.96240390359E+01 -0.38661805903E+02 -0.24204410639E+02  0.46854037792E+02  0.47000000000E+01 0.  1.
          5    1    4    4  503    0  0.15277942143E+02 -0.27582926293E+02 -0.18293713485E+02  0.36755724616E+02  0.47000000000E+01 0.  1.
         -5    1    4    4    0  503 -0.75487904817E+02  0.34482342775E+02  0.79625294256E+02  0.11510748552E+03  0.47000000000E+01 0.  1.
<mgrwt>
<rscale>  0 0.13892364E+03</rscale>
<asrwt>0</asrwt>
<pdfrwt beam="2">  1        5 0.13864950E-01 0.13892758E+03</pdfrwt>
<pdfrwt beam="1">  1       -5 0.32945144E-01 0.13892758E+03</pdfrwt>
<totfact> 0.29308589E+02</totfact>
</mgrwt>
</event>
<event>
 8    1  0.3694627E-007  0.1540195E+03  0.7546771E-02  0.1195621E+00
          5   -1    0    0  501    0  0.00000000000E+00  0.00000000000E+00  0.58890248161E+02  0.59077502727E+02  0.47000000000E+01 0. -1.
         -5   -1    0    0    0  501 -0.00000000000E+00 -0.00000000000E+00 -0.41504403891E+03  0.41507064969E+03  0.47000000000E+01 0. -1.
         25    2    1    2    0    0  0.75665853348E+02  0.48679491766E+02 -0.22015928333E+03  0.26868154756E+03  0.12499859872E+03 0.  0.
         25    2    1    2    0    0 -0.75665853348E+02 -0.48679491766E+02 -0.13599450742E+03  0.20546660486E+03  0.12500802127E+03 0.  0.
          5    1    3    3  502    0 -0.23500584253E+02  0.40344927152E+02 -0.35429275104E+02  0.58798929765E+02  0.47000000000E+01 0. -1.
         -5    1    3    3    0  502  0.99166437601E+02  0.83345646140E+01 -0.18473000822E+03  0.20988261779E+03  0.47000000000E+01 0. -1.
          5    1    4    4  503    0  0.25613302081E+01  0.37138573538E+02 -0.38645759941E+02  0.53864819858E+02  0.47000000000E+01 0. -1.
         -5    1    4    4    0  503 -0.78227183556E+02 -0.85818065305E+02 -0.97348747484E+02  0.15160178500E+03  0.47000000000E+01 0. -1.
<mgrwt>
<rscale>  0 0.15401763E+03</rscale>
<asrwt>0</asrwt>
<pdfrwt beam="1">  1        5 0.90764896E-02 0.15401954E+03</pdfrwt>
<pdfrwt beam="2">  1       -5 0.63869378E-01 0.15401954E+03</pdfrwt>
<totfact> 0.15996511E+02</totfact>
</mgrwt>
</event>
<event>
 8    1  0.3694627E-007  0.1435677E+03  0.7546771E-02  0.1208612E+00
         -5   -1    0    0    0  501 -0.00000000000E+00  0.00000000000E+00  0.80827778067E+03  0.80829144541E+03  0.47000000000E+01 0. -1.
          5   -1    0    0  501    0  0.00000000000E+00 -0.00000000000E+00 -0.26246690865E+02  0.26664185369E+02  0.47000000000E+01 0. -1.
         25    2    1    2    0    0 -0.61740232504E+02 -0.34211898836E+02  0.47099733922E+03  0.49239230486E+03  0.12501751077E+03 0.  0.
         25    2    1    2    0    0  0.61740232504E+02  0.34211898836E+02  0.31103375058E+03  0.34256332592E+03  0.12500131173E+03 0.  0.
          5    1    3    3  502    0 -0.46739920904E+02 -0.50661351751E+02  0.10501718695E+03  0.12570557792E+03  0.47000000000E+01 0.  1.
         -5    1    3    3    0  502 -0.15000311600E+02  0.16449452915E+02  0.36598015228E+03  0.36668672694E+03  0.47000000000E+01 0.  1.
          5    1    4    4  503    0  0.51458938450E+02  0.25441679622E+02  0.32035212429E+03  0.32548867099E+03  0.47000000000E+01 0.  1.
         -5    1    4    4    0  503  0.10281294054E+02  0.87702192140E+01 -0.93183737044E+01  0.17074654930E+02  0.47000000000E+01 0.  1.
<mgrwt>
<rscale>  0 0.14356419E+03</rscale>
<asrwt>0</asrwt>
<pdfrwt beam="2">  1        5 0.40711188E-02 0.14356771E+03</pdfrwt>
<pdfrwt beam="1">  1       -5 0.12438359E+00 0.14356771E+03</pdfrwt>
<totfact> 0.12366781E+02</totfact>
</mgrwt>
</event>
<event>
 8    1  0.3694627E-007  0.1540645E+03  0.7546771E-02  0.1195570E+00
         -5   -1    0    0    0  501 -0.00000000000E+00  0.00000000000E+00  0.18300699859E+02  0.18894592224E+02  0.47000000000E+01 0.  1.
          5   -1    0    0  501    0  0.00000000000E+00 -0.00000000000E+00 -0.17981153783E+04  0.17981215208E+04  0.47000000000E+01 0.  1.
         25    2    1    2    0    0  0.47773850006E+02 -0.76330165338E+02 -0.40020544309E+03  0.42883114426E+03  0.12499247466E+03 0.  0.
         25    2    1    2    0    0 -0.47773850006E+02  0.76330165338E+02 -0.13796092353E+04  0.13881849688E+04  0.12500892147E+03 0.  0.
          5    1    3    3  502    0  0.50677044939E+02 -0.10100340528E+03 -0.37997281048E+03  0.39644832887E+03  0.47000000000E+01 0. -1.
         -5    1    3    3    0  502 -0.29031949324E+01  0.24673239940E+02 -0.20232632612E+02  0.32382815387E+02  0.47000000000E+01 0. -1.
          5    1    4    4  503    0  0.37640471880E+02  0.41462775287E+02 -0.71211104936E+03  0.71432499850E+03  0.47000000000E+01 0. -1.
         -5    1    4    4    0  503 -0.85414321887E+02  0.34867390051E+02 -0.66749818597E+03  0.67385997028E+03  0.47000000000E+01 0. -1.
<mgrwt>
<rscale>  0 0.15406115E+03</rscale>
<asrwt>0</asrwt>
<pdfrwt beam="2">  1        5 0.27667915E+00 0.15406448E+03</pdfrwt>
<pdfrwt beam="1">  1       -5 0.28616502E-02 0.15406448E+03</pdfrwt>
<totfact> 0.18899880E+01</totfact>
</mgrwt>
</event>
<event>
 8    1  0.3694627E-007  0.1416183E+03  0.7546771E-02  0.1211174E+00
         -5   -1    0    0    0  501 -0.00000000000E+00  0.00000000000E+00  0.10166767516E+03  0.10177625545E+03  0.47000000000E+01 0. -1.
          5   -1    0    0  501    0  0.00000000000E+00 -0.00000000000E+00 -0.22260228858E+03  0.22265190069E+03  0.47000000000E+01 0. -1.
         25    2    1    2    0    0 -0.65871561762E+02  0.92890389131E+01 -0.54783244736E+01  0.14172425242E+03  0.12502160931E+03 0.  0.
         25    2    1    2    0    0  0.65871561762E+02 -0.92890389131E+01 -0.11545628895E+03  0.18270390372E+03  0.12500085153E+03 0.  0.
          5    1    3    3  502    0 -0.28152627571E+02 -0.33656355487E+02  0.46655193094E+02  0.64219294192E+02  0.47000000000E+01 0.  1.
         -5    1    3    3    0  502 -0.37718934191E+02  0.42945394401E+02 -0.52133517567E+02  0.77504958233E+02  0.47000000000E+01 0.  1.
          5    1    4    4  503    0 -0.33693298272E+02 -0.66099850572E+01 -0.58160818496E+02  0.67703035818E+02  0.47000000000E+01 0.  1.
         -5    1    4    4    0  503  0.99564860034E+02 -0.26790538559E+01 -0.57295470452E+02  0.11500086790E+03  0.47000000000E+01 0.  1.
<mgrwt>
<rscale>  0 0.14161375E+03</rscale>
<asrwt>0</asrwt>
<pdfrwt beam="2">  1        5 0.34258674E-01 0.14161833E+03</pdfrwt>
<pdfrwt beam="1">  1       -5 0.15653350E-01 0.14161833E+03</pdfrwt>
<totfact> 0.21913214E+02</totfact>
</mgrwt>
</event>
<event>
 8    1  0.3694627E-007  0.1251623E+03  0.7546771E-02  0.1234820E+00
          5   -1    0    0  501    0  0.00000000000E+00  0.00000000000E+00  0.63400368410E+02  0.63574340063E+02  0.47000000000E+01 0. -1.
         -5   -1    0    0    0  501 -0.00000000000E+00 -0.00000000000E+00 -0.26935000674E+03  0.26939100974E+03  0.47000000000E+01 0. -1.
         25    2    1    2    0    0 -0.33527159529E+01  0.52672685528E+01 -0.15141058554E+03  0.19644534367E+03  0.12500649109E+03 0.  0.
         25    2    1    2    0    0  0.33527159529E+01 -0.52672685528E+01 -0.54539052793E+02  0.13652000613E+03  0.12499687585E+03 0.  0.
          5    1    3    3  502    0 -0.53151600171E+02  0.14978280815E+02 -0.12972656975E+03  0.14106918301E+03  0.47000000000E+01 0. -1.
         -5    1    3    3    0  502  0.49798884218E+02 -0.97110122619E+01 -0.21684015786E+02  0.55376160657E+02  0.47000000000E+01 0. -1.
          5    1    4    4  503    0 -0.15525068375E+02  0.41416984839E+02  0.18088763142E+02  0.48017577336E+02  0.47000000000E+01 0.  1.
         -5    1    4    4    0  503  0.18877784327E+02 -0.46684253392E+02 -0.72627815934E+02  0.88502428799E+02  0.47000000000E+01 0.  1.
<mgrwt>
<rscale>  0 0.12515992E+03</rscale>
<asrwt>0</asrwt>
<pdfrwt beam="1">  1        5 0.97704395E-02 0.12516233E+03</pdfrwt>
<pdfrwt beam="2">  1       -5 0.41454998E-01 0.12516233E+03</pdfrwt>
<totfact> 0.32955698E+02</totfact>
</mgrwt>
</event>
<event>
 8    1  0.3694627E-007  0.2480818E+03  0.7546771E-02  0.1114524E+00
         -5   -1    0    0    0  501 -0.00000000000E+00  0.00000000000E+00  0.12195959934E+03  0.12205012852E+03  0.47000000000E+01 0. -1.
          5   -1    0    0  501    0  0.00000000000E+00 -0.00000000000E+00 -0.51631664261E+03  0.51633803407E+03  0.47000000000E+01 0. -1.
         25    2    1    2    0    0  0.20810971380E+03 -0.51093434039E+02 -0.14854937765E+03  0.28915183542E+03  0.12498669668E+03 0.  0.
         25    2    1    2    0    0 -0.20810971380E+03  0.51093434039E+02 -0.24580766561E+03  0.34923632717E+03  0.12499764702E+03 0.  0.
          5    1    3    3  502    0  0.13425319127E+03 -0.88891536789E+02 -0.73035682065E+02  0.17686697129E+03  0.47000000000E+01 0. -1.
         -5    1    3    3    0  502  0.73856522524E+02  0.37798102750E+02 -0.75513695588E+02  0.11228486413E+03  0.47000000000E+01 0. -1.
          5    1    4    4  503    0  0.16205088962E+02  0.10211239075E+02 -0.24487838981E+02  0.31442305413E+02  0.47000000000E+01 0. -1.
         -5    1    4    4    0  503 -0.22431480276E+03  0.40882194964E+02 -0.22131982663E+03  0.31779402175E+03  0.47000000000E+01 0. -1.
<mgrwt>
<rscale>  0 0.24808047E+03</rscale>
<asrwt>0</asrwt>
<pdfrwt beam="2">  1        5 0.79441938E-01 0.24808185E+03</pdfrwt>
<pdfrwt beam="1">  1       -5 0.18771625E-01 0.24808185E+03</pdfrwt>
<totfact> 0.29959233E+01</totfact>
</mgrwt>
</event>
<event>
 8    1  0.3694627E-007  0.1315439E+03  0.7546771E-02  0.1225186E+00
          5   -1    0    0  501    0  0.00000000000E+00  0.00000000000E+00  0.40360998946E+02  0.40633732734E+02  0.47000000000E+01 0. -1.
         -5   -1    0    0    0  501 -0.00000000000E+00 -0.00000000000E+00 -0.51761343130E+03  0.51763476918E+03  0.47000000000E+01 0. -1.
         25    2    1    2    0    0 -0.32603218879E+02  0.24768209474E+02 -0.35541054382E+03  0.37897289513E+03  0.12500946562E+03 0.  0.
         25    2    1    2    0    0  0.32603218879E+02 -0.24768209474E+02 -0.12184188853E+03  0.17929560678E+03  0.12500013892E+03 0.  0.
          5    1    4    4  502    0 -0.31446112782E+02 -0.49030486619E+02 -0.33309359799E+02  0.67264032568E+02  0.47000000000E+01 0. -1.
         -5    1    4    4    0  502  0.64049331661E+02  0.24262277144E+02 -0.88532528728E+02  0.11203157422E+03  0.47000000000E+01 0. -1.
          5    1    3    3  503    0  0.29255733702E+01  0.71360252969E+02 -0.22012337194E+03  0.23146756480E+03  0.47000000000E+01 0. -1.
         -5    1    3    3    0  503 -0.35528792250E+02 -0.46592043495E+02 -0.13528717189E+03  0.14750533032E+03  0.47000000000E+01 0. -1.
<mgrwt>
<rscale>  0 0.13154170E+03</rscale>
<asrwt>0</asrwt>
<pdfrwt beam="1">  1        5 0.62320057E-02 0.13154391E+03</pdfrwt>
<pdfrwt beam="2">  1       -5 0.79655452E-01 0.13154391E+03</pdfrwt>
<totfact> 0.17515705E+02</totfact>
</mgrwt>
</event>
<event>
 8    1  0.3694627E-007  0.1318233E+03  0.7546771E-02  0.1224782E+00
         -5   -1    0    0    0  501 -0.00000000000E+00  0.00000000000E+00  0.33841112684E+03  0.33844376308E+03  0.47000000000E+01 0. -1.
          5   -1    0    0  501    0  0.00000000000E+00 -0.00000000000E+00 -0.53684465463E+02  0.53889811951E+02  0.47000000000E+01 0. -1.
         25    2    1    2    0    0  0.25877375448E+02  0.32853985302E+02  0.18445794967E+03  0.22670989228E+03  0.12499446848E+03 0.  0.
         25    2    1    2    0    0 -0.25877375448E+02 -0.32853985302E+02  0.10026871171E+03  0.16562368276E+03  0.12501346660E+03 0.  0.
          5    1    4    4  502    0 -0.10280184993E+02  0.41130106111E+02  0.74053516671E+02  0.85459821926E+02  0.47000000000E+01 0. -1.
         -5    1    4    4    0  502 -0.15597190455E+02 -0.73984091412E+02  0.26215195043E+02  0.80163860831E+02  0.47000000000E+01 0. -1.
          5    1    3    3  503    0 -0.10328742714E+02 -0.41400709189E+02  0.33086128288E+02  0.54198556554E+02  0.47000000000E+01 0. -1.
         -5    1    3    3    0  503  0.36206118162E+02  0.74254694491E+02  0.15137182138E+03  0.17251133572E+03  0.47000000000E+01 0. -1.
<mgrwt>
<rscale>  0 0.13181882E+03</rscale>
<asrwt>0</asrwt>
<pdfrwt beam="2">  1        5 0.82774550E-02 0.13182333E+03</pdfrwt>
<pdfrwt beam="1">  1       -5 0.52081556E-01 0.13182333E+03</pdfrwt>
<totfact> 0.27751539E+02</totfact>
</mgrwt>
</event>
<event>
 8    1  0.3694627E-007  0.1276519E+03  0.7546771E-02  0.1230983E+00
         -5   -1    0    0    0  501 -0.00000000000E+00  0.00000000000E+00  0.84380418416E+02  0.84511212345E+02  0.47000000000E+01 0.  1.
          5   -1    0    0  501    0  0.00000000000E+00 -0.00000000000E+00 -0.21849803817E+03  0.21854858197E+03  0.47000000000E+01 0.  1.
         25    2    1    2    0    0 -0.23596535901E+02  0.10602116668E+02 -0.15116815342E+02  0.12854278158E+03  0.12500210881E+03 0.  0.
         25    2    1    2    0    0  0.23596535901E+02 -0.10602116668E+02 -0.11900080441E+03  0.17451701274E+03  0.12500317956E+03 0.  0.
          5    1    4    4  502    0 -0.51027211345E+02 -0.11178021298E+02 -0.42084789461E+02  0.67245401046E+02  0.47000000000E+01 0. -1.
         -5    1    4    4    0  502  0.74623747246E+02  0.57590463035E+00 -0.76916014948E+02  0.10727161169E+03  0.47000000000E+01 0. -1.
          5    1    3    3  503    0  0.30156447011E+02  0.84636453869E+01 -0.53582375700E+02  0.62243116689E+02  0.47000000000E+01 0.  1.
         -5    1    3    3    0  503 -0.53752982912E+02  0.21384712810E+01  0.38465560358E+02  0.66299664893E+02  0.47000000000E+01 0.  1.
<mgrwt>
<rscale>  0 0.12765159E+03</rscale>
<asrwt>0</asrwt>
<pdfrwt beam="2">  1        5 0.33629032E-01 0.12765186E+03</pdfrwt>
<pdfrwt beam="1">  1       -5 0.12995552E-01 0.12765186E+03</pdfrwt>
<totfact> 0.30664056E+02</totfact>
</mgrwt>
</event>
<event>
 8    1  0.3694627E-007  0.1297422E+03  0.7546771E-02  0.1227841E+00
         -5   -1    0    0    0  501 -0.00000000000E+00  0.00000000000E+00  0.21163195973E+03  0.21168414296E+03  0.47000000000E+01 0.  1.
          5   -1    0    0  501    0  0.00000000000E+00 -0.00000000000E+00 -0.79430599481E+02  0.79569530185E+02  0.47000000000E+01 0.  1.
         25    2    1    2    0    0  0.31479053196E+02  0.14692012786E+02  0.68768150297E+02  0.14683481066E+03  0.12499846837E+03 0.  0.
         25    2    1    2    0    0 -0.31479053196E+02 -0.14692012786E+02  0.63433209954E+02  0.14441886248E+03  0.12500499865E+03 0.  0.
          5    1    4    4  502    0 -0.10316657697E+02  0.21211703839E+02  0.91069300454E+02  0.94191705001E+02  0.47000000000E+01 0. -1.
         -5    1    4    4    0  502 -0.21162395499E+02 -0.35903716625E+02 -0.27636090500E+02  0.50227157484E+02  0.47000000000E+01 0. -1.
          5    1    3    3  503    0  0.61279239615E+02  0.52873284741E+02  0.42646371037E+02  0.91605307760E+02  0.47000000000E+01 0.  1.
         -5    1    3    3    0  503 -0.29800186419E+02 -0.38181271955E+02  0.26121779260E+02  0.55229502899E+02  0.47000000000E+01 0.  1.
<mgrwt>
<rscale>  0 0.12974062E+03</rscale>
<asrwt>0</asrwt>
<pdfrwt beam="2">  1        5 0.12234793E-01 0.12974219E+03</pdfrwt>
<pdfrwt beam="1">  1       -5 0.32573464E-01 0.12974219E+03</pdfrwt>
<totfact> 0.36585868E+02</totfact>
</mgrwt>
</event>
<event>
 8    1  0.3694627E-007  0.1350899E+03  0.7546771E-02  0.1220095E+00
         -5   -1    0    0    0  501 -0.00000000000E+00  0.00000000000E+00  0.72528762729E+02  0.72680887605E+02  0.47000000000E+01 0.  1.
          5   -1    0    0  501    0  0.00000000000E+00 -0.00000000000E+00 -0.30003364459E+03  0.30007045487E+03  0.47000000000E+01 0.  1.
         25    2    1    2    0    0  0.17419247213E+02  0.48174529072E+02 -0.38560593187E+02  0.14048556313E+03  0.12500023470E+03 0.  0.
         25    2    1    2    0    0 -0.17419247213E+02 -0.48174529072E+02 -0.18894428867E+03  0.23226577934E+03  0.12499293023E+03 0.  0.
          5    1    3    3  502    0  0.34654269306E+02  0.59031465640E+02 -0.73009238967E+02  0.10019017562E+03  0.47000000000E+01 0. -1.
         -5    1    3    3    0  502 -0.17235022092E+02 -0.10856936568E+02  0.34448645780E+02  0.40295387506E+02  0.47000000000E+01 0. -1.
          5    1    4    4  503    0 -0.65021114813E+02 -0.49549773434E+02 -0.14863435027E+03  0.16969733498E+03  0.47000000000E+01 0.  1.
         -5    1    4    4    0  503  0.47601867600E+02  0.13752443621E+01 -0.40309938394E+02  0.62568444358E+02  0.47000000000E+01 0.  1.
<mgrwt>
<rscale>  0 0.13508818E+03</rscale>
<asrwt>0</asrwt>
<pdfrwt beam="2">  1        5 0.46173555E-01 0.13508987E+03</pdfrwt>
<pdfrwt beam="1">  1       -5 0.11172805E-01 0.13508987E+03</pdfrwt>
<totfact> 0.21421565E+02</totfact>
</mgrwt>
</event>
<event>
 8    1  0.3694627E-007  0.1293757E+03  0.7546771E-02  0.1228389E+00
         -5   -1    0    0    0  501 -0.00000000000E+00  0.00000000000E+00  0.72239320545E+03  0.72240849474E+03  0.47000000000E+01 0.  1.
          5   -1    0    0  501    0  0.00000000000E+00 -0.00000000000E+00 -0.24382021382E+02  0.24830887352E+02  0.47000000000E+01 0.  1.
         25    2    1    2    0    0 -0.20728250568E+02  0.26107466770E+02  0.43977179491E+03  0.45840439755E+03  0.12499639956E+03 0.  0.
         25    2    1    2    0    0  0.20728250568E+02 -0.26107466770E+02  0.25823938915E+03  0.28883498454E+03  0.12500722376E+03 0.  0.
          5    1    4    4  502    0 -0.43022409636E+02  0.19207287837E+02  0.65891135416E+02  0.81139259076E+02  0.47000000000E+01 0. -1.
         -5    1    4    4    0  502  0.63750660204E+02 -0.45314754607E+02  0.19234825374E+03  0.20769572547E+03  0.47000000000E+01 0. -1.
          5    1    3    3  503    0 -0.33890549301E+02 -0.45131601937E+02  0.20309857222E+03  0.21084722162E+03  0.47000000000E+01 0.  1.
         -5    1    3    3    0  503  0.13162298733E+02  0.71239068707E+02  0.23667322269E+03  0.24755717594E+03  0.47000000000E+01 0.  1.
<mgrwt>
<rscale>  0 0.12937306E+03</rscale>
<asrwt>0</asrwt>
<pdfrwt beam="2">  1        5 0.37867850E-02 0.12937568E+03</pdfrwt>
<pdfrwt beam="1">  1       -5 0.11117310E+00 0.12937568E+03</pdfrwt>
<totfact> 0.17880306E+02</totfact>
</mgrwt>
</event>
<event>
 8    1  0.3694627E-007  0.1335014E+03  0.7546771E-02  0.1222357E+00
          5   -1    0    0  501    0  0.00000000000E+00  0.00000000000E+00  0.20887144539E+03  0.20892431812E+03  0.47000000000E+01 0.  1.
         -5   -1    0    0    0  501 -0.00000000000E+00 -0.00000000000E+00 -0.13965635347E+03  0.13973541808E+03  0.47000000000E+01 0.  1.
         25    2    1    2    0    0  0.34080864698E+02 -0.32120321790E+02 -0.74203883193E+02  0.15272193991E+03  0.12499821695E+03 0.  0.
         25    2    1    2    0    0 -0.34080864698E+02  0.32120321790E+02  0.14341897511E+03  0.19593779628E+03  0.12501758748E+03 0.  0.
          5    1    4    4  502    0  0.21734623389E+02  0.17484534659E+02  0.13440155157E+03  0.13734616802E+03  0.47000000000E+01 0. -1.
         -5    1    4    4    0  502 -0.55815488087E+02  0.14635787130E+02  0.90174235465E+01  0.58591628265E+02  0.47000000000E+01 0. -1.
          5    1    3    3  503    0  0.56620328566E+02  0.31823171072E+02 -0.42223440498E+02  0.77611112294E+02  0.47000000000E+01 0.  1.
         -5    1    3    3    0  503 -0.22539463868E+02 -0.63943492861E+02 -0.31980442695E+02  0.75110827620E+02  0.47000000000E+01 0.  1.
<mgrwt>
<rscale>  0 0.13349684E+03</rscale>
<asrwt>0</asrwt>
<pdfrwt beam="1">  1        5 0.32144217E-01 0.13350138E+03</pdfrwt>
<pdfrwt beam="2">  1       -5 0.21495742E-01 0.13350138E+03</pdfrwt>
<totfact> 0.13569922E+02</totfact>
</mgrwt>
</event>
<event>
 8    1  0.3694627E-007  0.1465971E+03  0.7546771E-02  0.1204718E+00
         -5   -1    0    0    0  501 -0.00000000000E+00  0.00000000000E+00  0.43310339619E+03  0.43312889743E+03  0.47000000000E+01 0. -1.
          5   -1    0    0  501    0  0.00000000000E+00 -0.00000000000E+00 -0.49913558108E+02  0.50134352325E+02  0.47000000000E+01 0. -1.
         25    2    1    2    0    0 -0.18616847105E+02 -0.74288264124E+02  0.21401443137E+03  0.25940870812E+03  0.12500147132E+03 0.  0.
         25    2    1    2    0    0  0.18616847105E+02  0.74288264124E+02  0.16917540670E+03  0.22385454163E+03  0.12500081757E+03 0.  0.
          5    1    4    4  502    0  0.28474260146E+02  0.10764226949E+03  0.13127411622E+03  0.17219937648E+03  0.47000000000E+01 0.  1.
         -5    1    4    4    0  502 -0.98574130413E+01 -0.33354005368E+02  0.37901290483E+02  0.51655165146E+02  0.47000000000E+01 0.  1.
          5    1    3    3  503    0  0.96308427400E+01 -0.43289116936E+02  0.21255397799E+03  0.21718191530E+03  0.47000000000E+01 0. -1.
         -5    1    3    3    0  503 -0.28247689845E+02 -0.30999147188E+02  0.14604533894E+01  0.42226792822E+02  0.47000000000E+01 0. -1.
<mgrwt>
<rscale>  0 0.14659693E+03</rscale>
<asrwt>0</asrwt>
<pdfrwt beam="2">  1        5 0.76979549E-02 0.14659707E+03</pdfrwt>
<pdfrwt beam="1">  1       -5 0.66650237E-01 0.14659707E+03</pdfrwt>
<totfact> 0.19015544E+02</totfact>
</mgrwt>
</event>
<event>
 8    1  0.3694627E-007  0.1804894E+03  0.7546771E-02  0.1167332E+00
          5   -1    0    0  501    0  0.00000000000E+00  0.00000000000E+00  0.15871926840E+03  0.15878884142E+03  0.47000000000E+01 0.  1.
         -5   -1    0    0    0  501 -0.00000000000E+00 -0.00000000000E+00 -0.20712931220E+03  0.20718262951E+03  0.47000000000E+01 0.  1.
         25    2    1    2    0    0  0.75182874009E+02 -0.10628173127E+03 -0.60801526156E+01  0.18058470992E+03  0.12500239300E+03 0.  0.
         25    2    1    2    0    0 -0.75182874009E+02  0.10628173127E+03 -0.42329891187E+02  0.18538676101E+03  0.12501264146E+03 0.  0.
          5    1    4    4  502    0 -0.23703113833E+02  0.10619195133E+02  0.40744992325E+02  0.48547392414E+02  0.47000000000E+01 0.  1.
         -5    1    4    4    0  502 -0.51479760176E+02  0.95662536138E+02 -0.83074883512E+02  0.13683936860E+03  0.47000000000E+01 0.  1.
          5    1    3    3  503    0  0.18045026778E+02  0.45195445881E+01  0.42558567977E+02  0.46683733601E+02  0.47000000000E+01 0. -1.
         -5    1    3    3    0  503  0.57137847231E+02 -0.11080127586E+03 -0.48638720592E+02  0.13390097632E+03  0.47000000000E+01 0. -1.
<mgrwt>
<rscale>  0 0.18048765E+03</rscale>
<asrwt>0</asrwt>
<pdfrwt beam="1">  1        5 0.24427802E-01 0.18048942E+03</pdfrwt>
<pdfrwt beam="2">  1       -5 0.31875501E-01 0.18048942E+03</pdfrwt>
<totfact> 0.11893034E+02</totfact>
</mgrwt>
</event>
<event>
 8    1  0.3694627E-007  0.1289918E+03  0.7546771E-02  0.1228967E+00
         -5   -1    0    0    0  501 -0.00000000000E+00  0.00000000000E+00  0.99889345320E+02  0.99999856542E+02  0.47000000000E+01 0.  1.
          5   -1    0    0  501    0  0.00000000000E+00 -0.00000000000E+00 -0.16675523071E+03  0.16682145237E+03  0.47000000000E+01 0.  1.
         25    2    1    2    0    0 -0.71307584617E+01  0.30957220735E+02 -0.40311918295E+02  0.13512465748E+03  0.12499770027E+03 0.  0.
         25    2    1    2    0    0  0.71307584617E+01 -0.30957220735E+02 -0.26553967097E+02  0.13169665142E+03  0.12501878897E+03 0.  0.
          5    1    3    3  502    0 -0.32802047962E+02 -0.14527757246E+02  0.30283816330E+02  0.47182937728E+02  0.47000000000E+01 0. -1.
         -5    1    3    3    0  502  0.25671289500E+02  0.45484977981E+02 -0.70595734625E+02  0.87941719757E+02  0.47000000000E+01 0. -1.
          5    1    4    4  503    0 -0.58436266866E+02 -0.17252658296E+02 -0.56601320931E+01  0.61372457983E+02  0.47000000000E+01 0. -1.
         -5    1    4    4    0  503  0.65567025328E+02 -0.13704562440E+02 -0.20893835004E+02  0.70324193442E+02  0.47000000000E+01 0. -1.
<mgrwt>
<rscale>  0 0.12898673E+03</rscale>
<asrwt>0</asrwt>
<pdfrwt beam="2">  1        5 0.25668246E-01 0.12899184E+03</pdfrwt>
<pdfrwt beam="1">  1       -5 0.15381186E-01 0.12899184E+03</pdfrwt>
<totfact> 0.38549287E+02</totfact>
</mgrwt>
</event>
<event>
 8    1  0.3694627E-007  0.1421660E+03  0.7546771E-02  0.1210445E+00
          5   -1    0    0  501    0  0.00000000000E+00  0.00000000000E+00  0.39778600677E+03  0.39781377199E+03  0.47000000000E+01 0. -1.
         -5   -1    0    0    0  501 -0.00000000000E+00 -0.00000000000E+00 -0.54414549726E+02  0.54617151353E+02  0.47000000000E+01 0. -1.
         25    2    1    2    0    0  0.45696657219E+02 -0.49977798287E+02  0.11247414518E+03  0.18127768048E+03  0.12500079721E+03 0.  0.
         25    2    1    2    0    0 -0.45696657219E+02  0.49977798287E+02  0.23089731187E+03  0.27115324286E+03  0.12499819073E+03 0.  0.
          5    1    4    4  502    0 -0.64987040840E+02  0.79158889228E+02  0.19767840260E+03  0.22268427442E+03  0.47000000000E+01 0.  1.
         -5    1    4    4    0  502  0.19290383621E+02 -0.29181090941E+02  0.33218909269E+02  0.48468968441E+02  0.47000000000E+01 0.  1.
          5    1    3    3  503    0 -0.61729984104E+01 -0.73928274440E+02  0.28517062403E+02  0.79616634688E+02  0.47000000000E+01 0.  1.
         -5    1    3    3    0  503  0.51869655630E+02  0.23950476153E+02  0.83957082777E+02  0.10166104579E+03  0.47000000000E+01 0.  1.
<mgrwt>
<rscale>  0 0.14216540E+03</rscale>
<asrwt>0</asrwt>
<pdfrwt beam="1">  1        5 0.61215567E-01 0.14216597E+03</pdfrwt>
<pdfrwt beam="2">  1       -5 0.83891898E-02 0.14216597E+03</pdfrwt>
<totfact> 0.19609568E+02</totfact>
</mgrwt>
</event>
<event>
 8    1  0.3694627E-007  0.1276356E+03  0.7546771E-02  0.1231008E+00
          5   -1    0    0  501    0  0.00000000000E+00  0.00000000000E+00  0.14863152950E+02  0.15588563616E+02  0.47000000000E+01 0.  1.
         -5   -1    0    0    0  501 -0.00000000000E+00 -0.00000000000E+00 -0.10736986362E+04  0.10737089230E+04  0.47000000000E+01 0.  1.
         25    2    1    2    0    0 -0.15128059053E+02  0.20878463311E+02 -0.56467977530E+03  0.57892437696E+03  0.12500166877E+03 0.  0.
         25    2    1    2    0    0  0.15128059053E+02 -0.20878463311E+02 -0.49415570793E+03  0.51037310966E+03  0.12500431588E+03 0.  0.
          5    1    3    3  502    0 -0.10085152841E+02 -0.36662473598E+02 -0.43736997160E+03  0.43904490583E+03  0.47000000000E+01 0. -1.
         -5    1    3    3    0  502 -0.50429062117E+01  0.57540936909E+02 -0.12730980370E+03  0.13987947113E+03  0.47000000000E+01 0. -1.
          5    1    4    4  503    0 -0.51530201760E+02  0.94820146099E+00 -0.28661592393E+03  0.29125081739E+03  0.47000000000E+01 0.  1.
         -5    1    4    4    0  503  0.66658260813E+02 -0.21826664772E+02 -0.20753978400E+03  0.21912229227E+03  0.47000000000E+01 0.  1.
<mgrwt>
<rscale>  0 0.12763496E+03</rscale>
<asrwt>0</asrwt>
<pdfrwt beam="1">  1        5 0.23432319E-02 0.12763560E+03</pdfrwt>
<pdfrwt beam="2">  1       -5 0.16524094E+00 0.12763560E+03</pdfrwt>
<totfact> 0.13552078E+02</totfact>
</mgrwt>
</event>
<event>
 8    1  0.3694627E-007  0.1571997E+03  0.7546771E-02  0.1191896E+00
          5   -1    0    0  501    0  0.00000000000E+00  0.00000000000E+00  0.28496936135E+03  0.28500811726E+03  0.47000000000E+01 0.  1.
         -5   -1    0    0    0  501 -0.00000000000E+00 -0.00000000000E+00 -0.98898373398E+02  0.99009990712E+02  0.47000000000E+01 0.  1.
         25    2    1    2    0    0  0.90517153953E+02 -0.29917613319E+02  0.25398381073E+02  0.15923822111E+03  0.12499325804E+03 0.  0.
         25    2    1    2    0    0 -0.90517153953E+02  0.29917613319E+02  0.16067260687E+03  0.22477988687E+03  0.12498756815E+03 0.  0.
          5    1    4    4  502    0 -0.27693618831E+02  0.72789303197E+02  0.10299467089E+03  0.12920995091E+03  0.47000000000E+01 0.  1.
         -5    1    4    4    0  502 -0.62823535121E+02 -0.42871689878E+02  0.57677935986E+02  0.95569935951E+02  0.47000000000E+01 0.  1.
          5    1    3    3  503    0  0.63501308930E+02 -0.78649417034E+02  0.18911284858E+02  0.10294597482E+03  0.47000000000E+01 0.  1.
         -5    1    3    3    0  503  0.27015845023E+02  0.48731803715E+02  0.64870962151E+01  0.56292246295E+02  0.47000000000E+01 0.  1.
<mgrwt>
<rscale>  0 0.15719853E+03</rscale>
<asrwt>0</asrwt>
<pdfrwt beam="1">  1        5 0.43853007E-01 0.15719966E+03</pdfrwt>
<pdfrwt beam="2">  1       -5 0.15226702E-01 0.15719966E+03</pdfrwt>
<totfact> 0.14413186E+02</totfact>
</mgrwt>
</event>
<event>
 8    1  0.3694627E-007  0.1507208E+03  0.7546771E-02  0.1199598E+00
          5   -1    0    0  501    0  0.00000000000E+00  0.00000000000E+00  0.15239884949E+03  0.15247130656E+03  0.47000000000E+01 0.  1.
         -5   -1    0    0    0  501 -0.00000000000E+00 -0.00000000000E+00 -0.16242298739E+03  0.16249097462E+03  0.47000000000E+01 0.  1.
         25    2    1    2    0    0  0.31908424192E+02  0.77935940329E+02 -0.50448590545E+02  0.15893964932E+03  0.12499837402E+03 0.  0.
         25    2    1    2    0    0 -0.31908424192E+02 -0.77935940329E+02  0.40424452645E+02  0.15602263186E+03  0.12496706347E+03 0.  0.
          5    1    4    4  502    0  0.30755296941E+02 -0.56011437044E+02  0.58814968695E+02  0.86973903628E+02  0.47000000000E+01 0. -1.
         -5    1    4    4    0  502 -0.62663721133E+02 -0.21924503285E+02 -0.18390516050E+02  0.69048728237E+02  0.47000000000E+01 0. -1.
          5    1    3    3  503    0 -0.39534075718E+01  0.68730130418E+02  0.26101929812E+02  0.73775748039E+02  0.47000000000E+01 0. -1.
         -5    1    3    3    0  503  0.35861831764E+02  0.92058099108E+01 -0.76550520357E+02  0.85163901276E+02  0.47000000000E+01 0. -1.
<mgrwt>
<rscale>  0 0.15071428E+03</rscale>
<asrwt>0</asrwt>
<pdfrwt beam="1">  1        5 0.23456780E-01 0.15072077E+03</pdfrwt>
<pdfrwt beam="2">  1       -5 0.24998955E-01 0.15072077E+03</pdfrwt>
<totfact> 0.19541273E+02</totfact>
</mgrwt>
</event>
<event>
 8    1  0.3694627E-007  0.1250443E+03  0.7546771E-02  0.1235002E+00
          5   -1    0    0  501    0  0.00000000000E+00  0.00000000000E+00  0.86839482371E+03  0.86840754249E+03  0.47000000000E+01 0. -1.
         -5   -1    0    0    0  501 -0.00000000000E+00 -0.00000000000E+00 -0.18598837157E+02  0.19183501859E+02  0.47000000000E+01 0. -1.
         25    2    1    2    0    0  0.29040536327E+01 -0.14315573388E+01  0.32809967674E+03  0.35111819857E+03  0.12499643436E+03 0.  0.
         25    2    1    2    0    0 -0.29040536327E+01  0.14315573388E+01  0.52169630982E+03  0.53647284578E+03  0.12500236678E+03 0.  0.
          5    1    3    3  502    0  0.46920321931E+02 -0.27643593065E+02  0.74779159088E+02  0.92626656431E+02  0.47000000000E+01 0.  1.
         -5    1    3    3    0  502 -0.44016268298E+02  0.26212035727E+02  0.25332051765E+03  0.25849154214E+03  0.47000000000E+01 0.  1.
          5    1    4    4  503    0  0.28348307949E+02 -0.49283789237E+02  0.35130309754E+03  0.35590514858E+03  0.47000000000E+01 0.  1.
         -5    1    4    4    0  503 -0.31252361582E+02  0.50715346576E+02  0.17039321228E+03  0.18056769720E+03  0.47000000000E+01 0.  1.
<mgrwt>
<rscale>  0 0.12504281E+03</rscale>
<asrwt>0</asrwt>
<pdfrwt beam="1">  1        5 0.13364514E+00 0.12504429E+03</pdfrwt>
<pdfrwt beam="2">  1       -5 0.29073126E-02 0.12504429E+03</pdfrwt>
<totfact> 0.16958452E+02</totfact>
</mgrwt>
</event>
<event>
 8    1  0.3694627E-007  0.1498467E+03  0.7546771E-02  0.1200662E+00
          5   -1    0    0  501    0  0.00000000000E+00  0.00000000000E+00  0.76640658177E+03  0.76642099305E+03  0.47000000000E+01 0. -1.
         -5   -1    0    0    0  501 -0.00000000000E+00 -0.00000000000E+00 -0.30507100367E+02  0.30867024035E+02  0.47000000000E+01 0. -1.
         25    2    1    2    0    0  0.79968675660E+02  0.20817786366E+02  0.45320415468E+03  0.47733430317E+03  0.12500264733E+03 0.  0.
         25    2    1    2    0    0 -0.79968675660E+02 -0.20817786366E+02  0.28269532672E+03  0.31995371392E+03  0.12500144792E+03 0.  0.
          5    1    3    3  502    0  0.41180811233E+02  0.65498943382E+02  0.15523184084E+03  0.17350788226E+03  0.47000000000E+01 0.  1.
         -5    1    3    3    0  502  0.38787864427E+02 -0.44681157016E+02  0.29797231385E+03  0.30382642090E+03  0.47000000000E+01 0.  1.
          5    1    4    4  503    0 -0.63611185873E+02  0.47798288741E+01  0.28204569442E+03  0.28920769954E+03  0.47000000000E+01 0. -1.
         -5    1    4    4    0  503 -0.16357489787E+02 -0.25597615241E+02  0.64963230457E+00  0.30746014380E+02  0.47000000000E+01 0. -1.
<mgrwt>
<rscale>  0 0.14984644E+03</rscale>
<asrwt>0</asrwt>
<pdfrwt beam="1">  1        5 0.11793749E+00 0.14984669E+03</pdfrwt>
<pdfrwt beam="2">  1       -5 0.47221956E-02 0.14984669E+03</pdfrwt>
<totfact> 0.11244998E+02</totfact>
</mgrwt>
</event>
<event>
 8    1  0.3694627E-007  0.1434129E+03  0.7546771E-02  0.1208810E+00
         -5   -1    0    0    0  501 -0.00000000000E+00  0.00000000000E+00  0.37051136935E+02  0.37348048786E+02  0.47000000000E+01 0. -1.
          5   -1    0    0  501    0  0.00000000000E+00 -0.00000000000E+00 -0.76661780483E+03  0.76663221214E+03  0.47000000000E+01 0. -1.
         25    2    1    2    0    0  0.67910797368E+02  0.18160720629E+02 -0.15241624813E+03  0.20927964673E+03  0.12500227866E+03 0.  0.
         25    2    1    2    0    0 -0.67910797368E+02 -0.18160720629E+02 -0.57715041977E+03  0.59470061419E+03  0.12499810121E+03 0.  0.
          5    1    4    4  502    0 -0.57656207928E+00  0.43116029792E+02 -0.29542983063E+03  0.29859705168E+03  0.47000000000E+01 0.  1.
         -5    1    4    4    0  502 -0.67334235289E+02 -0.61276750421E+02 -0.28172058914E+03  0.29610356251E+03  0.47000000000E+01 0.  1.
          5    1    3    3  503    0  0.51801994870E+02  0.61685003512E+02 -0.13903320164E+03  0.16075076202E+03  0.47000000000E+01 0.  1.
         -5    1    3    3    0  503  0.16108802498E+02 -0.43524282884E+02 -0.13383046490E+02  0.48528884716E+02  0.47000000000E+01 0.  1.
<mgrwt>
<rscale>  0 0.14341198E+03</rscale>
<asrwt>0</asrwt>
<pdfrwt beam="2">  1        5 0.11796514E+00 0.14341289E+03</pdfrwt>
<pdfrwt beam="1">  1       -5 0.57241231E-02 0.14341289E+03</pdfrwt>
<totfact> 0.80447055E+01</totfact>
</mgrwt>
</event>
<event>
 8    1  0.3694627E-007  0.1327678E+03  0.7546771E-02  0.1223408E+00
         -5   -1    0    0    0  501 -0.00000000000E+00  0.00000000000E+00  0.13928893098E+03  0.13936820403E+03  0.47000000000E+01 0.  1.
          5   -1    0    0  501    0  0.00000000000E+00 -0.00000000000E+00 -0.14917650978E+03  0.14925053122E+03  0.47000000000E+01 0.  1.
         25    2    1    2    0    0 -0.16259305035E+02 -0.41680110923E+02  0.51431913345E+02  0.14238168130E+03  0.12500281922E+03 0.  0.
         25    2    1    2    0    0  0.16259305035E+02  0.41680110923E+02 -0.61319492142E+02  0.14623705395E+03  0.12499439661E+03 0.  0.
          5    1    3    3  502    0 -0.28351643396E+02 -0.67083158616E+02 -0.10941468214E+02  0.73795471269E+02  0.47000000000E+01 0. -1.
         -5    1    3    3    0  502  0.12092338361E+02  0.25403047693E+02  0.62373381559E+02  0.68586210030E+02  0.47000000000E+01 0. -1.
          5    1    4    4  503    0  0.25760570917E+02 -0.20487445767E+02  0.23374508308E+02  0.40642343518E+02  0.47000000000E+01 0.  1.
         -5    1    4    4    0  503 -0.95012658819E+01  0.62167556690E+02 -0.84694000450E+02  0.10559471043E+03  0.47000000000E+01 0.  1.
<mgrwt>
<rscale>  0 0.13276587E+03</rscale>
<asrwt>0</asrwt>
<pdfrwt beam="2">  1        5 0.22962024E-01 0.13276785E+03</pdfrwt>
<pdfrwt beam="1">  1       -5 0.21440858E-01 0.13276785E+03</pdfrwt>
<totfact> 0.26103614E+02</totfact>
</mgrwt>
</event>
<event>
 8    1  0.3694627E-007  0.2050120E+03  0.7546771E-02  0.1145583E+00
         -5   -1    0    0    0  501 -0.00000000000E+00  0.00000000000E+00  0.49782738472E+03  0.49784957063E+03  0.47000000000E+01 0. -1.
          5   -1    0    0  501    0  0.00000000000E+00 -0.00000000000E+00 -0.84829402693E+02  0.84959505420E+02  0.47000000000E+01 0. -1.
         25    2    1    2    0    0  0.48390512731E+02  0.15509445923E+03  0.22887117548E+03  0.30725039077E+03  0.12499941862E+03 0.  0.
         25    2    1    2    0    0 -0.48390512731E+02 -0.15509445923E+03  0.18412680655E+03  0.27555868528E+03  0.12503589540E+03 0.  0.
          5    1    4    4  502    0 -0.23018554076E+02 -0.14564568516E+03  0.79910573356E+02  0.16778053871E+03  0.47000000000E+01 0. -1.
         -5    1    4    4    0  502 -0.25371958655E+02 -0.94487740718E+01  0.10421623319E+03  0.10777814657E+03  0.47000000000E+01 0. -1.
          5    1    3    3  503    0  0.24920950740E+02  0.15834137439E+03  0.13285962484E+03  0.20824700368E+03  0.47000000000E+01 0.  1.
         -5    1    3    3    0  503  0.23469561991E+02 -0.32469151645E+01  0.96011550641E+02  0.99003387086E+02  0.47000000000E+01 0.  1.
<mgrwt>
<rscale>  0 0.20500641E+03</rscale>
<asrwt>0</asrwt>
<pdfrwt beam="2">  1        5 0.13062391E-01 0.20501197E+03</pdfrwt>
<pdfrwt beam="1">  1       -5 0.76600546E-01 0.20501197E+03</pdfrwt>
<totfact> 0.60522461E+01</totfact>
</mgrwt>
</event>
<event>
 8    1  0.3694627E-007  0.1370146E+03  0.7546771E-02  0.1217404E+00
          5   -1    0    0  501    0  0.00000000000E+00  0.00000000000E+00  0.80633475885E+03  0.80634845652E+03  0.47000000000E+01 0.  1.
         -5   -1    0    0    0  501 -0.00000000000E+00 -0.00000000000E+00 -0.23042750926E+02  0.23517193077E+02  0.47000000000E+01 0.  1.
         25    2    1    2    0    0 -0.33528608605E+02 -0.44987046943E+02  0.40106953153E+03  0.42382745591E+03  0.12499976509E+03 0.  0.
         25    2    1    2    0    0  0.33528608605E+02  0.44987046943E+02  0.38222247639E+03  0.40603819368E+03  0.12499996514E+03 0.  0.
          5    1    4    4  502    0 -0.27770901691E+02  0.24191545740E+02  0.29495439432E+03  0.29728208589E+03  0.47000000000E+01 0.  1.
         -5    1    4    4    0  502  0.61299510296E+02  0.20795501203E+02  0.87268082072E+02  0.10875610779E+03  0.47000000000E+01 0.  1.
          5    1    3    3  503    0 -0.67906153320E+01 -0.83660774952E+02  0.19393706631E+03  0.21137387117E+03  0.47000000000E+01 0. -1.
         -5    1    3    3    0  503 -0.26737993273E+02  0.38673728009E+02  0.20713246522E+03  0.21245358474E+03  0.47000000000E+01 0. -1.
<mgrwt>
<rscale>  0 0.13701453E+03</rscale>
<asrwt>0</asrwt>
<pdfrwt beam="1">  1        5 0.12408904E+00 0.13701457E+03</pdfrwt>
<pdfrwt beam="2">  1       -5 0.35825882E-02 0.13701457E+03</pdfrwt>
<totfact> 0.15110987E+02</totfact>
</mgrwt>
</event>
<event>
 8    1  0.3694627E-007  0.1787606E+03  0.7546771E-02  0.1169009E+00
         -5   -1    0    0    0  501 -0.00000000000E+00  0.00000000000E+00  0.24474670559E+02  0.24921867887E+02  0.47000000000E+01 0.  1.
          5   -1    0    0  501    0  0.00000000000E+00 -0.00000000000E+00 -0.21163160281E+04  0.21163212471E+04  0.47000000000E+01 0.  1.
         25    2    1    2    0    0 -0.12523036513E+03  0.25448338707E+02 -0.37834313050E+03  0.41844553111E+03  0.12499150296E+03 0.  0.
         25    2    1    2    0    0  0.12523036513E+03 -0.25448338707E+02 -0.17134982271E+04  0.17227975839E+04  0.12500031422E+03 0.  0.
          5    1    4    4  502    0  0.12286900344E+02 -0.46565839183E+02 -0.88930583633E+03  0.89062130327E+03  0.47000000000E+01 0.  1.
         -5    1    4    4    0  502  0.11294346478E+03  0.21117500477E+02 -0.82419239075E+03  0.83217628062E+03  0.47000000000E+01 0.  1.
          5    1    3    3  503    0 -0.10911846463E+03  0.42780654884E+02 -0.37638512363E+03  0.39423961628E+03  0.47000000000E+01 0.  1.
         -5    1    3    3    0  503 -0.16111900493E+02 -0.17332316177E+02 -0.19580068716E+01  0.24205914824E+02  0.47000000000E+01 0.  1.
<mgrwt>
<rscale>  0 0.17875903E+03</rscale>
<asrwt>0</asrwt>
<pdfrwt beam="2">  1        5 0.32562174E+00 0.17876057E+03</pdfrwt>
<pdfrwt beam="1">  1       -5 0.38001369E-02 0.17876057E+03</pdfrwt>
<totfact> 0.59804830E+00</totfact>
</mgrwt>
</event>
<event>
 8    1  0.3694627E-007  0.1253916E+03  0.7546771E-02  0.1234461E+00
          5   -1    0    0  501    0  0.00000000000E+00  0.00000000000E+00  0.61427589209E+02  0.61607132022E+02  0.47000000000E+01 0. -1.
         -5   -1    0    0    0  501 -0.00000000000E+00 -0.00000000000E+00 -0.25538387944E+03  0.25542712439E+03  0.47000000000E+01 0. -1.
         25    2    1    2    0    0  0.27775843542E+01  0.94663024671E+01 -0.98060753854E+02  0.15918218810E+03  0.12500292679E+03 0.  0.
         25    2    1    2    0    0 -0.27775843542E+01 -0.94663024671E+01 -0.95895536374E+02  0.15785206831E+03  0.12499598280E+03 0.  0.
          5    1    4    4  502    0 -0.20119995002E+02 -0.23866251465E+02  0.21516847187E+02  0.38203100276E+02  0.47000000000E+01 0. -1.
         -5    1    4    4    0  502  0.17342410648E+02  0.14399948997E+02 -0.11741238356E+03  0.11964896803E+03  0.47000000000E+01 0. -1.
          5    1    3    3  503    0  0.32017053945E+01  0.66822693279E+02 -0.61549656964E+02  0.91027322969E+02  0.47000000000E+01 0.  1.
         -5    1    3    3    0  503 -0.42412104030E+00 -0.57356390812E+02 -0.36511096889E+02  0.68154865136E+02  0.47000000000E+01 0.  1.
<mgrwt>
<rscale>  0 0.12538989E+03</rscale>
<asrwt>0</asrwt>
<pdfrwt beam="1">  1        5 0.94675360E-02 0.12539162E+03</pdfrwt>
<pdfrwt beam="2">  1       -5 0.39306965E-01 0.12539162E+03</pdfrwt>
<totfact> 0.38834620E+02</totfact>
</mgrwt>
</event>
<event>
 8    1  0.3694627E-007  0.1397309E+03  0.7546771E-02  0.1213704E+00
         -5   -1    0    0    0  501 -0.00000000000E+00  0.00000000000E+00  0.13953428763E+03  0.13961342136E+03  0.47000000000E+01 0.  1.
          5   -1    0    0  501    0  0.00000000000E+00 -0.00000000000E+00 -0.14073623283E+03  0.14081469110E+03  0.47000000000E+01 0.  1.
         25    2    1    2    0    0 -0.62285005600E+02  0.44395828740E+01  0.11233785439E+02  0.14014497122E+03  0.12496112678E+03 0.  0.
         25    2    1    2    0    0  0.62285005600E+02 -0.44395828740E+01 -0.12435730638E+02  0.14028314123E+03  0.12500232198E+03 0.  0.
          5    1    3    3  502    0  0.22990789757E+02  0.28466823797E+02 -0.24728174460E+02  0.44412938237E+02  0.47000000000E+01 0.  1.
         -5    1    3    3    0  502 -0.85275795357E+02 -0.24027240923E+02  0.35961959899E+02  0.95732032987E+02  0.47000000000E+01 0.  1.
          5    1    4    4  503    0 -0.22197243425E+01  0.52767314242E+02  0.16431117354E+00  0.53022953771E+02  0.47000000000E+01 0. -1.
         -5    1    4    4    0  503  0.64504729943E+02 -0.57206897116E+02 -0.12600041812E+02  0.87260187464E+02  0.47000000000E+01 0. -1.
<mgrwt>
<rscale>  0 0.13972164E+03</rscale>
<asrwt>0</asrwt>
<pdfrwt beam="2">  1        5 0.21663851E-01 0.13973086E+03</pdfrwt>
<pdfrwt beam="1">  1       -5 0.21478936E-01 0.13973086E+03</pdfrwt>
<totfact> 0.29552615E+02</totfact>
</mgrwt>
</event>
<event>
 8    1  0.3694627E-007  0.1757123E+03  0.7546771E-02  0.1172019E+00
         -5   -1    0    0    0  501 -0.00000000000E+00  0.00000000000E+00  0.23394750128E+03  0.23399470797E+03  0.47000000000E+01 0. -1.
          5   -1    0    0  501    0  0.00000000000E+00 -0.00000000000E+00 -0.16758151217E+03  0.16764740744E+03  0.47000000000E+01 0. -1.
         25    2    1    2    0    0  0.11794493736E+03 -0.36582440668E+02  0.12585589224E+03  0.21613541638E+03  0.12500211753E+03 0.  0.
         25    2    1    2    0    0 -0.11794493736E+03  0.36582440668E+02 -0.59489903129E+02  0.18550669902E+03  0.12499761436E+03 0.  0.
          5    1    4    4  502    0 -0.40385724950E+01 -0.21200463377E+02  0.24176141969E+02  0.32746687706E+02  0.47000000000E+01 0. -1.
         -5    1    4    4    0  502 -0.11390636486E+03  0.57782904045E+02 -0.83666045098E+02  0.15276001132E+03  0.47000000000E+01 0. -1.
          5    1    3    3  503    0 -0.18508500365E+02  0.35514378759E+00  0.54425405841E+02  0.57679333507E+02  0.47000000000E+01 0. -1.
         -5    1    3    3    0  503  0.13645343772E+03 -0.36937584455E+02  0.71430486402E+02  0.15845608287E+03  0.47000000000E+01 0. -1.
<mgrwt>
<rscale>  0 0.17571150E+03</rscale>
<asrwt>0</asrwt>
<pdfrwt beam="2">  1        5 0.25790471E-01 0.17571230E+03</pdfrwt>
<pdfrwt beam="1">  1       -5 0.36000624E-01 0.17571230E+03</pdfrwt>
<totfact> 0.83277229E+01</totfact>
</mgrwt>
</event>
<event>
 8    1  0.3694627E-007  0.1970496E+03  0.7546771E-02  0.1152260E+00
         -5   -1    0    0    0  501 -0.00000000000E+00  0.00000000000E+00  0.13759654659E+03  0.13767679410E+03  0.47000000000E+01 0. -1.
          5   -1    0    0  501    0  0.00000000000E+00 -0.00000000000E+00 -0.28200998774E+03  0.28204915030E+03  0.47000000000E+01 0. -1.
         25    2    1    2    0    0  0.16823347509E+02  0.15135393223E+03 -0.74966914569E+02  0.21082832231E+03  0.12505001154E+03 0.  0.
         25    2    1    2    0    0 -0.16823347509E+02 -0.15135393223E+03 -0.69446526577E+02  0.20889762208E+03  0.12499743451E+03 0.  0.
          5    1    3    3  502    0  0.47331721167E+02  0.15116194449E+03 -0.83058891910E+02  0.17891644647E+03  0.47000000000E+01 0.  1.
         -5    1    3    3    0  502 -0.30508373658E+02  0.19198773919E+00  0.80919773406E+01  0.31911875843E+02  0.47000000000E+01 0.  1.
          5    1    4    4  503    0 -0.39334925270E+02 -0.10018520086E+03 -0.98276501844E+02  0.14582411197E+03  0.47000000000E+01 0.  1.
         -5    1    4    4    0  503  0.22511577762E+02 -0.51168731378E+02  0.28829975267E+02  0.63073510114E+02  0.47000000000E+01 0.  1.
<mgrwt>
<rscale>  0 0.19704125E+03</rscale>
<asrwt>0</asrwt>
<pdfrwt beam="2">  1        5 0.43395337E-01 0.19704960E+03</pdfrwt>
<pdfrwt beam="1">  1       -5 0.21177885E-01 0.19704960E+03</pdfrwt>
<totfact> 0.85428135E+01</totfact>
</mgrwt>
</event>
<event>
 8    1  0.3694627E-007  0.1326847E+03  0.7546771E-02  0.1223527E+00
          5   -1    0    0  501    0  0.00000000000E+00  0.00000000000E+00  0.30979200889E+03  0.30982765979E+03  0.47000000000E+01 0.  1.
         -5   -1    0    0    0  501 -0.00000000000E+00 -0.00000000000E+00 -0.64024493980E+02  0.64196774291E+02  0.47000000000E+01 0.  1.
         25    2    1    2    0    0  0.43178781684E+02  0.10698240779E+02  0.59700946514E+02  0.14549715606E+03  0.12500543933E+03 0.  0.
         25    2    1    2    0    0 -0.43178781684E+02 -0.10698240779E+02  0.18606656839E+03  0.22852727802E+03  0.12500035753E+03 0.  0.
          5    1    3    3  502    0 -0.24153148529E+02  0.33940809319E+02 -0.12718830253E+02  0.43808809207E+02  0.47000000000E+01 0. -1.
         -5    1    3    3    0  502  0.67331930213E+02 -0.23242568540E+02  0.72419776767E+02  0.10168834685E+03  0.47000000000E+01 0. -1.
          5    1    4    4  503    0 -0.97445223331E+01 -0.65824976866E+02  0.78345514969E+02  0.10289797379E+03  0.47000000000E+01 0. -1.
         -5    1    4    4    0  503 -0.33434259351E+02  0.55126736087E+02  0.10772105342E+03  0.12562930423E+03  0.47000000000E+01 0. -1.
<mgrwt>
<rscale>  0 0.13268346E+03</rscale>
<asrwt>0</asrwt>
<pdfrwt beam="1">  1        5 0.47676303E-01 0.13268466E+03</pdfrwt>
<pdfrwt beam="2">  1       -5 0.98659170E-02 0.13268466E+03</pdfrwt>
<totfact> 0.24755228E+02</totfact>
</mgrwt>
</event>
<event>
 8    1  0.3694627E-007  0.2022045E+03  0.7546771E-02  0.1147893E+00
          5   -1    0    0  501    0  0.00000000000E+00  0.00000000000E+00  0.45192448614E+02  0.45436190551E+02  0.47000000000E+01 0. -1.
         -5   -1    0    0    0  501 -0.00000000000E+00 -0.00000000000E+00 -0.10047410827E+04  0.10047520755E+04  0.47000000000E+01 0. -1.
         25    2    1    2    0    0 -0.15824817061E+03  0.14795977599E+02 -0.64763645845E+03  0.67846810458E+03  0.12499832863E+03 0.  0.
         25    2    1    2    0    0  0.15824817061E+03 -0.14795977599E+02 -0.31191217559E+03  0.37172016145E+03  0.12500107476E+03 0.  0.
          5    1    4    4  502    0  0.79562616068E+02 -0.67335983845E+02 -0.13068404439E+03  0.16722665474E+03  0.47000000000E+01 0. -1.
         -5    1    4    4    0  502  0.78685554541E+02  0.52540006246E+02 -0.18122813119E+03  0.20449350671E+03  0.47000000000E+01 0. -1.
          5    1    3    3  503    0 -0.97900049416E+02  0.30819849867E+00 -0.16561298573E+03  0.19244288946E+03  0.47000000000E+01 0. -1.
         -5    1    3    3    0  503 -0.60348121193E+02  0.14487779100E+02 -0.48202347272E+03  0.48602521511E+03  0.47000000000E+01 0. -1.
<mgrwt>
<rscale>  0 0.20220411E+03</rscale>
<asrwt>0</asrwt>
<pdfrwt beam="1">  1        5 0.69722801E-02 0.20220453E+03</pdfrwt>
<pdfrwt beam="2">  1       -5 0.15459513E+00 0.20220453E+03</pdfrwt>
<totfact> 0.30869268E+01</totfact>
</mgrwt>
</event>
<event>
 8    1  0.3694627E-007  0.1292163E+03  0.7546771E-02  0.1228625E+00
          5   -1    0    0  501    0  0.00000000000E+00  0.00000000000E+00  0.48366757831E+03  0.48369041370E+03  0.47000000000E+01 0.  1.
         -5   -1    0    0    0  501 -0.00000000000E+00 -0.00000000000E+00 -0.34497979807E+02  0.34816671449E+02  0.47000000000E+01 0.  1.
         25    2    1    2    0    0  0.32511952742E+02  0.38323763389E+01  0.20692068960E+03  0.24395035998E+03  0.12499556861E+03 0.  0.
         25    2    1    2    0    0 -0.32511952742E+02 -0.38323763389E+01  0.24224890891E+03  0.27455672517E+03  0.12500058916E+03 0.  0.
          5    1    3    3  502    0  0.77664875706E+02 -0.15961262942E+02  0.13487765807E+03  0.15652689060E+03  0.47000000000E+01 0. -1.
         -5    1    3    3    0  502 -0.45152922964E+02  0.19793639281E+02  0.72043031520E+02  0.87423469382E+02  0.47000000000E+01 0. -1.
          5    1    4    4  503    0  0.44526330492E+02  0.34971959147E+01  0.13460673243E+03  0.14190097569E+03  0.47000000000E+01 0. -1.
         -5    1    4    4    0  503 -0.77038283235E+02 -0.73295722536E+01  0.10764217648E+03  0.13265574948E+03  0.47000000000E+01 0. -1.
<mgrwt>
<rscale>  0 0.12921512E+03</rscale>
<asrwt>0</asrwt>
<pdfrwt beam="1">  1        5 0.74436672E-01 0.12921634E+03</pdfrwt>
<pdfrwt beam="2">  1       -5 0.53336525E-02 0.12921634E+03</pdfrwt>
<totfact> 0.26384481E+02</totfact>
</mgrwt>
</event>
<event>
 8    1  0.3694627E-007  0.1328244E+03  0.7546771E-02  0.1223325E+00
          5   -1    0    0  501    0  0.00000000000E+00  0.00000000000E+00  0.65327599801E+03  0.65329290488E+03  0.47000000000E+01 0.  1.
         -5   -1    0    0    0  501 -0.00000000000E+00 -0.00000000000E+00 -0.27602722566E+02  0.28000005234E+02  0.47000000000E+01 0.  1.
         25    2    1    2    0    0 -0.39008509999E+02  0.22251658390E+02  0.25459572117E+03  0.28716078193E+03  0.12500213314E+03 0.  0.
         25    2    1    2    0    0  0.39008509999E+02 -0.22251658390E+02  0.37107755427E+03  0.39413212818E+03  0.12499913212E+03 0.  0.
          5    1    4    4  502    0  0.11095267196E+02  0.31745647601E+02  0.29353484784E+03  0.29549228077E+03  0.47000000000E+01 0. -1.
         -5    1    4    4    0  502  0.27913242802E+02 -0.53997305991E+02  0.77542706427E+02  0.98639847415E+02  0.47000000000E+01 0. -1.
          5    1    3    3  503    0 -0.31020893741E+02 -0.20494950161E+02  0.10140718312E+02  0.38823485141E+02  0.47000000000E+01 0.  1.
         -5    1    3    3    0  503 -0.79876162577E+01  0.42746608551E+02  0.24445500286E+03  0.24833729679E+03  0.47000000000E+01 0.  1.
<mgrwt>
<rscale>  0 0.13282374E+03</rscale>
<asrwt>0</asrwt>
<pdfrwt beam="1">  1        5 0.10053586E+00 0.13282445E+03</pdfrwt>
<pdfrwt beam="2">  1       -5 0.42784333E-02 0.13282445E+03</pdfrwt>
<totfact> 0.18930899E+02</totfact>
</mgrwt>
</event>
<event>
 8    1  0.3694627E-007  0.1391461E+03  0.7546771E-02  0.1214487E+00
         -5   -1    0    0    0  501 -0.00000000000E+00  0.00000000000E+00  0.16209416114E+03  0.16216228623E+03  0.47000000000E+01 0. -1.
          5   -1    0    0  501    0  0.00000000000E+00 -0.00000000000E+00 -0.24112429521E+03  0.24117009711E+03  0.47000000000E+01 0. -1.
         25    2    1    2    0    0  0.23959769880E+02  0.56195431411E+02  0.10378903435E+03  0.17359088353E+03  0.12501853507E+03 0.  0.
         25    2    1    2    0    0 -0.23959769880E+02 -0.56195431411E+02 -0.18281916842E+03  0.22974149980E+03  0.12500524511E+03 0.  0.
          5    1    3    3  502    0  0.21116518574E+02 -0.10575216526E+02 -0.21002776698E+02  0.31952295540E+02  0.47000000000E+01 0. -1.
         -5    1    3    3    0  502  0.28432513055E+01  0.66770647936E+02  0.12479181105E+03  0.14163858799E+03  0.47000000000E+01 0. -1.
          5    1    4    4  503    0  0.36736259331E+02 -0.57055073493E+02 -0.13892760355E+03  0.15468614414E+03  0.47000000000E+01 0.  1.
         -5    1    4    4    0  503 -0.60696029211E+02  0.85964208281E+00 -0.43891564869E+02  0.75055355659E+02  0.47000000000E+01 0.  1.
<mgrwt>
<rscale>  0 0.13914309E+03</rscale>
<asrwt>0</asrwt>
<pdfrwt beam="2">  1        5 0.37104809E-01 0.13914608E+03</pdfrwt>
<pdfrwt beam="1">  1       -5 0.24946327E-01 0.13914608E+03</pdfrwt>
<totfact> 0.77799173E+01</totfact>
</mgrwt>
</event>
<event>
 8    1  0.3694627E-007  0.1274645E+03  0.7546771E-02  0.1231292E+00
          5   -1    0    0  501    0  0.00000000000E+00  0.00000000000E+00  0.20526722289E+02  0.21057927912E+02  0.47000000000E+01 0. -1.
         -5   -1    0    0    0  501 -0.00000000000E+00 -0.00000000000E+00 -0.87581677821E+03  0.87582938921E+03  0.47000000000E+01 0. -1.
         25    2    1    2    0    0  0.14792776489E+02  0.20037916896E+02 -0.57565629432E+03  0.58959932172E+03  0.12500738628E+03 0.  0.
         25    2    1    2    0    0 -0.14792776489E+02 -0.20037916896E+02 -0.27963376160E+03  0.30728799540E+03  0.12494209516E+03 0.  0.
          5    1    4    4  502    0  0.37787491041E+02 -0.21983760194E+02 -0.32775139511E+02  0.54840495634E+02  0.47000000000E+01 0.  1.
         -5    1    4    4    0  502 -0.52580267530E+02  0.19458432983E+01 -0.24685862209E+03  0.25244749977E+03  0.47000000000E+01 0.  1.
          5    1    3    3  503    0 -0.17451260616E+02 -0.35304476365E+02 -0.75005430697E+02  0.84846079359E+02  0.47000000000E+01 0.  1.
         -5    1    3    3    0  503  0.32244037105E+02  0.55342393261E+02 -0.50065086363E+03  0.50475324236E+03  0.47000000000E+01 0.  1.
<mgrwt>
<rscale>  0 0.12744846E+03</rscale>
<asrwt>0</asrwt>
<pdfrwt beam="1">  1        5 0.31997900E-02 0.12746447E+03</pdfrwt>
<pdfrwt beam="2">  1       -5 0.13478285E+00 0.12746447E+03</pdfrwt>
<totfact> 0.14302555E+02</totfact>
</mgrwt>
</event>
<event>
 8    1  0.3694627E-007  0.1467024E+03  0.7546771E-02  0.1204586E+00
         -5   -1    0    0    0  501 -0.00000000000E+00  0.00000000000E+00  0.23816537261E+02  0.24275861408E+02  0.47000000000E+01 0. -1.
          5   -1    0    0  501    0  0.00000000000E+00 -0.00000000000E+00 -0.91074380822E+03  0.91075593559E+03  0.47000000000E+01 0. -1.
         25    2    1    2    0    0  0.76519565963E+02 -0.64274541672E+01 -0.38109531663E+03  0.40835673142E+03  0.12500009438E+03 0.  0.
         25    2    1    2    0    0 -0.76519565963E+02  0.64274541672E+01 -0.50583195432E+03  0.52667506557E+03  0.12499641011E+03 0.  0.
          5    1    4    4  502    0 -0.91810202257E+01  0.32141394706E+02 -0.38067642385E+03  0.38217010619E+03  0.47000000000E+01 0.  1.
         -5    1    4    4    0  502 -0.67338545737E+02 -0.25713940538E+02 -0.12515553047E+03  0.14450495939E+03  0.47000000000E+01 0.  1.
          5    1    3    3  503    0  0.75500800738E+02 -0.53462825529E+02 -0.18833869796E+03  0.20988615908E+03  0.47000000000E+01 0. -1.
         -5    1    3    3    0  503  0.10187652253E+01  0.47035371362E+02 -0.19275661867E+03  0.19847057234E+03  0.47000000000E+01 0. -1.
<mgrwt>
<rscale>  0 0.14670157E+03</rscale>
<asrwt>0</asrwt>
<pdfrwt beam="2">  1        5 0.14015067E+00 0.14670235E+03</pdfrwt>
<pdfrwt beam="1">  1       -5 0.37003489E-02 0.14670235E+03</pdfrwt>
<totfact> 0.10649004E+02</totfact>
</mgrwt>
</event>
<event>
 8    1  0.3694627E-007  0.1298015E+03  0.7546771E-02  0.1227759E+00
          5   -1    0    0  501    0  0.00000000000E+00  0.00000000000E+00  0.19510580891E+03  0.19516241101E+03  0.47000000000E+01 0.  1.
         -5   -1    0    0    0  501 -0.00000000000E+00 -0.00000000000E+00 -0.92900068385E+02  0.93018883598E+02  0.47000000000E+01 0.  1.
         25    2    1    2    0    0  0.34356353228E+02  0.65283683467E+01  0.12459336226E+02  0.13037489947E+03  0.12497760100E+03 0.  0.
         25    2    1    2    0    0 -0.34356353228E+02 -0.65283683467E+01  0.89746404299E+02  0.15780639514E+03  0.12500185063E+03 0.  0.
          5    1    3    3  502    0  0.44091161507E+02 -0.52729110473E+02  0.13135280490E+02  0.70135691398E+02  0.47000000000E+01 0.  1.
         -5    1    3    3    0  502 -0.97348082794E+01  0.59257478820E+02 -0.67594426335E+00  0.60239208071E+02  0.47000000000E+01 0.  1.
          5    1    4    4  503    0 -0.74157007252E+02 -0.72397713574E+01  0.90996285366E+02  0.11770339827E+03  0.47000000000E+01 0. -1.
         -5    1    4    4    0  503  0.39800654024E+02  0.71140301071E+00 -0.12498810673E+01  0.40102996867E+02  0.47000000000E+01 0. -1.
<mgrwt>
<rscale>  0 0.12979571E+03</rscale>
<asrwt>0</asrwt>
<pdfrwt beam="1">  1        5 0.30029771E-01 0.12980155E+03</pdfrwt>
<pdfrwt beam="2">  1       -5 0.14305812E-01 0.12980155E+03</pdfrwt>
<totfact> 0.32482681E+02</totfact>
</mgrwt>
</event>
<event>
 8    1  0.3694627E-007  0.1327244E+03  0.7546771E-02  0.1223489E+00
          5   -1    0    0  501    0  0.00000000000E+00  0.00000000000E+00  0.21644634409E+02  0.22149045097E+02  0.47000000000E+01 0.  1.
         -5   -1    0    0    0  501 -0.00000000000E+00 -0.00000000000E+00 -0.84928632651E+03  0.84929933144E+03  0.47000000000E+01 0.  1.
         25    2    1    2    0    0  0.44516030564E+02  0.32386372206E+01 -0.51472530409E+03  0.53154776934E+03  0.12493488971E+03 0.  0.
         25    2    1    2    0    0 -0.44516030564E+02 -0.32386372206E+01 -0.31291638801E+03  0.33990060720E+03  0.12499436446E+03 0.  0.
          5    1    3    3  502    0 -0.28146234657E+02  0.20679096058E+02 -0.52079520614E+02  0.62882445933E+02  0.47000000000E+01 0.  1.
         -5    1    3    3    0  502  0.72662265222E+02 -0.17440458838E+02 -0.46264578348E+03  0.46866532340E+03  0.47000000000E+01 0.  1.
          5    1    4    4  503    0 -0.12322404536E+02 -0.32991650687E+02 -0.28609949154E+03  0.28829724197E+03  0.47000000000E+01 0. -1.
         -5    1    4    4    0  503 -0.32193626029E+02  0.29753013466E+02 -0.26816896464E+02  0.51603365231E+02  0.47000000000E+01 0. -1.
<mgrwt>
<rscale>  0 0.13271036E+03</rscale>
<asrwt>0</asrwt>
<pdfrwt beam="1">  1        5 0.33697456E-02 0.13272436E+03</pdfrwt>
<pdfrwt beam="2">  1       -5 0.13069921E+00 0.13272436E+03</pdfrwt>
<totfact> 0.14447691E+02</totfact>
</mgrwt>
</event>
<event>
 8    1  0.3694627E-007  0.1669183E+03  0.7546771E-02  0.1181101E+00
         -5   -1    0    0    0  501 -0.00000000000E+00  0.00000000000E+00  0.91055611564E+02  0.91176830376E+02  0.47000000000E+01 0. -1.
          5   -1    0    0  501    0  0.00000000000E+00 -0.00000000000E+00 -0.41352411975E+03  0.41355082834E+03  0.47000000000E+01 0. -1.
         25    2    1    2    0    0  0.13353840266E+02 -0.10981005687E+03 -0.32354804657E+02  0.17002227239E+03  0.12499666430E+03 0.  0.
         25    2    1    2    0    0 -0.13353840266E+02  0.10981005687E+03 -0.29011370353E+03  0.33470538632E+03  0.12500064406E+03 0.  0.
          5    1    4    4  502    0 -0.80346899256E+01 -0.27016392720E+02 -0.67622307578E+02  0.73411907754E+02  0.47000000000E+01 0.  1.
         -5    1    4    4    0  502 -0.53191503407E+01  0.13682644959E+03 -0.22249139595E+03  0.26129347857E+03  0.47000000000E+01 0.  1.
          5    1    3    3  503    0 -0.26651394348E+02 -0.10457086052E+03 -0.57381817659E+02  0.12231158853E+03  0.47000000000E+01 0.  1.
         -5    1    3    3    0  503  0.40005234614E+02 -0.52391963441E+01  0.25027013001E+02  0.47710683862E+02  0.47000000000E+01 0.  1.
<mgrwt>
<rscale>  0 0.16691760E+03</rscale>
<asrwt>0</asrwt>
<pdfrwt beam="2">  1        5 0.63630473E-01 0.16691835E+03</pdfrwt>
<pdfrwt beam="1">  1       -5 0.14019935E-01 0.16691835E+03</pdfrwt>
<totfact> 0.76624181E+01</totfact>
</mgrwt>
</event>
<event>
 8    1  0.3694627E-007  0.1267057E+03  0.7546771E-02  0.1232430E+00
          5   -1    0    0  501    0  0.00000000000E+00  0.00000000000E+00  0.46288999184E+02  0.46526996953E+02  0.47000000000E+01 0. -1.
         -5   -1    0    0    0  501 -0.00000000000E+00 -0.00000000000E+00 -0.39206592372E+03  0.39209409399E+03  0.47000000000E+01 0. -1.
         25    2    1    2    0    0 -0.16705536600E+02  0.12192670054E+02 -0.24830261523E+03  0.27876000315E+03  0.12500085788E+03 0.  0.
         25    2    1    2    0    0  0.16705536600E+02 -0.12192670054E+02 -0.97474309312E+02  0.15986108780E+03  0.12500636088E+03 0.  0.
          5    1    3    3  502    0  0.31924411757E+02  0.36291007041E+02 -0.20045739587E+03  0.20625581887E+03  0.47000000000E+01 0. -1.
         -5    1    3    3    0  502 -0.48629948357E+02 -0.24098336987E+02 -0.47845219353E+02  0.72504184277E+02  0.47000000000E+01 0. -1.
          5    1    4    4  503    0  0.13639033675E+02 -0.44814867841E+02  0.93732519124E+01  0.48003577686E+02  0.47000000000E+01 0.  1.
         -5    1    4    4    0  503  0.30665029249E+01  0.32622197787E+02 -0.10684756122E+03  0.11185751011E+03  0.47000000000E+01 0.  1.
<mgrwt>
<rscale>  0 0.12670431E+03</rscale>
<asrwt>0</asrwt>
<pdfrwt beam="1">  1        5 0.71418592E-02 0.12670567E+03</pdfrwt>
<pdfrwt beam="2">  1       -5 0.60338307E-01 0.12670567E+03</pdfrwt>
<totfact> 0.25617176E+02</totfact>
</mgrwt>
</event>
<event>
 8    1  0.3694627E-007  0.1832708E+03  0.7546771E-02  0.1164677E+00
          5   -1    0    0  501    0  0.00000000000E+00  0.00000000000E+00  0.35991128532E+03  0.35994197213E+03  0.47000000000E+01 0.  1.
         -5   -1    0    0    0  501 -0.00000000000E+00 -0.00000000000E+00 -0.21521885583E+03  0.21527016957E+03  0.47000000000E+01 0.  1.
         25    2    1    2    0    0  0.13248736244E+03 -0.20267242088E+02 -0.14413078494E+03  0.23314921374E+03  0.12498484065E+03 0.  0.
         25    2    1    2    0    0 -0.13248736244E+03  0.20267242088E+02  0.28882321443E+03  0.34206292796E+03  0.12499814071E+03 0.  0.
          5    1    4    4  502    0 -0.37834930934E+02  0.54102632176E+02  0.18928038410E+03  0.20051865403E+03  0.47000000000E+01 0. -1.
         -5    1    4    4    0  502 -0.94652431511E+02 -0.33835390088E+02  0.99542830324E+02  0.14154427393E+03  0.47000000000E+01 0. -1.
          5    1    3    3  503    0  0.69079839450E+02  0.37716436888E+02 -0.18690178445E+02  0.81030652227E+02  0.47000000000E+01 0.  1.
         -5    1    3    3    0  503  0.63407522994E+02 -0.57983678976E+02 -0.12544060649E+03  0.15211856151E+03  0.47000000000E+01 0.  1.
<mgrwt>
<rscale>  0 0.18326856E+03</rscale>
<asrwt>0</asrwt>
<pdfrwt beam="1">  1        5 0.55377274E-01 0.18327083E+03</pdfrwt>
<pdfrwt beam="2">  1       -5 0.33116901E-01 0.18327083E+03</pdfrwt>
<totfact> 0.20933103E+01</totfact>
</mgrwt>
</event>
<event>
 8    1  0.3694627E-007  0.1347566E+03  0.7546771E-02  0.1220590E+00
          5   -1    0    0  501    0  0.00000000000E+00  0.00000000000E+00  0.28132482002E+03  0.28136407795E+03  0.47000000000E+01 0. -1.
         -5   -1    0    0    0  501 -0.00000000000E+00 -0.00000000000E+00 -0.68328557364E+02  0.68490012056E+02  0.47000000000E+01 0. -1.
         25    2    1    2    0    0 -0.20114685732E+02  0.45940221478E+02  0.64505608380E+02  0.14933275003E+03  0.12499676871E+03 0.  0.
         25    2    1    2    0    0  0.20114685732E+02 -0.45940221478E+02  0.14849065428E+03  0.20052133998E+03  0.12507689174E+03 0.  0.
          5    1    3    3  502    0  0.92549367263E+01  0.84587787841E+02  0.48215509306E+02  0.97916153127E+02  0.47000000000E+01 0. -1.
         -5    1    3    3    0  502 -0.29369622458E+02 -0.38647566362E+02  0.16290099074E+02  0.51416596901E+02  0.47000000000E+01 0. -1.
          5    1    4    4  503    0  0.48062084679E+02 -0.74444548804E+01  0.14451738078E+03  0.15255407972E+03  0.47000000000E+01 0. -1.
         -5    1    4    4    0  503 -0.27947398947E+02 -0.38495766598E+02  0.39732734940E+01  0.47967260253E+02  0.47000000000E+01 0. -1.
<mgrwt>
<rscale>  0 0.13473798E+03</rscale>
<asrwt>0</asrwt>
<pdfrwt beam="1">  1        5 0.43296182E-01 0.13475657E+03</pdfrwt>
<pdfrwt beam="2">  1       -5 0.10527525E-01 0.13475657E+03</pdfrwt>
<totfact> 0.27164204E+02</totfact>
</mgrwt>
</event>
<event>
 8    1  0.3694627E-007  0.1852614E+03  0.7546771E-02  0.1162807E+00
          5   -1    0    0  501    0  0.00000000000E+00  0.00000000000E+00  0.56851408532E+02  0.57045356096E+02  0.47000000000E+01 0.  1.
         -5   -1    0    0    0  501 -0.00000000000E+00 -0.00000000000E+00 -0.60376685319E+03  0.60378514640E+03  0.47000000000E+01 0.  1.
         25    2    1    2    0    0  0.81657491147E+02  0.10966969544E+03 -0.28882151423E+03  0.34312897514E+03  0.12499695412E+03 0.  0.
         25    2    1    2    0    0 -0.81657491147E+02 -0.10966969544E+03 -0.25809393043E+03  0.31770152735E+03  0.12500558229E+03 0.  0.
          5    1    3    3  502    0  0.16437374142E+02  0.31554039122E+01  0.94090085152E+01  0.19767733400E+02  0.47000000000E+01 0.  1.
         -5    1    3    3    0  502  0.65220117004E+02  0.10651429152E+03 -0.29823052275E+03  0.32336124174E+03  0.47000000000E+01 0.  1.
          5    1    4    4  503    0 -0.36863346469E+02 -0.12977033431E+03 -0.17414200047E+03  0.22033332092E+03  0.47000000000E+01 0. -1.
         -5    1    4    4    0  503 -0.44794144677E+02  0.20100638876E+02 -0.83951929956E+02  0.97368206433E+02  0.47000000000E+01 0. -1.
<mgrwt>
<rscale>  0 0.18525994E+03</rscale>
<asrwt>0</asrwt>
<pdfrwt beam="1">  1        5 0.87626972E-02 0.18526139E+03</pdfrwt>
<pdfrwt beam="2">  1       -5 0.92903530E-01 0.18526139E+03</pdfrwt>
<totfact> 0.75649810E+01</totfact>
</mgrwt>
</event>
<event>
 8    1  0.3694627E-007  0.1287595E+03  0.7546771E-02  0.1229309E+00
          5   -1    0    0  501    0  0.00000000000E+00  0.00000000000E+00  0.30910351242E+02  0.31265633113E+02  0.47000000000E+01 0.  1.
         -5   -1    0    0    0  501 -0.00000000000E+00 -0.00000000000E+00 -0.78474754753E+03  0.78476162200E+03  0.47000000000E+01 0.  1.
         25    2    1    2    0    0 -0.30727006178E+02 -0.30689399473E+01 -0.60799878084E+03  0.62148331782E+03  0.12500171810E+03 0.  0.
         25    2    1    2    0    0  0.30727006178E+02  0.30689399473E+01 -0.14583841545E+03  0.19454393729E+03  0.12499973125E+03 0.  0.
          5    1    4    4  502    0  0.29845313480E+02 -0.20834173031E+02  0.90088922630E+01  0.37789623475E+02  0.47000000000E+01 0. -1.
         -5    1    4    4    0  502  0.88169269793E+00  0.23903112978E+02 -0.15484730771E+03  0.15675431381E+03  0.47000000000E+01 0. -1.
          5    1    3    3  503    0 -0.39125235691E+02 -0.59085166981E+02 -0.37374327712E+03  0.38043129237E+03  0.47000000000E+01 0. -1.
         -5    1    3    3    0  503  0.83982295139E+01  0.56016227034E+02 -0.23425550372E+03  0.24105202545E+03  0.47000000000E+01 0. -1.
<mgrwt>
<rscale>  0 0.12875897E+03</rscale>
<asrwt>0</asrwt>
<pdfrwt beam="1">  1        5 0.47838513E-02 0.12875945E+03</pdfrwt>
<pdfrwt beam="2">  1       -5 0.12075879E+00 0.12875945E+03</pdfrwt>
<totfact> 0.98756959E+01</totfact>
</mgrwt>
</event>
<event>
 8    1  0.3694627E-007  0.1264946E+03  0.7546771E-02  0.1232752E+00
          5   -1    0    0  501    0  0.00000000000E+00  0.00000000000E+00  0.69741468961E+03  0.69743052649E+03  0.47000000000E+01 0.  1.
         -5   -1    0    0    0  501 -0.00000000000E+00 -0.00000000000E+00 -0.29713790272E+02  0.30083206816E+02  0.47000000000E+01 0.  1.
         25    2    1    2    0    0 -0.12033160435E+02  0.15175495721E+02  0.15824585701E+03  0.20258984465E+03  0.12500320507E+03 0.  0.
         25    2    1    2    0    0  0.12033160435E+02 -0.15175495721E+02  0.50945504233E+03  0.52492388865E+03  0.12500222439E+03 0.  0.
          5    1    4    4  502    0  0.40560690348E+02 -0.41440868773E+02  0.11838174220E+03  0.13190467047E+03  0.47000000000E+01 0. -1.
         -5    1    4    4    0  502 -0.28527529913E+02  0.26265373051E+02  0.39107330013E+03  0.39301921818E+03  0.47000000000E+01 0. -1.
          5    1    3    3  503    0  0.26889636477E+02 -0.45406194979E+02  0.52644472837E+02  0.74688055354E+02  0.47000000000E+01 0. -1.
         -5    1    3    3    0  503 -0.38922796912E+02  0.60581690700E+02  0.10560138417E+03  0.12790178930E+03  0.47000000000E+01 0. -1.
<mgrwt>
<rscale>  0 0.12649440E+03</rscale>
<asrwt>0</asrwt>
<pdfrwt beam="1">  1        5 0.10732420E+00 0.12649464E+03</pdfrwt>
<pdfrwt beam="2">  1       -5 0.46009875E-02 0.12649464E+03</pdfrwt>
<totfact> 0.14063795E+02</totfact>
</mgrwt>
</event>
<event>
 8    1  0.3694627E-007  0.1252954E+03  0.7546771E-02  0.1234615E+00
          5   -1    0    0  501    0  0.00000000000E+00  0.00000000000E+00  0.10736590351E+03  0.10746872679E+03  0.47000000000E+01 0.  1.
         -5   -1    0    0    0  501 -0.00000000000E+00 -0.00000000000E+00 -0.14857712915E+03  0.14865144906E+03  0.47000000000E+01 0.  1.
         25    2    1    2    0    0  0.67006897939E+01 -0.50623912988E+01 -0.37497909000E+02  0.13078616451E+03  0.12501360166E+03 0.  0.
         25    2    1    2    0    0 -0.67006897939E+01  0.50623912988E+01 -0.37133166353E+01  0.12533401133E+03  0.12499719448E+03 0.  0.
          5    1    4    4  502    0  0.10791478748E+02 -0.53351892109E+02 -0.25655849077E+02  0.60358868421E+02  0.47000000000E+01 0. -1.
         -5    1    4    4    0  502 -0.17492168541E+02  0.58414283408E+02  0.21942532441E+02  0.64975142911E+02  0.47000000000E+01 0. -1.
          5    1    3    3  503    0  0.16588120853E+02  0.24114206269E+02  0.38533231941E+02  0.48616464919E+02  0.47000000000E+01 0.  1.
         -5    1    3    3    0  503 -0.98874310590E+01 -0.29176597568E+02 -0.76031140941E+02  0.82169699594E+02  0.47000000000E+01 0.  1.
<mgrwt>
<rscale>  0 0.12529127E+03</rscale>
<asrwt>0</asrwt>
<pdfrwt beam="1">  1        5 0.16531458E-01 0.12529536E+03</pdfrwt>
<pdfrwt beam="2">  1       -5 0.22871646E-01 0.12529536E+03</pdfrwt>
<totfact> 0.41672356E+02</totfact>
</mgrwt>
</event>
<event>
 8    1  0.3694627E-007  0.1302476E+03  0.7546771E-02  0.1227091E+00
          5   -1    0    0  501    0  0.00000000000E+00  0.00000000000E+00  0.22051782286E+03  0.22056790383E+03  0.47000000000E+01 0.  1.
         -5   -1    0    0    0  501 -0.00000000000E+00 -0.00000000000E+00 -0.82708316567E+02  0.82841750521E+02  0.47000000000E+01 0.  1.
         25    2    1    2    0    0  0.31842715167E+02  0.18003529670E+02  0.28391022151E+02  0.13330597227E+03  0.12500538594E+03 0.  0.
         25    2    1    2    0    0 -0.31842715167E+02 -0.18003529670E+02  0.10941848414E+03  0.17010368208E+03  0.12499908958E+03 0.  0.
          5    1    3    3  502    0 -0.15658241438E+02  0.54008018753E+02  0.43951189730E+02  0.71525126308E+02  0.47000000000E+01 0.  1.
         -5    1    3    3    0  502  0.47500956605E+02 -0.36004489083E+02 -0.15560167579E+02  0.61780845961E+02  0.47000000000E+01 0.  1.
          5    1    4    4  503    0 -0.20477630047E+02  0.51701506452E+02  0.28727353690E+02  0.62767268156E+02  0.47000000000E+01 0. -1.
         -5    1    4    4    0  503 -0.11365085119E+02 -0.69705036122E+02  0.80691130453E+02  0.10733641393E+03  0.47000000000E+01 0. -1.
<mgrwt>
<rscale>  0 0.13024607E+03</rscale>
<asrwt>0</asrwt>
<pdfrwt beam="1">  1        5 0.33939936E-01 0.13024758E+03</pdfrwt>
<pdfrwt beam="2">  1       -5 0.12738473E-01 0.13024758E+03</pdfrwt>
<totfact> 0.31428237E+02</totfact>
</mgrwt>
</event>
<event>
 8    1  0.3694627E-007  0.1561310E+03  0.7546771E-02  0.1193143E+00
          5   -1    0    0  501    0  0.00000000000E+00  0.00000000000E+00  0.12850476434E+03  0.12859068574E+03  0.47000000000E+01 0.  1.
         -5   -1    0    0    0  501 -0.00000000000E+00 -0.00000000000E+00 -0.19486836228E+03  0.19492503333E+03  0.47000000000E+01 0.  1.
         25    2    1    2    0    0 -0.86851326219E+02 -0.34762622533E+02 -0.60055900115E+02  0.16725733806E+03  0.12496684842E+03 0.  0.
         25    2    1    2    0    0  0.86851326219E+02  0.34762622533E+02 -0.63076978238E+01  0.15625838102E+03  0.12500120717E+03 0.  0.
          5    1    3    3  502    0 -0.44367842152E+02 -0.58578679494E+02 -0.84898189882E+02  0.11238220390E+03  0.47000000000E+01 0.  1.
         -5    1    3    3    0  502 -0.42483484067E+02  0.23816056961E+02  0.24842289767E+02  0.54875134155E+02  0.47000000000E+01 0.  1.
          5    1    4    4  503    0  0.10869311284E+03  0.48863956743E+02  0.17687174644E+02  0.12056867418E+03  0.47000000000E+01 0. -1.
         -5    1    4    4    0  503 -0.21841786619E+02 -0.14101334210E+02 -0.23994872468E+02  0.35689706835E+02  0.47000000000E+01 0. -1.
<mgrwt>
<rscale>  0 0.15612414E+03</rscale>
<asrwt>0</asrwt>
<pdfrwt beam="1">  1        5 0.19780932E-01 0.15613102E+03</pdfrwt>
<pdfrwt beam="2">  1       -5 0.29990717E-01 0.15613102E+03</pdfrwt>
<totfact> 0.19142276E+02</totfact>
</mgrwt>
</event>
<event>
 8    1  0.3694627E-007  0.1289512E+03  0.7546771E-02  0.1229021E+00
         -5   -1    0    0    0  501 -0.00000000000E+00  0.00000000000E+00  0.39003222618E+03  0.39006054333E+03  0.47000000000E+01 0. -1.
          5   -1    0    0  501    0  0.00000000000E+00 -0.00000000000E+00 -0.58962411193E+02  0.59149437307E+02  0.47000000000E+01 0. -1.
         25    2    1    2    0    0 -0.24351588615E+02 -0.20263094397E+02  0.28406143889E+03  0.31196043375E+03  0.12499927320E+03 0.  0.
         25    2    1    2    0    0  0.24351588615E+02  0.20263094397E+02  0.47008376098E+02  0.13724954688E+03  0.12499623127E+03 0.  0.
          5    1    3    3  502    0 -0.36951409409E+02 -0.63632126168E+02  0.22907910994E+03  0.24065282618E+03  0.47000000000E+01 0.  1.
         -5    1    3    3    0  502  0.12599820794E+02  0.43369031772E+02  0.54982328955E+02  0.71307607576E+02  0.47000000000E+01 0.  1.
          5    1    4    4  503    0  0.23579195149E+02 -0.41126205896E+02  0.57625413380E+02  0.74767115248E+02  0.47000000000E+01 0. -1.
         -5    1    4    4    0  503  0.77239346611E+00  0.61389300292E+02 -0.10617037283E+02  0.62482431632E+02  0.47000000000E+01 0. -1.
<mgrwt>
<rscale>  0 0.12895046E+03</rscale>
<asrwt>0</asrwt>
<pdfrwt beam="2">  1        5 0.90877052E-02 0.12895120E+03</pdfrwt>
<pdfrwt beam="1">  1       -5 0.60021522E-01 0.12895120E+03</pdfrwt>
<totfact> 0.17256747E+02</totfact>
</mgrwt>
</event>
<event>
 8    1  0.3694627E-007  0.1293485E+03  0.7546771E-02  0.1228429E+00
         -5   -1    0    0    0  501 -0.00000000000E+00  0.00000000000E+00  0.22180881404E+02  0.22673365429E+02  0.47000000000E+01 0. -1.
          5   -1    0    0  501    0  0.00000000000E+00 -0.00000000000E+00 -0.74653200202E+03  0.74654679695E+03  0.47000000000E+01 0. -1.
         25    2    1    2    0    0 -0.28712661818E+02 -0.16704409026E+02 -0.34767517124E+03  0.37095695691E+03  0.12501033939E+03 0.  0.
         25    2    1    2    0    0  0.28712661818E+02  0.16704409026E+02 -0.37667594938E+03  0.39826320547E+03  0.12500142305E+03 0.  0.
          5    1    4    4  502    0 -0.49522034788E+02  0.91560564328E+01 -0.15087062445E+03  0.15912353887E+03  0.47000000000E+01 0. -1.
         -5    1    4    4    0  502  0.78234696605E+02  0.75483525930E+01 -0.22580532492E+03  0.23913966660E+03  0.47000000000E+01 0. -1.
          5    1    3    3  503    0 -0.66796236618E+02  0.11909153473E+02 -0.11668484323E+03  0.13505927514E+03  0.47000000000E+01 0.  1.
         -5    1    3    3    0  503  0.38083574800E+02 -0.28613562498E+02 -0.23099032801E+03  0.23589768177E+03  0.47000000000E+01 0.  1.
<mgrwt>
<rscale>  0 0.12934636E+03</rscale>
<asrwt>0</asrwt>
<pdfrwt beam="2">  1        5 0.11489008E+00 0.12934852E+03</pdfrwt>
<pdfrwt beam="1">  1       -5 0.34514653E-02 0.12934852E+03</pdfrwt>
<totfact> 0.19155261E+02</totfact>
</mgrwt>
</event>
<event>
 8    1  0.3694627E-007  0.1967228E+03  0.7546771E-02  0.1152535E+00
          5   -1    0    0  501    0  0.00000000000E+00  0.00000000000E+00  0.44006671903E+03  0.44009181679E+03  0.47000000000E+01 0. -1.
         -5   -1    0    0    0  501 -0.00000000000E+00 -0.00000000000E+00 -0.10838954978E+03  0.10849140290E+03  0.47000000000E+01 0. -1.
         25    2    1    2    0    0  0.52950829336E+02  0.14237519436E+03  0.46506980422E+02  0.20214541014E+03  0.12500152526E+03 0.  0.
         25    2    1    2    0    0 -0.52950829336E+02 -0.14237519436E+03  0.28517018883E+03  0.34643780954E+03  0.12499053159E+03 0.  0.
          5    1    4    4  502    0 -0.79132100206E+02 -0.40552034391E+02  0.10391815484E+03  0.13684819941E+03  0.47000000000E+01 0.  1.
         -5    1    4    4    0  502  0.26181270870E+02 -0.10182315997E+03  0.18125203399E+03  0.20958961013E+03  0.47000000000E+01 0.  1.
          5    1    3    3  503    0  0.28040832541E+02  0.11837895259E+03  0.86286647530E+02  0.14922245222E+03  0.47000000000E+01 0.  1.
         -5    1    3    3    0  503  0.24909996795E+02  0.23996241768E+02 -0.39779667107E+02  0.52922957915E+02  0.47000000000E+01 0.  1.
<mgrwt>
<rscale>  0 0.19672107E+03</rscale>
<asrwt>0</asrwt>
<pdfrwt beam="1">  1        5 0.67712337E-01 0.19672282E+03</pdfrwt>
<pdfrwt beam="2">  1       -5 0.16685081E-01 0.19672282E+03</pdfrwt>
<totfact> 0.50828367E+01</totfact>
</mgrwt>
</event>
<event>
 8    1  0.3694627E-007  0.1342102E+03  0.7546771E-02  0.1221352E+00
         -5   -1    0    0    0  501 -0.00000000000E+00  0.00000000000E+00  0.63588878289E+02  0.63762335607E+02  0.47000000000E+01 0. -1.
          5   -1    0    0  501    0  0.00000000000E+00 -0.00000000000E+00 -0.28872780204E+03  0.28876605353E+03  0.47000000000E+01 0. -1.
         25    2    1    2    0    0  0.43903021813E+02 -0.21277570290E+02 -0.86926662149E+02  0.15990195408E+03  0.12502871672E+03 0.  0.
         25    2    1    2    0    0 -0.43903021813E+02  0.21277570290E+02 -0.13821226160E+03  0.19262643505E+03  0.12498841508E+03 0.  0.
          5    1    4    4  502    0  0.43905433324E+02  0.11735237761E+02 -0.45055667859E+02  0.64167796339E+02  0.47000000000E+01 0. -1.
         -5    1    4    4    0  502 -0.87808455137E+02  0.95423325283E+01 -0.93156593738E+02  0.12845863871E+03  0.47000000000E+01 0. -1.
          5    1    3    3  503    0  0.36301029228E+02 -0.68863307997E+02 -0.78689828267E+02  0.11078853273E+03  0.47000000000E+01 0.  1.
         -5    1    3    3    0  503  0.76019925850E+01  0.47585737707E+02 -0.82368338817E+01  0.49113421351E+02  0.47000000000E+01 0.  1.
<mgrwt>
<rscale>  0 0.13420086E+03</rscale>
<asrwt>0</asrwt>
<pdfrwt beam="2">  1        5 0.44435946E-01 0.13421025E+03</pdfrwt>
<pdfrwt beam="1">  1       -5 0.97991898E-02 0.13421025E+03</pdfrwt>
<totfact> 0.29132233E+02</totfact>
</mgrwt>
</event>
<event>
 8    1  0.3694627E-007  0.1480556E+03  0.7546771E-02  0.1202890E+00
         -5   -1    0    0    0  501 -0.00000000000E+00  0.00000000000E+00  0.39311052756E+02  0.39591020052E+02  0.47000000000E+01 0. -1.
          5   -1    0    0  501    0  0.00000000000E+00 -0.00000000000E+00 -0.69421752805E+03  0.69423343787E+03  0.47000000000E+01 0. -1.
         25    2    1    2    0    0  0.76387604445E+02  0.21446950226E+02 -0.16331561591E+03  0.22042203627E+03  0.12497538111E+03 0.  0.
         25    2    1    2    0    0 -0.76387604445E+02 -0.21446950226E+02 -0.49159085939E+03  0.51340242166E+03  0.12500174296E+03 0.  0.
          5    1    4    4  502    0  0.22474721813E+01  0.42887290575E+02 -0.10238297640E+03  0.11112486077E+03  0.47000000000E+01 0.  1.
         -5    1    4    4    0  502 -0.78635076626E+02 -0.64334240801E+02 -0.38920788298E+03  0.40227756088E+03  0.47000000000E+01 0.  1.
          5    1    3    3  503    0  0.32924254521E+02 -0.36120367509E+02 -0.13347550107E+03  0.14221985400E+03  0.47000000000E+01 0.  1.
         -5    1    3    3    0  503  0.43463349923E+02  0.57567317736E+02 -0.29840114838E+02  0.78202182267E+02  0.47000000000E+01 0.  1.
<mgrwt>
<rscale>  0 0.14805008E+03</rscale>
<asrwt>0</asrwt>
<pdfrwt beam="2">  1        5 0.10682545E+00 0.14805564E+03</pdfrwt>
<pdfrwt beam="1">  1       -5 0.60706146E-02 0.14805564E+03</pdfrwt>
<totfact> 0.94319772E+01</totfact>
</mgrwt>
</event>
<event>
 8    1  0.3694627E-007  0.1396367E+03  0.7546771E-02  0.1213820E+00
          5   -1    0    0  501    0  0.00000000000E+00  0.00000000000E+00  0.12671583146E+03  0.12680296503E+03  0.47000000000E+01 0. -1.
         -5   -1    0    0    0  501 -0.00000000000E+00 -0.00000000000E+00 -0.15726632582E+03  0.15733654133E+03  0.47000000000E+01 0. -1.
         25    2    1    2    0    0 -0.62223714665E+02 -0.95906908315E+00 -0.36673738663E+02  0.14437237524E+03  0.12500283654E+03 0.  0.
         25    2    1    2    0    0  0.62223714665E+02  0.95906908315E+00  0.61232443015E+01  0.13976713112E+03  0.12499858536E+03 0.  0.
          5    1    4    4  502    0  0.20049607559E+02 -0.40960053995E+02 -0.42726124816E+02  0.62668369441E+02  0.47000000000E+01 0.  1.
         -5    1    4    4    0  502  0.42174107106E+02  0.41919123079E+02  0.48849369118E+02  0.77098761683E+02  0.47000000000E+01 0.  1.
          5    1    3    3  503    0 -0.13925825335E+02 -0.37596781579E+02 -0.65610442388E+02  0.77034192062E+02  0.47000000000E+01 0. -1.
         -5    1    3    3    0  503 -0.48297889330E+02  0.36637712495E+02  0.28936703724E+02  0.67338183173E+02  0.47000000000E+01 0. -1.
<mgrwt>
<rscale>  0 0.13963579E+03</rscale>
<asrwt>0</asrwt>
<pdfrwt beam="1">  1        5 0.19506847E-01 0.13963674E+03</pdfrwt>
<pdfrwt beam="2">  1       -5 0.24206923E-01 0.13963674E+03</pdfrwt>
<totfact> 0.28666578E+02</totfact>
</mgrwt>
</event>
<event>
 8    1  0.3694627E-007  0.1316463E+03  0.7546771E-02  0.1225034E+00
         -5   -1    0    0    0  501 -0.00000000000E+00  0.00000000000E+00  0.25893097185E+03  0.25897362450E+03  0.47000000000E+01 0. -1.
          5   -1    0    0  501    0  0.00000000000E+00 -0.00000000000E+00 -0.70851460093E+02  0.71007178492E+02  0.47000000000E+01 0. -1.
         25    2    1    2    0    0  0.40735273121E+02 -0.69066441971E+01  0.13343733284E+03  0.18744474671E+03  0.12499178798E+03 0.  0.
         25    2    1    2    0    0 -0.40735273121E+02  0.69066441971E+01  0.54642178919E+02  0.14253605628E+03  0.12499478154E+03 0.  0.
          5    1    3    3  502    0 -0.10948530376E+02  0.42248052897E+02  0.98593578173E+02  0.10792382475E+03  0.47000000000E+01 0. -1.
         -5    1    3    3    0  502  0.51683803497E+02 -0.49154697094E+02  0.34843754669E+02  0.79520921962E+02  0.47000000000E+01 0. -1.
          5    1    4    4  503    0 -0.17936217966E+01  0.62722541777E+02  0.20010422447E+02  0.66029094592E+02  0.47000000000E+01 0.  1.
         -5    1    4    4    0  503 -0.38941651324E+02 -0.55815897580E+02  0.34631756472E+02  0.76506961689E+02  0.47000000000E+01 0.  1.
<mgrwt>
<rscale>  0 0.13164563E+03</rscale>
<asrwt>0</asrwt>
<pdfrwt beam="2">  1        5 0.10915484E-01 0.13164634E+03</pdfrwt>
<pdfrwt beam="1">  1       -5 0.39850794E-01 0.13164634E+03</pdfrwt>
<totfact> 0.29986949E+02</totfact>
</mgrwt>
</event>
<event>
 8    1  0.3694627E-007  0.1369859E+03  0.7546771E-02  0.1217448E+00
          5   -1    0    0  501    0  0.00000000000E+00  0.00000000000E+00  0.35423803074E+03  0.35426920897E+03  0.47000000000E+01 0.  1.
         -5   -1    0    0    0  501 -0.00000000000E+00 -0.00000000000E+00 -0.61422794225E+02  0.61602351013E+02  0.47000000000E+01 0.  1.
         25    2    1    2    0    0 -0.17012739941E+02  0.53392995125E+02  0.68769546859E+02  0.15326611342E+03  0.12498402178E+03 0.  0.
         25    2    1    2    0    0  0.17012739941E+02 -0.53392995125E+02  0.22404568966E+03  0.26260544656E+03  0.12499961704E+03 0.  0.
          5    1    4    4  502    0 -0.51163140350E+02 -0.34652908936E+02  0.13699254923E+03  0.15035803794E+03  0.47000000000E+01 0. -1.
         -5    1    4    4    0  502  0.68175880292E+02 -0.18740086189E+02  0.87053140430E+02  0.11224740862E+03  0.47000000000E+01 0. -1.
          5    1    3    3  503    0  0.40761441389E+02  0.32830952420E+02 -0.98321420056E+01  0.53461458616E+02  0.47000000000E+01 0.  1.
         -5    1    3    3    0  503 -0.57774181331E+02  0.20562042705E+02  0.78601688864E+02  0.99804654806E+02  0.47000000000E+01 0.  1.
<mgrwt>
<rscale>  0 0.13698239E+03</rscale>
<asrwt>0</asrwt>
<pdfrwt beam="1">  1        5 0.54514371E-01 0.13698595E+03</pdfrwt>
<pdfrwt beam="2">  1       -5 0.94658707E-02 0.13698595E+03</pdfrwt>
<totfact> 0.20224670E+02</totfact>
</mgrwt>
</event>
<event>
 8    1  0.3694627E-007  0.1775524E+03  0.7546771E-02  0.1170194E+00
         -5   -1    0    0    0  501 -0.00000000000E+00  0.00000000000E+00  0.59288159752E+03  0.59290022657E+03  0.47000000000E+01 0. -1.
          5   -1    0    0  501    0  0.00000000000E+00 -0.00000000000E+00 -0.53152158936E+02  0.53359553967E+02  0.47000000000E+01 0. -1.
         25    2    1    2    0    0 -0.36850876290E+02  0.12058979147E+03  0.25556679602E+03  0.31119004389E+03  0.12499988519E+03 0.  0.
         25    2    1    2    0    0  0.36850876290E+02 -0.12058979147E+03  0.28416264256E+03  0.33506973665E+03  0.12499374426E+03 0.  0.
          5    1    4    4  502    0 -0.65908761096E+01 -0.13116070176E+03  0.22766252388E+03  0.26286666604E+03  0.47000000000E+01 0. -1.
         -5    1    4    4    0  502  0.43441752399E+02  0.10570910287E+02  0.56500118677E+02  0.72203070616E+02  0.47000000000E+01 0. -1.
          5    1    3    3  503    0 -0.11126891402E+02  0.14209683812E+03  0.19199585723E+03  0.23916483502E+03  0.47000000000E+01 0.  1.
         -5    1    3    3    0  503 -0.25723984888E+02 -0.21507046650E+02  0.63570938790E+02  0.72025208870E+02  0.47000000000E+01 0.  1.
<mgrwt>
<rscale>  0 0.17755132E+03</rscale>
<asrwt>0</asrwt>
<pdfrwt beam="2">  1        5 0.81946421E-02 0.17755240E+03</pdfrwt>
<pdfrwt beam="1">  1       -5 0.91229935E-01 0.17755240E+03</pdfrwt>
<totfact> 0.87677626E+01</totfact>
</mgrwt>
</event>
<event>
 8    1  0.3694627E-007  0.1626239E+03  0.7546771E-02  0.1185766E+00
          5   -1    0    0  501    0  0.00000000000E+00  0.00000000000E+00  0.86455511676E+02  0.86583170993E+02  0.47000000000E+01 0. -1.
         -5   -1    0    0    0  501 -0.00000000000E+00 -0.00000000000E+00 -0.40122791095E+03  0.40125543800E+03  0.47000000000E+01 0. -1.
         25    2    1    2    0    0  0.44147003006E+02  0.94188850729E+02 -0.27648965080E+03  0.32076941117E+03  0.12500396261E+03 0.  0.
         25    2    1    2    0    0 -0.44147003006E+02 -0.94188850729E+02 -0.38282748472E+02  0.16706919782E+03  0.12500420215E+03 0.  0.
          5    1    3    3  502    0  0.71859391277E+01 -0.29595127965E+02 -0.78322410259E+02  0.84166497309E+02  0.47000000000E+01 0. -1.
         -5    1    3    3    0  502  0.36961063878E+02  0.12378397869E+03 -0.19816724054E+03  0.23660291386E+03  0.47000000000E+01 0. -1.
          5    1    4    4  503    0 -0.33843024949E+02 -0.10423164345E+02  0.38751694666E+02  0.52704615852E+02  0.47000000000E+01 0. -1.
         -5    1    4    4    0  503 -0.10303978057E+02 -0.83765686385E+02 -0.77034443139E+02  0.11436458197E+03  0.47000000000E+01 0. -1.
<mgrwt>
<rscale>  0 0.16262390E+03</rscale>
<asrwt>0</asrwt>
<pdfrwt beam="1">  1        5 0.13312786E-01 0.16262395E+03</pdfrwt>
<pdfrwt beam="2">  1       -5 0.61739307E-01 0.16262395E+03</pdfrwt>
<totfact> 0.89236632E+01</totfact>
</mgrwt>
</event>
<event>
 8    1  0.3694627E-007  0.1356242E+03  0.7546771E-02  0.1219343E+00
         -5   -1    0    0    0  501 -0.00000000000E+00  0.00000000000E+00  0.25588989185E+03  0.25593305131E+03  0.47000000000E+01 0. -1.
          5   -1    0    0  501    0  0.00000000000E+00 -0.00000000000E+00 -0.71754836567E+02  0.71908598726E+02  0.47000000000E+01 0. -1.
         25    2    1    2    0    0 -0.24595210076E+02 -0.46505142089E+02  0.92935504810E+02  0.16440576628E+03  0.12499838132E+03 0.  0.
         25    2    1    2    0    0  0.24595210076E+02  0.46505142089E+02  0.91199550477E+02  0.16343588375E+03  0.12500510986E+03 0.  0.
          5    1    3    3  502    0 -0.65797152337E+02 -0.62258437032E+02  0.69246356361E+02  0.11411628327E+03  0.47000000000E+01 0.  1.
         -5    1    3    3    0  502  0.41201942261E+02  0.15753294943E+02  0.23689148449E+02  0.50289483015E+02  0.47000000000E+01 0.  1.
          5    1    4    4  503    0  0.24425718711E+02  0.41056875561E+02  0.12236814289E+03  0.13144708121E+03  0.47000000000E+01 0.  1.
         -5    1    4    4    0  503  0.16949136542E+00  0.54482665278E+01 -0.31168592409E+02  0.31988802545E+02  0.47000000000E+01 0.  1.
<mgrwt>
<rscale>  0 0.13562267E+03</rscale>
<asrwt>0</asrwt>
<pdfrwt beam="2">  1        5 0.11054353E-01 0.13562422E+03</pdfrwt>
<pdfrwt beam="1">  1       -5 0.39382824E-01 0.13562422E+03</pdfrwt>
<totfact> 0.30356727E+02</totfact>
</mgrwt>
</event>
<event>
 8    1  0.3694627E-007  0.1361889E+03  0.7546771E-02  0.1218556E+00
          5   -1    0    0  501    0  0.00000000000E+00  0.00000000000E+00  0.99124741606E+03  0.99125855852E+03  0.47000000000E+01 0.  1.
         -5   -1    0    0    0  501 -0.00000000000E+00 -0.00000000000E+00 -0.19120907608E+02  0.19690076377E+02  0.47000000000E+01 0.  1.
         25    2    1    2    0    0 -0.30185996023E+01 -0.53931474573E+02  0.38960829501E+03  0.41272515479E+03  0.12501885443E+03 0.  0.
         25    2    1    2    0    0  0.30185996023E+01  0.53931474573E+02  0.58251821343E+03  0.59822348010E+03  0.12500458900E+03 0.  0.
          5    1    3    3  502    0 -0.94660868204E+01  0.10566496890E+02 -0.25996337010E+01  0.15169237014E+02  0.47000000000E+01 0.  1.
         -5    1    3    3    0  502  0.64474872181E+01 -0.64497971462E+02  0.39220792871E+03  0.39755591778E+03  0.47000000000E+01 0.  1.
          5    1    4    4  503    0 -0.54809381651E+02  0.23327678981E+02  0.39653453975E+03  0.40101119703E+03  0.47000000000E+01 0.  1.
         -5    1    4    4    0  503  0.57827981253E+02  0.30603795592E+02  0.18598367368E+03  0.19721228308E+03  0.47000000000E+01 0.  1.
<mgrwt>
<rscale>  0 0.13618568E+03</rscale>
<asrwt>0</asrwt>
<pdfrwt beam="1">  1        5 0.15254428E+00 0.13618895E+03</pdfrwt>
<pdfrwt beam="2">  1       -5 0.29863167E-02 0.13618895E+03</pdfrwt>
<totfact> 0.11719884E+02</totfact>
</mgrwt>
</event>
<event>
 8    1  0.3694627E-007  0.1408379E+03  0.7546771E-02  0.1212208E+00
         -5   -1    0    0    0  501 -0.00000000000E+00  0.00000000000E+00  0.20613074529E+03  0.20618432082E+03  0.47000000000E+01 0.  1.
          5   -1    0    0  501    0  0.00000000000E+00 -0.00000000000E+00 -0.97050417774E+02  0.97164157950E+02  0.47000000000E+01 0.  1.
         25    2    1    2    0    0  0.41789977550E+02 -0.49621063239E+02  0.69546636389E+02  0.15706713644E+03  0.12499879429E+03 0.  0.
         25    2    1    2    0    0 -0.41789977550E+02  0.49621063239E+02  0.39533691126E+02  0.14628134234E+03  0.12500666479E+03 0.  0.
          5    1    4    4  502    0 -0.36430121746E+02 -0.25901983193E+02  0.52726694148E+02  0.69283914292E+02  0.47000000000E+01 0.  1.
         -5    1    4    4    0  502 -0.53598558041E+01  0.75523046432E+02 -0.13193003023E+02  0.76997428044E+02  0.47000000000E+01 0.  1.
          5    1    3    3  503    0  0.38425139645E+02  0.29682331471E+02  0.59469843606E+02  0.76917387220E+02  0.47000000000E+01 0. -1.
         -5    1    3    3    0  503  0.33648379055E+01 -0.79303394710E+02  0.10076792783E+02  0.80149749216E+02  0.47000000000E+01 0. -1.
<mgrwt>
<rscale>  0 0.14083617E+03</rscale>
<asrwt>0</asrwt>
<pdfrwt beam="2">  1        5 0.14943704E-01 0.14083792E+03</pdfrwt>
<pdfrwt beam="1">  1       -5 0.31725293E-01 0.14083792E+03</pdfrwt>
<totfact> 0.27721572E+02</totfact>
</mgrwt>
</event>
<event>
 8    1  0.3694627E-007  0.1380095E+03  0.7546771E-02  0.1216036E+00
          5   -1    0    0  501    0  0.00000000000E+00  0.00000000000E+00  0.31394447991E+03  0.31397965932E+03  0.47000000000E+01 0. -1.
         -5   -1    0    0    0  501 -0.00000000000E+00 -0.00000000000E+00 -0.60577438860E+02  0.60759493899E+02  0.47000000000E+01 0. -1.
         25    2    1    2    0    0 -0.52843876731E+02 -0.25109141613E+02  0.13161111659E+03  0.19069802043E+03  0.12498521786E+03 0.  0.
         25    2    1    2    0    0  0.52843876731E+02  0.25109141613E+02  0.12175592445E+03  0.18404113278E+03  0.12499475636E+03 0.  0.
          5    1    3    3  502    0  0.25119768575E+02 -0.39626045255E+02  0.88583789514E+02  0.10035140258E+03  0.47000000000E+01 0. -1.
         -5    1    3    3    0  502 -0.77963645306E+02  0.14516903642E+02  0.43027327078E+02  0.90346617846E+02  0.47000000000E+01 0. -1.
          5    1    4    4  503    0 -0.31142410962E+02  0.30161031667E+02  0.11185988444E+02  0.45019483885E+02  0.47000000000E+01 0.  1.
         -5    1    4    4    0  503  0.83986287693E+02 -0.50518900542E+01  0.11056993601E+03  0.13902164890E+03  0.47000000000E+01 0.  1.
<mgrwt>
<rscale>  0 0.13800738E+03</rscale>
<asrwt>0</asrwt>
<pdfrwt beam="1">  1        5 0.48315861E-01 0.13800954E+03</pdfrwt>
<pdfrwt beam="2">  1       -5 0.93363164E-02 0.13800954E+03</pdfrwt>
<totfact> 0.26851178E+02</totfact>
</mgrwt>
</event>
<event>
 8    1  0.3694627E-007  0.1397861E+03  0.7546771E-02  0.1213621E+00
          5   -1    0    0  501    0  0.00000000000E+00  0.00000000000E+00  0.35405387636E+03  0.35408507080E+03  0.47000000000E+01 0.  1.
         -5   -1    0    0    0  501 -0.00000000000E+00 -0.00000000000E+00 -0.13076298113E+03  0.13084741967E+03  0.47000000000E+01 0.  1.
         25    2    1    2    0    0  0.43827604291E+02  0.44618723996E+02 -0.72727967433E+02  0.15757385585E+03  0.12501389271E+03 0.  0.
         25    2    1    2    0    0 -0.43827604291E+02 -0.44618723996E+02  0.29601886266E+03  0.32735863462E+03  0.12499927673E+03 0.  0.
          5    1    3    3  502    0 -0.43920445278E+02  0.10038862095E+02 -0.25666961258E+02  0.52064067895E+02  0.47000000000E+01 0. -1.
         -5    1    3    3    0  502  0.87748049569E+02  0.34579861901E+02 -0.47061006175E+02  0.10550978796E+03  0.47000000000E+01 0. -1.
          5    1    4    4  503    0  0.25181475716E+02 -0.20615377928E+02  0.21761370590E+03  0.22008388292E+03  0.47000000000E+01 0.  1.
         -5    1    4    4    0  503 -0.69009080007E+02 -0.24003346068E+02  0.78405156762E+02  0.10727475170E+03  0.47000000000E+01 0.  1.
<mgrwt>
<rscale>  0 0.13978286E+03</rscale>
<asrwt>0</asrwt>
<pdfrwt beam="1">  1        5 0.54478722E-01 0.13978613E+03</pdfrwt>
<pdfrwt beam="2">  1       -5 0.20126276E-01 0.13978613E+03</pdfrwt>
<totfact> 0.52513600E+01</totfact>
</mgrwt>
</event>
<event>
 8    1  0.3694627E-007  0.1808117E+03  0.7546771E-02  0.1167020E+00
         -5   -1    0    0    0  501 -0.00000000000E+00  0.00000000000E+00  0.53980719834E+02  0.54184943608E+02  0.47000000000E+01 0.  1.
          5   -1    0    0  501    0  0.00000000000E+00 -0.00000000000E+00 -0.60427666942E+03  0.60429494719E+03  0.47000000000E+01 0.  1.
         25    2    1    2    0    0  0.12979568003E+03  0.14889265460E+02 -0.27479035644E+03  0.32894049527E+03  0.12499400250E+03 0.  0.
         25    2    1    2    0    0 -0.12979568003E+03 -0.14889265460E+02 -0.27550559314E+03  0.32953939552E+03  0.12499709024E+03 0.  0.
          5    1    4    4  502    0 -0.37553457396E+01 -0.33733967399E+02 -0.11156397306E+02  0.36036625521E+02  0.47000000000E+01 0. -1.
         -5    1    4    4    0  502 -0.12604033429E+03  0.18844701940E+02 -0.26434919584E+03  0.29350277000E+03  0.47000000000E+01 0. -1.
          5    1    3    3  503    0  0.50473466362E+02  0.16261320001E+02 -0.23328418247E+03  0.23928142662E+03  0.47000000000E+01 0. -1.
         -5    1    3    3    0  503  0.79322213667E+02 -0.13720545414E+01 -0.41506173970E+02  0.89659068656E+02  0.47000000000E+01 0. -1.
<mgrwt>
<rscale>  0 0.18081120E+03</rscale>
<asrwt>0</asrwt>
<pdfrwt beam="2">  1        5 0.92982752E-01 0.18081173E+03</pdfrwt>
<pdfrwt beam="1">  1       -5 0.83218421E-02 0.18081173E+03</pdfrwt>
<totfact> 0.81990200E+01</totfact>
</mgrwt>
</event>
<event>
 8    1  0.3694627E-007  0.1365661E+03  0.7546771E-02  0.1218026E+00
         -5   -1    0    0    0  501 -0.00000000000E+00  0.00000000000E+00  0.25031629822E+03  0.25036041851E+03  0.47000000000E+01 0. -1.
          5   -1    0    0  501    0  0.00000000000E+00 -0.00000000000E+00 -0.74556494122E+02  0.74704489931E+02  0.47000000000E+01 0. -1.
         25    2    1    2    0    0  0.40329120111E+02  0.37403273474E+02  0.95742928239E+02  0.16678348836E+03  0.12499832353E+03 0.  0.
         25    2    1    2    0    0 -0.40329120111E+02 -0.37403273474E+02  0.80016875858E+02  0.15828142008E+03  0.12499945889E+03 0.  0.
          5    1    4    4  502    0 -0.72001189971E+02 -0.52664622194E+02  0.83959618678E+02  0.12259299065E+03  0.47000000000E+01 0.  1.
         -5    1    4    4    0  502  0.31672069860E+02  0.15261348721E+02 -0.39427428195E+01  0.35688429426E+02  0.47000000000E+01 0.  1.
          5    1    3    3  503    0 -0.35695862002E+02 -0.19871295097E+02  0.32371741932E+02  0.52336245648E+02  0.47000000000E+01 0.  1.
         -5    1    3    3    0  503  0.76024982113E+02  0.57274568570E+02  0.63371186307E+02  0.11444724271E+03  0.47000000000E+01 0.  1.
<mgrwt>
<rscale>  0 0.13656587E+03</rscale>
<asrwt>0</asrwt>
<pdfrwt beam="2">  1        5 0.11485008E-01 0.13656613E+03</pdfrwt>
<pdfrwt beam="1">  1       -5 0.38524978E-01 0.13656613E+03</pdfrwt>
<totfact> 0.29751444E+02</totfact>
</mgrwt>
</event>
<event>
 8    1  0.3694627E-007  0.1706688E+03  0.7546771E-02  0.1177157E+00
         -5   -1    0    0    0  501 -0.00000000000E+00  0.00000000000E+00  0.71527321493E+03  0.71528865641E+03  0.47000000000E+01 0. -1.
          5   -1    0    0  501    0  0.00000000000E+00 -0.00000000000E+00 -0.41871433432E+02  0.42134391388E+02  0.47000000000E+01 0. -1.
         25    2    1    2    0    0 -0.81823425802E+02 -0.82475048815E+02  0.40333801337E+03  0.43796050768E+03  0.12502258425E+03 0.  0.
         25    2    1    2    0    0  0.81823425802E+02  0.82475048815E+02  0.27006376813E+03  0.31946254012E+03  0.12499867598E+03 0.  0.
          5    1    3    3  502    0 -0.42011955467E+02 -0.10892798861E+03  0.22844043429E+03  0.25658806115E+03  0.47000000000E+01 0.  1.
         -5    1    3    3    0  502 -0.39811470335E+02  0.26452939795E+02  0.17489757908E+03  0.18137244653E+03  0.47000000000E+01 0.  1.
          5    1    4    4  503    0  0.89394762099E+02  0.77597450158E+02  0.28074762286E+03  0.30471971631E+03  0.47000000000E+01 0. -1.
         -5    1    4    4    0  503 -0.75713362964E+01  0.48775986570E+01 -0.10683854737E+02  0.14742823814E+02  0.47000000000E+01 0. -1.
<mgrwt>
<rscale>  0 0.17066446E+03</rscale>
<asrwt>0</asrwt>
<pdfrwt beam="2">  1        5 0.64631743E-02 0.17066884E+03</pdfrwt>
<pdfrwt beam="1">  1       -5 0.11006345E+00 0.17066884E+03</pdfrwt>
<totfact> 0.82166169E+01</totfact>
</mgrwt>
</event>
<event>
 8    1  0.3694627E-007  0.1375793E+03  0.7546771E-02  0.1216624E+00
         -5   -1    0    0    0  501 -0.00000000000E+00  0.00000000000E+00  0.19290535450E+03  0.19296260207E+03  0.47000000000E+01 0. -1.
          5   -1    0    0  501    0  0.00000000000E+00 -0.00000000000E+00 -0.12637043235E+03  0.12645780392E+03  0.47000000000E+01 0. -1.
         25    2    1    2    0    0 -0.90724771062E+01  0.56748640734E+02  0.10890347399E+03  0.17546519883E+03  0.12500140515E+03 0.  0.
         25    2    1    2    0    0  0.90724771062E+01 -0.56748640734E+02 -0.42368551832E+02  0.14395520716E+03  0.12500115766E+03 0.  0.
          5    1    4    4  502    0  0.10618084828E+02 -0.49929013612E+02  0.37581869642E+02  0.63562072429E+02  0.47000000000E+01 0. -1.
         -5    1    4    4    0  502 -0.15456077218E+01 -0.68196271216E+01 -0.79950421474E+02  0.80393134727E+02  0.47000000000E+01 0. -1.
          5    1    3    3  503    0 -0.51464894764E+02  0.69044296938E+02  0.96402430175E+02  0.12934940617E+03  0.47000000000E+01 0.  1.
         -5    1    3    3    0  503  0.42392417658E+02 -0.12295656204E+02  0.12501043810E+02  0.46115792661E+02  0.47000000000E+01 0.  1.
<mgrwt>
<rscale>  0 0.13757926E+03</rscale>
<asrwt>0</asrwt>
<pdfrwt beam="2">  1        5 0.19452730E-01 0.13757932E+03</pdfrwt>
<pdfrwt beam="1">  1       -5 0.29688871E-01 0.13757932E+03</pdfrwt>
<totfact> 0.19320357E+02</totfact>
</mgrwt>
</event>
<event>
 8    1  0.3694627E-007  0.1299906E+03  0.7546771E-02  0.1227474E+00
          5   -1    0    0  501    0  0.00000000000E+00  0.00000000000E+00  0.59330533928E+02  0.59516403253E+02  0.47000000000E+01 0.  1.
         -5   -1    0    0    0  501 -0.00000000000E+00 -0.00000000000E+00 -0.29442339467E+03  0.29446090628E+03  0.47000000000E+01 0.  1.
         25    2    1    2    0    0  0.12227727971E+02 -0.33477376770E+02 -0.15062861704E+03  0.19895550757E+03  0.12499624647E+03 0.  0.
         25    2    1    2    0    0 -0.12227727971E+02  0.33477376770E+02 -0.84464243698E+02  0.15502180197E+03  0.12500919380E+03 0.  0.
          5    1    3    3  502    0  0.28726310000E+02 -0.76790524913E+02 -0.10904286088E+03  0.13650795256E+03  0.47000000000E+01 0.  1.
         -5    1    3    3    0  502 -0.16498582029E+02  0.43313148143E+02 -0.41585756159E+02  0.62447555007E+02  0.47000000000E+01 0.  1.
          5    1    4    4  503    0 -0.20184039966E+02  0.27186850560E+02  0.26650713407E+02  0.43345943730E+02  0.47000000000E+01 0. -1.
         -5    1    4    4    0  503  0.79563119946E+01  0.62905262103E+01 -0.11111495711E+03  0.11167585824E+03  0.47000000000E+01 0. -1.
<mgrwt>
<rscale>  0 0.12998747E+03</rscale>
<asrwt>0</asrwt>
<pdfrwt beam="1">  1        5 0.91449578E-02 0.12999058E+03</pdfrwt>
<pdfrwt beam="2">  1       -5 0.45313089E-01 0.12999058E+03</pdfrwt>
<totfact> 0.31180088E+02</totfact>
</mgrwt>
</event>
<event>
 8    1  0.3694627E-007  0.1299381E+03  0.7546771E-02  0.1227549E+00
         -5   -1    0    0    0  501 -0.00000000000E+00  0.00000000000E+00  0.49065123649E+03  0.49067374687E+03  0.47000000000E+01 0.  1.
          5   -1    0    0  501    0  0.00000000000E+00 -0.00000000000E+00 -0.35515983472E+02  0.35825620469E+02  0.47000000000E+01 0.  1.
         25    2    1    2    0    0 -0.35044857570E+02  0.54571613730E+01  0.27749184104E+03  0.30640601669E+03  0.12500001027E+03 0.  0.
         25    2    1    2    0    0  0.35044857570E+02 -0.54571613730E+01  0.17764341198E+03  0.22009335065E+03  0.12500391405E+03 0.  0.
          5    1    3    3  502    0  0.11084602412E+02 -0.27520460067E+02  0.23095259720E+03  0.23289790958E+03  0.47000000000E+01 0. -1.
         -5    1    3    3    0  502 -0.46129459983E+02  0.32977621440E+02  0.46539243843E+02  0.73508107115E+02  0.47000000000E+01 0. -1.
          5    1    4    4  503    0 -0.43613362281E+02 -0.20063271864E+02  0.50789433311E+02  0.70045105349E+02  0.47000000000E+01 0. -1.
         -5    1    4    4    0  503  0.78658219852E+02  0.14606110491E+02  0.12685397867E+03  0.15004824530E+03  0.47000000000E+01 0. -1.
<mgrwt>
<rscale>  0 0.12993713E+03</rscale>
<asrwt>0</asrwt>
<pdfrwt beam="2">  1        5 0.54895470E-02 0.12993807E+03</pdfrwt>
<pdfrwt beam="1">  1       -5 0.75510359E-01 0.12993807E+03</pdfrwt>
<totfact> 0.24387654E+02</totfact>
</mgrwt>
</event>
<event>
 8    1  0.3694627E-007  0.1913477E+03  0.7546771E-02  0.1157254E+00
         -5   -1    0    0    0  501 -0.00000000000E+00  0.00000000000E+00  0.58006861191E+03  0.58008765244E+03  0.47000000000E+01 0.  1.
          5   -1    0    0  501    0  0.00000000000E+00 -0.00000000000E+00 -0.65088354782E+02  0.65257826567E+02  0.47000000000E+01 0.  1.
         25    2    1    2    0    0  0.11272778828E+03 -0.90959399473E+02  0.31508560007E+03  0.36863651119E+03  0.12503109775E+03 0.  0.
         25    2    1    2    0    0 -0.11272778828E+03  0.90959399473E+02  0.19989465705E+03  0.27670896782E+03  0.12501524848E+03 0.  0.
          5    1    4    4  502    0 -0.13880246300E+03  0.88215971462E+02  0.16786721252E+03  0.23505248860E+03  0.47000000000E+01 0. -1.
         -5    1    4    4    0  502  0.26074674712E+02  0.27434280103E+01  0.32027444529E+02  0.41656479228E+02  0.47000000000E+01 0. -1.
          5    1    3    3  503    0  0.12321721560E+03 -0.30581487066E+02  0.18099764173E+03  0.22113332152E+03  0.47000000000E+01 0. -1.
         -5    1    3    3    0  503 -0.10489427320E+02 -0.60377912407E+02  0.13408795834E+03  0.14750318967E+03  0.47000000000E+01 0. -1.
<mgrwt>
<rscale>  0 0.19134511E+03</rscale>
<asrwt>0</asrwt>
<pdfrwt beam="2">  1        5 0.10028094E-01 0.19134770E+03</pdfrwt>
<pdfrwt beam="1">  1       -5 0.89255824E-01 0.19134770E+03</pdfrwt>
<totfact> 0.66392834E+01</totfact>
</mgrwt>
</event>
<event>
 8    1  0.3694627E-007  0.1620186E+03  0.7546771E-02  0.1186438E+00
         -5   -1    0    0    0  501 -0.00000000000E+00  0.00000000000E+00  0.36377910258E+03  0.36380946314E+03  0.47000000000E+01 0. -1.
          5   -1    0    0  501    0  0.00000000000E+00 -0.00000000000E+00 -0.76430948434E+02  0.76575321603E+02  0.47000000000E+01 0. -1.
         25    2    1    2    0    0 -0.75042941963E+02 -0.70655914225E+02  0.19635261647E+03  0.25456701117E+03  0.12500524719E+03 0.  0.
         25    2    1    2    0    0  0.75042941963E+02  0.70655914225E+02  0.90995537673E+02  0.18581777358E+03  0.12499742297E+03 0.  0.
          5    1    3    3  502    0 -0.80290000615E+01  0.15426257067E+02 -0.10364099911E+02  0.20783137782E+02  0.47000000000E+01 0. -1.
         -5    1    3    3    0  502 -0.67013941901E+02 -0.86082171293E+02  0.20671671638E+03  0.23378387339E+03  0.47000000000E+01 0. -1.
          5    1    4    4  503    0  0.29481372917E+02 -0.91839548856E+01 -0.23372059822E+02  0.39010762063E+02  0.47000000000E+01 0. -1.
         -5    1    4    4    0  503  0.45561569045E+02  0.79839869111E+02  0.11436759749E+03  0.14680701152E+03  0.47000000000E+01 0. -1.
<mgrwt>
<rscale>  0 0.16201705E+03</rscale>
<asrwt>0</asrwt>
<pdfrwt beam="2">  1        5 0.11772049E-01 0.16201856E+03</pdfrwt>
<pdfrwt beam="1">  1       -5 0.55979456E-01 0.16201856E+03</pdfrwt>
<totfact> 0.13753817E+02</totfact>
</mgrwt>
</event>
<event>
 8    1  0.3694627E-007  0.1269789E+03  0.7546771E-02  0.1232009E+00
          5   -1    0    0  501    0  0.00000000000E+00  0.00000000000E+00  0.41884258465E+02  0.42147136406E+02  0.47000000000E+01 0. -1.
         -5   -1    0    0    0  501 -0.00000000000E+00 -0.00000000000E+00 -0.39092423613E+03  0.39095248866E+03  0.47000000000E+01 0. -1.
         25    2    1    2    0    0 -0.17404722634E+02  0.13999955733E+02 -0.20440304041E+03  0.24063279088E+03  0.12499845594E+03 0.  0.
         25    2    1    2    0    0  0.17404722634E+02 -0.13999955733E+02 -0.14463693725E+03  0.19246683419E+03  0.12499886205E+03 0.  0.
          5    1    4    4  502    0  0.68851972814E+02  0.73697547068E+01 -0.95361208583E+02  0.11794387456E+03  0.47000000000E+01 0.  1.
         -5    1    4    4    0  502 -0.51447250180E+02 -0.21369710440E+02 -0.49275728669E+02  0.74522959624E+02  0.47000000000E+01 0.  1.
          5    1    3    3  503    0  0.18333852957E+02  0.62967404569E+02 -0.11598518835E+03  0.13332545938E+03  0.47000000000E+01 0. -1.
         -5    1    3    3    0  503 -0.35738575591E+02 -0.48967448835E+02 -0.88417852061E+02  0.10730733150E+03  0.47000000000E+01 0. -1.
<mgrwt>
<rscale>  0 0.12697879E+03</rscale>
<asrwt>0</asrwt>
<pdfrwt beam="1">  1        5 0.64661270E-02 0.12697889E+03</pdfrwt>
<pdfrwt beam="2">  1       -5 0.60164582E-01 0.12697889E+03</pdfrwt>
<totfact> 0.30525453E+02</totfact>
</mgrwt>
</event>
<event>
 8    1  0.3694627E-007  0.1255082E+03  0.7546771E-02  0.1234278E+00
          5   -1    0    0  501    0  0.00000000000E+00  0.00000000000E+00  0.67257637649E+02  0.67421656922E+02  0.47000000000E+01 0. -1.
         -5   -1    0    0    0  501 -0.00000000000E+00 -0.00000000000E+00 -0.24354653589E+03  0.24359188235E+03  0.47000000000E+01 0. -1.
         25    2    1    2    0    0 -0.18766717542E+01  0.11116789543E+02 -0.56937583642E+02  0.13781696610E+03  0.12499809121E+03 0.  0.
         25    2    1    2    0    0  0.18766717542E+01 -0.11116789543E+02 -0.11935131460E+03  0.17319657317E+03  0.12500084702E+03 0.  0.
          5    1    4    4  502    0  0.23030075660E+02 -0.42997633051E+02 -0.12497675960E+03  0.13424031166E+03  0.47000000000E+01 0. -1.
         -5    1    4    4    0  502 -0.21153403905E+02  0.31880843508E+02  0.56254450034E+01  0.38956261513E+02  0.47000000000E+01 0. -1.
          5    1    3    3  503    0 -0.31560377524E+02  0.15141514491E+01  0.30925156627E+02  0.44461279744E+02  0.47000000000E+01 0.  1.
         -5    1    3    3    0  503  0.29683705770E+02  0.96026380939E+01 -0.87862740269E+02  0.93355686352E+02  0.47000000000E+01 0.  1.
<mgrwt>
<rscale>  0 0.12550755E+03</rscale>
<asrwt>0</asrwt>
<pdfrwt beam="1">  1        5 0.10363434E-01 0.12550823E+03</pdfrwt>
<pdfrwt beam="2">  1       -5 0.37484802E-01 0.12550823E+03</pdfrwt>
<totfact> 0.36544565E+02</totfact>
</mgrwt>
</event>
<event>
 8    1  0.3694627E-007  0.1601999E+03  0.7546771E-02  0.1188472E+00
         -5   -1    0    0    0  501 -0.00000000000E+00  0.00000000000E+00  0.12232872970E+03  0.12241898590E+03  0.47000000000E+01 0.  1.
          5   -1    0    0  501    0  0.00000000000E+00 -0.00000000000E+00 -0.28788775712E+03  0.28792612021E+03  0.47000000000E+01 0.  1.
         25    2    1    2    0    0 -0.99559492133E+02  0.11250944328E+02  0.24187880784E+02  0.16201557387E+03  0.12500126551E+03 0.  0.
         25    2    1    2    0    0  0.99559492133E+02 -0.11250944328E+02 -0.18974690821E+03  0.24832953224E+03  0.12499996475E+03 0.  0.
          5    1    3    3  502    0 -0.88156363697E+02  0.62059680215E+02  0.15801052962E+02  0.10906287931E+03  0.47000000000E+01 0. -1.
         -5    1    3    3    0  502 -0.11403128436E+02 -0.50808735887E+02  0.83868278223E+01  0.52952694563E+02  0.47000000000E+01 0. -1.
          5    1    4    4  503    0  0.69938579934E+02  0.44087768831E+02 -0.54445282472E+02  0.99103557490E+02  0.47000000000E+01 0. -1.
         -5    1    4    4    0  503  0.29620912198E+02 -0.55338713159E+02 -0.13530162574E+03  0.14922597475E+03  0.47000000000E+01 0. -1.
<mgrwt>
<rscale>  0 0.16019960E+03</rscale>
<asrwt>0</asrwt>
<pdfrwt beam="2">  1        5 0.44300318E-01 0.16019985E+03</pdfrwt>
<pdfrwt beam="1">  1       -5 0.18829698E-01 0.16019985E+03</pdfrwt>
<totfact> 0.96093829E+01</totfact>
</mgrwt>
</event>
<event>
 8    1  0.3694627E-007  0.1877033E+03  0.7546771E-02  0.1160552E+00
          5   -1    0    0  501    0  0.00000000000E+00  0.00000000000E+00  0.11140235351E+04  0.11140334495E+04  0.47000000000E+01 0.  1.
         -5   -1    0    0    0  501 -0.00000000000E+00 -0.00000000000E+00 -0.38688779019E+02  0.38973216727E+02  0.47000000000E+01 0.  1.
         25    2    1    2    0    0  0.13358791828E+03  0.41932208672E+02  0.28916053837E+03  0.34473540586E+03  0.12499856429E+03 0.  0.
         25    2    1    2    0    0 -0.13358791828E+03 -0.41932208672E+02  0.78617421769E+03  0.80827126041E+03  0.12501395042E+03 0.  0.
          5    1    3    3  502    0  0.31736936636E+02 -0.82103411048E+01 -0.98918991263E+00  0.33131727163E+02  0.47000000000E+01 0. -1.
         -5    1    3    3    0  502  0.10185098165E+03  0.50142549776E+02  0.29014972828E+03  0.31160367870E+03  0.47000000000E+01 0. -1.
          5    1    4    4  503    0 -0.15708912385E+03 -0.27316297606E+02  0.67832180895E+03  0.69682547273E+03  0.47000000000E+01 0. -1.
         -5    1    4    4    0  503  0.23501205569E+02 -0.14615911066E+02  0.10785240874E+03  0.11144578768E+03  0.47000000000E+01 0. -1.
<mgrwt>
<rscale>  0 0.18770074E+03</rscale>
<asrwt>0</asrwt>
<pdfrwt beam="1">  1        5 0.17141090E+00 0.18770330E+03</pdfrwt>
<pdfrwt beam="2">  1       -5 0.59747615E-02 0.18770330E+03</pdfrwt>
<totfact> 0.29368987E+01</totfact>
</mgrwt>
</event>
<event>
 8    1  0.3694627E-007  0.2055509E+03  0.7546771E-02  0.1145140E+00
         -5   -1    0    0    0  501 -0.00000000000E+00  0.00000000000E+00  0.15318902319E+03  0.15326110670E+03  0.47000000000E+01 0.  1.
          5   -1    0    0  501    0  0.00000000000E+00 -0.00000000000E+00 -0.29257693430E+03  0.29261468262E+03  0.47000000000E+01 0.  1.
         25    2    1    2    0    0  0.89209324067E+02  0.13662782167E+03 -0.16072375275E+02  0.20617202600E+03  0.12499247138E+03 0.  0.
         25    2    1    2    0    0 -0.89209324067E+02 -0.13662782167E+03 -0.12331553583E+03  0.23970376333E+03  0.12500283045E+03 0.  0.
          5    1    3    3  502    0 -0.11465863615E+02 -0.66523689385E+01 -0.27222495118E+02  0.30641055488E+02  0.47000000000E+01 0. -1.
         -5    1    3    3    0  502  0.10067518768E+03  0.14328019061E+03  0.11150119843E+02  0.17553097051E+03  0.47000000000E+01 0. -1.
          5    1    4    4  503    0 -0.53880210475E+02 -0.12910475930E+03 -0.35167252840E+02  0.14432581761E+03  0.47000000000E+01 0.  1.
         -5    1    4    4    0  503 -0.35329113592E+02 -0.75230623636E+01 -0.88148282994E+02  0.95377945718E+02  0.47000000000E+01 0.  1.
<mgrwt>
<rscale>  0 0.20554933E+03</rscale>
<asrwt>0</asrwt>
<pdfrwt beam="2">  1        5 0.45020284E-01 0.20555090E+03</pdfrwt>
<pdfrwt beam="1">  1       -5 0.23575991E-01 0.20555090E+03</pdfrwt>
<totfact> 0.65222779E+01</totfact>
</mgrwt>
</event>
<event>
 8    1  0.3694627E-007  0.1387451E+03  0.7546771E-02  0.1215030E+00
          5   -1    0    0  501    0  0.00000000000E+00  0.00000000000E+00  0.24138321944E+02  0.24591636511E+02  0.47000000000E+01 0.  1.
         -5   -1    0    0    0  501 -0.00000000000E+00 -0.00000000000E+00 -0.97430171904E+03  0.97431305530E+03  0.47000000000E+01 0.  1.
         25    2    1    2    0    0 -0.59795684683E+02 -0.68360537091E+01 -0.69251887355E+03  0.70628082289E+03  0.12501181953E+03 0.  0.
         25    2    1    2    0    0  0.59795684683E+02  0.68360537091E+01 -0.25764452355E+03  0.29262386892E+03  0.12500309041E+03 0.  0.
          5    1    3    3  502    0 -0.31153630718E+02 -0.65810195108E+02 -0.37397591322E+03  0.38102703861E+03  0.47000000000E+01 0. -1.
         -5    1    3    3    0  502 -0.28642053965E+02  0.58974141399E+02 -0.31854296033E+03  0.32525378428E+03  0.47000000000E+01 0. -1.
          5    1    4    4  503    0  0.30143476874E+02 -0.54776886601E+02 -0.17110477712E+03  0.18223081863E+03  0.47000000000E+01 0. -1.
         -5    1    4    4    0  503  0.29652207809E+02  0.61612940311E+02 -0.86539746427E+02  0.11039305029E+03  0.47000000000E+01 0. -1.
<mgrwt>
<rscale>  0 0.13874316E+03</rscale>
<asrwt>0</asrwt>
<pdfrwt beam="1">  1        5 0.37493311E-02 0.13874513E+03</pdfrwt>
<pdfrwt beam="2">  1       -5 0.14992828E+00 0.13874513E+03</pdfrwt>
<totfact> 0.85399469E+01</totfact>
</mgrwt>
</event>
<event>
 8    1  0.3694627E-007  0.1341832E+03  0.7546771E-02  0.1221379E+00
          5   -1    0    0  501    0  0.00000000000E+00  0.00000000000E+00  0.49908212449E+03  0.49910425462E+03  0.47000000000E+01 0.  1.
         -5   -1    0    0    0  501 -0.00000000000E+00 -0.00000000000E+00 -0.36042582587E+02  0.36347733899E+02  0.47000000000E+01 0.  1.
         25    2    1    2    0    0  0.48443542039E+02 -0.57416945800E+01  0.21473200497E+03  0.25320931472E+03  0.12500151711E+03 0.  0.
         25    2    1    2    0    0 -0.48443542039E+02  0.57416945800E+01  0.24830753693E+03  0.28224267380E+03  0.12499820078E+03 0.  0.
          5    1    4    4  502    0  0.29703284587E+02  0.65188238872E+01  0.16529341763E+03  0.16813323315E+03  0.47000000000E+01 0.  1.
         -5    1    4    4    0  502 -0.78146826626E+02 -0.77712930727E+00  0.83014119303E+02  0.11410944065E+03  0.47000000000E+01 0.  1.
          5    1    3    3  503    0  0.89077439874E+01  0.48620965089E+02  0.15637537921E+03  0.16406917862E+03  0.47000000000E+01 0. -1.
         -5    1    3    3    0  503  0.39535798051E+02 -0.54362659669E+02  0.58356625758E+02  0.89140136099E+02  0.47000000000E+01 0. -1.
<mgrwt>
<rscale>  0 0.13418240E+03</rscale>
<asrwt>0</asrwt>
<pdfrwt beam="1">  1        5 0.76807037E-01 0.13418317E+03</pdfrwt>
<pdfrwt beam="2">  1       -5 0.55701885E-02 0.13418317E+03</pdfrwt>
<totfact> 0.23149451E+02</totfact>
</mgrwt>
</event>
<event>
 8    1  0.3694627E-007  0.1363747E+03  0.7546771E-02  0.1218294E+00
          5   -1    0    0  501    0  0.00000000000E+00  0.00000000000E+00  0.15479688681E+03  0.15486822193E+03  0.47000000000E+01 0.  1.
         -5   -1    0    0    0  501 -0.00000000000E+00 -0.00000000000E+00 -0.12932138520E+03  0.12940676439E+03  0.47000000000E+01 0.  1.
         25    2    1    2    0    0 -0.29145048483E+02  0.46074648168E+02 -0.25410441423E+02  0.13872186042E+03  0.12500302785E+03 0.  0.
         25    2    1    2    0    0  0.29145048483E+02 -0.46074648168E+02  0.50885943025E+02  0.14555312590E+03  0.12499610477E+03 0.  0.
          5    1    4    4  502    0  0.56393542362E+00 -0.68399444590E+02 -0.15012655436E+02  0.70187405328E+02  0.47000000000E+01 0. -1.
         -5    1    4    4    0  502  0.28581113059E+02  0.22324796422E+02  0.65898598461E+02  0.75365720577E+02  0.47000000000E+01 0. -1.
          5    1    3    3  503    0 -0.11912304463E+02  0.87857378996E+02 -0.50528317263E+01  0.88929427920E+02  0.47000000000E+01 0.  1.
         -5    1    3    3    0  503 -0.17232744020E+02 -0.41782730829E+02 -0.20357609697E+02  0.49792432503E+02  0.47000000000E+01 0.  1.
<mgrwt>
<rscale>  0 0.13637313E+03</rscale>
<asrwt>0</asrwt>
<pdfrwt beam="1">  1        5 0.23826960E-01 0.13637472E+03</pdfrwt>
<pdfrwt beam="2">  1       -5 0.19907653E-01 0.13637472E+03</pdfrwt>
<totfact> 0.28217096E+02</totfact>
</mgrwt>
</event>
<event>
 8    1  0.3694627E-007  0.2008131E+03  0.7546771E-02  0.1149058E+00
          5   -1    0    0  501    0  0.00000000000E+00  0.00000000000E+00  0.70875410009E+03  0.70876968360E+03  0.47000000000E+01 0. -1.
         -5   -1    0    0    0  501 -0.00000000000E+00 -0.00000000000E+00 -0.59511412130E+02  0.59696718282E+02  0.47000000000E+01 0. -1.
         25    2    1    2    0    0 -0.15584339523E+03  0.20183816183E+02  0.24242732831E+03  0.31478739269E+03  0.12500217122E+03 0.  0.
         25    2    1    2    0    0  0.15584339523E+03 -0.20183816183E+02  0.40681535964E+03  0.45367900919E+03  0.12502542248E+03 0.  0.
          5    1    4    4  502    0  0.38576319127E+02 -0.61962702569E+02  0.19046885572E+03  0.20402937021E+03  0.47000000000E+01 0.  1.
         -5    1    4    4    0  502  0.11726707611E+03  0.41778886386E+02  0.21634650392E+03  0.24964963899E+03  0.47000000000E+01 0.  1.
          5    1    3    3  503    0 -0.15970407204E+03  0.51847760016E+02  0.21172670411E+03  0.27026629106E+03  0.47000000000E+01 0. -1.
         -5    1    3    3    0  503  0.38606768111E+01 -0.31663943832E+02  0.30700624199E+02  0.44521101634E+02  0.47000000000E+01 0. -1.
<mgrwt>
<rscale>  0 0.20080949E+03</rscale>
<asrwt>0</asrwt>
<pdfrwt beam="1">  1        5 0.10905455E+00 0.20081311E+03</pdfrwt>
<pdfrwt beam="2">  1       -5 0.91710542E-02 0.20081311E+03</pdfrwt>
<totfact> 0.48154263E+01</totfact>
</mgrwt>
</event>
<event>
 8    1  0.3694627E-007  0.1527308E+03  0.7546771E-02  0.1197161E+00
          5   -1    0    0  501    0  0.00000000000E+00  0.00000000000E+00  0.54459675716E+03  0.54461703784E+03  0.47000000000E+01 0. -1.
         -5   -1    0    0    0  501 -0.00000000000E+00 -0.00000000000E+00 -0.45670715268E+02  0.45911918203E+02  0.47000000000E+01 0. -1.
         25    2    1    2    0    0  0.84442771378E+02  0.23902828635E+02  0.17411326375E+03  0.23159994019E+03  0.12498470637E+03 0.  0.
         25    2    1    2    0    0 -0.84442771378E+02 -0.23902828635E+02  0.32481277814E+03  0.35892901586E+03  0.12499908291E+03 0.  0.
          5    1    3    3  502    0  0.83725897983E+02 -0.36568111662E+02  0.94709876104E+02  0.13167878878E+03  0.47000000000E+01 0. -1.
         -5    1    3    3    0  502  0.71687339474E+00  0.60470940298E+02  0.79403387647E+02  0.99921151404E+02  0.47000000000E+01 0. -1.
          5    1    4    4  503    0  0.21728461575E+02 -0.38349164712E+02  0.11603935902E+03  0.12421758056E+03  0.47000000000E+01 0.  1.
         -5    1    4    4    0  503 -0.10617123295E+03  0.14446336077E+02  0.20877341912E+03  0.23471143530E+03  0.47000000000E+01 0.  1.
<mgrwt>
<rscale>  0 0.15272786E+03</rscale>
<asrwt>0</asrwt>
<pdfrwt beam="1">  1        5 0.83804222E-01 0.15273080E+03</pdfrwt>
<pdfrwt beam="2">  1       -5 0.70463787E-02 0.15273080E+03</pdfrwt>
<totfact> 0.13273786E+02</totfact>
</mgrwt>
</event>
<event>
 8    1  0.3694627E-007  0.1425179E+03  0.7546771E-02  0.1209982E+00
         -5   -1    0    0    0  501 -0.00000000000E+00  0.00000000000E+00  0.11012208599E+03  0.11022233813E+03  0.47000000000E+01 0.  1.
          5   -1    0    0  501    0  0.00000000000E+00 -0.00000000000E+00 -0.19686279705E+03  0.19691889412E+03  0.47000000000E+01 0.  1.
         25    2    1    2    0    0  0.12163487879E+02 -0.67368951865E+02 -0.44735580847E+01  0.14258813592E+03  0.12499935068E+03 0.  0.
         25    2    1    2    0    0 -0.12163487879E+02  0.67368951865E+02 -0.82267152975E+02  0.16455309632E+03  0.12499324357E+03 0.  0.
          5    1    3    3  502    0  0.14911571079E+02 -0.92401542374E+02 -0.37372040970E+02  0.10089182044E+03  0.47000000000E+01 0.  1.
         -5    1    3    3    0  502 -0.27480831992E+01  0.25032590510E+02  0.32898482885E+02  0.41696315485E+02  0.47000000000E+01 0.  1.
          5    1    4    4  503    0  0.30259810999E+01  0.10001538582E+03 -0.79952647336E+02  0.12816688253E+03  0.47000000000E+01 0. -1.
         -5    1    4    4    0  503 -0.15189468979E+02 -0.32646433952E+02 -0.23145056391E+01  0.36386213791E+02  0.47000000000E+01 0. -1.
<mgrwt>
<rscale>  0 0.14251660E+03</rscale>
<asrwt>0</asrwt>
<pdfrwt beam="2">  1        5 0.30298611E-01 0.14251794E+03</pdfrwt>
<pdfrwt beam="1">  1       -5 0.16953886E-01 0.14251794E+03</pdfrwt>
<totfact> 0.24215946E+02</totfact>
</mgrwt>
</event>
<event>
 8    1  0.3694627E-007  0.1298979E+03  0.7546771E-02  0.1227607E+00
          5   -1    0    0  501    0  0.00000000000E+00  0.00000000000E+00  0.99678559416E+02  0.99789304072E+02  0.47000000000E+01 0.  1.
         -5   -1    0    0    0  501 -0.00000000000E+00 -0.00000000000E+00 -0.17931535891E+03  0.17937694373E+03  0.47000000000E+01 0.  1.
         25    2    1    2    0    0  0.65244458203E+01  0.34734863189E+02 -0.73214516244E+02  0.14911011516E+03  0.12499752774E+03 0.  0.
         25    2    1    2    0    0 -0.65244458203E+01 -0.34734863189E+02 -0.64222832521E+01  0.13005613264E+03  0.12499709117E+03 0.  0.
          5    1    3    3  502    0 -0.12147802765E+02  0.68862030927E+02 -0.83091033399E+02  0.10870031392E+03  0.47000000000E+01 0.  1.
         -5    1    3    3    0  502  0.18672248585E+02 -0.34127167739E+02  0.98765171547E+01  0.40409801239E+02  0.47000000000E+01 0.  1.
          5    1    4    4  503    0 -0.56410543543E+02 -0.69845353286E+01  0.27677259010E+02  0.63396007942E+02  0.47000000000E+01 0. -1.
         -5    1    4    4    0  503  0.49886097723E+02 -0.27750327860E+02 -0.34099542263E+02  0.66660124699E+02  0.47000000000E+01 0. -1.
<mgrwt>
<rscale>  0 0.12989778E+03</rscale>
<asrwt>0</asrwt>
<pdfrwt beam="1">  1        5 0.15348419E-01 0.12989789E+03</pdfrwt>
<pdfrwt beam="2">  1       -5 0.27600234E-01 0.12989789E+03</pdfrwt>
<totfact> 0.33730001E+02</totfact>
</mgrwt>
</event>
<event>
 8    1  0.3694627E-007  0.1836556E+03  0.7546771E-02  0.1164312E+00
          5   -1    0    0  501    0  0.00000000000E+00  0.00000000000E+00  0.65573181603E+02  0.65741403586E+02  0.47000000000E+01 0. -1.
         -5   -1    0    0    0  501 -0.00000000000E+00 -0.00000000000E+00 -0.68262574615E+03  0.68264192613E+03  0.47000000000E+01 0. -1.
         25    2    1    2    0    0 -0.55822918679E+02 -0.12242299308E+03 -0.49473732305E+03  0.52772568171E+03  0.12500315528E+03 0.  0.
         25    2    1    2    0    0  0.55822918679E+02  0.12242299308E+03 -0.12231524149E+03  0.22065764800E+03  0.12500076734E+03 0.  0.
          5    1    4    4  502    0 -0.28245255019E+02 -0.26969821359E+01 -0.41348267341E+01  0.29056065388E+02  0.47000000000E+01 0.  1.
         -5    1    4    4    0  502  0.84068173698E+02  0.12511997522E+03 -0.11818041476E+03  0.19160158261E+03  0.47000000000E+01 0.  1.
          5    1    3    3  503    0 -0.38662053639E+02 -0.75659191211E+02 -0.10670663246E+03  0.13648246414E+03  0.47000000000E+01 0.  1.
         -5    1    3    3    0  503 -0.17160865041E+02 -0.46763801871E+02 -0.38803069059E+03  0.39124321757E+03  0.47000000000E+01 0.  1.
<mgrwt>
<rscale>  0 0.18365519E+03</rscale>
<asrwt>0</asrwt>
<pdfrwt beam="1">  1        5 0.10102367E-01 0.18365559E+03</pdfrwt>
<pdfrwt beam="2">  1       -5 0.10503353E+00 0.18365559E+03</pdfrwt>
<totfact> 0.43620315E+01</totfact>
</mgrwt>
</event>
<event>
 8    1  0.3694627E-007  0.1281190E+03  0.7546771E-02  0.1230283E+00
          5   -1    0    0  501    0  0.00000000000E+00  0.00000000000E+00  0.27403591669E+03  0.27407621866E+03  0.47000000000E+01 0. -1.
         -5   -1    0    0    0  501 -0.00000000000E+00 -0.00000000000E+00 -0.71874026609E+02  0.72027534325E+02  0.47000000000E+01 0. -1.
         25    2    1    2    0    0 -0.13007376974E+02 -0.24811879547E+02  0.30105438351E+02  0.13158594819E+03  0.12499481237E+03 0.  0.
         25    2    1    2    0    0  0.13007376974E+02  0.24811879547E+02  0.17205645173E+03  0.21451780480E+03  0.12501857771E+03 0.  0.
          5    1    4    4  502    0 -0.50740551565E+02 -0.51503422076E+01  0.10651295870E+03  0.11818726652E+03  0.47000000000E+01 0.  1.
         -5    1    4    4    0  502  0.63747928540E+02  0.29962221755E+02  0.65543493029E+02  0.96330538273E+02  0.47000000000E+01 0.  1.
          5    1    3    3  503    0 -0.41132361898E+01 -0.65035087958E+02 -0.18301781681E+02  0.67849293219E+02  0.47000000000E+01 0. -1.
         -5    1    3    3    0  503 -0.88941407845E+01  0.40223208410E+02  0.48407220032E+02  0.63736654967E+02  0.47000000000E+01 0. -1.
<mgrwt>
<rscale>  0 0.12811315E+03</rscale>
<asrwt>0</asrwt>
<pdfrwt beam="1">  1        5 0.42174280E-01 0.12811895E+03</pdfrwt>
<pdfrwt beam="2">  1       -5 0.11072451E-01 0.12811895E+03</pdfrwt>
<totfact> 0.25780535E+02</totfact>
</mgrwt>
</event>
<event>
 8    1  0.3694627E-007  0.3536480E+03  0.7546771E-02  0.1061128E+00
         -5   -1    0    0    0  501 -0.00000000000E+00  0.00000000000E+00  0.34129208515E+03  0.34132444592E+03  0.47000000000E+01 0.  1.
          5   -1    0    0  501    0  0.00000000000E+00 -0.00000000000E+00 -0.36880905482E+03  0.36883900135E+03  0.47000000000E+01 0.  1.
         25    2    1    2    0    0 -0.30397063484E+03 -0.13054923946E+03 -0.42558522691E+02  0.35619961071E+03  0.12500273614E+03 0.  0.
         25    2    1    2    0    0  0.30397063484E+03  0.13054923946E+03  0.15041553020E+02  0.35396383657E+03  0.12499159375E+03 0.  0.
          5    1    3    3  502    0 -0.77952077496E+02 -0.21865644909E+02  0.42213981089E+02  0.91426161533E+02  0.47000000000E+01 0.  1.
         -5    1    3    3    0  502 -0.22601855735E+03 -0.10868359456E+03 -0.84772503781E+02  0.26477344918E+03  0.47000000000E+01 0.  1.
          5    1    4    4  503    0  0.21278250167E+03  0.10323868127E+03  0.66408554373E+02  0.24569656982E+03  0.47000000000E+01 0. -1.
         -5    1    4    4    0  503  0.91188133179E+02  0.27310558190E+02 -0.51367001353E+02  0.10826726675E+03  0.47000000000E+01 0. -1.
<mgrwt>
<rscale>  0 0.35364705E+03</rscale>
<asrwt>0</asrwt>
<pdfrwt beam="2">  1        5 0.56744647E-01 0.35364804E+03</pdfrwt>
<pdfrwt beam="1">  1       -5 0.52511268E-01 0.35364804E+03</pdfrwt>
<totfact> 0.87490998E+00</totfact>
</mgrwt>
</event>
<event>
 8    1  0.3694627E-007  0.1269668E+03  0.7546771E-02  0.1232036E+00
         -5   -1    0    0    0  501 -0.00000000000E+00  0.00000000000E+00  0.13746515004E+03  0.13754547421E+03  0.47000000000E+01 0. -1.
          5   -1    0    0  501    0  0.00000000000E+00 -0.00000000000E+00 -0.12751020911E+03  0.12759680022E+03  0.47000000000E+01 0. -1.
         25    2    1    2    0    0 -0.12792843600E+01  0.22098218101E+02  0.42857385427E+02  0.13400490720E+03  0.12502236542E+03 0.  0.
         25    2    1    2    0    0  0.12792843600E+01 -0.22098218101E+02 -0.32902444495E+02  0.13113736724E+03  0.12499788167E+03 0.  0.
          5    1    3    3  502    0 -0.18400461653E+02  0.71039071531E+02  0.15334453655E+02  0.75115658434E+02  0.47000000000E+01 0. -1.
         -5    1    3    3    0  502  0.17121177293E+02 -0.48940853430E+02  0.27522931772E+02  0.58889248762E+02  0.47000000000E+01 0. -1.
          5    1    4    4  503    0  0.12891841180E+02  0.25726959439E+01  0.45711657232E+02  0.47796066160E+02  0.47000000000E+01 0. -1.
         -5    1    4    4    0  503 -0.11612556820E+02 -0.24670914045E+02 -0.78614101727E+02  0.83341301082E+02  0.47000000000E+01 0. -1.
<mgrwt>
<rscale>  0 0.12696074E+03</rscale>
<asrwt>0</asrwt>
<pdfrwt beam="2">  1        5 0.19629795E-01 0.12696677E+03</pdfrwt>
<pdfrwt beam="1">  1       -5 0.21161324E-01 0.12696677E+03</pdfrwt>
<totfact> 0.35331619E+02</totfact>
</mgrwt>
</event>
<event>
 8    1  0.3694627E-007  0.1509718E+03  0.7546771E-02  0.1199290E+00
          5   -1    0    0  501    0  0.00000000000E+00  0.00000000000E+00  0.10840299226E+02  0.11815332721E+02  0.47000000000E+01 0. -1.
         -5   -1    0    0    0  501 -0.00000000000E+00 -0.00000000000E+00 -0.21174765728E+04  0.21174817889E+04  0.47000000000E+01 0. -1.
         25    2    1    2    0    0  0.79526403041E+02 -0.28944667410E+02 -0.12921021606E+04  0.13008900251E+04  0.12499848514E+03 0.  0.
         25    2    1    2    0    0 -0.79526403041E+02  0.28944667410E+02 -0.81453411297E+03  0.82840709657E+03  0.12502101390E+03 0.  0.
          5    1    3    3  502    0 -0.27047025424E+02 -0.30357543268E+02 -0.24841051762E+03  0.25175980077E+03  0.47000000000E+01 0.  1.
         -5    1    3    3    0  502  0.10657342847E+03  0.14128758583E+01 -0.10436916430E+04  0.10491302243E+04  0.47000000000E+01 0.  1.
          5    1    4    4  503    0  0.17964747092E+02 -0.82152060876E+01 -0.26013853330E+02  0.33000489606E+02  0.47000000000E+01 0.  1.
         -5    1    4    4    0  503 -0.97491150133E+02  0.37159873497E+02 -0.78852025964E+03  0.79540660697E+03  0.47000000000E+01 0.  1.
<mgrwt>
<rscale>  0 0.15096718E+03</rscale>
<asrwt>0</asrwt>
<pdfrwt beam="1">  1        5 0.17431438E-02 0.15097184E+03</pdfrwt>
<pdfrwt beam="2">  1       -5 0.32584072E+00 0.15097184E+03</pdfrwt>
<totfact> 0.20193615E+01</totfact>
</mgrwt>
</event>
<event>
 8    1  0.3694627E-007  0.1292527E+03  0.7546771E-02  0.1228575E+00
          5   -1    0    0  501    0  0.00000000000E+00  0.00000000000E+00  0.22852249743E+03  0.22857082454E+03  0.47000000000E+01 0. -1.
         -5   -1    0    0    0  501 -0.00000000000E+00 -0.00000000000E+00 -0.73077710146E+02  0.73228694650E+02  0.47000000000E+01 0. -1.
         25    2    1    2    0    0  0.25598685009E+02  0.20625689305E+02  0.83649727977E+02  0.15395955298E+03  0.12500222090E+03 0.  0.
         25    2    1    2    0    0 -0.25598685009E+02 -0.20625689305E+02  0.71795059308E+02  0.14783996621E+03  0.12498565251E+03 0.  0.
          5    1    4    4  502    0  0.13459750155E+02 -0.49928189051E+02  0.82642940313E+02  0.97600894052E+02  0.47000000000E+01 0.  1.
         -5    1    4    4    0  502 -0.39058435164E+02  0.29302499746E+02 -0.10847881005E+02  0.50239072157E+02  0.47000000000E+01 0.  1.
          5    1    3    3  503    0 -0.40803532331E+02  0.42535215107E+02  0.40245223405E+02  0.71525805006E+02  0.47000000000E+01 0. -1.
         -5    1    3    3    0  503  0.66402217340E+02 -0.21909525802E+02  0.43404504571E+02  0.82433747977E+02  0.47000000000E+01 0. -1.
<mgrwt>
<rscale>  0 0.12924872E+03</rscale>
<asrwt>0</asrwt>
<pdfrwt beam="1">  1        5 0.35172640E-01 0.12925273E+03</pdfrwt>
<pdfrwt beam="2">  1       -5 0.11258056E-01 0.12925273E+03</pdfrwt>
<totfact> 0.36316873E+02</totfact>
</mgrwt>
</event>
<event>
 8    1  0.3694627E-007  0.1263050E+03  0.7546771E-02  0.1233046E+00
          5   -1    0    0  501    0  0.00000000000E+00  0.00000000000E+00  0.12738105354E+03  0.12746773239E+03  0.47000000000E+01 0. -1.
         -5   -1    0    0    0  501 -0.00000000000E+00 -0.00000000000E+00 -0.15350219489E+03  0.15357413141E+03  0.47000000000E+01 0. -1.
         25    2    1    2    0    0 -0.16296399979E+02  0.79099526308E+01 -0.73517178633E+02  0.14613691887E+03  0.12499233377E+03 0.  0.
         25    2    1    2    0    0  0.16296399979E+02 -0.79099526308E+01  0.47396037276E+02  0.13490494492E+03  0.12499927925E+03 0.  0.
          5    1    3    3  502    0 -0.49746774811E+02 -0.36541415934E+02 -0.64825001051E+02  0.89634744624E+02  0.47000000000E+01 0.  1.
         -5    1    3    3    0  502  0.33450374832E+02  0.44451368564E+02 -0.86921775818E+01  0.56502174248E+02  0.47000000000E+01 0.  1.
          5    1    4    4  503    0  0.49646214849E+02  0.22157549332E+02  0.66377568259E+02  0.85928896241E+02  0.47000000000E+01 0.  1.
         -5    1    4    4    0  503 -0.33349814869E+02 -0.30067501963E+02 -0.18981530983E+02  0.48976048683E+02  0.47000000000E+01 0.  1.
<mgrwt>
<rscale>  0 0.12630331E+03</rscale>
<asrwt>0</asrwt>
<pdfrwt beam="1">  1        5 0.19609286E-01 0.12630503E+03</pdfrwt>
<pdfrwt beam="2">  1       -5 0.23627924E-01 0.12630503E+03</pdfrwt>
<totfact> 0.28694025E+02</totfact>
</mgrwt>
</event>
<event>
 8    1  0.3694627E-007  0.1402430E+03  0.7546771E-02  0.1213006E+00
          5   -1    0    0  501    0  0.00000000000E+00  0.00000000000E+00  0.27465021829E+03  0.27469043013E+03  0.47000000000E+01 0.  1.
         -5   -1    0    0    0  501 -0.00000000000E+00 -0.00000000000E+00 -0.71796725931E+02  0.71950398570E+02  0.47000000000E+01 0.  1.
         25    2    1    2    0    0  0.25698675849E+01 -0.63519506830E+02  0.89976477681E+02  0.16661491343E+03  0.12499372334E+03 0.  0.
         25    2    1    2    0    0 -0.25698675849E+01  0.63519506830E+02  0.11287701468E+03  0.18002591527E+03  0.12500711083E+03 0.  0.
          5    1    4    4  502    0 -0.56239636320E+02  0.53514551955E+02  0.36211272918E+02  0.85790735226E+02  0.47000000000E+01 0.  1.
         -5    1    4    4    0  502  0.53669768735E+02  0.10004954875E+02  0.76665741759E+02  0.94235180042E+02  0.47000000000E+01 0.  1.
          5    1    3    3  503    0  0.25835969713E+02 -0.96266748237E+02  0.63607006410E+02  0.11833311207E+03  0.47000000000E+01 0. -1.
         -5    1    3    3    0  503 -0.23266102129E+02  0.32747241407E+02  0.26369471271E+02  0.48281801366E+02  0.47000000000E+01 0. -1.
<mgrwt>
<rscale>  0 0.14024005E+03</rscale>
<asrwt>0</asrwt>
<pdfrwt beam="1">  1        5 0.42268795E-01 0.14024304E+03</pdfrwt>
<pdfrwt beam="2">  1       -5 0.11060564E-01 0.14024304E+03</pdfrwt>
<totfact> 0.26532119E+02</totfact>
</mgrwt>
</event>
<event>
 8    1  0.3694627E-007  0.1509669E+03  0.7546771E-02  0.1199290E+00
          5   -1    0    0  501    0  0.00000000000E+00  0.00000000000E+00  0.32401632155E+02  0.32740735579E+02  0.47000000000E+01 0.  1.
         -5   -1    0    0    0  501 -0.00000000000E+00 -0.00000000000E+00 -0.70194463189E+03  0.70196036657E+03  0.47000000000E+01 0.  1.
         25    2    1    2    0    0  0.14197008023E+01 -0.84642528435E+02 -0.31254600160E+03  0.34709655131E+03  0.12499855858E+03 0.  0.
         25    2    1    2    0    0 -0.14197008023E+01  0.84642528435E+02 -0.35699699813E+03  0.38760455084E+03  0.12499623187E+03 0.  0.
          5    1    3    3  502    0 -0.26487029139E+02 -0.14465369554E+02 -0.24110372300E+03  0.24303066653E+03  0.47000000000E+01 0.  1.
         -5    1    3    3    0  502  0.27906729942E+02 -0.70177158881E+02 -0.71442278602E+02  0.10406588479E+03  0.47000000000E+01 0.  1.
          5    1    4    4  503    0 -0.55578345340E+02  0.94654515823E+01 -0.16362676701E+03  0.17313103744E+03  0.47000000000E+01 0.  1.
         -5    1    4    4    0  503  0.54158644538E+02  0.75177076852E+02 -0.19337023113E+03  0.21447351340E+03  0.47000000000E+01 0.  1.
<mgrwt>
<rscale>  0 0.15096644E+03</rscale>
<asrwt>0</asrwt>
<pdfrwt beam="1">  1        5 0.50121623E-02 0.15096693E+03</pdfrwt>
<pdfrwt beam="2">  1       -5 0.10801877E+00 0.15096693E+03</pdfrwt>
<totfact> 0.12721287E+02</totfact>
</mgrwt>
</event>
<event>
 8    1  0.3694627E-007  0.1355053E+03  0.7546771E-02  0.1219508E+00
          5   -1    0    0  501    0  0.00000000000E+00  0.00000000000E+00  0.10574227012E+03  0.10584667067E+03  0.47000000000E+01 0.  1.
         -5   -1    0    0    0  501 -0.00000000000E+00 -0.00000000000E+00 -0.17697809844E+03  0.17704049629E+03  0.47000000000E+01 0.  1.
         25    2    1    2    0    0 -0.11453028834E+02 -0.51045112775E+02 -0.55654241191E+02  0.14648921028E+03  0.12499967503E+03 0.  0.
         25    2    1    2    0    0  0.11453028834E+02  0.51045112775E+02 -0.15581587126E+02  0.13639795668E+03  0.12499936529E+03 0.  0.
          5    1    3    3  502    0  0.39843318969E+02 -0.68942058486E+02 -0.23376103061E+02  0.83120573200E+02  0.47000000000E+01 0.  1.
         -5    1    3    3    0  502 -0.51296347804E+02  0.17896945711E+02 -0.32278138130E+02  0.63368637076E+02  0.47000000000E+01 0.  1.
          5    1    4    4  503    0  0.47724637854E+02 -0.15857475986E+02 -0.30075088698E+02  0.58785215515E+02  0.47000000000E+01 0. -1.
         -5    1    4    4    0  503 -0.36271609020E+02  0.66902588761E+02  0.14493501572E+02  0.77612741168E+02  0.47000000000E+01 0. -1.
<mgrwt>
<rscale>  0 0.13550526E+03</rscale>
<asrwt>0</asrwt>
<pdfrwt beam="1">  1        5 0.16280872E-01 0.13550533E+03</pdfrwt>
<pdfrwt beam="2">  1       -5 0.27240230E-01 0.13550533E+03</pdfrwt>
<totfact> 0.31550375E+02</totfact>
</mgrwt>
</event>
<event>
 8    1  0.3694627E-007  0.1290704E+03  0.7546771E-02  0.1228843E+00
          5   -1    0    0  501    0  0.00000000000E+00  0.00000000000E+00  0.20608710725E+03  0.20614069413E+03  0.47000000000E+01 0. -1.
         -5   -1    0    0    0  501 -0.00000000000E+00 -0.00000000000E+00 -0.86274209597E+02  0.86402136788E+02  0.47000000000E+01 0. -1.
         25    2    1    2    0    0 -0.17258199383E+02  0.27125042932E+02  0.22772470326E+02  0.13106389345E+03  0.12500218142E+03 0.  0.
         25    2    1    2    0    0  0.17258199383E+02 -0.27125042932E+02  0.97040427331E+02  0.16147893747E+03  0.12499995724E+03 0.  0.
          5    1    4    4  502    0 -0.47354311429E+02 -0.38954381835E+02  0.33789066931E+02  0.70168837236E+02  0.47000000000E+01 0.  1.
         -5    1    4    4    0  502  0.64612510811E+02  0.11829338904E+02  0.63251360400E+02  0.91310100234E+02  0.47000000000E+01 0.  1.
          5    1    3    3  503    0 -0.70844448797E+02  0.70945771940E+01  0.17172223616E+02  0.73391036338E+02  0.47000000000E+01 0. -1.
         -5    1    3    3    0  503  0.53586249414E+02  0.20030465738E+02  0.56002467098E+01  0.57672857109E+02  0.47000000000E+01 0. -1.
<mgrwt>
<rscale>  0 0.12906983E+03</rscale>
<asrwt>0</asrwt>
<pdfrwt beam="1">  1        5 0.31719671E-01 0.12907036E+03</pdfrwt>
<pdfrwt beam="2">  1       -5 0.13286918E-01 0.12907036E+03</pdfrwt>
<totfact> 0.33229685E+02</totfact>
</mgrwt>
</event>
<event>
 8    1  0.3694627E-007  0.1284929E+03  0.7546771E-02  0.1229711E+00
          5   -1    0    0  501    0  0.00000000000E+00  0.00000000000E+00  0.10730374554E+04  0.10730477486E+04  0.47000000000E+01 0.  1.
         -5   -1    0    0    0  501 -0.00000000000E+00 -0.00000000000E+00 -0.15713061890E+02  0.16400924180E+02  0.47000000000E+01 0.  1.
         25    2    1    2    0    0 -0.26916438692E+01 -0.29604415507E+02  0.41649629589E+03  0.43586542112E+03  0.12500333785E+03 0.  0.
         25    2    1    2    0    0  0.26916438692E+01  0.29604415507E+02  0.64082809763E+03  0.65358325163E+03  0.12500699874E+03 0.  0.
          5    1    4    4  502    0  0.51634582490E+02  0.34224289879E+02  0.50955591431E+03  0.51332908736E+03  0.47000000000E+01 0.  1.
         -5    1    4    4    0  502 -0.48942938620E+02 -0.46198743720E+01  0.13127218332E+03  0.14025416427E+03  0.47000000000E+01 0.  1.
          5    1    3    3  503    0 -0.83581289443E+01 -0.70636073479E+02  0.35145699537E+03  0.35861319383E+03  0.47000000000E+01 0. -1.
         -5    1    3    3    0  503  0.56664850751E+01  0.41031657972E+02  0.65039300525E+02  0.77252227294E+02  0.47000000000E+01 0. -1.
<mgrwt>
<rscale>  0 0.12849197E+03</rscale>
<asrwt>0</asrwt>
<pdfrwt beam="1">  1        5 0.16513648E+00 0.12849286E+03</pdfrwt>
<pdfrwt beam="2">  1       -5 0.24710970E-02 0.12849286E+03</pdfrwt>
<totfact> 0.12500105E+02</totfact>
</mgrwt>
</event>
<event>
 8    1  0.3694627E-007  0.1577508E+03  0.7546771E-02  0.1191261E+00
          5   -1    0    0  501    0  0.00000000000E+00  0.00000000000E+00  0.64127401796E+02  0.64299406382E+02  0.47000000000E+01 0.  1.
         -5   -1    0    0    0  501 -0.00000000000E+00 -0.00000000000E+00 -0.39645854187E+03  0.39648640005E+03  0.47000000000E+01 0.  1.
         25    2    1    2    0    0 -0.69941052742E+02 -0.66096969071E+02 -0.20109440732E+03  0.25558611954E+03  0.12499897467E+03 0.  0.
         25    2    1    2    0    0  0.69941052742E+02  0.66096969071E+02 -0.13123673275E+03  0.20519968688E+03  0.12499308499E+03 0.  0.
          5    1    4    4  502    0  0.13281686725E+02  0.49632971566E+02 -0.13635436816E+03  0.14578902148E+03  0.47000000000E+01 0. -1.
         -5    1    4    4    0  502  0.56659366017E+02  0.16463997504E+02  0.51176354068E+01  0.59410665401E+02  0.47000000000E+01 0. -1.
          5    1    3    3  503    0 -0.12147160530E+02 -0.77405150866E+02 -0.17340263201E+03  0.19034094062E+03  0.47000000000E+01 0.  1.
         -5    1    3    3    0  503 -0.57793892211E+02  0.11308181795E+02 -0.27691775312E+02  0.65245178921E+02  0.47000000000E+01 0.  1.
<mgrwt>
<rscale>  0 0.15774960E+03</rscale>
<asrwt>0</asrwt>
<pdfrwt beam="1">  1        5 0.98811284E-02 0.15775076E+03</pdfrwt>
<pdfrwt beam="2">  1       -5 0.61008994E-01 0.15775076E+03</pdfrwt>
<totfact> 0.15385183E+02</totfact>
</mgrwt>
</event>
<event>
 8    1  0.3694627E-007  0.1346475E+03  0.7546771E-02  0.1220718E+00
          5   -1    0    0  501    0  0.00000000000E+00  0.00000000000E+00  0.84611319536E+02  0.84741757084E+02  0.47000000000E+01 0. -1.
         -5   -1    0    0    0  501 -0.00000000000E+00 -0.00000000000E+00 -0.22433054941E+03  0.22437977939E+03  0.47000000000E+01 0. -1.
         25    2    1    2    0    0  0.17173998503E+02  0.47013598039E+02 -0.10309350478E+03  0.16958251772E+03  0.12499893985E+03 0.  0.
         25    2    1    2    0    0 -0.17173998503E+02 -0.47013598039E+02 -0.36625725094E+02  0.13953901876E+03  0.12499787755E+03 0.  0.
          5    1    4    4  502    0 -0.16035157691E+02 -0.49561503749E+00 -0.76361106119E+02  0.78169562134E+02  0.47000000000E+01 0. -1.
         -5    1    4    4    0  502 -0.11388408115E+01 -0.46517983001E+02  0.39735381025E+02  0.61369456622E+02  0.47000000000E+01 0. -1.
          5    1    3    3  503    0  0.35007199749E+02  0.75019320682E+02 -0.28298164470E+02  0.87614374518E+02  0.47000000000E+01 0. -1.
         -5    1    3    3    0  503 -0.17833201246E+02 -0.28005722643E+02 -0.74795340314E+02  0.81968143203E+02  0.47000000000E+01 0. -1.
<mgrwt>
<rscale>  0 0.13464729E+03</rscale>
<asrwt>0</asrwt>
<pdfrwt beam="1">  1        5 0.13030947E-01 0.13464754E+03</pdfrwt>
<pdfrwt beam="2">  1       -5 0.34526213E-01 0.13464754E+03</pdfrwt>
<totfact> 0.29512687E+02</totfact>
</mgrwt>
</event>
<event>
 8    1  0.3694627E-007  0.1314410E+03  0.7546771E-02  0.1225336E+00
          5   -1    0    0  501    0  0.00000000000E+00  0.00000000000E+00  0.77202842238E+02  0.77345774607E+02  0.47000000000E+01 0.  1.
         -5   -1    0    0    0  501 -0.00000000000E+00 -0.00000000000E+00 -0.23561166656E+03  0.23565853988E+03  0.47000000000E+01 0.  1.
         25    2    1    2    0    0 -0.39609632171E+02 -0.90681050519E+01 -0.11483191926E+03  0.17453686918E+03  0.12500238211E+03 0.  0.
         25    2    1    2    0    0  0.39609632171E+02  0.90681050519E+01 -0.43576905063E+02  0.13846744531E+03  0.12499253284E+03 0.  0.
          5    1    4    4  502    0  0.71571183973E+02  0.43758053305E+02 -0.28649819068E+02  0.88769948389E+02  0.47000000000E+01 0.  1.
         -5    1    4    4    0  502 -0.31961551802E+02 -0.34689948253E+02 -0.14927085995E+02  0.49697496916E+02  0.47000000000E+01 0.  1.
          5    1    3    3  503    0 -0.66079438436E+02 -0.29239435001E+02 -0.21803986060E+02  0.75623677187E+02  0.47000000000E+01 0. -1.
         -5    1    3    3    0  503  0.26469806265E+02  0.20171329949E+02 -0.93027933197E+02  0.98913191995E+02  0.47000000000E+01 0. -1.
<mgrwt>
<rscale>  0 0.13143871E+03</rscale>
<asrwt>0</asrwt>
<pdfrwt beam="1">  1        5 0.11891961E-01 0.13144105E+03</pdfrwt>
<pdfrwt beam="2">  1       -5 0.36262549E-01 0.13144105E+03</pdfrwt>
<totfact> 0.31200963E+02</totfact>
</mgrwt>
</event>
<event>
 8    1  0.3694627E-007  0.1377470E+03  0.7546771E-02  0.1216412E+00
         -5   -1    0    0    0  501 -0.00000000000E+00  0.00000000000E+00  0.33488348729E+02  0.33816556604E+02  0.47000000000E+01 0.  1.
          5   -1    0    0  501    0  0.00000000000E+00 -0.00000000000E+00 -0.70519296368E+03  0.70520862589E+03  0.47000000000E+01 0.  1.
         25    2    1    2    0    0  0.57382053728E+02  0.75126899212E+01 -0.17007365701E+03  0.21882537438E+03  0.12494140652E+03 0.  0.
         25    2    1    2    0    0 -0.57382053728E+02 -0.75126899212E+01 -0.50163095794E+03  0.52019980811E+03  0.12500032717E+03 0.  0.
          5    1    3    3  502    0 -0.37984839096E+02 -0.10260184518E+02 -0.38144247397E+02  0.55001754490E+02  0.47000000000E+01 0.  1.
         -5    1    3    3    0  502  0.95366892824E+02  0.17772874439E+02 -0.13192940961E+03  0.16382361989E+03  0.47000000000E+01 0.  1.
          5    1    4    4  503    0 -0.38325220215E+02  0.57730150226E+02 -0.24057495346E+03  0.25039966251E+03  0.47000000000E+01 0.  1.
         -5    1    4    4    0  503 -0.19056833512E+02 -0.65242840147E+02 -0.26105600448E+03  0.26980014561E+03  0.47000000000E+01 0.  1.
<mgrwt>
<rscale>  0 0.13773358E+03</rscale>
<asrwt>0</asrwt>
<pdfrwt beam="2">  1        5 0.10851767E+00 0.13774695E+03</pdfrwt>
<pdfrwt beam="1">  1       -5 0.51785057E-02 0.13774695E+03</pdfrwt>
<totfact> 0.11571423E+02</totfact>
</mgrwt>
</event>
<event>
 8    1  0.3694627E-007  0.1431643E+03  0.7546771E-02  0.1209134E+00
         -5   -1    0    0    0  501 -0.00000000000E+00  0.00000000000E+00  0.16909238934E+03  0.16915769605E+03  0.47000000000E+01 0. -1.
          5   -1    0    0  501    0  0.00000000000E+00 -0.00000000000E+00 -0.13508427461E+03  0.13516601365E+03  0.47000000000E+01 0. -1.
         25    2    1    2    0    0  0.17471062777E+02 -0.67567144236E+02  0.65976909784E+02  0.15763553611E+03  0.12500181041E+03 0.  0.
         25    2    1    2    0    0 -0.17471062777E+02  0.67567144236E+02 -0.31968795052E+02  0.14668817359E+03  0.12499943760E+03 0.  0.
          5    1    3    3  502    0  0.45995845353E+02 -0.33401213475E+01  0.73399443032E+02  0.86812109972E+02  0.47000000000E+01 0. -1.
         -5    1    3    3    0  502 -0.28524782575E+02 -0.64227022888E+02 -0.74225332487E+01  0.70823426138E+02  0.47000000000E+01 0. -1.
          5    1    4    4  503    0 -0.31541850159E+02  0.25344602179E+02 -0.74525400063E+02  0.84931516091E+02  0.47000000000E+01 0. -1.
         -5    1    4    4    0  503  0.14070787381E+02  0.42222542057E+02  0.42556605011E+02  0.61756657499E+02  0.47000000000E+01 0. -1.
<mgrwt>
<rscale>  0 0.14316376E+03</rscale>
<asrwt>0</asrwt>
<pdfrwt beam="2">  1        5 0.20793507E-01 0.14316427E+03</pdfrwt>
<pdfrwt beam="1">  1       -5 0.26025525E-01 0.14316427E+03</pdfrwt>
<totfact> 0.22328279E+02</totfact>
</mgrwt>
</event>
<event>
 8    1  0.3694627E-007  0.1302303E+03  0.7546771E-02  0.1227121E+00
          5   -1    0    0  501    0  0.00000000000E+00  0.00000000000E+00  0.15777216189E+03  0.15784215238E+03  0.47000000000E+01 0.  1.
         -5   -1    0    0    0  501 -0.00000000000E+00 -0.00000000000E+00 -0.11683543672E+03  0.11692993318E+03  0.47000000000E+01 0.  1.
         25    2    1    2    0    0  0.34724094498E+02 -0.11318409885E+02 -0.18680774445E+02  0.13154436744E+03  0.12498431954E+03 0.  0.
         25    2    1    2    0    0 -0.34724094498E+02  0.11318409885E+02  0.59617499615E+02  0.14322771813E+03  0.12500425528E+03 0.  0.
          5    1    4    4  502    0 -0.12854627229E+02  0.11286257139E+02  0.97572201857E+02  0.99171798495E+02  0.47000000000E+01 0. -1.
         -5    1    4    4    0  502 -0.21869467269E+02  0.32152745576E-01 -0.37954702242E+02  0.44055919633E+02  0.47000000000E+01 0. -1.
          5    1    3    3  503    0  0.76384534820E+02  0.13241393578E+02  0.43208623804E+01  0.77786191033E+02  0.47000000000E+01 0.  1.
         -5    1    3    3    0  503 -0.41660440322E+02 -0.24559803463E+02 -0.23001636825E+02  0.53758176407E+02  0.47000000000E+01 0.  1.
<mgrwt>
<rscale>  0 0.13022552E+03</rscale>
<asrwt>0</asrwt>
<pdfrwt beam="1">  1        5 0.24285293E-01 0.13023031E+03</pdfrwt>
<pdfrwt beam="2">  1       -5 0.17987335E-01 0.13023031E+03</pdfrwt>
<totfact> 0.32311618E+02</totfact>
</mgrwt>
</event>
<event>
 8    1  0.3694627E-007  0.1264004E+03  0.7546771E-02  0.1232900E+00
          5   -1    0    0  501    0  0.00000000000E+00  0.00000000000E+00  0.77897436931E+02  0.78039097127E+02  0.47000000000E+01 0.  1.
         -5   -1    0    0    0  501 -0.00000000000E+00 -0.00000000000E+00 -0.20473740973E+03  0.20479134978E+03  0.47000000000E+01 0.  1.
         25    2    1    2    0    0  0.12526021272E+02 -0.13912281639E+02 -0.63829694556E+02  0.14159530036E+03  0.12499818554E+03 0.  0.
         25    2    1    2    0    0 -0.12526021272E+02  0.13912281639E+02 -0.63010278245E+02  0.14123514654E+03  0.12500647449E+03 0.  0.
          5    1    3    3  502    0  0.26282240391E+02  0.13192527736E+02 -0.93943423589E+02  0.98550777692E+02  0.47000000000E+01 0. -1.
         -5    1    3    3    0  502 -0.13756219119E+02 -0.27104809375E+02  0.30113729033E+02  0.43044522671E+02  0.47000000000E+01 0. -1.
          5    1    4    4  503    0 -0.65120059326E+02  0.10169785533E+01 -0.11407928510E+02  0.66286402866E+02  0.47000000000E+01 0. -1.
         -5    1    4    4    0  503  0.52594038054E+02  0.12895303085E+02 -0.51602349735E+02  0.74948743677E+02  0.47000000000E+01 0. -1.
<mgrwt>
<rscale>  0 0.12639839E+03</rscale>
<asrwt>0</asrwt>
<pdfrwt beam="1">  1        5 0.11999267E-01 0.12640044E+03</pdfrwt>
<pdfrwt beam="2">  1       -5 0.31513109E-01 0.12640044E+03</pdfrwt>
<totfact> 0.40040441E+02</totfact>
</mgrwt>
</event>
<event>
 8    1  0.3694627E-007  0.1285850E+03  0.7546771E-02  0.1229572E+00
         -5   -1    0    0    0  501 -0.00000000000E+00  0.00000000000E+00  0.22284454496E+03  0.22289410315E+03  0.47000000000E+01 0. -1.
          5   -1    0    0  501    0  0.00000000000E+00 -0.00000000000E+00 -0.74349664309E+02  0.74498071001E+02  0.47000000000E+01 0. -1.
         25    2    1    2    0    0  0.10086686415E+02  0.28406383405E+02  0.83498477590E+02  0.15331359497E+03  0.12499759510E+03 0.  0.
         25    2    1    2    0    0 -0.10086686415E+02 -0.28406383405E+02  0.64996403058E+02  0.14407857918E+03  0.12500176282E+03 0.  0.
          5    1    4    4  502    0 -0.59797453836E+02 -0.38165013555E+02  0.14822529953E+02  0.72623006955E+02  0.47000000000E+01 0. -1.
         -5    1    4    4    0  502  0.49710767421E+02  0.97586301508E+01  0.50173873105E+02  0.71455572227E+02  0.47000000000E+01 0. -1.
          5    1    3    3  503    0  0.26257359846E+02 -0.45104616882E+02  0.26113000956E+02  0.58547879800E+02  0.47000000000E+01 0.  1.
         -5    1    3    3    0  503 -0.16170673431E+02  0.73511000286E+02  0.57385476633E+02  0.94765715165E+02  0.47000000000E+01 0.  1.
<mgrwt>
<rscale>  0 0.12858400E+03</rscale>
<asrwt>0</asrwt>
<pdfrwt beam="2">  1        5 0.11453638E-01 0.12858501E+03</pdfrwt>
<pdfrwt beam="1">  1       -5 0.34299004E-01 0.12858501E+03</pdfrwt>
<totfact> 0.36978545E+02</totfact>
</mgrwt>
</event>
<event>
 8    1  0.3694627E-007  0.1274511E+03  0.7546771E-02  0.1231303E+00
          5   -1    0    0  501    0  0.00000000000E+00  0.00000000000E+00  0.68675071287E+03  0.68676679567E+03  0.47000000000E+01 0.  1.
         -5   -1    0    0    0  501 -0.00000000000E+00 -0.00000000000E+00 -0.23396727587E+02  0.23864133376E+02  0.47000000000E+01 0.  1.
         25    2    1    2    0    0 -0.82406640994E+01  0.23553305115E+02  0.32886950451E+03  0.35268727209E+03  0.12494196321E+03 0.  0.
         25    2    1    2    0    0  0.82406640994E+01 -0.23553305115E+02  0.33448448077E+03  0.35794365695E+03  0.12498450683E+03 0.  0.
          5    1    4    4  502    0  0.56875664557E+02 -0.37106016510E+02  0.12419175180E+03  0.14162407597E+03  0.47000000000E+01 0. -1.
         -5    1    4    4    0  502 -0.48635000457E+02  0.13552711394E+02  0.21029272898E+03  0.21631958098E+03  0.47000000000E+01 0. -1.
          5    1    3    3  503    0  0.26067155516E+02  0.56988552772E+02  0.94926090062E+02  0.11384306882E+03  0.47000000000E+01 0.  1.
         -5    1    3    3    0  503 -0.34307819615E+02 -0.33435247657E+02  0.23394341445E+03  0.23884420327E+03  0.47000000000E+01 0.  1.
<mgrwt>
<rscale>  0 0.12744071E+03</rscale>
<asrwt>0</asrwt>
<pdfrwt beam="1">  1        5 0.10569115E+00 0.12745114E+03</pdfrwt>
<pdfrwt beam="2">  1       -5 0.36366879E-02 0.12745114E+03</pdfrwt>
<totfact> 0.21534309E+02</totfact>
</mgrwt>
</event>
<event>
 8    1  0.3694627E-007  0.1474708E+03  0.7546771E-02  0.1203620E+00
         -5   -1    0    0    0  501 -0.00000000000E+00  0.00000000000E+00  0.15324552249E+03  0.15331757943E+03  0.47000000000E+01 0. -1.
          5   -1    0    0  501    0  0.00000000000E+00 -0.00000000000E+00 -0.20316438023E+03  0.20321873780E+03  0.47000000000E+01 0. -1.
         25    2    1    2    0    0 -0.73519511151E+02  0.26777931570E+02  0.73016825489E+02  0.16454460913E+03  0.12498518092E+03 0.  0.
         25    2    1    2    0    0  0.73519511151E+02 -0.26777931570E+02 -0.12293568323E+03  0.19199170811E+03  0.12500183052E+03 0.  0.
          5    1    3    3  502    0  0.99088632971E+01  0.18097888296E+02 -0.26756190070E+02  0.34113088979E+02  0.47000000000E+01 0.  1.
         -5    1    3    3    0  502 -0.83428374448E+02  0.86800432743E+01  0.99773015559E+02  0.13043152015E+03  0.47000000000E+01 0.  1.
          5    1    4    4  503    0  0.37188924187E+02 -0.19677633022E+02 -0.14334070532E+03  0.14946194541E+03  0.47000000000E+01 0.  1.
         -5    1    4    4    0  503  0.36330586964E+02 -0.71002985483E+01  0.20405022094E+02  0.42529762699E+02  0.47000000000E+01 0.  1.
<mgrwt>
<rscale>  0 0.14746726E+03</rscale>
<asrwt>0</asrwt>
<pdfrwt beam="2">  1        5 0.31265783E-01 0.14747079E+03</pdfrwt>
<pdfrwt beam="1">  1       -5 0.23585958E-01 0.14747079E+03</pdfrwt>
<totfact> 0.12421680E+02</totfact>
</mgrwt>
</event>
<event>
 8    1  0.3694627E-007  0.1292444E+03  0.7546771E-02  0.1228597E+00
          5   -1    0    0  501    0  0.00000000000E+00  0.00000000000E+00  0.14688849751E+03  0.14696367136E+03  0.47000000000E+01 0. -1.
         -5   -1    0    0    0  501 -0.00000000000E+00 -0.00000000000E+00 -0.13579737278E+03  0.13587868285E+03  0.47000000000E+01 0. -1.
         25    2    1    2    0    0 -0.25544565857E+02  0.20714941546E+02 -0.51685176630E+02  0.13919582396E+03  0.12498994470E+03 0.  0.
         25    2    1    2    0    0  0.25544565857E+02 -0.20714941546E+02  0.62776301359E+02  0.14364653026E+03  0.12494730087E+03 0.  0.
          5    1    4    4  502    0  0.64525268789E+02  0.10312440263E+02  0.66646497379E+02  0.93454279460E+02  0.47000000000E+01 0.  1.
         -5    1    4    4    0  502 -0.38980702932E+02 -0.31027381809E+02 -0.38701960194E+01  0.50192250798E+02  0.47000000000E+01 0.  1.
          5    1    3    3  503    0 -0.11746690886E+02 -0.22841767244E+02 -0.80732752920E+02  0.84850447680E+02  0.47000000000E+01 0. -1.
         -5    1    3    3    0  503 -0.13797874971E+02  0.43556708790E+02  0.29047576290E+02  0.54345376276E+02  0.47000000000E+01 0. -1.
<mgrwt>
<rscale>  0 0.12923411E+03</rscale>
<asrwt>0</asrwt>
<pdfrwt beam="1">  1        5 0.22610267E-01 0.12924442E+03</pdfrwt>
<pdfrwt beam="2">  1       -5 0.20903941E-01 0.12924442E+03</pdfrwt>
<totfact> 0.27915581E+02</totfact>
</mgrwt>
</event>
<event>
 8    1  0.3694627E-007  0.1433648E+03  0.7546771E-02  0.1208874E+00
         -5   -1    0    0    0  501 -0.00000000000E+00  0.00000000000E+00  0.37551037951E+03  0.37553979166E+03  0.47000000000E+01 0. -1.
          5   -1    0    0  501    0  0.00000000000E+00 -0.00000000000E+00 -0.63675525870E+02  0.63848747794E+02  0.47000000000E+01 0. -1.
         25    2    1    2    0    0  0.52275206303E+02  0.46855737619E+02  0.23872143966E+03  0.27846255646E+03  0.12500124901E+03 0.  0.
         25    2    1    2    0    0 -0.52275206303E+02 -0.46855737619E+02  0.73113413977E+02  0.16092598299E+03  0.12499377328E+03 0.  0.
          5    1    4    4  502    0 -0.73968040334E+02 -0.74646855420E+02  0.67320648266E+02  0.12489028664E+03  0.47000000000E+01 0. -1.
         -5    1    4    4    0  502  0.21692834031E+02  0.27791117801E+02  0.57927657108E+01  0.36035696351E+02  0.47000000000E+01 0. -1.
          5    1    3    3  503    0  0.54463936336E+02  0.69174316772E+02  0.23983004080E+03  0.25552288534E+03  0.47000000000E+01 0. -1.
         -5    1    3    3    0  503 -0.21887300329E+01 -0.22318579153E+02 -0.11086011377E+01  0.22939671119E+02  0.47000000000E+01 0. -1.
<mgrwt>
<rscale>  0 0.14336318E+03</rscale>
<asrwt>0</asrwt>
<pdfrwt beam="2">  1        5 0.98118221E-02 0.14336481E+03</pdfrwt>
<pdfrwt beam="1">  1       -5 0.57786414E-01 0.14336481E+03</pdfrwt>
<totfact> 0.17003746E+02</totfact>
</mgrwt>
</event>
<event>
 8    1  0.3694627E-007  0.1290778E+03  0.7546771E-02  0.1228851E+00
          5   -1    0    0  501    0  0.00000000000E+00  0.00000000000E+00  0.11229941090E+02  0.12173807000E+02  0.47000000000E+01 0. -1.
         -5   -1    0    0    0  501 -0.00000000000E+00 -0.00000000000E+00 -0.14544132591E+04  0.14544208532E+04  0.47000000000E+01 0. -1.
         25    2    1    2    0    0  0.22935036644E+02 -0.22269606694E+02 -0.83074269388E+03  0.84071071576E+03  0.12505651873E+03 0.  0.
         25    2    1    2    0    0 -0.22935036644E+02  0.22269606694E+02 -0.61244062410E+03  0.62588394441E+03  0.12500097015E+03 0.  0.
          5    1    4    4  502    0 -0.29707758659E+02  0.47578266006E+02 -0.58482986967E+03  0.58753238956E+03  0.47000000000E+01 0. -1.
         -5    1    4    4    0  502  0.67727220143E+01 -0.25308659312E+02 -0.27610754426E+02  0.38351554852E+02  0.47000000000E+01 0. -1.
          5    1    3    3  503    0  0.20415371400E+02  0.44043699039E+02 -0.55150776418E+03  0.55366012929E+03  0.47000000000E+01 0.  1.
         -5    1    3    3    0  503  0.25196652445E+01 -0.66313305734E+02 -0.27923492970E+03  0.28705058647E+03  0.47000000000E+01 0.  1.
<mgrwt>
<rscale>  0 0.12906437E+03</rscale>
<asrwt>0</asrwt>
<pdfrwt beam="1">  1        5 0.18008736E-02 0.12907782E+03</pdfrwt>
<pdfrwt beam="2">  1       -5 0.22382893E+00 0.12907782E+03</pdfrwt>
<totfact> 0.81786397E+01</totfact>
</mgrwt>
</event>
<event>
 8    1  0.3694627E-007  0.1335256E+03  0.7546771E-02  0.1222316E+00
         -5   -1    0    0    0  501 -0.00000000000E+00  0.00000000000E+00  0.22898117299E+03  0.22902940332E+03  0.47000000000E+01 0.  1.
          5   -1    0    0  501    0  0.00000000000E+00 -0.00000000000E+00 -0.77748873316E+02  0.77890803705E+02  0.47000000000E+01 0.  1.
         25    2    1    2    0    0  0.11559728452E+02 -0.45505313787E+02  0.77662796115E+02  0.15446838522E+03  0.12499844490E+03 0.  0.
         25    2    1    2    0    0 -0.11559728452E+02  0.45505313787E+02  0.73569503557E+02  0.15245182180E+03  0.12499890084E+03 0.  0.
          5    1    3    3  502    0  0.45310087627E+02 -0.54489357255E+01  0.89490349375E+02  0.10056494207E+03  0.47000000000E+01 0. -1.
         -5    1    3    3    0  502 -0.33750359175E+02 -0.40056378062E+02 -0.11827553260E+02  0.53903443155E+02  0.47000000000E+01 0. -1.
          5    1    4    4  503    0  0.23042302479E+02 -0.32108895090E+02 -0.23416612578E+00  0.39800423128E+02  0.47000000000E+01 0.  1.
         -5    1    4    4    0  503 -0.34602030931E+02  0.77614208877E+02  0.73803669683E+02  0.11265139867E+03  0.47000000000E+01 0.  1.
<mgrwt>
<rscale>  0 0.13352549E+03</rscale>
<asrwt>0</asrwt>
<pdfrwt beam="2">  1        5 0.11975993E-01 0.13352560E+03</pdfrwt>
<pdfrwt beam="1">  1       -5 0.35242501E-01 0.13352560E+03</pdfrwt>
<totfact> 0.32815889E+02</totfact>
</mgrwt>
</event>
<event>
 8    1  0.3694627E-007  0.1963606E+03  0.7546771E-02  0.1152851E+00
          5   -1    0    0  501    0  0.00000000000E+00  0.00000000000E+00  0.21741838183E+03  0.21746917657E+03  0.47000000000E+01 0.  1.
         -5   -1    0    0    0  501 -0.00000000000E+00 -0.00000000000E+00 -0.18769853194E+03  0.18775736707E+03  0.47000000000E+01 0.  1.
         25    2    1    2    0    0  0.15116017980E+03 -0.84729526108E+01 -0.33000582326E+02  0.19911429990E+03  0.12504509230E+03 0.  0.
         25    2    1    2    0    0 -0.15116017980E+03  0.84729526108E+01  0.62720432218E+02  0.20611224374E+03  0.12500885376E+03 0.  0.
          5    1    3    3  502    0  0.12574983305E+03  0.17139993856E+02 -0.71827272163E+02  0.14590423890E+03  0.47000000000E+01 0.  1.
         -5    1    3    3    0  502  0.25410346748E+02 -0.25612946466E+02  0.38826689837E+02  0.53210061006E+02  0.47000000000E+01 0.  1.
          5    1    4    4  503    0 -0.21475764625E+02 -0.45328668754E+01  0.71946424556E+02  0.75366659437E+02  0.47000000000E+01 0. -1.
         -5    1    4    4    0  503 -0.12968441517E+03  0.13005819486E+02 -0.92259923383E+01  0.13074558430E+03  0.47000000000E+01 0. -1.
<mgrwt>
<rscale>  0 0.19635478E+03</rscale>
<asrwt>0</asrwt>
<pdfrwt beam="1">  1        5 0.33457415E-01 0.19636055E+03</pdfrwt>
<pdfrwt beam="2">  1       -5 0.28885130E-01 0.19636055E+03</pdfrwt>
<totfact> 0.79869681E+01</totfact>
</mgrwt>
</event>
<event>
 8    1  0.3694627E-007  0.1289395E+03  0.7546771E-02  0.1229039E+00
          5   -1    0    0  501    0  0.00000000000E+00  0.00000000000E+00  0.31703528734E+02  0.32050019255E+02  0.47000000000E+01 0.  1.
         -5   -1    0    0    0  501 -0.00000000000E+00 -0.00000000000E+00 -0.52339093077E+03  0.52341203311E+03  0.47000000000E+01 0.  1.
         25    2    1    2    0    0  0.20811640506E+02  0.23827688027E+02 -0.26387925588E+03  0.29369509986E+03  0.12499466749E+03 0.  0.
         25    2    1    2    0    0 -0.20811640506E+02 -0.23827688027E+02 -0.22780814615E+03  0.26176695251E+03  0.12499801148E+03 0.  0.
          5    1    4    4  502    0 -0.61865150555E+02 -0.35488160369E+02 -0.19513471278E+03  0.20781326356E+03  0.47000000000E+01 0.  1.
         -5    1    4    4    0  502  0.41053510049E+02  0.11660472342E+02 -0.32673433369E+02  0.53953688944E+02  0.47000000000E+01 0.  1.
          5    1    3    3  503    0  0.58877316658E+02  0.52399135311E+02 -0.13733827937E+03  0.15841748886E+03  0.47000000000E+01 0. -1.
         -5    1    3    3    0  503 -0.38065676152E+02 -0.28571447284E+02 -0.12654097651E+03  0.13527761100E+03  0.47000000000E+01 0. -1.
<mgrwt>
<rscale>  0 0.12893866E+03</rscale>
<asrwt>0</asrwt>
<pdfrwt beam="1">  1        5 0.49057427E-02 0.12893947E+03</pdfrwt>
<pdfrwt beam="2">  1       -5 0.80549952E-01 0.12893947E+03</pdfrwt>
<totfact> 0.25274915E+02</totfact>
</mgrwt>
</event>
<event>
 8    1  0.3694627E-007  0.1283252E+03  0.7546771E-02  0.1229965E+00
         -5   -1    0    0    0  501 -0.00000000000E+00  0.00000000000E+00  0.25138849008E+03  0.25143242222E+03  0.47000000000E+01 0. -1.
          5   -1    0    0  501    0  0.00000000000E+00 -0.00000000000E+00 -0.73247786623E+02  0.73398421271E+02  0.47000000000E+01 0. -1.
         25    2    1    2    0    0  0.40347163931E+01 -0.28734204577E+02  0.14226460698E+03  0.19158501770E+03  0.12499466852E+03 0.  0.
         25    2    1    2    0    0 -0.40347163931E+01  0.28734204577E+02  0.35876096472E+02  0.13324582579E+03  0.12500168936E+03 0.  0.
          5    1    4    4  502    0  0.26372671581E+02  0.21656302655E+02  0.75260260380E+02  0.82769016205E+02  0.47000000000E+01 0.  1.
         -5    1    4    4    0  502 -0.30407387974E+02  0.70779019220E+01 -0.39384163908E+02  0.50476809584E+02  0.47000000000E+01 0.  1.
          5    1    3    3  503    0  0.47306143402E+02 -0.56904501218E+02  0.65404311718E+02  0.98872683052E+02  0.47000000000E+01 0.  1.
         -5    1    3    3    0  503 -0.43271427009E+02  0.28170296641E+02  0.76860295264E+02  0.92712334650E+02  0.47000000000E+01 0.  1.
<mgrwt>
<rscale>  0 0.12832349E+03</rscale>
<asrwt>0</asrwt>
<pdfrwt beam="2">  1        5 0.11283857E-01 0.12832520E+03</pdfrwt>
<pdfrwt beam="1">  1       -5 0.38690119E-01 0.12832520E+03</pdfrwt>
<totfact> 0.29764259E+02</totfact>
</mgrwt>
</event>
<event>
 8    1  0.3694627E-007  0.1262251E+03  0.7546771E-02  0.1233171E+00
         -5   -1    0    0    0  501 -0.00000000000E+00  0.00000000000E+00  0.32467421147E+02  0.32805844540E+02  0.47000000000E+01 0. -1.
          5   -1    0    0  501    0  0.00000000000E+00 -0.00000000000E+00 -0.49159278089E+03  0.49161524816E+03  0.47000000000E+01 0. -1.
         25    2    1    2    0    0  0.11222997415E+02  0.13487864947E+02 -0.20650376934E+03  0.24201986416E+03  0.12498771830E+03 0.  0.
         25    2    1    2    0    0 -0.11222997415E+02 -0.13487864947E+02 -0.25262159040E+03  0.28240122854E+03  0.12499963108E+03 0.  0.
          5    1    3    3  502    0 -0.10029573572E+02  0.66122182131E+02 -0.88871488316E+02  0.11132370256E+03  0.47000000000E+01 0. -1.
         -5    1    3    3    0  502  0.21252570986E+02 -0.52634317184E+02 -0.11763228102E+03  0.13069616160E+03  0.47000000000E+01 0. -1.
          5    1    4    4  503    0 -0.20010899412E+02 -0.17617771854E+02  0.23752114053E+01  0.27176342830E+02  0.47000000000E+01 0. -1.
         -5    1    4    4    0  503  0.87879019975E+01  0.41299069074E+01 -0.25499680181E+03  0.25522488571E+03  0.47000000000E+01 0. -1.
<mgrwt>
<rscale>  0 0.12622219E+03</rscale>
<asrwt>0</asrwt>
<pdfrwt beam="2">  1        5 0.75657414E-01 0.12622514E+03</pdfrwt>
<pdfrwt beam="1">  1       -5 0.50227491E-02 0.12622514E+03</pdfrwt>
<totfact> 0.27857167E+02</totfact>
</mgrwt>
</event>
<event>
 8    1  0.3694627E-007  0.1344708E+03  0.7546771E-02  0.1220973E+00
         -5   -1    0    0    0  501 -0.00000000000E+00  0.00000000000E+00  0.12085792578E+03  0.12094927955E+03  0.47000000000E+01 0. -1.
          5   -1    0    0  501    0  0.00000000000E+00 -0.00000000000E+00 -0.14969669511E+03  0.14977045946E+03  0.47000000000E+01 0. -1.
         25    2    1    2    0    0 -0.10731827474E+02 -0.48390416557E+02 -0.86000184757E+01  0.13473446780E+03  0.12499044747E+03 0.  0.
         25    2    1    2    0    0  0.10731827474E+02  0.48390416557E+02 -0.20238750858E+02  0.13598527121E+03  0.12500232964E+03 0.  0.
          5    1    3    3  502    0 -0.44299851837E+01 -0.74938647691E+02  0.35098658812E+02  0.83002599579E+02  0.47000000000E+01 0.  1.
         -5    1    3    3    0  502 -0.63018422902E+01  0.26548231134E+02 -0.43698677288E+02  0.51731868218E+02  0.47000000000E+01 0.  1.
          5    1    4    4  503    0 -0.39756220611E+02 -0.22061446906E+02  0.39390433983E+01  0.45878868553E+02  0.47000000000E+01 0.  1.
         -5    1    4    4    0  503  0.50488048085E+02  0.70451863462E+02 -0.24177794256E+02  0.90106402657E+02  0.47000000000E+01 0.  1.
<mgrwt>
<rscale>  0 0.13446800E+03</rscale>
<asrwt>0</asrwt>
<pdfrwt beam="2">  1        5 0.23042962E-01 0.13447077E+03</pdfrwt>
<pdfrwt beam="1">  1       -5 0.18606228E-01 0.13447077E+03</pdfrwt>
<totfact> 0.33929135E+02</totfact>
</mgrwt>
</event>
<event>
 8    1  0.3694627E-007  0.1599264E+03  0.7546771E-02  0.1188783E+00
          5   -1    0    0  501    0  0.00000000000E+00  0.00000000000E+00  0.15028611922E+04  0.15028685415E+04  0.47000000000E+01 0. -1.
         -5   -1    0    0    0  501 -0.00000000000E+00 -0.00000000000E+00 -0.20377043714E+02  0.20912051800E+02  0.47000000000E+01 0. -1.
         25    2    1    2    0    0  0.78197306764E+02 -0.61941540350E+02  0.42163388893E+03  0.45094522101E+03  0.12499953138E+03 0.  0.
         25    2    1    2    0    0 -0.78197306764E+02  0.61941540350E+02  0.10608502596E+04  0.10728353723E+04  0.12498355747E+03 0.  0.
          5    1    3    3  502    0  0.26188183645E+02 -0.10113477831E+02  0.63100981661E+01  0.29154943583E+02  0.47000000000E+01 0.  1.
         -5    1    3    3    0  502  0.52009123119E+02 -0.51828062519E+02  0.41532379077E+03  0.42179027742E+03  0.47000000000E+01 0.  1.
          5    1    4    4  503    0 -0.28447934053E+02  0.52638707903E+02  0.93754861120E+03  0.93946772530E+03  0.47000000000E+01 0. -1.
         -5    1    4    4    0  503 -0.49749372711E+02  0.93028324472E+01  0.12330164836E+03  0.13336764700E+03  0.47000000000E+01 0. -1.
<mgrwt>
<rscale>  0 0.15992329E+03</rscale>
<asrwt>0</asrwt>
<pdfrwt beam="1">  1        5 0.23125121E+00 0.15992641E+03</pdfrwt>
<pdfrwt beam="2">  1       -5 0.31766485E-02 0.15992641E+03</pdfrwt>
<totfact> 0.31331503E+01</totfact>
</mgrwt>
</event>
<event>
 8    1  0.3694627E-007  0.1741881E+03  0.7546771E-02  0.1173550E+00
          5   -1    0    0  501    0  0.00000000000E+00  0.00000000000E+00  0.57635730951E+02  0.57827048016E+02  0.47000000000E+01 0.  1.
         -5   -1    0    0    0  501 -0.00000000000E+00 -0.00000000000E+00 -0.53983557096E+03  0.53985603051E+03  0.47000000000E+01 0.  1.
         25    2    1    2    0    0  0.42735837505E+02 -0.11353503970E+03 -0.19216813679E+03  0.25936478291E+03  0.12499976309E+03 0.  0.
         25    2    1    2    0    0 -0.42735837505E+02  0.11353503970E+03 -0.29003170322E+03  0.33831829561E+03  0.12499729286E+03 0.  0.
          5    1    4    4  502    0 -0.11153108685E+02 -0.22984816623E+02 -0.16017265487E+02  0.30517805004E+02  0.47000000000E+01 0. -1.
         -5    1    4    4    0  502 -0.31582728820E+02  0.13651985632E+03 -0.27401443774E+03  0.30780049060E+03  0.47000000000E+01 0. -1.
          5    1    3    3  503    0 -0.42910866327E+02 -0.54013476334E+02 -0.87580492322E+02  0.11158508283E+03  0.47000000000E+01 0.  1.
         -5    1    3    3    0  503  0.85646703832E+02 -0.59521563362E+02 -0.10458764447E+03  0.14777970009E+03  0.47000000000E+01 0.  1.
<mgrwt>
<rscale>  0 0.17418767E+03</rscale>
<asrwt>0</asrwt>
<pdfrwt beam="1">  1        5 0.88833264E-02 0.17418811E+03</pdfrwt>
<pdfrwt beam="2">  1       -5 0.83067914E-01 0.17418811E+03</pdfrwt>
<totfact> 0.94674563E+01</totfact>
</mgrwt>
</event>
<event>
 8    1  0.3694627E-007  0.1720590E+03  0.7546771E-02  0.1175719E+00
         -5   -1    0    0    0  501 -0.00000000000E+00  0.00000000000E+00  0.54241410838E+02  0.54444656760E+02  0.47000000000E+01 0. -1.
          5   -1    0    0  501    0  0.00000000000E+00 -0.00000000000E+00 -0.56142351276E+03  0.56144318562E+03  0.47000000000E+01 0. -1.
         25    2    1    2    0    0  0.11786727731E+03 -0.92147420072E+01 -0.20019835535E+03  0.26397664682E+03  0.12500672803E+03 0.  0.
         25    2    1    2    0    0 -0.11786727731E+03  0.92147420072E+01 -0.30698374657E+03  0.35191119556E+03  0.12499944948E+03 0.  0.
          5    1    4    4  502    0 -0.50255183969E+02 -0.77614407814E+01 -0.26610771742E+03  0.27096352291E+03  0.47000000000E+01 0. -1.
         -5    1    4    4    0  502 -0.67612093338E+02  0.16976182789E+02 -0.40876029151E+02  0.80947672646E+02  0.47000000000E+01 0. -1.
          5    1    3    3  503    0  0.55325333926E+02  0.57592593007E+02 -0.84090810804E+02  0.11606529975E+03  0.47000000000E+01 0. -1.
         -5    1    3    3    0  503  0.62541943381E+02 -0.66807335014E+02 -0.11610754455E+03  0.14791134708E+03  0.47000000000E+01 0. -1.
<mgrwt>
<rscale>  0 0.17205765E+03</rscale>
<asrwt>0</asrwt>
<pdfrwt beam="2">  1        5 0.86389992E-01 0.17205897E+03</pdfrwt>
<pdfrwt beam="1">  1       -5 0.83619804E-02 0.17205897E+03</pdfrwt>
<totfact> 0.95520678E+01</totfact>
</mgrwt>
</event>
<event>
 8    1  0.3694627E-007  0.1295057E+03  0.7546771E-02  0.1228194E+00
          5   -1    0    0  501    0  0.00000000000E+00  0.00000000000E+00  0.45544462970E+02  0.45786331008E+02  0.47000000000E+01 0.  1.
         -5   -1    0    0    0  501 -0.00000000000E+00 -0.00000000000E+00 -0.37218521081E+03  0.37221488571E+03  0.47000000000E+01 0.  1.
         25    2    1    2    0    0  0.32716652774E+02 -0.87727470344E+01 -0.18800164144E+03  0.22829006030E+03  0.12499757592E+03 0.  0.
         25    2    1    2    0    0 -0.32716652774E+02  0.87727470344E+01 -0.13863910639E+03  0.18971115642E+03  0.12498872185E+03 0.  0.
          5    1    4    4  502    0  0.32469375660E+02 -0.37180814723E+02 -0.54607424226E+02  0.73761332145E+02  0.47000000000E+01 0.  1.
         -5    1    4    4    0  502 -0.65186028434E+02  0.45953561758E+02 -0.84031682167E+02  0.11594982427E+03  0.47000000000E+01 0.  1.
          5    1    3    3  503    0 -0.27203142040E+02  0.42259467637E+02 -0.79339894830E+02  0.94036069959E+02  0.47000000000E+01 0. -1.
         -5    1    3    3    0  503  0.59919794813E+02 -0.51032214671E+02 -0.10866174661E+03  0.13425399034E+03  0.47000000000E+01 0. -1.
<mgrwt>
<rscale>  0 0.12950359E+03</rscale>
<asrwt>0</asrwt>
<pdfrwt beam="1">  1        5 0.70277286E-02 0.12950573E+03</pdfrwt>
<pdfrwt beam="2">  1       -5 0.57280149E-01 0.12950573E+03</pdfrwt>
<totfact> 0.29718441E+02</totfact>
</mgrwt>
</event>
<event>
 8    1  0.3694627E-007  0.1310265E+03  0.7546771E-02  0.1225944E+00
          5   -1    0    0  501    0  0.00000000000E+00  0.00000000000E+00  0.21071274579E+03  0.21076515661E+03  0.47000000000E+01 0. -1.
         -5   -1    0    0    0  501 -0.00000000000E+00 -0.00000000000E+00 -0.94318366167E+02  0.94435396946E+02  0.47000000000E+01 0. -1.
         25    2    1    2    0    0  0.18758993771E+02  0.34493299153E+02  0.16428437362E+01  0.13103683891E+03  0.12500506663E+03 0.  0.
         25    2    1    2    0    0 -0.18758993771E+02 -0.34493299153E+02  0.11475153589E+03  0.17416371464E+03  0.12499358774E+03 0.  0.
          5    1    3    3  502    0  0.26642061493E+02 -0.18041968144E+02  0.49603712286E+02  0.59312143171E+02  0.47000000000E+01 0.  1.
         -5    1    3    3    0  502 -0.78830677217E+01  0.52535267297E+02 -0.47960868549E+02  0.71724695738E+02  0.47000000000E+01 0.  1.
          5    1    4    4  503    0 -0.44331099912E+02  0.34626758490E+02  0.58829131258E+02  0.81530457545E+02  0.47000000000E+01 0. -1.
         -5    1    4    4    0  503  0.25572106141E+02 -0.69120057643E+02  0.55922404631E+02  0.92633257099E+02  0.47000000000E+01 0. -1.
<mgrwt>
<rscale>  0 0.13102380E+03</rscale>
<asrwt>0</asrwt>
<pdfrwt beam="1">  1        5 0.32430380E-01 0.13102654E+03</pdfrwt>
<pdfrwt beam="2">  1       -5 0.14523552E-01 0.13102654E+03</pdfrwt>
<totfact> 0.27257730E+02</totfact>
</mgrwt>
</event>
<event>
 8    1  0.3694627E-007  0.1299450E+03  0.7546771E-02  0.1227543E+00
         -5   -1    0    0    0  501 -0.00000000000E+00  0.00000000000E+00  0.32796366825E+03  0.32799734403E+03  0.47000000000E+01 0.  1.
          5   -1    0    0  501    0  0.00000000000E+00 -0.00000000000E+00 -0.51921577661E+02  0.52133868327E+02  0.47000000000E+01 0.  1.
         25    2    1    2    0    0 -0.26663779078E+02 -0.23448723123E+02  0.15812965329E+03  0.20466316826E+03  0.12498490094E+03 0.  0.
         25    2    1    2    0    0  0.26663779078E+02  0.23448723123E+02  0.11791243730E+03  0.17546804410E+03  0.12499956759E+03 0.  0.
          5    1    3    3  502    0 -0.59924085257E+02 -0.25813523846E+02  0.15798069421E+03  0.17098895797E+03  0.47000000000E+01 0.  1.
         -5    1    3    3    0  502  0.33260306179E+02  0.23648007227E+01  0.14895908021E+00  0.33674210286E+02  0.47000000000E+01 0.  1.
          5    1    4    4  503    0  0.59041205101E+02  0.47648080391E+02  0.11047384560E+03  0.13409982859E+03  0.47000000000E+01 0. -1.
         -5    1    4    4    0  503 -0.32377426024E+02 -0.24199357268E+02  0.74385916997E+01  0.41368215511E+02  0.47000000000E+01 0. -1.
<mgrwt>
<rscale>  0 0.12994143E+03</rscale>
<asrwt>0</asrwt>
<pdfrwt beam="2">  1        5 0.80068555E-02 0.12994496E+03</pdfrwt>
<pdfrwt beam="1">  1       -5 0.50474870E-01 0.12994496E+03</pdfrwt>
<totfact> 0.31241114E+02</totfact>
</mgrwt>
</event>
<event>
 8    1  0.3694627E-007  0.1291460E+03  0.7546771E-02  0.1228731E+00
          5   -1    0    0  501    0  0.00000000000E+00  0.00000000000E+00  0.38285815518E+03  0.38288700290E+03  0.47000000000E+01 0. -1.
         -5   -1    0    0    0  501 -0.00000000000E+00 -0.00000000000E+00 -0.43580589943E+02  0.43833295790E+02  0.47000000000E+01 0. -1.
         25    2    1    2    0    0 -0.64158333213E+00  0.32448268325E+02  0.18318146208E+03  0.22412545260E+03  0.12499387469E+03 0.  0.
         25    2    1    2    0    0  0.64158333213E+00 -0.32448268325E+02  0.15609610316E+03  0.20259484608E+03  0.12500150596E+03 0.  0.
          5    1    4    4  502    0  0.10423401322E+02  0.16578753589E+02  0.15075901970E+03  0.15209823926E+03  0.47000000000E+01 0.  1.
         -5    1    4    4    0  502 -0.97818179902E+01 -0.49027021914E+02  0.53370834611E+01  0.50496606825E+02  0.47000000000E+01 0.  1.
          5    1    3    3  503    0 -0.31405947478E+01  0.30372859390E+01 -0.18841079001E+02  0.19903886535E+02  0.47000000000E+01 0.  1.
         -5    1    3    3    0  503  0.24990114156E+01  0.29410982386E+02  0.20202254108E+03  0.20422156607E+03  0.47000000000E+01 0.  1.
<mgrwt>
<rscale>  0 0.12914411E+03</rscale>
<asrwt>0</asrwt>
<pdfrwt beam="1">  1        5 0.58922915E-01 0.12914596E+03</pdfrwt>
<pdfrwt beam="2">  1       -5 0.67263638E-02 0.12914596E+03</pdfrwt>
<totfact> 0.30071321E+02</totfact>
</mgrwt>
</event>
<event>
 8    1  0.3694627E-007  0.1265599E+03  0.7546771E-02  0.1232655E+00
         -5   -1    0    0    0  501 -0.00000000000E+00  0.00000000000E+00  0.13170992024E+04  0.13171075882E+04  0.47000000000E+01 0. -1.
          5   -1    0    0  501    0  0.00000000000E+00 -0.00000000000E+00 -0.16999551451E+02  0.17637311290E+02  0.47000000000E+01 0. -1.
         25    2    1    2    0    0  0.38613506894E+00  0.19758315236E+02  0.10144968317E+04  0.10223606127E+04  0.12500744323E+03 0.  0.
         25    2    1    2    0    0 -0.38613506894E+00 -0.19758315236E+02  0.28560281927E+03  0.31238428679E+03  0.12499772851E+03 0.  0.
          5    1    3    3  502    0  0.54719038543E+02  0.30384741470E+02  0.35317797952E+03  0.35871183547E+03  0.47000000000E+01 0.  1.
         -5    1    3    3    0  502 -0.54332903474E+02 -0.10626426234E+02  0.66131885217E+03  0.66364877727E+03  0.47000000000E+01 0.  1.
          5    1    4    4  503    0 -0.18149575800E+01  0.53117504262E+02  0.12820389555E+03  0.13886357393E+03  0.47000000000E+01 0. -1.
         -5    1    4    4    0  503  0.14288225111E+01 -0.72875819498E+02  0.15739892372E+03  0.17352071286E+03  0.47000000000E+01 0. -1.
<mgrwt>
<rscale>  0 0.12655747E+03</rscale>
<asrwt>0</asrwt>
<pdfrwt beam="2">  1        5 0.26650187E-02 0.12655987E+03</pdfrwt>
<pdfrwt beam="1">  1       -5 0.20268038E+00 0.12655987E+03</pdfrwt>
<totfact> 0.60046907E+01</totfact>
</mgrwt>
</event>
<event>
 8    1  0.3694627E-007  0.1261714E+03  0.7546771E-02  0.1233250E+00
         -5   -1    0    0    0  501 -0.00000000000E+00  0.00000000000E+00  0.10612539778E+04  0.10612643853E+04  0.47000000000E+01 0. -1.
          5   -1    0    0  501    0  0.00000000000E+00 -0.00000000000E+00 -0.17037162139E+02  0.17673564829E+02  0.47000000000E+01 0. -1.
         25    2    1    2    0    0 -0.90524796851E+00  0.17085082815E+02  0.72121120873E+03  0.73216446864E+03  0.12500592791E+03 0.  0.
         25    2    1    2    0    0  0.90524796851E+00 -0.17085082815E+02  0.32300560697E+03  0.34677348148E+03  0.12500602302E+03 0.  0.
          5    1    3    3  502    0  0.50578437841E+02 -0.23354127923E+02  0.23587328454E+03  0.24240851888E+03  0.47000000000E+01 0. -1.
         -5    1    3    3    0  502 -0.51483685810E+02  0.40439210738E+02  0.48533792419E+03  0.48975594976E+03  0.47000000000E+01 0. -1.
          5    1    4    4  503    0 -0.49395018704E+02  0.82729959170E+01  0.62616653052E+02  0.80319646249E+02  0.47000000000E+01 0.  1.
         -5    1    4    4    0  503  0.50300266672E+02 -0.25358078732E+02  0.26038895392E+03  0.26645383523E+03  0.47000000000E+01 0.  1.
<mgrwt>
<rscale>  0 0.12617139E+03</rscale>
<asrwt>0</asrwt>
<pdfrwt beam="2">  1        5 0.26708557E-02 0.12617141E+03</pdfrwt>
<pdfrwt beam="1">  1       -5 0.16331964E+00 0.12617141E+03</pdfrwt>
<totfact> 0.11319397E+02</totfact>
</mgrwt>
</event>
<event>
 8    1  0.3694627E-007  0.1292105E+03  0.7546771E-02  0.1228633E+00
          5   -1    0    0  501    0  0.00000000000E+00  0.00000000000E+00  0.30102781684E+02  0.30467482093E+02  0.47000000000E+01 0. -1.
         -5   -1    0    0    0  501 -0.00000000000E+00 -0.00000000000E+00 -0.55573010812E+03  0.55574998252E+03  0.47000000000E+01 0. -1.
         25    2    1    2    0    0 -0.31879271476E+02 -0.73459917974E+01 -0.29016655424E+03  0.31763497308E+03  0.12500038150E+03 0.  0.
         25    2    1    2    0    0  0.31879271476E+02  0.73459917974E+01 -0.23546077219E+03  0.26858249153E+03  0.12499811187E+03 0.  0.
          5    1    3    3  502    0 -0.51504117861E+02  0.40460910649E+02 -0.22469348114E+03  0.23409188349E+03  0.47000000000E+01 0. -1.
         -5    1    3    3    0  502  0.19624846385E+02 -0.47806902446E+02 -0.65473073100E+02  0.83543089590E+02  0.47000000000E+01 0. -1.
          5    1    4    4  503    0  0.65042857397E+02  0.41192920145E+02 -0.10965438560E+03  0.13406567141E+03  0.47000000000E+01 0. -1.
         -5    1    4    4    0  503 -0.33163585921E+02 -0.33846928347E+02 -0.12580638659E+03  0.13451682013E+03  0.47000000000E+01 0. -1.
<mgrwt>
<rscale>  0 0.12920993E+03</rscale>
<asrwt>0</asrwt>
<pdfrwt beam="1">  1        5 0.46607803E-02 0.12921048E+03</pdfrwt>
<pdfrwt beam="2">  1       -5 0.85526515E-01 0.12921048E+03</pdfrwt>
<totfact> 0.23945441E+02</totfact>
</mgrwt>
</event>
<event>
 8    1  0.3694627E-007  0.1265886E+03  0.7546771E-02  0.1232611E+00
         -5   -1    0    0    0  501 -0.00000000000E+00  0.00000000000E+00  0.44509250780E+03  0.44511732218E+03  0.47000000000E+01 0. -1.
          5   -1    0    0  501    0  0.00000000000E+00 -0.00000000000E+00 -0.42168790694E+02  0.42429905828E+02  0.47000000000E+01 0. -1.
         25    2    1    2    0    0 -0.19851982358E+02 -0.13624390353E+01  0.29569196435E+03  0.32164570249E+03  0.12500505073E+03 0.  0.
         25    2    1    2    0    0  0.19851982358E+02  0.13624390353E+01  0.10723175276E+03  0.16590152551E+03  0.12501483881E+03 0.  0.
          5    1    4    4  502    0  0.59361687423E+02  0.85567202329E+01  0.10999736846E+03  0.12537359556E+03  0.47000000000E+01 0. -1.
         -5    1    4    4    0  502 -0.39509705065E+02 -0.71942811976E+01 -0.27656156995E+01  0.40527929956E+02  0.47000000000E+01 0. -1.
          5    1    3    3  503    0 -0.42729312704E+01  0.24569936629E+02  0.28924878534E+03  0.29035993103E+03  0.47000000000E+01 0.  1.
         -5    1    3    3    0  503 -0.15579051088E+02 -0.25932375664E+02  0.64431790112E+01  0.31285771465E+02  0.47000000000E+01 0.  1.
<mgrwt>
<rscale>  0 0.12658616E+03</rscale>
<asrwt>0</asrwt>
<pdfrwt beam="2">  1        5 0.65095009E-02 0.12658858E+03</pdfrwt>
<pdfrwt beam="1">  1       -5 0.68497764E-01 0.12658858E+03</pdfrwt>
<totfact> 0.22628171E+02</totfact>
</mgrwt>
</event>
<event>
 8    1  0.3694627E-007  0.1786175E+03  0.7546771E-02  0.1169148E+00
         -5   -1    0    0    0  501 -0.00000000000E+00  0.00000000000E+00  0.67284168591E+02  0.67448123347E+02  0.47000000000E+01 0.  1.
          5   -1    0    0  501    0  0.00000000000E+00 -0.00000000000E+00 -0.51088644780E+03  0.51090806663E+03  0.47000000000E+01 0.  1.
         25    2    1    2    0    0  0.49064029070E+02  0.11777174700E+03 -0.30010329278E+03  0.34923573155E+03  0.12500458598E+03 0.  0.
         25    2    1    2    0    0 -0.49064029070E+02 -0.11777174700E+03 -0.14349898643E+03  0.22912045842E+03  0.12500704788E+03 0.  0.
          5    1    4    4  502    0  0.32938462245E+02 -0.21218688577E+02 -0.25366604481E+01  0.39543642804E+02  0.47000000000E+01 0.  1.
         -5    1    4    4    0  502 -0.82002491315E+02 -0.96553058428E+02 -0.14096232599E+03  0.18957681562E+03  0.47000000000E+01 0.  1.
          5    1    3    3  503    0  0.44289186668E+02  0.57222831438E+02 -0.27316749291E+03  0.28262794214E+03  0.47000000000E+01 0.  1.
         -5    1    3    3    0  503  0.47748424022E+01  0.60548915566E+02 -0.26935799865E+02  0.66607789414E+02  0.47000000000E+01 0.  1.
<mgrwt>
<rscale>  0 0.17861711E+03</rscale>
<asrwt>0</asrwt>
<pdfrwt beam="2">  1        5 0.78612188E-01 0.17861754E+03</pdfrwt>
<pdfrwt beam="1">  1       -5 0.10365686E-01 0.17861754E+03</pdfrwt>
<totfact> 0.82808646E+01</totfact>
</mgrwt>
</event>
<event>
 8    1  0.3694627E-007  0.1265084E+03  0.7546771E-02  0.1232735E+00
          5   -1    0    0  501    0  0.00000000000E+00  0.00000000000E+00  0.11165041377E+02  0.12113965039E+02  0.47000000000E+01 0.  1.
         -5   -1    0    0    0  501 -0.00000000000E+00 -0.00000000000E+00 -0.14068204648E+04  0.14068283158E+04  0.47000000000E+01 0.  1.
         25    2    1    2    0    0  0.18449970890E+02 -0.62204615147E+01 -0.80622480848E+03  0.81608839039E+03  0.12499089388E+03 0.  0.
         25    2    1    2    0    0 -0.18449970890E+02  0.62204615147E+01 -0.58943061490E+03  0.60285389042E+03  0.12500107139E+03 0.  0.
          5    1    3    3  502    0 -0.64163556316E+00 -0.59632190584E+02 -0.56879685788E+03  0.57193388200E+03  0.47000000000E+01 0.  1.
         -5    1    3    3    0  502  0.19091606453E+02  0.53411729070E+02 -0.23742795060E+03  0.24415450839E+03  0.47000000000E+01 0.  1.
          5    1    4    4  503    0 -0.69034944261E+02  0.22875826434E+02 -0.32458961745E+03  0.33267046265E+03  0.47000000000E+01 0.  1.
         -5    1    4    4    0  503  0.50584973371E+02 -0.16655364919E+02 -0.26484099745E+03  0.27018342777E+03  0.47000000000E+01 0.  1.
<mgrwt>
<rscale>  0 0.12650584E+03</rscale>
<asrwt>0</asrwt>
<pdfrwt beam="1">  1        5 0.17912978E-02 0.12650835E+03</pdfrwt>
<pdfrwt beam="2">  1       -5 0.21650738E+00 0.12650835E+03</pdfrwt>
<totfact> 0.91457644E+01</totfact>
</mgrwt>
</event>
<event>
 8    1  0.3694627E-007  0.1256649E+03  0.7546771E-02  0.1234038E+00
         -5   -1    0    0    0  501 -0.00000000000E+00  0.00000000000E+00  0.80434162140E+03  0.80435535301E+03  0.47000000000E+01 0. -1.
          5   -1    0    0  501    0  0.00000000000E+00 -0.00000000000E+00 -0.22266243106E+02  0.22756879884E+02  0.47000000000E+01 0. -1.
         25    2    1    2    0    0  0.12532373750E+02  0.26187376833E+01  0.53925868658E+03  0.55370480091E+03  0.12500062929E+03 0.  0.
         25    2    1    2    0    0 -0.12532373750E+02 -0.26187376833E+01  0.24281669172E+03  0.27340743198E+03  0.12501103915E+03 0.  0.
          5    1    3    3  502    0  0.61966737134E+02  0.13673508117E+02  0.40800332926E+03  0.41293540417E+03  0.47000000000E+01 0. -1.
         -5    1    3    3    0  502 -0.49434363384E+02 -0.11054770434E+02  0.13125535732E+03  0.14076939674E+03  0.47000000000E+01 0. -1.
          5    1    4    4  503    0  0.51873491046E+02  0.15124689247E+02  0.73643753907E+02  0.91460963190E+02  0.47000000000E+01 0.  1.
         -5    1    4    4    0  503 -0.64405864796E+02 -0.17743426930E+02  0.16917293781E+03  0.18194646879E+03  0.47000000000E+01 0.  1.
<mgrwt>
<rscale>  0 0.12566235E+03</rscale>
<asrwt>0</asrwt>
<pdfrwt beam="2">  1        5 0.34643731E-02 0.12566494E+03</pdfrwt>
<pdfrwt beam="1">  1       -5 0.12378367E+00 0.12566494E+03</pdfrwt>
<totfact> 0.15602650E+02</totfact>
</mgrwt>
</event>
<event>
 8    1  0.3694627E-007  0.1253762E+03  0.7546771E-02  0.1234495E+00
          5   -1    0    0  501    0  0.00000000000E+00  0.00000000000E+00  0.48563478141E+03  0.48565752431E+03  0.47000000000E+01 0. -1.
         -5   -1    0    0    0  501 -0.00000000000E+00 -0.00000000000E+00 -0.39791152189E+02  0.40067765005E+02  0.47000000000E+01 0. -1.
         25    2    1    2    0    0 -0.95798638708E+01  0.11335851227E+01  0.10830696781E+03  0.16565559707E+03  0.12497327218E+03 0.  0.
         25    2    1    2    0    0  0.95798638708E+01 -0.11335851227E+01  0.33753666142E+03  0.36006969224E+03  0.12500450657E+03 0.  0.
          5    1    3    3  502    0  0.13119480882E+02  0.30246858322E+02  0.12164618947E+03  0.12612247472E+03  0.47000000000E+01 0.  1.
         -5    1    3    3    0  502 -0.22699344753E+02 -0.29113273200E+02 -0.13339221660E+02  0.39533122355E+02  0.47000000000E+01 0.  1.
          5    1    4    4  503    0 -0.51936787384E+02 -0.18605061722E+02  0.21191857904E+03  0.21903230891E+03  0.47000000000E+01 0.  1.
         -5    1    4    4    0  503  0.61516651255E+02  0.17471476599E+02  0.12561808238E+03  0.14103738333E+03  0.47000000000E+01 0.  1.
<mgrwt>
<rscale>  0 0.12536839E+03</rscale>
<asrwt>0</asrwt>
<pdfrwt beam="1">  1        5 0.74736070E-01 0.12537618E+03</pdfrwt>
<pdfrwt beam="2">  1       -5 0.61447432E-02 0.12537618E+03</pdfrwt>
<totfact> 0.20410156E+02</totfact>
</mgrwt>
</event>
<event>
 8    1  0.3694627E-007  0.1605959E+03  0.7546771E-02  0.1188027E+00
          5   -1    0    0  501    0  0.00000000000E+00  0.00000000000E+00  0.91180364716E+02  0.91301417896E+02  0.47000000000E+01 0.  1.
         -5   -1    0    0    0  501 -0.00000000000E+00 -0.00000000000E+00 -0.29188335385E+03  0.29192119186E+03  0.47000000000E+01 0.  1.
         25    2    1    2    0    0  0.10034429579E+03  0.98030940593E+01 -0.13466124200E+03  0.20957767664E+03  0.12499629633E+03 0.  0.
         25    2    1    2    0    0 -0.10034429579E+03 -0.98030940593E+01 -0.66041747132E+02  0.17364493312E+03  0.12500388827E+03 0.  0.
          5    1    4    4  502    0  0.12313881541E+02 -0.39524682814E+02 -0.48182701928E+01  0.41942078606E+02  0.47000000000E+01 0.  1.
         -5    1    4    4    0  502 -0.11265817733E+03  0.29721588755E+02 -0.61223476939E+02  0.13170285451E+03  0.47000000000E+01 0.  1.
          5    1    3    3  503    0  0.11839708729E+02  0.11579855288E+02 -0.11816043831E+03  0.11940791822E+03  0.47000000000E+01 0.  1.
         -5    1    3    3    0  503  0.88504587060E+02 -0.17767612289E+01 -0.16500803693E+02  0.90169758421E+02  0.47000000000E+01 0.  1.
<mgrwt>
<rscale>  0 0.16059445E+03</rscale>
<asrwt>0</asrwt>
<pdfrwt beam="1">  1        5 0.14039971E-01 0.16059592E+03</pdfrwt>
<pdfrwt beam="2">  1       -5 0.44917353E-01 0.16059592E+03</pdfrwt>
<totfact> 0.15988327E+02</totfact>
</mgrwt>
</event>
<event>
 8    1  0.3694627E-007  0.1462149E+03  0.7546771E-02  0.1205206E+00
          5   -1    0    0  501    0  0.00000000000E+00  0.00000000000E+00  0.15224629248E+04  0.15224701795E+04  0.47000000000E+01 0.  1.
         -5   -1    0    0    0  501 -0.00000000000E+00 -0.00000000000E+00 -0.13643872180E+02  0.14430705044E+02  0.47000000000E+01 0.  1.
         25    2    1    2    0    0  0.75670291720E+02 -0.51345282480E+01  0.74278920110E+03  0.75704158304E+03  0.12499521888E+03 0.  0.
         25    2    1    2    0    0 -0.75670291720E+02  0.51345282480E+01  0.76602985154E+03  0.77985930150E+03  0.12500576092E+03 0.  0.
          5    1    3    3  502    0 -0.44688145587E+01 -0.52499758326E+02  0.28242397471E+03  0.28733532052E+03  0.47000000000E+01 0. -1.
         -5    1    3    3    0  502  0.80139106278E+02  0.47365230078E+02  0.46036522639E+03  0.46970626251E+03  0.47000000000E+01 0. -1.
          5    1    4    4  503    0 -0.35728287474E+02 -0.43540904867E+02  0.14496765072E+03  0.15559572834E+03  0.47000000000E+01 0.  1.
         -5    1    4    4    0  503 -0.39942004245E+02  0.48675433115E+02  0.62106220082E+03  0.62426357316E+03  0.47000000000E+01 0.  1.
<mgrwt>
<rscale>  0 0.14621265E+03</rscale>
<asrwt>0</asrwt>
<pdfrwt beam="1">  1        5 0.23428617E+00 0.14621490E+03</pdfrwt>
<pdfrwt beam="2">  1       -5 0.21601407E-02 0.14621490E+03</pdfrwt>
<totfact> 0.54379207E+01</totfact>
</mgrwt>
</event>
<event>
 8    1  0.3694627E-007  0.1969288E+03  0.7546771E-02  0.1152357E+00
          5   -1    0    0  501    0  0.00000000000E+00  0.00000000000E+00  0.39041954738E+03  0.39044783643E+03  0.47000000000E+01 0.  1.
         -5   -1    0    0    0  501 -0.00000000000E+00 -0.00000000000E+00 -0.11449060692E+03  0.11458703710E+03  0.47000000000E+01 0.  1.
         25    2    1    2    0    0  0.21346214536E+02 -0.15066740555E+03  0.23006452594E+03  0.30283761168E+03  0.12499841991E+03 0.  0.
         25    2    1    2    0    0 -0.21346214536E+02  0.15066740555E+03  0.45864414523E+02  0.20219726186E+03  0.12499544076E+03 0.  0.
          5    1    4    4  502    0  0.30334053051E+02  0.39578679623E+02  0.60693607485E+02  0.78691998607E+02  0.47000000000E+01 0.  1.
         -5    1    4    4    0  502 -0.51680267588E+02  0.11108872593E+03 -0.14829192962E+02  0.12350526325E+03  0.47000000000E+01 0.  1.
          5    1    3    3  503    0 -0.49781291407E+02 -0.44812724925E+02  0.10140785792E+03  0.12162237022E+03  0.47000000000E+01 0.  1.
         -5    1    3    3    0  503  0.71127505943E+02 -0.10585468063E+03  0.12865666802E+03  0.18121524146E+03  0.47000000000E+01 0.  1.
<mgrwt>
<rscale>  0 0.19692828E+03</rscale>
<asrwt>0</asrwt>
<pdfrwt beam="1">  1        5 0.60074139E-01 0.19692875E+03</pdfrwt>
<pdfrwt beam="2">  1       -5 0.17623533E-01 0.19692875E+03</pdfrwt>
<totfact> 0.60007011E+01</totfact>
</mgrwt>
</event>
<event>
 8    1  0.3694627E-007  0.1554444E+03  0.7546771E-02  0.1193939E+00
         -5   -1    0    0    0  501 -0.00000000000E+00  0.00000000000E+00  0.21092340674E+02  0.21609646807E+02  0.47000000000E+01 0. -1.
          5   -1    0    0  501    0  0.00000000000E+00 -0.00000000000E+00 -0.21003218409E+04  0.21003270996E+04  0.47000000000E+01 0. -1.
         25    2    1    2    0    0  0.87867839761E+02 -0.28578305553E+02 -0.31900325674E+03  0.35486057918E+03  0.12500190412E+03 0.  0.
         25    2    1    2    0    0 -0.87867839761E+02  0.28578305553E+02 -0.17602262435E+04  0.17670761672E+04  0.12499710295E+03 0.  0.
          5    1    4    4  502    0 -0.10215864589E+02 -0.39194811451E+02 -0.85825053254E+03  0.85921863558E+03  0.47000000000E+01 0. -1.
         -5    1    4    4    0  502 -0.77651975172E+02  0.67773117003E+02 -0.90197571093E+03  0.90785753163E+03  0.47000000000E+01 0. -1.
          5    1    3    3  503    0 -0.15741352353E+02  0.29201985349E+02 -0.43847065799E+02  0.55183342608E+02  0.47000000000E+01 0.  1.
         -5    1    3    3    0  503  0.10360919211E+03 -0.57780290902E+02 -0.27515619094E+03  0.29967723657E+03  0.47000000000E+01 0.  1.
<mgrwt>
<rscale>  0 0.15544341E+03</rscale>
<asrwt>0</asrwt>
<pdfrwt beam="2">  1        5 0.32316647E+00 0.15544437E+03</pdfrwt>
<pdfrwt beam="1">  1       -5 0.32851744E-02 0.15544437E+03</pdfrwt>
<totfact> 0.76652110E+00</totfact>
</mgrwt>
</event>
<event>
 8    1  0.3694627E-007  0.1413437E+03  0.7546771E-02  0.1211540E+00
          5   -1    0    0  501    0  0.00000000000E+00  0.00000000000E+00  0.73033459608E+02  0.73184535404E+02  0.47000000000E+01 0. -1.
         -5   -1    0    0    0  501 -0.00000000000E+00 -0.00000000000E+00 -0.27577772141E+03  0.27581776887E+03  0.47000000000E+01 0. -1.
         25    2    1    2    0    0  0.13684023646E+02  0.64490413156E+02 -0.11873212962E+03  0.18459513891E+03  0.12502712031E+03 0.  0.
         25    2    1    2    0    0 -0.13684023646E+02 -0.64490413156E+02 -0.84012132180E+02  0.16440716537E+03  0.12500164710E+03 0.  0.
          5    1    3    3  502    0 -0.51437361676E+01  0.21884283734E+02 -0.13353325820E+03  0.13549391478E+03  0.47000000000E+01 0.  1.
         -5    1    3    3    0  502  0.18827759813E+02  0.42606129422E+02  0.14801128580E+02  0.49101224131E+02  0.47000000000E+01 0.  1.
          5    1    4    4  503    0  0.27052420875E+01 -0.11601145936E+02 -0.10442478849E+03  0.10520708803E+03  0.47000000000E+01 0.  1.
         -5    1    4    4    0  503 -0.16389265733E+02 -0.52889267220E+02  0.20412656310E+02  0.59200077331E+02  0.47000000000E+01 0.  1.
<mgrwt>
<rscale>  0 0.14133808E+03</rscale>
<asrwt>0</asrwt>
<pdfrwt beam="1">  1        5 0.11250619E-01 0.14134372E+03</pdfrwt>
<pdfrwt beam="2">  1       -5 0.42442043E-01 0.14134372E+03</pdfrwt>
<totfact> 0.25598572E+02</totfact>
</mgrwt>
</event>
<event>
 8    1  0.3694627E-007  0.1362069E+03  0.7546771E-02  0.1218527E+00
          5   -1    0    0  501    0  0.00000000000E+00  0.00000000000E+00  0.87201482064E+02  0.87328050901E+02  0.47000000000E+01 0.  1.
         -5   -1    0    0    0  501 -0.00000000000E+00 -0.00000000000E+00 -0.21508256810E+03  0.21513391435E+03  0.47000000000E+01 0.  1.
         25    2    1    2    0    0 -0.40832250001E+01  0.53946662953E+02 -0.80698730465E+02  0.15831449027E+03  0.12499711021E+03 0.  0.
         25    2    1    2    0    0  0.40832250001E+01 -0.53946662953E+02 -0.47182355573E+02  0.14414747497E+03  0.12500161877E+03 0.  0.
          5    1    4    4  502    0 -0.22577700069E+02  0.14819196965E+02 -0.62880254556E+02  0.68595754622E+02  0.47000000000E+01 0. -1.
         -5    1    4    4    0  502  0.26660925069E+02 -0.68765859918E+02  0.15697898983E+02  0.75551720353E+02  0.47000000000E+01 0. -1.
          5    1    3    3  503    0 -0.32799442105E+02  0.63385302604E+02  0.52056333064E+00  0.71525247114E+02  0.47000000000E+01 0. -1.
         -5    1    3    3    0  503  0.28716217105E+02 -0.94386396513E+01 -0.81219293795E+02  0.86789243158E+02  0.47000000000E+01 0. -1.
<mgrwt>
<rscale>  0 0.13620587E+03</rscale>
<asrwt>0</asrwt>
<pdfrwt beam="1">  1        5 0.13429298E-01 0.13620690E+03</pdfrwt>
<pdfrwt beam="2">  1       -5 0.33103311E-01 0.13620690E+03</pdfrwt>
<totfact> 0.30534541E+02</totfact>
</mgrwt>
</event>
<event>
 8    1  0.3694627E-007  0.1575264E+03  0.7546771E-02  0.1191520E+00
         -5   -1    0    0    0  501 -0.00000000000E+00  0.00000000000E+00  0.32344228347E+03  0.32347642995E+03  0.47000000000E+01 0.  1.
          5   -1    0    0  501    0  0.00000000000E+00 -0.00000000000E+00 -0.83444734912E+02  0.83576993153E+02  0.47000000000E+01 0.  1.
         25    2    1    2    0    0 -0.16813334490E+02 -0.94376538574E+02  0.17820164858E+03  0.23784533588E+03  0.12499982797E+03 0.  0.
         25    2    1    2    0    0  0.16813334490E+02  0.94376538574E+02  0.61795899971E+02  0.16920808722E+03  0.12499209686E+03 0.  0.
          5    1    4    4  502    0 -0.14645051827E+02  0.62343883084E+02  0.93941060829E+02  0.11379037837E+03  0.47000000000E+01 0.  1.
         -5    1    4    4    0  502  0.31458386317E+02  0.32032655489E+02 -0.32145160858E+02  0.55417708848E+02  0.47000000000E+01 0.  1.
          5    1    3    3  503    0  0.52565327884E+02 -0.22162669152E+02  0.62354342569E+02  0.84643083809E+02  0.47000000000E+01 0.  1.
         -5    1    3    3    0  503 -0.69378662373E+02 -0.72213869422E+02  0.11584730602E+03  0.15320225207E+03  0.47000000000E+01 0.  1.
<mgrwt>
<rscale>  0 0.15752490E+03</rscale>
<asrwt>0</asrwt>
<pdfrwt beam="2">  1        5 0.12850452E-01 0.15752643E+03</pdfrwt>
<pdfrwt beam="1">  1       -5 0.49773153E-01 0.15752643E+03</pdfrwt>
<totfact> 0.15007377E+02</totfact>
</mgrwt>
</event>
<event>
 8    1  0.3694627E-007  0.1542795E+03  0.7546771E-02  0.1195313E+00
         -5   -1    0    0    0  501 -0.00000000000E+00  0.00000000000E+00  0.57887385732E+02  0.58077873816E+02  0.47000000000E+01 0. -1.
          5   -1    0    0  501    0  0.00000000000E+00 -0.00000000000E+00 -0.55187426774E+03  0.55189428100E+03  0.47000000000E+01 0. -1.
         25    2    1    2    0    0  0.35699379474E+02  0.83069617319E+02 -0.92537183215E+02  0.17989771992E+03  0.12500020936E+03 0.  0.
         25    2    1    2    0    0 -0.35699379474E+02 -0.83069617319E+02 -0.40144969880E+03  0.43007443489E+03  0.12500860716E+03 0.  0.
          5    1    4    4  502    0 -0.38678408834E+02 -0.63393239143E+02 -0.85013914165E+02  0.11297866029E+03  0.47000000000E+01 0.  1.
         -5    1    4    4    0  502  0.29790293607E+01 -0.19676378176E+02 -0.31643578463E+03  0.31709577460E+03  0.47000000000E+01 0.  1.
          5    1    3    3  503    0 -0.34040692096E+02  0.51968940528E+02 -0.33496937869E+01  0.62392707478E+02  0.47000000000E+01 0. -1.
         -5    1    3    3    0  503  0.69740071570E+02  0.31100676791E+02 -0.89187489428E+02  0.11750501245E+03  0.47000000000E+01 0. -1.
<mgrwt>
<rscale>  0 0.15427778E+03</rscale>
<asrwt>0</asrwt>
<pdfrwt beam="2">  1        5 0.84919923E-01 0.15427948E+03</pdfrwt>
<pdfrwt beam="1">  1       -5 0.89219444E-02 0.15427948E+03</pdfrwt>
<totfact> 0.86085564E+01</totfact>
</mgrwt>
</event>
<event>
 8    1  0.3694627E-007  0.1426046E+03  0.7546771E-02  0.1209876E+00
         -5   -1    0    0    0  501 -0.00000000000E+00  0.00000000000E+00  0.24848114698E+03  0.24852559306E+03  0.47000000000E+01 0. -1.
          5   -1    0    0  501    0  0.00000000000E+00 -0.00000000000E+00 -0.91805258979E+02  0.91925489263E+02  0.47000000000E+01 0. -1.
         25    2    1    2    0    0  0.65618452736E+02 -0.19918450200E+02  0.13473604744E+03  0.19616862873E+03  0.12500320963E+03 0.  0.
         25    2    1    2    0    0 -0.65618452736E+02  0.19918450200E+02  0.21939840557E+02  0.14428245359E+03  0.12503417058E+03 0.  0.
          5    1    3    3  502    0  0.39402134587E+01 -0.53521231127E+02  0.12799694199E+02  0.55371198606E+02  0.47000000000E+01 0. -1.
         -5    1    3    3    0  502  0.61678239277E+02  0.33602780928E+02  0.12193635325E+03  0.14079743012E+03  0.47000000000E+01 0. -1.
          5    1    4    4  503    0 -0.66240638628E+02 -0.36282409448E+02 -0.14616245335E+02  0.77071136419E+02  0.47000000000E+01 0. -1.
         -5    1    4    4    0  503  0.62218589288E+00  0.56200859647E+02  0.36556085892E+02  0.67211317173E+02  0.47000000000E+01 0. -1.
<mgrwt>
<rscale>  0 0.14259781E+03</rscale>
<asrwt>0</asrwt>
<pdfrwt beam="2">  1        5 0.14136553E-01 0.14260459E+03</pdfrwt>
<pdfrwt beam="1">  1       -5 0.38240536E-01 0.14260459E+03</pdfrwt>
<totfact> 0.21162545E+02</totfact>
</mgrwt>
</event>
<event>
 8    1  0.3694627E-007  0.1450445E+03  0.7546771E-02  0.1206699E+00
         -5   -1    0    0    0  501 -0.00000000000E+00  0.00000000000E+00  0.15001197892E+03  0.15008558831E+03  0.47000000000E+01 0. -1.
          5   -1    0    0  501    0  0.00000000000E+00 -0.00000000000E+00 -0.14293258254E+03  0.14300983586E+03  0.47000000000E+01 0. -1.
         25    2    1    2    0    0  0.72742085909E+02 -0.11004182500E+02 -0.17110526477E+02  0.14605025758E+03  0.12500161811E+03 0.  0.
         25    2    1    2    0    0 -0.72742085909E+02  0.11004182500E+02  0.24189922850E+02  0.14704516658E+03  0.12499850220E+03 0.  0.
          5    1    3    3  502    0  0.14954296567E+02 -0.21416890462E+02  0.50089807662E+02  0.56686797532E+02  0.47000000000E+01 0.  1.
         -5    1    3    3    0  502  0.57787789342E+02  0.10412707963E+02 -0.67200334139E+02  0.89363460052E+02  0.47000000000E+01 0.  1.
          5    1    4    4  503    0 -0.57403550116E+02 -0.48868870738E+01  0.73089472887E+02  0.93183744709E+02  0.47000000000E+01 0. -1.
         -5    1    4    4    0  503 -0.15338535794E+02  0.15891069573E+02 -0.48899550037E+02  0.53861421874E+02  0.47000000000E+01 0. -1.
<mgrwt>
<rscale>  0 0.14504383E+03</rscale>
<asrwt>0</asrwt>
<pdfrwt beam="2">  1        5 0.22001233E-01 0.14504450E+03</pdfrwt>
<pdfrwt beam="1">  1       -5 0.23090371E-01 0.14504450E+03</pdfrwt>
<totfact> 0.25352597E+02</totfact>
</mgrwt>
</event>
<event>
 8    1  0.3694627E-007  0.2015041E+03  0.7546771E-02  0.1148477E+00
         -5   -1    0    0    0  501 -0.00000000000E+00  0.00000000000E+00  0.81745841202E+03  0.81747192330E+03  0.47000000000E+01 0. -1.
          5   -1    0    0  501    0  0.00000000000E+00 -0.00000000000E+00 -0.63165419458E+02  0.63340036433E+02  0.47000000000E+01 0. -1.
         25    2    1    2    0    0  0.15757982624E+03  0.12128595957E+02  0.58130893577E+03  0.61524204974E+03  0.12499678592E+03 0.  0.
         25    2    1    2    0    0 -0.15757982624E+03 -0.12128595957E+02  0.17298405679E+03  0.26556990999E+03  0.12500155484E+03 0.  0.
          5    1    4    4  502    0 -0.20379633460E+02 -0.43971300015E+02  0.92891247704E+01  0.49569976033E+02  0.47000000000E+01 0.  1.
         -5    1    4    4    0  502 -0.13720019278E+03  0.31842704058E+02  0.16369493202E+03  0.21599993396E+03  0.47000000000E+01 0.  1.
          5    1    3    3  503    0  0.54996018351E+02 -0.19249011220E+02  0.40209266941E+03  0.40631969096E+03  0.47000000000E+01 0. -1.
         -5    1    3    3    0  503  0.10258380788E+03  0.31377607177E+02  0.17921626636E+03  0.20892235878E+03  0.47000000000E+01 0. -1.
<mgrwt>
<rscale>  0 0.20150334E+03</rscale>
<asrwt>0</asrwt>
<pdfrwt beam="2">  1        5 0.97322283E-02 0.20150408E+03</pdfrwt>
<pdfrwt beam="1">  1       -5 0.12577730E+00 0.20150408E+03</pdfrwt>
<totfact> 0.30183229E+01</totfact>
</mgrwt>
</event>
<event>
 8    1  0.3694627E-007  0.1317571E+03  0.7546771E-02  0.1224874E+00
          5   -1    0    0  501    0  0.00000000000E+00  0.00000000000E+00  0.16626115636E+02  0.17277665384E+02  0.47000000000E+01 0.  1.
         -5   -1    0    0    0  501 -0.00000000000E+00 -0.00000000000E+00 -0.13659049833E+04  0.13659130695E+04  0.47000000000E+01 0.  1.
         25    2    1    2    0    0  0.20662857127E+02 -0.36138896726E+02 -0.10208816408E+04  0.10293480010E+04  0.12500003616E+03 0.  0.
         25    2    1    2    0    0 -0.20662857127E+02  0.36138896726E+02 -0.32839722678E+03  0.35384273383E+03  0.12500787258E+03 0.  0.
          5    1    4    4  502    0 -0.80670837346E+01  0.82713599648E+02 -0.20319675460E+03  0.21958512811E+03  0.47000000000E+01 0. -1.
         -5    1    4    4    0  502 -0.12595773392E+02 -0.46574702922E+02 -0.12520047219E+03  0.13425760573E+03  0.47000000000E+01 0. -1.
          5    1    3    3  503    0  0.48052941722E+02  0.30372569462E+02 -0.35176474750E+03  0.35635951757E+03  0.47000000000E+01 0.  1.
         -5    1    3    3    0  503 -0.27390084595E+02 -0.66511466188E+02 -0.66911689335E+03  0.67298848344E+03  0.47000000000E+01 0.  1.
<mgrwt>
<rscale>  0 0.13175527E+03</rscale>
<asrwt>0</asrwt>
<pdfrwt beam="1">  1        5 0.26086062E-02 0.13175713E+03</pdfrwt>
<pdfrwt beam="2">  1       -5 0.21018988E+00 0.13175713E+03</pdfrwt>
<totfact> 0.56076124E+01</totfact>
</mgrwt>
</event>
<event>
 8    1  0.3694627E-007  0.1706219E+03  0.7546771E-02  0.1177202E+00
          5   -1    0    0  501    0  0.00000000000E+00  0.00000000000E+00  0.22098009419E+03  0.22103007041E+03  0.47000000000E+01 0.  1.
         -5   -1    0    0    0  501 -0.00000000000E+00 -0.00000000000E+00 -0.14699820130E+03  0.14707331908E+03  0.47000000000E+01 0.  1.
         25    2    1    2    0    0  0.16451945268E+02 -0.11495913483E+03 -0.22493074537E+02  0.17209508297E+03  0.12499803996E+03 0.  0.
         25    2    1    2    0    0 -0.16451945268E+02  0.11495913483E+03  0.96474967427E+02  0.19600830652E+03  0.12500227079E+03 0.  0.
          5    1    4    4  502    0  0.30304409293E+01  0.36778310078E+02 -0.28758312098E+02  0.47020827078E+02  0.47000000000E+01 0.  1.
         -5    1    4    4    0  502 -0.19482386198E+02  0.78180824752E+02  0.12523327952E+03  0.14898747944E+03  0.47000000000E+01 0.  1.
          5    1    3    3  503    0  0.25032299775E+01 -0.18840677083E+02  0.48100986861E+02  0.51932958806E+02  0.47000000000E+01 0. -1.
         -5    1    3    3    0  503  0.13948715291E+02 -0.96118457747E+02 -0.70594061399E+02  0.12016212416E+03  0.47000000000E+01 0. -1.
<mgrwt>
<rscale>  0 0.17062114E+03</rscale>
<asrwt>0</asrwt>
<pdfrwt beam="1">  1        5 0.34006560E-01 0.17062191E+03</pdfrwt>
<pdfrwt beam="2">  1       -5 0.22624731E-01 0.17062191E+03</pdfrwt>
<totfact> 0.11900943E+02</totfact>
</mgrwt>
</event>
<event>
 8    1  0.3694627E-007  0.1277610E+03  0.7546771E-02  0.1230837E+00
         -5   -1    0    0    0  501 -0.00000000000E+00  0.00000000000E+00  0.15308561796E+03  0.15315775013E+03  0.47000000000E+01 0.  1.
          5   -1    0    0  501    0  0.00000000000E+00 -0.00000000000E+00 -0.12383736802E+03  0.12392652548E+03  0.47000000000E+01 0.  1.
         25    2    1    2    0    0 -0.14610419515E+02  0.21690465267E+02  0.66532091257E+02  0.14404646258E+03  0.12505568189E+03 0.  0.
         25    2    1    2    0    0  0.14610419515E+02 -0.21690465267E+02 -0.37283841318E+02  0.13303781303E+03  0.12500013692E+03 0.  0.
          5    1    4    4  502    0 -0.46030485798E+02 -0.18701546859E+02  0.15700770084E+02  0.52317852201E+02  0.47000000000E+01 0.  1.
         -5    1    4    4    0  502  0.60640905313E+02 -0.29889184077E+01 -0.52984611402E+02  0.80719960827E+02  0.47000000000E+01 0.  1.
          5    1    3    3  503    0 -0.45688960389E+02 -0.35398115710E+02  0.50592704437E+02  0.76955957791E+02  0.47000000000E+01 0.  1.
         -5    1    3    3    0  503  0.31078540874E+02  0.57088580977E+02  0.15939386820E+02  0.67090504791E+02  0.47000000000E+01 0.  1.
<mgrwt>
<rscale>  0 0.12774737E+03</rscale>
<asrwt>0</asrwt>
<pdfrwt beam="2">  1        5 0.19064310E-01 0.12776097E+03</pdfrwt>
<pdfrwt beam="1">  1       -5 0.23564040E-01 0.12776097E+03</pdfrwt>
<totfact> 0.30519154E+02</totfact>
</mgrwt>
</event>
<event>
 8    1  0.3694627E-007  0.1278364E+03  0.7546771E-02  0.1230707E+00
          5   -1    0    0  501    0  0.00000000000E+00  0.00000000000E+00  0.10152052734E+03  0.10162926484E+03  0.47000000000E+01 0. -1.
         -5   -1    0    0    0  501 -0.00000000000E+00 -0.00000000000E+00 -0.16319558285E+03  0.16326324835E+03  0.47000000000E+01 0. -1.
         25    2    1    2    0    0 -0.20602887816E+01 -0.26632092263E+02 -0.47122931610E+02  0.13624505872E+03  0.12501452801E+03 0.  0.
         25    2    1    2    0    0  0.20602887816E+01  0.26632092263E+02 -0.14552123898E+02  0.12864745447E+03  0.12499956042E+03 0.  0.
          5    1    4    4  502    0  0.29470082545E+02  0.13780056841E+02  0.48475220543E+02  0.58568871753E+02  0.47000000000E+01 0. -1.
         -5    1    4    4    0  502 -0.27409793764E+02  0.12852035421E+02 -0.63027344441E+02  0.70078582719E+02  0.47000000000E+01 0. -1.
          5    1    3    3  503    0  0.52812790377E+01  0.48252673400E+02 -0.29280236271E+01  0.48855662117E+02  0.47000000000E+01 0.  1.
         -5    1    3    3    0  503 -0.73415678193E+01 -0.74884765663E+02 -0.44194907983E+02  0.87389396600E+02  0.47000000000E+01 0.  1.
<mgrwt>
<rscale>  0 0.12783274E+03</rscale>
<asrwt>0</asrwt>
<pdfrwt beam="1">  1        5 0.15632112E-01 0.12783640E+03</pdfrwt>
<pdfrwt beam="2">  1       -5 0.25120582E-01 0.12783640E+03</pdfrwt>
<totfact> 0.38884862E+02</totfact>
</mgrwt>
</event>
<event>
 8    1  0.3694627E-007  0.1354332E+03  0.7546771E-02  0.1219614E+00
          5   -1    0    0  501    0  0.00000000000E+00  0.00000000000E+00  0.54694950541E+02  0.54896517327E+02  0.47000000000E+01 0.  1.
         -5   -1    0    0    0  501 -0.00000000000E+00 -0.00000000000E+00 -0.36223987493E+03  0.36227036449E+03  0.47000000000E+01 0.  1.
         25    2    1    2    0    0 -0.91263067570E+01  0.51319730166E+02 -0.21149972244E+03  0.25114595483E+03  0.12500061543E+03 0.  0.
         25    2    1    2    0    0  0.91263067570E+01 -0.51319730166E+02 -0.96045201952E+02  0.16602092699E+03  0.12498505191E+03 0.  0.
          5    1    3    3  502    0 -0.53808708024E+02 -0.12827991911E+02 -0.10712914597E+03  0.12065934838E+03  0.47000000000E+01 0.  1.
         -5    1    3    3    0  502  0.44682401267E+02  0.64147722077E+02 -0.10437057646E+03  0.13048660645E+03  0.47000000000E+01 0.  1.
          5    1    4    4  503    0 -0.23690333943E+01  0.29720073570E+02  0.10165040882E+02  0.31848283287E+02  0.47000000000E+01 0. -1.
         -5    1    4    4    0  503  0.11495340151E+02 -0.81039803736E+02 -0.10621024283E+03  0.13417264370E+03  0.47000000000E+01 0. -1.
<mgrwt>
<rscale>  0 0.13542963E+03</rscale>
<asrwt>0</asrwt>
<pdfrwt beam="1">  1        5 0.84324585E-02 0.13543322E+03</pdfrwt>
<pdfrwt beam="2">  1       -5 0.55747060E-01 0.13543322E+03</pdfrwt>
<totfact> 0.23447674E+02</totfact>
</mgrwt>
</event>
<event>
 8    1  0.3694627E-007  0.1758703E+03  0.7546771E-02  0.1171861E+00
         -5   -1    0    0    0  501 -0.00000000000E+00  0.00000000000E+00  0.46155594467E+03  0.46157987398E+03  0.47000000000E+01 0. -1.
          5   -1    0    0  501    0  0.00000000000E+00 -0.00000000000E+00 -0.67048785647E+02  0.67213314580E+02  0.47000000000E+01 0. -1.
         25    2    1    2    0    0 -0.38210981537E+02  0.11766387654E+03  0.18498500801E+03  0.25524460476E+03  0.12500195246E+03 0.  0.
         25    2    1    2    0    0  0.38210981537E+02 -0.11766387654E+03  0.20952215101E+03  0.27354858379E+03  0.12499771590E+03 0.  0.
          5    1    3    3  502    0 -0.70263266819E+02  0.12218870366E+03  0.13316025169E+03  0.19396068827E+03  0.47000000000E+01 0. -1.
         -5    1    3    3    0  502  0.32052285283E+02 -0.45248271185E+01  0.51824756324E+02  0.61283916490E+02  0.47000000000E+01 0. -1.
          5    1    4    4  503    0 -0.42194918932E+01 -0.97518606744E+02  0.20377482480E+03  0.22599546897E+03  0.47000000000E+01 0.  1.
         -5    1    4    4    0  503  0.42430473430E+02 -0.20145269793E+02  0.57473262054E+01  0.47553114820E+02  0.47000000000E+01 0.  1.
<mgrwt>
<rscale>  0 0.17586953E+03</rscale>
<asrwt>0</asrwt>
<pdfrwt beam="2">  1        5 0.10329694E-01 0.17587028E+03</pdfrwt>
<pdfrwt beam="1">  1       -5 0.71023107E-01 0.17587028E+03</pdfrwt>
<totfact> 0.10469464E+02</totfact>
</mgrwt>
</event>
<event>
 8    1  0.3694627E-007  0.1683215E+03  0.7546771E-02  0.1179614E+00
          5   -1    0    0  501    0  0.00000000000E+00  0.00000000000E+00  0.26226573518E+03  0.26230784558E+03  0.47000000000E+01 0.  1.
         -5   -1    0    0    0  501 -0.00000000000E+00 -0.00000000000E+00 -0.10984891649E+03  0.10994941770E+03  0.47000000000E+01 0.  1.
         25    2    1    2    0    0 -0.11170291063E+03 -0.15105961657E+02  0.51537652859E+02  0.17603481245E+03  0.12500558071E+03 0.  0.
         25    2    1    2    0    0  0.11170291063E+03  0.15105961657E+02  0.10087916584E+03  0.19622245083E+03  0.12498365409E+03 0.  0.
          5    1    3    3  502    0 -0.22710640734E+02  0.11265912269E+02  0.75731935337E+02  0.80000687570E+02  0.47000000000E+01 0. -1.
         -5    1    3    3    0  502 -0.88992269899E+02 -0.26371873926E+02 -0.24194282477E+02  0.96034124876E+02  0.47000000000E+01 0. -1.
          5    1    4    4  503    0 -0.64803237193E+01  0.29201142408E+02  0.65187701079E+02  0.71876475188E+02  0.47000000000E+01 0. -1.
         -5    1    4    4    0  503  0.11818323435E+03 -0.14095180751E+02  0.35691464758E+02  0.12434597564E+03  0.47000000000E+01 0. -1.
<mgrwt>
<rscale>  0 0.16831742E+03</rscale>
<asrwt>0</asrwt>
<pdfrwt beam="1">  1        5 0.40359544E-01 0.16832149E+03</pdfrwt>
<pdfrwt beam="2">  1       -5 0.16910804E-01 0.16832149E+03</pdfrwt>
<totfact> 0.14425508E+02</totfact>
</mgrwt>
</event>
<event>
 8    1  0.3694627E-007  0.1508717E+03  0.7546771E-02  0.1199407E+00
         -5   -1    0    0    0  501 -0.00000000000E+00  0.00000000000E+00  0.12060868315E+03  0.12070022556E+03  0.47000000000E+01 0. -1.
          5   -1    0    0  501    0  0.00000000000E+00 -0.00000000000E+00 -0.19172754505E+03  0.19178514419E+03  0.47000000000E+01 0. -1.
         25    2    1    2    0    0 -0.82804098182E+02 -0.16747884879E+02 -0.15391176719E+02  0.15165055310E+03  0.12499596638E+03 0.  0.
         25    2    1    2    0    0  0.82804098182E+02  0.16747884879E+02 -0.55727685182E+02  0.16083481665E+03  0.12500101210E+03 0.  0.
          5    1    3    3  502    0 -0.81883135068E+02 -0.50095312771E+02 -0.45622461415E+02  0.10638555896E+03  0.47000000000E+01 0.  1.
         -5    1    3    3    0  502 -0.92096311349E+00  0.33347427892E+02  0.30231284696E+02  0.45264994139E+02  0.47000000000E+01 0.  1.
          5    1    4    4  503    0 -0.13100172859E+01 -0.37030434801E+02  0.12988806287E+02  0.39544510815E+02  0.47000000000E+01 0. -1.
         -5    1    4    4    0  503  0.84114115468E+02  0.53778319680E+02 -0.68716491470E+02  0.12129030583E+03  0.47000000000E+01 0. -1.
<mgrwt>
<rscale>  0 0.15087063E+03</rscale>
<asrwt>0</asrwt>
<pdfrwt beam="2">  1        5 0.29508018E-01 0.15087168E+03</pdfrwt>
<pdfrwt beam="1">  1       -5 0.18566655E-01 0.15087168E+03</pdfrwt>
<totfact> 0.21986086E+02</totfact>
</mgrwt>
</event>
<event>
 8    1  0.3694627E-007  0.1476261E+03  0.7546771E-02  0.1203422E+00
          5   -1    0    0  501    0  0.00000000000E+00  0.00000000000E+00  0.22327640360E+03  0.22332586596E+03  0.47000000000E+01 0.  1.
         -5   -1    0    0    0  501 -0.00000000000E+00 -0.00000000000E+00 -0.97681114098E+02  0.97794120740E+02  0.47000000000E+01 0.  1.
         25    2    1    2    0    0  0.50222539674E+02  0.60383634476E+02  0.69944891460E+02  0.16335773532E+03  0.12499990017E+03 0.  0.
         25    2    1    2    0    0 -0.50222539674E+02 -0.60383634476E+02  0.55650398045E+02  0.15776225138E+03  0.12499389727E+03 0.  0.
          5    1    4    4  502    0 -0.34453985640E+02  0.23485204665E+02  0.58799693849E+02  0.72236597105E+02  0.47000000000E+01 0. -1.
         -5    1    4    4    0  502 -0.15768554034E+02 -0.83868839141E+02 -0.31492958037E+01  0.85525654275E+02  0.47000000000E+01 0. -1.
          5    1    3    3  503    0  0.81153059622E+02  0.77150620496E+02  0.51135780571E+02  0.12318683121E+03  0.47000000000E+01 0.  1.
         -5    1    3    3    0  503 -0.30930519947E+02 -0.16766986020E+02  0.18809110889E+02  0.40170904108E+02  0.47000000000E+01 0.  1.
<mgrwt>
<rscale>  0 0.14762482E+03</rscale>
<asrwt>0</asrwt>
<pdfrwt beam="1">  1        5 0.34362713E-01 0.14762609E+03</pdfrwt>
<pdfrwt beam="2">  1       -5 0.15040361E-01 0.14762609E+03</pdfrwt>
<totfact> 0.23746855E+02</totfact>
</mgrwt>
</event>
<event>
 8    1  0.3694627E-007  0.2209894E+03  0.7546771E-02  0.1133148E+00
         -5   -1    0    0    0  501 -0.00000000000E+00  0.00000000000E+00  0.74986498043E+02  0.75133646848E+02  0.47000000000E+01 0. -1.
          5   -1    0    0  501    0  0.00000000000E+00 -0.00000000000E+00 -0.72543847792E+03  0.72545370304E+03  0.47000000000E+01 0. -1.
         25    2    1    2    0    0 -0.18220598065E+03 -0.32471267412E+01 -0.19655292331E+03  0.29575216984E+03  0.12500692416E+03 0.  0.
         25    2    1    2    0    0  0.18220598065E+03  0.32471267412E+01 -0.45389905657E+03  0.50483518005E+03  0.12499856893E+03 0.  0.
          5    1    3    3  502    0 -0.13045096679E+03  0.22387352482E+02 -0.19750214265E+03  0.23779788611E+03  0.47000000000E+01 0.  1.
         -5    1    3    3    0  502 -0.51755013866E+02 -0.25634479223E+02  0.94921934493E+00  0.57954283730E+02  0.47000000000E+01 0.  1.
          5    1    4    4  503    0 -0.31556933079E+01 -0.47286271226E+00  0.64128463369E+01  0.85671814232E+01  0.47000000000E+01 0. -1.
         -5    1    4    4    0  503  0.18536167396E+03  0.37199894534E+01 -0.46031190291E+03  0.49626799862E+03  0.47000000000E+01 0. -1.
<mgrwt>
<rscale>  0 0.22098817E+03</rscale>
<asrwt>0</asrwt>
<pdfrwt beam="2">  1        5 0.11161841E+00 0.22098935E+03</pdfrwt>
<pdfrwt beam="1">  1       -5 0.11548875E-01 0.22098935E+03</pdfrwt>
<totfact> 0.30977381E+01</totfact>
</mgrwt>
</event>
<event>
 8    1  0.3694627E-007  0.1441422E+03  0.7546771E-02  0.1207863E+00
         -5   -1    0    0    0  501 -0.00000000000E+00  0.00000000000E+00  0.48882505537E+02  0.49107935688E+02  0.47000000000E+01 0. -1.
          5   -1    0    0  501    0  0.00000000000E+00 -0.00000000000E+00 -0.50845538142E+03  0.50847710361E+03  0.47000000000E+01 0. -1.
         25    2    1    2    0    0 -0.38723932899E+02 -0.60423133493E+02 -0.11606604291E+03  0.18506298478E+03  0.12500593577E+03 0.  0.
         25    2    1    2    0    0  0.38723932899E+02  0.60423133493E+02 -0.34350683298E+03  0.37252205452E+03  0.12500095505E+03 0.  0.
          5    1    4    4  502    0 -0.31956814580E+02 -0.17063025252E+02 -0.12278876949E+03  0.12810759830E+03  0.47000000000E+01 0. -1.
         -5    1    4    4    0  502  0.70680747479E+02  0.77486158745E+02 -0.22071806349E+03  0.24441445622E+03  0.47000000000E+01 0. -1.
          5    1    3    3  503    0 -0.71668593890E+02 -0.57832176980E+02 -0.12012667068E+03  0.15143795777E+03  0.47000000000E+01 0. -1.
         -5    1    3    3    0  503  0.32944660990E+02 -0.25909565121E+01  0.40606277732E+01  0.33625027008E+02  0.47000000000E+01 0. -1.
<mgrwt>
<rscale>  0 0.14414115E+03</rscale>
<asrwt>0</asrwt>
<pdfrwt beam="2">  1        5 0.78242913E-01 0.14414223E+03</pdfrwt>
<pdfrwt beam="1">  1       -5 0.75393975E-02 0.14414223E+03</pdfrwt>
<totfact> 0.13618974E+02</totfact>
</mgrwt>
</event>
<event>
 8    1  0.3694627E-007  0.1281165E+03  0.7546771E-02  0.1230286E+00
          5   -1    0    0  501    0  0.00000000000E+00  0.00000000000E+00  0.18899890976E+03  0.18905734022E+03  0.47000000000E+01 0. -1.
         -5   -1    0    0    0  501 -0.00000000000E+00 -0.00000000000E+00 -0.10062756885E+03  0.10073727022E+03  0.47000000000E+01 0. -1.
         25    2    1    2    0    0  0.26150562285E+02  0.99379235974E+01 -0.96797357378E+01  0.12848164989E+03  0.12502488889E+03 0.  0.
         25    2    1    2    0    0 -0.26150562285E+02 -0.99379235974E+01  0.98051076653E+02  0.16131296055E+03  0.12500097350E+03 0.  0.
          5    1    3    3  502    0  0.89422871471E+01  0.60734910708E+02 -0.32947506480E+02  0.69830667055E+02  0.47000000000E+01 0. -1.
         -5    1    3    3    0  502  0.17208275138E+02 -0.50796987110E+02  0.23267770742E+02  0.58650982839E+02  0.47000000000E+01 0. -1.
          5    1    4    4  503    0 -0.46300237784E+02 -0.51125165868E+02  0.91615581097E+02  0.11477368733E+03  0.47000000000E+01 0.  1.
         -5    1    4    4    0  503  0.20149675499E+02  0.41187242271E+02  0.64354955555E+01  0.46539273218E+02  0.47000000000E+01 0.  1.
<mgrwt>
<rscale>  0 0.12811066E+03</rscale>
<asrwt>0</asrwt>
<pdfrwt beam="1">  1        5 0.29089688E-01 0.12811650E+03</pdfrwt>
<pdfrwt beam="2">  1       -5 0.15494098E-01 0.12811650E+03</pdfrwt>
<totfact> 0.29783988E+02</totfact>
</mgrwt>
</event>
<event>
 8    1  0.3694627E-007  0.1633120E+03  0.7546771E-02  0.1185013E+00
          5   -1    0    0  501    0  0.00000000000E+00  0.00000000000E+00  0.15557857896E+04  0.15557928889E+04  0.47000000000E+01 0.  1.
         -5   -1    0    0    0  501 -0.00000000000E+00 -0.00000000000E+00 -0.17838648070E+02  0.18447421635E+02  0.47000000000E+01 0.  1.
         25    2    1    2    0    0  0.85714701834E+01  0.10475482860E+03  0.58329909454E+03  0.60572407225E+03  0.12496709086E+03 0.  0.
         25    2    1    2    0    0 -0.85714701834E+01 -0.10475482860E+03  0.95464804699E+03  0.96851623827E+03  0.12499506376E+03 0.  0.
          5    1    4    4  502    0 -0.50247469549E+02 -0.10664856392E+03  0.60864343230E+03  0.61997390434E+03  0.47000000000E+01 0.  1.
         -5    1    4    4    0  502  0.41675999366E+02  0.18937353239E+01  0.34600461469E+03  0.34854233393E+03  0.47000000000E+01 0.  1.
          5    1    3    3  503    0 -0.32954439809E+02  0.96900630741E+02  0.51631348547E+03  0.52638145163E+03  0.47000000000E+01 0. -1.
         -5    1    3    3    0  503  0.41525909992E+02  0.78541978554E+01  0.66985609065E+02  0.79342620617E+02  0.47000000000E+01 0. -1.
<mgrwt>
<rscale>  0 0.16330665E+03</rscale>
<asrwt>0</asrwt>
<pdfrwt beam="1">  1        5 0.23939907E+00 0.16331200E+03</pdfrwt>
<pdfrwt beam="2">  1       -5 0.27917818E-02 0.16331200E+03</pdfrwt>
<totfact> 0.34393702E+01</totfact>
</mgrwt>
</event>
<event>
 8    1  0.3694627E-007  0.1415139E+03  0.7546771E-02  0.1211311E+00
         -5   -1    0    0    0  501 -0.00000000000E+00  0.00000000000E+00  0.26118179384E+03  0.26122407897E+03  0.47000000000E+01 0.  1.
          5   -1    0    0  501    0  0.00000000000E+00 -0.00000000000E+00 -0.76634186586E+02  0.76778177588E+02  0.47000000000E+01 0.  1.
         25    2    1    2    0    0  0.28553996665E+02 -0.59867200324E+02  0.97942153881E+02  0.17209057255E+03  0.12499234878E+03 0.  0.
         25    2    1    2    0    0 -0.28553996665E+02  0.59867200324E+02  0.86605453376E+02  0.16591168401E+03  0.12500707954E+03 0.  0.
          5    1    3    3  502    0 -0.14142796895E+02 -0.12915404533E+02 -0.26079028796E+02  0.32696056661E+02  0.47000000000E+01 0.  1.
         -5    1    3    3    0  502  0.42696793561E+02 -0.46951795791E+02  0.12402118268E+03  0.13939451589E+03  0.47000000000E+01 0.  1.
          5    1    4    4  503    0  0.13541359183E+02  0.26669124467E+02 -0.26768278044E+02  0.40413380430E+02  0.47000000000E+01 0.  1.
         -5    1    4    4    0  503 -0.42095355848E+02  0.33198075857E+02  0.11337373142E+03  0.12549830358E+03  0.47000000000E+01 0.  1.
<mgrwt>
<rscale>  0 0.14151064E+03</rscale>
<asrwt>0</asrwt>
<pdfrwt beam="2">  1        5 0.11804204E-01 0.14151389E+03</pdfrwt>
<pdfrwt beam="1">  1       -5 0.40196143E-01 0.14151389E+03</pdfrwt>
<totfact> 0.26308166E+02</totfact>
</mgrwt>
</event>
<event>
 8    1  0.3694627E-007  0.1393412E+03  0.7546771E-02  0.1214219E+00
         -5   -1    0    0    0  501 -0.00000000000E+00  0.00000000000E+00  0.10137543406E+03  0.10148432702E+03  0.47000000000E+01 0.  1.
          5   -1    0    0  501    0  0.00000000000E+00 -0.00000000000E+00 -0.19295499905E+03  0.19301223189E+03  0.47000000000E+01 0.  1.
         25    2    1    2    0    0  0.33852185318E+01 -0.61478984053E+02 -0.59500854730E+02  0.15151344330E+03  0.12499938641E+03 0.  0.
         25    2    1    2    0    0 -0.33852185318E+01  0.61478984053E+02 -0.32078710261E+02  0.14298311561E+03  0.12499600998E+03 0.  0.
          5    1    4    4  502    0 -0.12647655696E+02 -0.34499611249E+02  0.89135875183E+01  0.38101553950E+02  0.47000000000E+01 0. -1.
         -5    1    4    4    0  502  0.92624371639E+01  0.95978595302E+02 -0.40992297780E+02  0.10488156166E+03  0.47000000000E+01 0. -1.
          5    1    3    3  503    0 -0.11712846281E+02  0.36897886914E+02 -0.10015783783E+02  0.40262274545E+02  0.47000000000E+01 0. -1.
         -5    1    3    3    0  503  0.15098064813E+02 -0.98376870967E+02 -0.49485070947E+02  0.11125116875E+03  0.47000000000E+01 0. -1.
<mgrwt>
<rscale>  0 0.13934045E+03</rscale>
<asrwt>0</asrwt>
<pdfrwt beam="2">  1        5 0.29698163E-01 0.13934121E+03</pdfrwt>
<pdfrwt beam="1">  1       -5 0.15609000E-01 0.13934121E+03</pdfrwt>
<totfact> 0.29066184E+02</totfact>
</mgrwt>
</event>
<event>
 8    1  0.3694627E-007  0.1265090E+03  0.7546771E-02  0.1232732E+00
         -5   -1    0    0    0  501 -0.00000000000E+00  0.00000000000E+00  0.10747062850E+04  0.10747165622E+04  0.47000000000E+01 0. -1.
          5   -1    0    0  501    0  0.00000000000E+00 -0.00000000000E+00 -0.14599301108E+02  0.15337196381E+02  0.47000000000E+01 0. -1.
         25    2    1    2    0    0 -0.19299840628E+02  0.24242424221E+01  0.57164060770E+03  0.58547084215E+03  0.12499904733E+03 0.  0.
         25    2    1    2    0    0  0.19299840628E+02 -0.24242424221E+01  0.48846637621E+03  0.50458291643E+03  0.12500463218E+03 0.  0.
          5    1    3    3  502    0 -0.49256592919E+02 -0.46768005435E+02  0.33808154703E+03  0.34486907765E+03  0.47000000000E+01 0.  1.
         -5    1    3    3    0  502  0.29956752291E+02  0.49192247857E+02  0.23355906067E+03  0.24060176450E+03  0.47000000000E+01 0.  1.
          5    1    4    4  503    0  0.27764205043E+02  0.12895113238E+01  0.16826118237E+02  0.32828679170E+02  0.47000000000E+01 0. -1.
         -5    1    4    4    0  503 -0.84643644147E+01 -0.37137537459E+01  0.47164025797E+03  0.47175423726E+03  0.47000000000E+01 0. -1.
<mgrwt>
<rscale>  0 0.12650759E+03</rscale>
<asrwt>0</asrwt>
<pdfrwt beam="2">  1        5 0.23035982E-02 0.12650897E+03</pdfrwt>
<pdfrwt beam="1">  1       -5 0.16539697E+00 0.12650897E+03</pdfrwt>
<totfact> 0.13847626E+02</totfact>
</mgrwt>
</event>
<event>
 8    1  0.3694627E-007  0.1284013E+03  0.7546771E-02  0.1229850E+00
         -5   -1    0    0    0  501 -0.00000000000E+00  0.00000000000E+00  0.12705226121E+02  0.13546688554E+02  0.47000000000E+01 0.  1.
          5   -1    0    0  501    0  0.00000000000E+00 -0.00000000000E+00 -0.12631075147E+04  0.12631162590E+04  0.47000000000E+01 0.  1.
         25    2    1    2    0    0  0.91004969966E+01 -0.27907567313E+02 -0.57454868205E+03  0.58872155620E+03  0.12500092532E+03 0.  0.
         25    2    1    2    0    0 -0.91004969966E+01  0.27907567313E+02 -0.67585360655E+03  0.68794139135E+03  0.12499443623E+03 0.  0.
          5    1    3    3  502    0 -0.77062439599E-01 -0.43537829152E+02 -0.56674714669E+03  0.56843642282E+03  0.47000000000E+01 0.  1.
         -5    1    3    3    0  502  0.91775594362E+01  0.15630261839E+02 -0.78015353602E+01  0.20285133382E+02  0.47000000000E+01 0.  1.
          5    1    4    4  503    0 -0.34327335415E+02  0.70562888327E+02 -0.41691971535E+03  0.42426598522E+03  0.47000000000E+01 0.  1.
         -5    1    4    4    0  503  0.25226838418E+02 -0.42655321014E+02 -0.25893389121E+03  0.26367540614E+03  0.47000000000E+01 0.  1.
<mgrwt>
<rscale>  0 0.12839968E+03</rscale>
<asrwt>0</asrwt>
<pdfrwt beam="2">  1        5 0.19438954E+00 0.12840126E+03</pdfrwt>
<pdfrwt beam="1">  1       -5 0.20200517E-02 0.12840126E+03</pdfrwt>
<totfact> 0.10672090E+02</totfact>
</mgrwt>
</event>
<event>
 8    1  0.3694627E-007  0.1674954E+03  0.7546771E-02  0.1180487E+00
          5   -1    0    0  501    0  0.00000000000E+00  0.00000000000E+00  0.12146102731E+03  0.12155192781E+03  0.47000000000E+01 0.  1.
         -5   -1    0    0    0  501 -0.00000000000E+00 -0.00000000000E+00 -0.24521873319E+03  0.24526377048E+03  0.47000000000E+01 0.  1.
         25    2    1    2    0    0 -0.75554162787E+02  0.81972935110E+02 -0.10639122337E+03  0.19842831194E+03  0.12500683566E+03 0.  0.
         25    2    1    2    0    0  0.75554162787E+02 -0.81972935110E+02 -0.17366482511E+02  0.16838738635E+03  0.12499889425E+03 0.  0.
          5    1    4    4  502    0  0.53121280713E+02 -0.60773144283E+02  0.49351690665E+02  0.94725524026E+02  0.47000000000E+01 0. -1.
         -5    1    4    4    0  502  0.22432882075E+02 -0.21199790827E+02 -0.66718173176E+02  0.73661862325E+02  0.47000000000E+01 0. -1.
          5    1    3    3  503    0 -0.57445332915E+02 -0.12365764525E+02 -0.78730428172E+02  0.98353691980E+02  0.47000000000E+01 0.  1.
         -5    1    3    3    0  503 -0.18108829872E+02  0.94338699635E+02 -0.27660795203E+02  0.10007461996E+03  0.47000000000E+01 0.  1.
<mgrwt>
<rscale>  0 0.16749390E+03</rscale>
<asrwt>0</asrwt>
<pdfrwt beam="1">  1        5 0.18696769E-01 0.16749538E+03</pdfrwt>
<pdfrwt beam="2">  1       -5 0.37736416E-01 0.16749538E+03</pdfrwt>
<totfact> 0.13726831E+02</totfact>
</mgrwt>
</event>
<event>
 8    1  0.3694627E-007  0.1604988E+03  0.7546771E-02  0.1188135E+00
         -5   -1    0    0    0  501 -0.00000000000E+00  0.00000000000E+00  0.28232907013E+03  0.28236818843E+03  0.47000000000E+01 0.  1.
          5   -1    0    0  501    0  0.00000000000E+00 -0.00000000000E+00 -0.16779986955E+03  0.16786567910E+03  0.47000000000E+01 0. -1.
         25    2    1    2    0    0 -0.53309812615E+01 -0.10052877653E+03  0.20936934393E+03  0.26380939349E+03  0.12500167857E+03 0.  0.
         25    2    1    2    0    0  0.53309812615E+01  0.10052877653E+03 -0.94840143350E+02  0.18642447404E+03  0.12499990984E+03 0.  0.
          5    1    3    3  502    0 -0.78897414881E+01 -0.82321924149E+02  0.22465671410E+03  0.23944075762E+03  0.47000000000E+01 0. -1.
         -5    1    3    3    0  502  0.25587602266E+01 -0.18206852383E+02 -0.15287370176E+02  0.24368635876E+02  0.47000000000E+01 0. -1.
          5    1    4    4  503    0 -0.51760019813E+02  0.39353021704E+02 -0.79024831277E+01  0.65668098860E+02  0.47000000000E+01 0. -1.
         -5    1    4    4    0  503  0.57091001074E+02  0.61175754827E+02 -0.86937660222E+02  0.12075637518E+03  0.47000000000E+01 0. -1.
<mgrwt>
<rscale>  0 0.16049848E+03</rscale>
<asrwt>0</asrwt>
<pdfrwt beam="2">  1        5 0.25823436E-01 0.16049883E+03</pdfrwt>
<pdfrwt beam="1">  1       -5 0.43443312E-01 0.16049883E+03</pdfrwt>
<totfact> 0.55069304E+01</totfact>
</mgrwt>
</event>
<event>
 8    1  0.3694627E-007  0.1265072E+03  0.7546771E-02  0.1232734E+00
         -5   -1    0    0    0  501 -0.00000000000E+00  0.00000000000E+00  0.46773776743E+03  0.46776138050E+03  0.47000000000E+01 0. -1.
          5   -1    0    0  501    0  0.00000000000E+00 -0.00000000000E+00 -0.34209664929E+02  0.34531017571E+02  0.47000000000E+01 0. -1.
         25    2    1    2    0    0  0.64636058425E+01 -0.18336716275E+02  0.23494373171E+03  0.26683578870E+03  0.12499907078E+03 0.  0.
         25    2    1    2    0    0 -0.64636058425E+01  0.18336716275E+02  0.19858437079E+03  0.23545660937E+03  0.12500419676E+03 0.  0.
          5    1    3    3  502    0 -0.36588867096E+02 -0.42872998197E+02  0.50599512396E+02  0.75889655583E+02  0.47000000000E+01 0.  1.
         -5    1    3    3    0  502  0.43052472938E+02  0.24536281922E+02  0.18434421932E+03  0.19094613311E+03  0.47000000000E+01 0.  1.
          5    1    4    4  503    0 -0.36668726878E+02  0.60208696018E+02  0.84501721826E+02  0.11014678206E+03  0.47000000000E+01 0.  1.
         -5    1    4    4    0  503  0.30205121036E+02 -0.41871979743E+02  0.11408264897E+03  0.12530982731E+03  0.47000000000E+01 0.  1.
<mgrwt>
<rscale>  0 0.12650590E+03</rscale>
<asrwt>0</asrwt>
<pdfrwt beam="2">  1        5 0.52895615E-02 0.12650716E+03</pdfrwt>
<pdfrwt beam="1">  1       -5 0.71986189E-01 0.12650716E+03</pdfrwt>
<totfact> 0.28642939E+02</totfact>
</mgrwt>
</event>
<event>
 8    1  0.3694627E-007  0.1287664E+03  0.7546771E-02  0.1229298E+00
         -5   -1    0    0    0  501 -0.00000000000E+00  0.00000000000E+00  0.11034873023E+03  0.11044877665E+03  0.47000000000E+01 0. -1.
          5   -1    0    0  501    0  0.00000000000E+00 -0.00000000000E+00 -0.19838671742E+03  0.19844238370E+03  0.47000000000E+01 0. -1.
         25    2    1    2    0    0  0.28903695328E+02 -0.10940371600E+02  0.32182561107E+02  0.13272720330E+03  0.12500271166E+03 0.  0.
         25    2    1    2    0    0 -0.28903695328E+02  0.10940371600E+02 -0.12022054830E+03  0.17616395704E+03  0.12500257675E+03 0.  0.
          5    1    4    4  502    0  0.16430203580E+02  0.47860036524E+02 -0.10329033423E+03  0.11511523718E+03  0.47000000000E+01 0.  1.
         -5    1    4    4    0  502 -0.45333898907E+02 -0.36919664924E+02 -0.16930214064E+02  0.61048719859E+02  0.47000000000E+01 0.  1.
          5    1    3    3  503    0  0.75816197352E+02  0.75000738431E+01  0.30123241111E+02  0.82060017935E+02  0.47000000000E+01 0.  1.
         -5    1    3    3    0  503 -0.46912502024E+02 -0.18440445443E+02  0.20593199951E+01  0.50667185368E+02  0.47000000000E+01 0.  1.
<mgrwt>
<rscale>  0 0.12876640E+03</rscale>
<asrwt>0</asrwt>
<pdfrwt beam="2">  1        5 0.30533011E-01 0.12876643E+03</pdfrwt>
<pdfrwt beam="1">  1       -5 0.16988706E-01 0.12876643E+03</pdfrwt>
<totfact> 0.22946809E+02</totfact>
</mgrwt>
</event>
<event>
 8    1  0.3694627E-007  0.1372766E+03  0.7546771E-02  0.1217041E+00
          5   -1    0    0  501    0  0.00000000000E+00  0.00000000000E+00  0.33723281719E+02  0.34049225100E+02  0.47000000000E+01 0. -1.
         -5   -1    0    0    0  501 -0.00000000000E+00 -0.00000000000E+00 -0.55940509855E+03  0.55942484239E+03  0.47000000000E+01 0. -1.
         25    2    1    2    0    0 -0.20555063565E+02  0.52890571191E+02 -0.28671016729E+03  0.31787960865E+03  0.12499920965E+03 0.  0.
         25    2    1    2    0    0  0.20555063565E+02 -0.52890571191E+02 -0.23897164954E+03  0.27559445884E+03  0.12499973319E+03 0.  0.
          5    1    3    3  502    0 -0.46142552310E+02  0.82015466834E+02 -0.16440219143E+03  0.18948837031E+03  0.47000000000E+01 0. -1.
         -5    1    3    3    0  502  0.25587488744E+02 -0.29124895643E+02 -0.12230797585E+03  0.12839123835E+03  0.47000000000E+01 0. -1.
          5    1    4    4  503    0 -0.51107522391E+02 -0.37741186351E+02 -0.11796951830E+03  0.13407189578E+03  0.47000000000E+01 0.  1.
         -5    1    4    4    0  503  0.71662585956E+02 -0.15149384840E+02 -0.12100213125E+03  0.14152256306E+03  0.47000000000E+01 0.  1.
<mgrwt>
<rscale>  0 0.13727645E+03</rscale>
<asrwt>0</asrwt>
<pdfrwt beam="1">  1        5 0.52147889E-02 0.13727657E+03</pdfrwt>
<pdfrwt beam="2">  1       -5 0.86088908E-01 0.13727657E+03</pdfrwt>
<totfact> 0.19981784E+02</totfact>
</mgrwt>
</event>
<event>
 8    1  0.3694627E-007  0.1323145E+03  0.7546771E-02  0.1224062E+00
         -5   -1    0    0    0  501 -0.00000000000E+00  0.00000000000E+00  0.30966286816E+02  0.31320934200E+02  0.47000000000E+01 0. -1.
          5   -1    0    0  501    0  0.00000000000E+00 -0.00000000000E+00 -0.60571600910E+03  0.60573424344E+03  0.47000000000E+01 0. -1.
         25    2    1    2    0    0 -0.32651711371E+02  0.28561469641E+02 -0.20160581849E+03  0.24114730537E+03  0.12500090014E+03 0.  0.
         25    2    1    2    0    0  0.32651711371E+02 -0.28561469641E+02 -0.37314390379E+03  0.39590787227E+03  0.12499911434E+03 0.  0.
          5    1    4    4  502    0  0.32001750852E+02  0.45109788406E+02 -0.11994389017E+03  0.13216516885E+03  0.47000000000E+01 0.  1.
         -5    1    4    4    0  502  0.64996051946E+00 -0.73671258047E+02 -0.25320001362E+03  0.26374270342E+03  0.47000000000E+01 0.  1.
          5    1    3    3  503    0 -0.51192667642E+02 -0.34608165239E+02 -0.12844940639E+03  0.14261751058E+03  0.47000000000E+01 0.  1.
         -5    1    3    3    0  503  0.18540956271E+02  0.63169634880E+02 -0.73156412097E+02  0.98529794790E+02  0.47000000000E+01 0.  1.
<mgrwt>
<rscale>  0 0.13231404E+03</rscale>
<asrwt>0</asrwt>
<pdfrwt beam="2">  1        5 0.93215753E-01 0.13231446E+03</pdfrwt>
<pdfrwt beam="1">  1       -5 0.47927278E-02 0.13231446E+03</pdfrwt>
<totfact> 0.18809501E+02</totfact>
</mgrwt>
</event>
<event>
 8    1  0.3694627E-007  0.1283355E+03  0.7546771E-02  0.1229950E+00
          5   -1    0    0  501    0  0.00000000000E+00  0.00000000000E+00  0.32673936269E+03  0.32677316464E+03  0.47000000000E+01 0.  1.
         -5   -1    0    0    0  501 -0.00000000000E+00 -0.00000000000E+00 -0.61595879050E+02  0.61774932747E+02  0.47000000000E+01 0.  1.
         25    2    1    2    0    0 -0.24889777965E+02 -0.15003700612E+02  0.49374925659E+02  0.13749813559E+03  0.12499296752E+03 0.  0.
         25    2    1    2    0    0  0.24889777965E+02  0.15003700612E+02  0.21576855798E+03  0.25104996180E+03  0.12500160250E+03 0.  0.
          5    1    3    3  502    0  0.10886077644E+02  0.48494481420E+02  0.10700008696E+01  0.49934520289E+02  0.47000000000E+01 0. -1.
         -5    1    3    3    0  502 -0.35775855610E+02 -0.63498182032E+02  0.48304924790E+02  0.87563615303E+02  0.47000000000E+01 0. -1.
          5    1    4    4  503    0  0.39476156288E+02 -0.46679375687E+02  0.13500817539E+03  0.14827888741E+03  0.47000000000E+01 0.  1.
         -5    1    4    4    0  503 -0.14586378323E+02  0.61683076299E+02  0.80760382587E+02  0.10277107438E+03  0.47000000000E+01 0.  1.
<mgrwt>
<rscale>  0 0.12833344E+03</rscale>
<asrwt>0</asrwt>
<pdfrwt beam="1">  1        5 0.50283968E-01 0.12833555E+03</pdfrwt>
<pdfrwt beam="2">  1       -5 0.94926625E-02 0.12833555E+03</pdfrwt>
<totfact> 0.23377965E+02</totfact>
</mgrwt>
</event>
<event>
 8    1  0.3694627E-007  0.1881265E+03  0.7546771E-02  0.1160166E+00
          5   -1    0    0  501    0  0.00000000000E+00  0.00000000000E+00  0.18024721037E+04  0.18024782313E+04  0.47000000000E+01 0.  1.
         -5   -1    0    0    0  501 -0.00000000000E+00 -0.00000000000E+00 -0.20498380863E+02  0.21030302375E+02  0.47000000000E+01 0.  1.
         25    2    1    2    0    0  0.10377577652E+03 -0.94848799501E+02  0.67758766883E+03  0.70321387059E+03  0.12497596680E+03 0.  0.
         25    2    1    2    0    0 -0.10377577652E+03  0.94848799501E+02  0.11043860540E+04  0.11202946631E+04  0.12500347791E+03 0.  0.
          5    1    3    3  502    0 -0.17622925199E+02 -0.45300086605E+02  0.28839137070E+03  0.29249673166E+03  0.47000000000E+01 0. -1.
         -5    1    3    3    0  502  0.12139870172E+03 -0.49548712896E+02  0.38919629813E+03  0.41071713892E+03  0.47000000000E+01 0. -1.
          5    1    4    4  503    0 -0.28738357924E+02  0.12037002286E+02  0.70046317684E+03  0.70117154445E+03  0.47000000000E+01 0. -1.
         -5    1    4    4    0  503 -0.75037418593E+02  0.82811797215E+02  0.40392287713E+03  0.41912311869E+03  0.47000000000E+01 0. -1.
<mgrwt>
<rscale>  0 0.18812192E+03</rscale>
<asrwt>0</asrwt>
<pdfrwt beam="1">  1        5 0.27734480E+00 0.18812649E+03</pdfrwt>
<pdfrwt beam="2">  1       -5 0.31949854E-02 0.18812649E+03</pdfrwt>
<totfact> 0.16347432E+01</totfact>
</mgrwt>
</event>
<event>
 8    1  0.3694627E-007  0.1577183E+03  0.7546771E-02  0.1191298E+00
         -5   -1    0    0    0  501 -0.00000000000E+00  0.00000000000E+00  0.92931649808E+02  0.93050424696E+02  0.47000000000E+01 0. -1.
          5   -1    0    0  501    0  0.00000000000E+00 -0.00000000000E+00 -0.30568747379E+03  0.30572360332E+03  0.47000000000E+01 0. -1.
         25    2    1    2    0    0 -0.55954116289E+02 -0.78219190737E+02 -0.35788665343E+02  0.16172461932E+03  0.12499967599E+03 0.  0.
         25    2    1    2    0    0  0.55954116289E+02  0.78219190737E+02 -0.17696715863E+03  0.23704940870E+03  0.12500376795E+03 0.  0.
          5    1    3    3  502    0  0.13186783184E+02  0.27423303163E+02 -0.15769755911E+01  0.30830271798E+02  0.47000000000E+01 0. -1.
         -5    1    3    3    0  502 -0.69140899472E+02 -0.10564249390E+03 -0.34211689752E+02  0.13089434752E+03  0.47000000000E+01 0. -1.
          5    1    4    4  503    0  0.78899728157E+02  0.18999475624E+02 -0.51181156708E+02  0.96061167905E+02  0.47000000000E+01 0.  1.
         -5    1    4    4    0  503 -0.22945611869E+02  0.59219715113E+02 -0.12578600193E+03  0.14098824080E+03  0.47000000000E+01 0.  1.
<mgrwt>
<rscale>  0 0.15771744E+03</rscale>
<asrwt>0</asrwt>
<pdfrwt beam="2">  1        5 0.47040757E-01 0.15771825E+03</pdfrwt>
<pdfrwt beam="1">  1       -5 0.14309093E-01 0.15771825E+03</pdfrwt>
<totfact> 0.13943748E+02</totfact>
</mgrwt>
</event>
<event>
 8    1  0.3694627E-007  0.1270286E+03  0.7546771E-02  0.1231942E+00
          5   -1    0    0  501    0  0.00000000000E+00  0.00000000000E+00  0.18978636653E+03  0.18984455462E+03  0.47000000000E+01 0. -1.
         -5   -1    0    0    0  501 -0.00000000000E+00 -0.00000000000E+00 -0.85213316265E+02  0.85342833728E+02  0.47000000000E+01 0. -1.
         25    2    1    2    0    0  0.13852945211E+02 -0.17884472279E+02  0.61004412007E+02  0.14091772293E+03  0.12499803163E+03 0.  0.
         25    2    1    2    0    0 -0.13852945211E+02  0.17884472279E+02  0.43568638256E+02  0.13426966542E+03  0.12497343067E+03 0.  0.
          5    1    4    4  502    0 -0.29626964226E+02  0.66127956402E+02  0.10154977427E+02  0.73320373661E+02  0.47000000000E+01 0. -1.
         -5    1    4    4    0  502  0.15774019015E+02 -0.48243484124E+02  0.33413660829E+02  0.60949291762E+02  0.47000000000E+01 0. -1.
          5    1    3    3  503    0  0.47493024005E+02  0.29488851201E+02 -0.60265052423E+00  0.56103768696E+02  0.47000000000E+01 0.  1.
         -5    1    3    3    0  503 -0.33640078794E+02 -0.47373323479E+02  0.61607062532E+02  0.84813954232E+02  0.47000000000E+01 0.  1.
<mgrwt>
<rscale>  0 0.12702255E+03</rscale>
<asrwt>0</asrwt>
<pdfrwt beam="1">  1        5 0.29212341E-01 0.12702860E+03</pdfrwt>
<pdfrwt beam="2">  1       -5 0.13124180E-01 0.12702860E+03</pdfrwt>
<totfact> 0.39696628E+02</totfact>
</mgrwt>
</event>
<event>
 8    1  0.3694627E-007  0.1250232E+03  0.7546771E-02  0.1235036E+00
         -5   -1    0    0    0  501 -0.00000000000E+00  0.00000000000E+00  0.14518918285E+03  0.14526523609E+03  0.47000000000E+01 0. -1.
          5   -1    0    0  501    0  0.00000000000E+00 -0.00000000000E+00 -0.10782767154E+03  0.10793005489E+03  0.47000000000E+01 0. -1.
         25    2    1    2    0    0  0.60099676228E+00  0.14973980529E+01  0.25698757755E+02  0.12763709500E+03  0.12501279323E+03 0.  0.
         25    2    1    2    0    0 -0.60099676228E+00 -0.14973980529E+01  0.11662753554E+02  0.12555819598E+03  0.12500494934E+03 0.  0.
          5    1    4    4  502    0 -0.56934374784E+02 -0.26125302442E+02  0.11692401772E+02  0.63897235613E+02  0.47000000000E+01 0.  1.
         -5    1    4    4    0  502  0.56333378022E+02  0.24627904389E+02 -0.29648217618E-01  0.61660960364E+02  0.47000000000E+01 0.  1.
          5    1    3    3  503    0  0.58896975018E+02 -0.13561920626E+01  0.34487652363E+02  0.68426464827E+02  0.47000000000E+01 0.  1.
         -5    1    3    3    0  503 -0.58295978255E+02  0.28535901155E+01 -0.87888946080E+01  0.59210630175E+02  0.47000000000E+01 0.  1.
<mgrwt>
<rscale>  0 0.12502124E+03</rscale>
<asrwt>0</asrwt>
<pdfrwt beam="2">  1        5 0.16602598E-01 0.12502321E+03</pdfrwt>
<pdfrwt beam="1">  1       -5 0.22350523E-01 0.12502321E+03</pdfrwt>
<totfact> 0.43152458E+02</totfact>
</mgrwt>
</event>
<event>
 8    1  0.3694627E-007  0.1250325E+03  0.7546771E-02  0.1235021E+00
          5   -1    0    0  501    0  0.00000000000E+00  0.00000000000E+00  0.37348509731E+02  0.37643076111E+02  0.47000000000E+01 0. -1.
         -5   -1    0    0    0  501 -0.00000000000E+00 -0.00000000000E+00 -0.42147828708E+03  0.42150449164E+03  0.47000000000E+01 0. -1.
         25    2    1    2    0    0 -0.70070464287E+00  0.21330682742E+01 -0.21675210070E+03  0.25022555633E+03  0.12500525956E+03 0.  0.
         25    2    1    2    0    0  0.70070464287E+00 -0.21330682742E+01 -0.16737767665E+03  0.20892201143E+03  0.12501231640E+03 0.  0.
          5    1    3    3  502    0  0.20000963731E+02  0.13720951799E+02 -0.22370148488E+03  0.22506165245E+03  0.47000000000E+01 0.  1.
         -5    1    3    3    0  502 -0.20701668374E+02 -0.11587883524E+02  0.69493841777E+01  0.25163903880E+02  0.47000000000E+01 0.  1.
          5    1    4    4  503    0 -0.60246443255E+02  0.10738148942E+02 -0.97328936431E+02  0.11506499743E+03  0.47000000000E+01 0.  1.
         -5    1    4    4    0  503  0.60947147898E+02 -0.12871217217E+02 -0.70048740217E+02  0.93857013992E+02  0.47000000000E+01 0.  1.
<mgrwt>
<rscale>  0 0.12503071E+03</rscale>
<asrwt>0</asrwt>
<pdfrwt beam="1">  1        5 0.57705996E-02 0.12503248E+03</pdfrwt>
<pdfrwt beam="2">  1       -5 0.64867485E-01 0.12503248E+03</pdfrwt>
<totfact> 0.31138639E+02</totfact>
</mgrwt>
</event>
<event>
 8    1  0.3694627E-007  0.1305434E+03  0.7546771E-02  0.1226656E+00
         -5   -1    0    0    0  501 -0.00000000000E+00  0.00000000000E+00  0.44046487739E+02  0.44296535780E+02  0.47000000000E+01 0. -1.
          5   -1    0    0  501    0  0.00000000000E+00 -0.00000000000E+00 -0.56753344272E+03  0.56755290379E+03  0.47000000000E+01 0. -1.
         25    2    1    2    0    0  0.30514839377E+02  0.21938311515E+02 -0.88523010610E+02  0.15771815509E+03  0.12500499232E+03 0.  0.
         25    2    1    2    0    0 -0.30514839377E+02 -0.21938311515E+02 -0.43496394437E+03  0.45413128448E+03  0.12501658173E+03 0.  0.
          5    1    3    3  502    0  0.56071562526E+00  0.32521654367E+02 -0.11278080062E+03  0.11747157696E+03  0.47000000000E+01 0. -1.
         -5    1    3    3    0  502  0.29954123752E+02 -0.10583342852E+02  0.24257790008E+02  0.40246578137E+02  0.47000000000E+01 0. -1.
          5    1    4    4  503    0 -0.50380970368E+02 -0.57514106579E+02 -0.36566989221E+03  0.37360764808E+03  0.47000000000E+01 0.  1.
         -5    1    4    4    0  503  0.19866130991E+02  0.35575795064E+02 -0.69294052154E+02  0.80523636399E+02  0.47000000000E+01 0.  1.
<mgrwt>
<rscale>  0 0.13054067E+03</rscale>
<asrwt>0</asrwt>
<pdfrwt beam="2">  1        5 0.87333564E-01 0.13054344E+03</pdfrwt>
<pdfrwt beam="1">  1       -5 0.67971146E-02 0.13054344E+03</pdfrwt>
<totfact> 0.12175134E+02</totfact>
</mgrwt>
</event>
<event>
 8    1  0.3694627E-007  0.1327104E+03  0.7546771E-02  0.1223500E+00
          5   -1    0    0  501    0  0.00000000000E+00  0.00000000000E+00  0.13999514559E+03  0.14007401897E+03  0.47000000000E+01 0.  1.
         -5   -1    0    0    0  501 -0.00000000000E+00 -0.00000000000E+00 -0.14384371730E+03  0.14392048154E+03  0.47000000000E+01 0.  1.
         25    2    1    2    0    0  0.27409257475E+02 -0.35159021637E+02 -0.52442248986E+02  0.14266724940E+03  0.12496531668E+03 0.  0.
         25    2    1    2    0    0 -0.27409257475E+02  0.35159021637E+02  0.48593677279E+02  0.14132725111E+03  0.12499848894E+03 0.  0.
          5    1    4    4  502    0 -0.41180775169E+02 -0.32762498263E+02  0.48715086686E+02  0.71864366738E+02  0.47000000000E+01 0. -1.
         -5    1    4    4    0  502  0.13771517693E+02  0.67921519900E+02 -0.12140940664E+00  0.69462884372E+02  0.47000000000E+01 0. -1.
          5    1    3    3  503    0  0.40960668343E+01 -0.75299305423E+02 -0.58583867199E+02  0.95608172541E+02  0.47000000000E+01 0. -1.
         -5    1    3    3    0  503  0.23313190641E+02  0.40140283786E+02  0.61416182123E+01  0.47059076856E+02  0.47000000000E+01 0. -1.
<mgrwt>
<rscale>  0 0.13270257E+03</rscale>
<asrwt>0</asrwt>
<pdfrwt beam="1">  1        5 0.21549687E-01 0.13271039E+03</pdfrwt>
<pdfrwt beam="2">  1       -5 0.22141775E-01 0.13271039E+03</pdfrwt>
<totfact> 0.27693330E+02</totfact>
</mgrwt>
</event>
<event>
 8    1  0.3694627E-007  0.1575827E+03  0.7546771E-02  0.1191459E+00
          5   -1    0    0  501    0  0.00000000000E+00  0.00000000000E+00  0.88412448275E+03  0.88413697525E+03  0.47000000000E+01 0. -1.
         -5   -1    0    0    0  501 -0.00000000000E+00 -0.00000000000E+00 -0.32595334781E+02  0.32932443721E+02  0.47000000000E+01 0. -1.
         25    2    1    2    0    0  0.84240929915E+01  0.95549571277E+02  0.25222293618E+03  0.29739188323E+03  0.12499934703E+03 0.  0.
         25    2    1    2    0    0 -0.84240929915E+01 -0.95549571277E+02  0.59930621179E+03  0.61967753574E+03  0.12502650481E+03 0.  0.
          5    1    3    3  502    0  0.50173980005E+02  0.92294283928E+02  0.12487454936E+03  0.16325258403E+03  0.47000000000E+01 0.  1.
         -5    1    3    3    0  502 -0.41749887013E+02  0.32552873493E+01  0.12734838683E+03  0.13413929920E+03  0.47000000000E+01 0.  1.
          5    1    4    4  503    0  0.72672323844E+01 -0.33666216386E+02  0.50200474983E+03  0.50320680207E+03  0.47000000000E+01 0.  1.
         -5    1    4    4    0  503 -0.15691325376E+02 -0.61883354892E+02  0.97301461954E+02  0.11647073368E+03  0.47000000000E+01 0.  1.
<mgrwt>
<rscale>  0 0.15757733E+03</rscale>
<asrwt>0</asrwt>
<pdfrwt beam="1">  1        5 0.13604605E+00 0.15758272E+03</pdfrwt>
<pdfrwt beam="2">  1       -5 0.50415590E-02 0.15758272E+03</pdfrwt>
<totfact> 0.70709736E+01</totfact>
</mgrwt>
</event>
<event>
 8    1  0.3694627E-007  0.1316789E+03  0.7546771E-02  0.1224988E+00
          5   -1    0    0  501    0  0.00000000000E+00  0.00000000000E+00  0.36316803283E+02  0.36619669587E+02  0.47000000000E+01 0.  1.
         -5   -1    0    0    0  501 -0.00000000000E+00 -0.00000000000E+00 -0.52713634962E+03  0.52715730204E+03  0.47000000000E+01 0.  1.
         25    2    1    2    0    0  0.40987811478E+02  0.57742501353E+01 -0.33392349627E+03  0.35894605996E+03  0.12499611972E+03 0.  0.
         25    2    1    2    0    0 -0.40987811478E+02 -0.57742501353E+01 -0.15689605007E+03  0.20483091167E+03  0.12500395671E+03 0.  0.
          5    1    3    3  502    0 -0.33325657088E+02 -0.32936483461E+02 -0.13769383681E+03  0.14552351721E+03  0.47000000000E+01 0.  1.
         -5    1    3    3    0  502  0.74313468566E+02  0.38710733596E+02 -0.19622965945E+03  0.21342254275E+03  0.47000000000E+01 0.  1.
          5    1    4    4  503    0  0.27039470265E+02  0.36327057358E+02 -0.88283668498E+02  0.99332191016E+02  0.47000000000E+01 0.  1.
         -5    1    4    4    0  503 -0.68027281743E+02 -0.42101307493E+02 -0.68612381572E+02  0.10549872065E+03  0.47000000000E+01 0.  1.
<mgrwt>
<rscale>  0 0.13167704E+03</rscale>
<asrwt>0</asrwt>
<pdfrwt beam="1">  1        5 0.56121100E-02 0.13167890E+03</pdfrwt>
<pdfrwt beam="2">  1       -5 0.81122803E-01 0.13167890E+03</pdfrwt>
<totfact> 0.20024686E+02</totfact>
</mgrwt>
</event>
<event>
 8    1  0.3694627E-007  0.2092404E+03  0.7546771E-02  0.1142170E+00
         -5   -1    0    0    0  501 -0.00000000000E+00  0.00000000000E+00  0.16262121141E+03  0.16268911581E+03  0.47000000000E+01 0.  1.
          5   -1    0    0  501    0  0.00000000000E+00 -0.00000000000E+00 -0.27382098075E+03  0.27386131435E+03  0.47000000000E+01 0.  1.
         25    2    1    2    0    0  0.16747092563E+03  0.10412985251E+02 -0.26861202876E+02  0.21095746677E+03  0.12500634933E+03 0.  0.
         25    2    1    2    0    0 -0.16747092563E+03 -0.10412985251E+02 -0.84338566458E+02  0.22559296339E+03  0.12499700055E+03 0.  0.
          5    1    4    4  502    0 -0.12116689020E+03  0.47846029649E+02 -0.31226159272E+02  0.13404410042E+03  0.47000000000E+01 0.  1.
         -5    1    4    4    0  502 -0.46304035421E+02 -0.58259014900E+02 -0.53112407186E+02  0.91548862967E+02  0.47000000000E+01 0.  1.
          5    1    3    3  503    0  0.16311136919E+03 -0.11721366600E+02 -0.56798107133E+02  0.17317859039E+03  0.47000000000E+01 0. -1.
         -5    1    3    3    0  503  0.43595564346E+01  0.22134351851E+02  0.29936904257E+02  0.37778876381E+02  0.47000000000E+01 0. -1.
<mgrwt>
<rscale>  0 0.20923896E+03</rscale>
<asrwt>0</asrwt>
<pdfrwt beam="2">  1        5 0.42134631E-01 0.20924036E+03</pdfrwt>
<pdfrwt beam="1">  1       -5 0.25026974E-01 0.20924036E+03</pdfrwt>
<totfact> 0.67083550E+01</totfact>
</mgrwt>
</event>
<event>
 8    1  0.3694627E-007  0.1470187E+03  0.7546771E-02  0.1204186E+00
          5   -1    0    0  501    0  0.00000000000E+00  0.00000000000E+00  0.66037834313E+02  0.66204875657E+02  0.47000000000E+01 0. -1.
         -5   -1    0    0    0  501 -0.00000000000E+00 -0.00000000000E+00 -0.34387380007E+03  0.34390591791E+03  0.47000000000E+01 0. -1.
         25    2    1    2    0    0 -0.41244426579E+02 -0.65487836370E+02 -0.18472795267E+03  0.23608895016E+03  0.12499526571E+03 0.  0.
         25    2    1    2    0    0  0.41244426579E+02  0.65487836370E+02 -0.93108013083E+02  0.17402184341E+03  0.12499896179E+03 0.  0.
          5    1    3    3  502    0 -0.43011606159E+02 -0.60579027110E+02 -0.20315722572E+03  0.21636719980E+03  0.47000000000E+01 0. -1.
         -5    1    3    3    0  502  0.17671795790E+01 -0.49088092592E+01  0.18429273044E+02  0.19721750352E+02  0.47000000000E+01 0. -1.
          5    1    4    4  503    0 -0.91354177466E+00  0.83920237526E+02 -0.96100000320E+02  0.12767435485E+03  0.47000000000E+01 0. -1.
         -5    1    4    4    0  503  0.42157968354E+02 -0.18432401156E+02  0.29919872376E+01  0.46347488559E+02  0.47000000000E+01 0. -1.
<mgrwt>
<rscale>  0 0.14701792E+03</rscale>
<asrwt>0</asrwt>
<pdfrwt beam="1">  1        5 0.10174987E-01 0.14701871E+03</pdfrwt>
<pdfrwt beam="2">  1       -5 0.52918980E-01 0.14701871E+03</pdfrwt>
<totfact> 0.19456314E+02</totfact>
</mgrwt>
</event>
<event>
 8    1  0.3694627E-007  0.1941020E+03  0.7546771E-02  0.1154814E+00
         -5   -1    0    0    0  501 -0.00000000000E+00  0.00000000000E+00  0.11315963602E+03  0.11325719943E+03  0.47000000000E+01 0.  1.
          5   -1    0    0  501    0  0.00000000000E+00 -0.00000000000E+00 -0.34130896546E+03  0.34134132464E+03  0.47000000000E+01 0.  1.
         25    2    1    2    0    0 -0.14009298105E+03  0.49252658852E+02 -0.77930390729E+02  0.20916199316E+03  0.12499490326E+03 0.  0.
         25    2    1    2    0    0  0.14009298105E+03 -0.49252658852E+02 -0.15021893872E+03  0.24543653091E+03  0.12498597286E+03 0.  0.
          5    1    4    4  502    0  0.11849272619E+03 -0.20270830185E+02 -0.36051425661E+02  0.12559151249E+03  0.47000000000E+01 0.  1.
         -5    1    4    4    0  502  0.21600254856E+02 -0.28981828667E+02 -0.11416751306E+03  0.11984501842E+03  0.47000000000E+01 0.  1.
          5    1    3    3  503    0 -0.12636407086E+03 -0.10176457184E+02 -0.27327476482E+02  0.12977025720E+03  0.47000000000E+01 0.  1.
         -5    1    3    3    0  503 -0.13728910190E+02  0.59429116037E+02 -0.50602914247E+02  0.79391735956E+02  0.47000000000E+01 0.  1.
<mgrwt>
<rscale>  0 0.19410058E+03</rscale>
<asrwt>0</asrwt>
<pdfrwt beam="2">  1        5 0.52519065E-01 0.19410202E+03</pdfrwt>
<pdfrwt beam="1">  1       -5 0.17419169E-01 0.19410202E+03</pdfrwt>
<totfact> 0.81846119E+01</totfact>
</mgrwt>
</event>
<event>
 8    1  0.3694627E-007  0.1440405E+03  0.7546771E-02  0.1207994E+00
         -5   -1    0    0    0  501 -0.00000000000E+00  0.00000000000E+00  0.69562638946E+02  0.69721235913E+02  0.47000000000E+01 0. -1.
          5   -1    0    0  501    0  0.00000000000E+00 -0.00000000000E+00 -0.29784626545E+03  0.29788334603E+03  0.47000000000E+01 0. -1.
         25    2    1    2    0    0  0.35072682687E+02  0.62376472868E+02 -0.11066248640E+03  0.18164118131E+03  0.12500566153E+03 0.  0.
         25    2    1    2    0    0 -0.35072682687E+02 -0.62376472868E+02 -0.11762114011E+03  0.18596340064E+03  0.12500694516E+03 0.  0.
          5    1    4    4  502    0 -0.27673586473E+02 -0.82319116521E+02 -0.13327146440E+03  0.15914030777E+03  0.47000000000E+01 0. -1.
         -5    1    4    4    0  502 -0.73990962138E+01  0.19942643652E+02  0.15650324291E+02  0.26823092869E+02  0.47000000000E+01 0. -1.
          5    1    3    3  503    0  0.30696195777E+02 -0.33843664126E+02 -0.23229962968E+02  0.51472043054E+02  0.47000000000E+01 0.  1.
         -5    1    3    3    0  503  0.43764869098E+01  0.96220136995E+02 -0.87432523430E+02  0.13016913826E+03  0.47000000000E+01 0.  1.
<mgrwt>
<rscale>  0 0.14404018E+03</rscale>
<asrwt>0</asrwt>
<pdfrwt beam="2">  1        5 0.45837554E-01 0.14404046E+03</pdfrwt>
<pdfrwt beam="1">  1       -5 0.10716997E-01 0.14404046E+03</pdfrwt>
<totfact> 0.23913997E+02</totfact>
</mgrwt>
</event>
<event>
 8    1  0.3694627E-007  0.1817624E+03  0.7546771E-02  0.1166109E+00
          5   -1    0    0  501    0  0.00000000000E+00  0.00000000000E+00  0.87413198903E+02  0.87539461630E+02  0.47000000000E+01 0.  1.
         -5   -1    0    0    0  501 -0.00000000000E+00 -0.00000000000E+00 -0.38956854190E+03  0.38959689275E+03  0.47000000000E+01 0.  1.
         25    2    1    2    0    0  0.12016281686E+03 -0.54526211273E+02 -0.19300967054E+03  0.26512134591E+03  0.12499753943E+03 0.  0.
         25    2    1    2    0    0 -0.12016281686E+03  0.54526211273E+02 -0.10914567246E+03  0.21201500847E+03  0.12500150291E+03 0.  0.
          5    1    3    3  502    0  0.11317221970E+03  0.11924961147E+02 -0.10869816337E+03  0.15744058158E+03  0.47000000000E+01 0.  1.
         -5    1    3    3    0  502  0.69905971600E+01 -0.66451172421E+02 -0.84311507165E+02  0.10768076432E+03  0.47000000000E+01 0.  1.
          5    1    4    4  503    0 -0.18975077712E+02 -0.24673297866E+02 -0.71360528780E+02  0.77995129781E+02  0.47000000000E+01 0.  1.
         -5    1    4    4    0  503 -0.10118773914E+03  0.79199509139E+02 -0.37785143682E+02  0.13401987869E+03  0.47000000000E+01 0.  1.
<mgrwt>
<rscale>  0 0.18176176E+03</rscale>
<asrwt>0</asrwt>
<pdfrwt beam="1">  1        5 0.13460078E-01 0.18176244E+03</pdfrwt>
<pdfrwt beam="2">  1       -5 0.59945514E-01 0.18176244E+03</pdfrwt>
<totfact> 0.96430170E+01</totfact>
</mgrwt>
</event>
<event>
 8    1  0.3694627E-007  0.1732642E+03  0.7546771E-02  0.1174487E+00
         -5   -1    0    0    0  501 -0.00000000000E+00  0.00000000000E+00  0.64792609509E+03  0.64794314157E+03  0.47000000000E+01 0.  1.
          5   -1    0    0  501    0  0.00000000000E+00 -0.00000000000E+00 -0.46575118999E+02  0.46811662113E+02  0.47000000000E+01 0.  1.
         25    2    1    2    0    0 -0.11878904023E+03  0.16867581156E+02  0.33194066639E+03  0.37443873908E+03  0.12499764777E+03 0.  0.
         25    2    1    2    0    0  0.11878904023E+03 -0.16867581156E+02  0.26941030970E+03  0.32031606460E+03  0.12500045957E+03 0.  0.
          5    1    4    4  502    0  0.85152116733E+02  0.38635662694E+02  0.21844205427E+03  0.23766072138E+03  0.47000000000E+01 0.  1.
         -5    1    4    4    0  502  0.33636923492E+02 -0.55503243849E+02  0.50968255434E+02  0.82655343214E+02  0.47000000000E+01 0.  1.
          5    1    3    3  503    0 -0.13548585114E+03  0.25935735733E+02  0.32594950496E+03  0.35396927555E+03  0.47000000000E+01 0.  1.
         -5    1    3    3    0  503  0.16696810912E+02 -0.90681545771E+01  0.59911614268E+01  0.20469463532E+02  0.47000000000E+01 0.  1.
<mgrwt>
<rscale>  0 0.17326364E+03</rscale>
<asrwt>0</asrwt>
<pdfrwt beam="2">  1        5 0.71849098E-02 0.17326415E+03</pdfrwt>
<pdfrwt beam="1">  1       -5 0.99700445E-01 0.17326415E+03</pdfrwt>
<totfact> 0.88047040E+01</totfact>
</mgrwt>
</event>
<event>
 8    1  0.3694627E-007  0.1513535E+03  0.7546771E-02  0.1198821E+00
         -5   -1    0    0    0  501 -0.00000000000E+00  0.00000000000E+00  0.43370458381E+03  0.43373004971E+03  0.47000000000E+01 0.  1.
          5   -1    0    0  501    0  0.00000000000E+00 -0.00000000000E+00 -0.52767875501E+02  0.52976774958E+02  0.47000000000E+01 0.  1.
         25    2    1    2    0    0  0.14889577893E+02  0.84029815680E+02  0.18086324525E+03  0.23583379605E+03  0.12499342552E+03 0.  0.
         25    2    1    2    0    0 -0.14889577893E+02 -0.84029815680E+02  0.20007346306E+03  0.25087302862E+03  0.12500070566E+03 0.  0.
          5    1    3    3  502    0  0.17096922683E+02 -0.21714575687E+02  0.21524752140E+01  0.28116733666E+02  0.47000000000E+01 0.  1.
         -5    1    3    3    0  502 -0.22073447907E+01  0.10574439137E+03  0.17871077004E+03  0.20771706238E+03  0.47000000000E+01 0.  1.
          5    1    4    4  503    0  0.39591017492E+02 -0.34659743397E+02  0.15673534984E+03  0.16539893098E+03  0.47000000000E+01 0.  1.
         -5    1    4    4    0  503 -0.54480595384E+02 -0.49370072282E+02  0.43338113219E+02  0.85474097643E+02  0.47000000000E+01 0.  1.
<mgrwt>
<rscale>  0 0.15135201E+03</rscale>
<asrwt>0</asrwt>
<pdfrwt beam="2">  1        5 0.81361630E-02 0.15135351E+03</pdfrwt>
<pdfrwt beam="1">  1       -5 0.66741808E-01 0.15135351E+03</pdfrwt>
<totfact> 0.17420043E+02</totfact>
</mgrwt>
</event>
<event>
 8    1  0.3694627E-007  0.1487036E+03  0.7546771E-02  0.1202082E+00
         -5   -1    0    0    0  501 -0.00000000000E+00  0.00000000000E+00  0.98768585837E+02  0.98880349657E+02  0.47000000000E+01 0.  1.
          5   -1    0    0  501    0  0.00000000000E+00 -0.00000000000E+00 -0.30345032076E+03  0.30348671663E+03  0.47000000000E+01 0.  1.
         25    2    1    2    0    0 -0.13560647568E+02  0.79355567158E+02  0.84817983605E+00  0.14868358544E+03  0.12499956787E+03 0.  0.
         25    2    1    2    0    0  0.13560647568E+02 -0.79355567158E+02 -0.20552991476E+03  0.25368348085E+03  0.12502625881E+03 0.  0.
          5    1    3    3  502    0  0.10287250203E+01  0.97292400398E+02  0.38092904366E+02  0.10459459266E+03  0.47000000000E+01 0.  1.
         -5    1    3    3    0  502 -0.14589372589E+02 -0.17936833240E+02 -0.37244724529E+02  0.44088992782E+02  0.47000000000E+01 0.  1.
          5    1    4    4  503    0 -0.11088072562E+02 -0.61993495989E+02 -0.20858257084E+02  0.66507862593E+02  0.47000000000E+01 0. -1.
         -5    1    4    4    0  503  0.24648720130E+02 -0.17362071168E+02 -0.18467165768E+03  0.18717561825E+03  0.47000000000E+01 0. -1.
<mgrwt>
<rscale>  0 0.14869800E+03</rscale>
<asrwt>0</asrwt>
<pdfrwt beam="2">  1        5 0.46696061E-01 0.14870361E+03</pdfrwt>
<pdfrwt beam="1">  1       -5 0.15206564E-01 0.14870361E+03</pdfrwt>
<totfact> 0.12446923E+02</totfact>
</mgrwt>
</event>
<event>
 8    1  0.3694627E-007  0.1407850E+03  0.7546771E-02  0.1212280E+00
          5   -1    0    0  501    0  0.00000000000E+00  0.00000000000E+00  0.25794934705E+03  0.25799216198E+03  0.47000000000E+01 0.  1.
         -5   -1    0    0    0  501 -0.00000000000E+00 -0.00000000000E+00 -0.76983730607E+02  0.77127069037E+02  0.47000000000E+01 0.  1.
         25    2    1    2    0    0 -0.60596447574E+02  0.22832638425E+02  0.80543883890E+02  0.16218876799E+03  0.12499848157E+03 0.  0.
         25    2    1    2    0    0  0.60596447574E+02 -0.22832638425E+02  0.10042173255E+03  0.17293046303E+03  0.12500864705E+03 0.  0.
          5    1    4    4  502    0  0.59180311070E+01 -0.25787284823E+02 -0.24556186262E+02  0.36401970200E+02  0.47000000000E+01 0.  1.
         -5    1    4    4    0  502  0.54678416467E+02  0.29546463976E+01  0.12497791881E+03  0.13652849283E+03  0.47000000000E+01 0.  1.
          5    1    3    3  503    0 -0.61883147157E+02  0.50598171559E+02  0.35005973977E+01  0.80150128193E+02  0.47000000000E+01 0. -1.
         -5    1    3    3    0  503  0.12866995831E+01 -0.27765533134E+02  0.77043286492E+02  0.82038639796E+02  0.47000000000E+01 0. -1.
<mgrwt>
<rscale>  0 0.14078276E+03</rscale>
<asrwt>0</asrwt>
<pdfrwt beam="1">  1        5 0.39698835E-01 0.14078502E+03</pdfrwt>
<pdfrwt beam="2">  1       -5 0.11857970E-01 0.14078502E+03</pdfrwt>
<totfact> 0.26723796E+02</totfact>
</mgrwt>
</event>
<event>
 8    1  0.3694627E-007  0.2003076E+03  0.7546771E-02  0.1149481E+00
         -5   -1    0    0    0  501 -0.00000000000E+00  0.00000000000E+00  0.40629986163E+02  0.40900926342E+02  0.47000000000E+01 0.  1.
          5   -1    0    0  501    0  0.00000000000E+00 -0.00000000000E+00 -0.99230971767E+03  0.99232084820E+03  0.47000000000E+01 0.  1.
         25    2    1    2    0    0 -0.97908110783E+02 -0.12210678573E+03 -0.52325673818E+03  0.56028477619E+03  0.12500140439E+03 0.  0.
         25    2    1    2    0    0  0.97908110783E+02  0.12210678573E+03 -0.42842299332E+03  0.47293699835E+03  0.12500831142E+03 0.  0.
          5    1    4    4  502    0 -0.75054634475E+01  0.25552525029E+02 -0.70439764786E+01  0.27945860544E+02  0.47000000000E+01 0. -1.
         -5    1    4    4    0  502  0.10541357423E+03  0.96554260704E+02 -0.42137901684E+03  0.44499113781E+03  0.47000000000E+01 0. -1.
          5    1    3    3  503    0  0.19332359346E+02 -0.49663301888E+01 -0.14290492938E+02  0.24994254177E+02  0.47000000000E+01 0. -1.
         -5    1    3    3    0  503 -0.11724047013E+03 -0.11714045554E+03 -0.50896624524E+03  0.53529052202E+03  0.47000000000E+01 0. -1.
<mgrwt>
<rscale>  0 0.20030654E+03</rscale>
<asrwt>0</asrwt>
<pdfrwt beam="2">  1        5 0.15268471E+00 0.20030762E+03</pdfrwt>
<pdfrwt beam="1">  1       -5 0.62724656E-02 0.20030762E+03</pdfrwt>
<totfact> 0.38174367E+01</totfact>
</mgrwt>
</event>
<event>
 8    1  0.3694627E-007  0.1325143E+03  0.7546771E-02  0.1223772E+00
         -5   -1    0    0    0  501 -0.00000000000E+00  0.00000000000E+00  0.11057787470E+03  0.11067771399E+03  0.47000000000E+01 0.  1.
          5   -1    0    0  501    0  0.00000000000E+00 -0.00000000000E+00 -0.15859868506E+03  0.15866831096E+03  0.47000000000E+01 0.  1.
         25    2    1    2    0    0 -0.31258958084E+02 -0.30955713758E+02 -0.24651587861E+02  0.13478775139E+03  0.12499863385E+03 0.  0.
         25    2    1    2    0    0  0.31258958084E+02  0.30955713758E+02 -0.23369222494E+02  0.13455827355E+03  0.12499771897E+03 0.  0.
          5    1    4    4  502    0  0.54652657719E+02 -0.32537730497E+02 -0.34802865045E+01  0.63873463158E+02  0.47000000000E+01 0.  1.
         -5    1    4    4    0  502 -0.23393699636E+02  0.63493444255E+02 -0.19888935990E+02  0.70684810397E+02  0.47000000000E+01 0.  1.
          5    1    3    3  503    0  0.46169661569E+02 -0.29378511979E+02 -0.10533248495E+02  0.55926504802E+02  0.47000000000E+01 0. -1.
         -5    1    3    3    0  503 -0.77428619653E+02 -0.15772017799E+01 -0.14118339366E+02  0.78861246587E+02  0.47000000000E+01 0. -1.
<mgrwt>
<rscale>  0 0.13251407E+03</rscale>
<asrwt>0</asrwt>
<pdfrwt beam="2">  1        5 0.24412833E-01 0.13251429E+03</pdfrwt>
<pdfrwt beam="1">  1       -5 0.17025017E-01 0.13251429E+03</pdfrwt>
<totfact> 0.35616521E+02</totfact>
</mgrwt>
</event>
<event>
 8    1  0.3694627E-007  0.1308032E+03  0.7546771E-02  0.1226272E+00
          5   -1    0    0  501    0  0.00000000000E+00  0.00000000000E+00  0.14992253576E+04  0.14992327248E+04  0.47000000000E+01 0.  1.
         -5   -1    0    0    0  501 -0.00000000000E+00 -0.00000000000E+00 -0.12949438336E+02  0.13775991914E+02  0.47000000000E+01 0.  1.
         25    2    1    2    0    0  0.12682191054E+02 -0.36370986360E+02  0.45361150534E+03  0.47209413914E+03  0.12500316721E+03 0.  0.
         25    2    1    2    0    0 -0.12682191054E+02  0.36370986360E+02  0.10326644140E+04  0.10409145775E+04  0.12499471685E+03 0.  0.
          5    1    4    4  502    0  0.96361312558E+01  0.44240617696E+02  0.12670726301E+03  0.13463620531E+03  0.47000000000E+01 0.  1.
         -5    1    4    4    0  502 -0.22318322310E+02 -0.78696313364E+01  0.90595715094E+03  0.90627837222E+03  0.47000000000E+01 0.  1.
          5    1    3    3  503    0 -0.48926103404E+02 -0.23486951829E+02  0.11018049322E+03  0.12291147866E+03  0.47000000000E+01 0. -1.
         -5    1    3    3    0  503  0.61608294458E+02 -0.12884034530E+02  0.34343101212E+03  0.34918266048E+03  0.47000000000E+01 0. -1.
<mgrwt>
<rscale>  0 0.13080119E+03</rscale>
<asrwt>0</asrwt>
<pdfrwt beam="1">  1        5 0.23071427E+00 0.13080320E+03</pdfrwt>
<pdfrwt beam="2">  1       -5 0.20563684E-02 0.13080320E+03</pdfrwt>
<totfact> 0.60116852E+01</totfact>
</mgrwt>
</event>
<event>
 8    1  0.3694627E-007  0.1494519E+03  0.7546771E-02  0.1201153E+00
         -5   -1    0    0    0  501 -0.00000000000E+00  0.00000000000E+00  0.40670087223E+03  0.40672802887E+03  0.47000000000E+01 0.  1.
          5   -1    0    0  501    0  0.00000000000E+00 -0.00000000000E+00 -0.62182780084E+02  0.62360148644E+02  0.47000000000E+01 0.  1.
         25    2    1    2    0    0  0.77428719752E+02  0.26667682372E+02  0.25303068637E+03  0.29387141072E+03  0.12501802219E+03 0.  0.
         25    2    1    2    0    0 -0.77428719752E+02 -0.26667682372E+02  0.91487405775E+02  0.17521676679E+03  0.12499839208E+03 0.  0.
          5    1    3    3  502    0  0.16849215007E+02  0.79334651155E+01  0.22251738386E+03  0.22334482764E+03  0.47000000000E+01 0.  1.
         -5    1    3    3    0  502  0.60579504745E+02  0.18734217257E+02  0.30513302509E+02  0.70526583083E+02  0.47000000000E+01 0.  1.
          5    1    4    4  503    0 -0.37470262468E+02  0.35422747063E+02  0.86815244070E+02  0.10108297672E+03  0.47000000000E+01 0. -1.
         -5    1    4    4    0  503 -0.39958457283E+02 -0.62090429435E+02  0.46721617055E+01  0.74133790075E+02  0.47000000000E+01 0. -1.
<mgrwt>
<rscale>  0 0.14944782E+03</rscale>
<asrwt>0</asrwt>
<pdfrwt beam="2">  1        5 0.95823145E-02 0.14945192E+03</pdfrwt>
<pdfrwt beam="1">  1       -5 0.62585096E-01 0.14945192E+03</pdfrwt>
<totfact> 0.15079710E+02</totfact>
</mgrwt>
</event>
<event>
 8    1  0.3694627E-007  0.1280351E+03  0.7546771E-02  0.1230417E+00
         -5   -1    0    0    0  501 -0.00000000000E+00  0.00000000000E+00  0.40253042521E+03  0.40255786319E+03  0.47000000000E+01 0. -1.
          5   -1    0    0  501    0  0.00000000000E+00 -0.00000000000E+00 -0.42554214739E+02  0.42812979247E+02  0.47000000000E+01 0. -1.
         25    2    1    2    0    0  0.18210904539E+02  0.20859054892E+02  0.22816151453E+03  0.26160985475E+03  0.12496120267E+03 0.  0.
         25    2    1    2    0    0 -0.18210904539E+02 -0.20859054892E+02  0.13181469594E+03  0.18376098769E+03  0.12500499717E+03 0.  0.
          5    1    3    3  502    0  0.16386001667E+02  0.72389134777E+02  0.11213372372E+03  0.13455389210E+03  0.47000000000E+01 0.  1.
         -5    1    3    3    0  502  0.18249028726E+01 -0.51530079885E+02  0.11602779082E+03  0.12705596265E+03  0.47000000000E+01 0.  1.
          5    1    4    4  503    0 -0.61939076193E+02  0.15489274367E+02  0.99132167673E+02  0.11800696356E+03  0.47000000000E+01 0.  1.
         -5    1    4    4    0  503  0.43728171654E+02 -0.36348329259E+02  0.32682528263E+02  0.65754024134E+02  0.47000000000E+01 0.  1.
<mgrwt>
<rscale>  0 0.12802441E+03</rscale>
<asrwt>0</asrwt>
<pdfrwt beam="2">  1        5 0.65688179E-02 0.12803510E+03</pdfrwt>
<pdfrwt beam="1">  1       -5 0.61949773E-01 0.12803510E+03</pdfrwt>
<totfact> 0.27963030E+02</totfact>
</mgrwt>
</event>
<event>
 8    1  0.3694627E-007  0.1399298E+03  0.7546771E-02  0.1213425E+00
         -5   -1    0    0    0  501 -0.00000000000E+00  0.00000000000E+00  0.39580378984E+02  0.39858454567E+02  0.47000000000E+01 0.  1.
          5   -1    0    0  501    0  0.00000000000E+00 -0.00000000000E+00 -0.49546944611E+03  0.49549173760E+03  0.47000000000E+01 0.  1.
         25    2    1    2    0    0 -0.37387918862E+02  0.50562866119E+02 -0.20781406228E+03  0.25053348519E+03  0.12500353120E+03 0.  0.
         25    2    1    2    0    0  0.37387918862E+02 -0.50562866119E+02 -0.24807500485E+03  0.28481670698E+03  0.12499955455E+03 0.  0.
          5    1    3    3  502    0  0.28265288799E+02 -0.60192818166E+01 -0.47041316780E+01  0.29654294112E+02  0.47000000000E+01 0. -1.
         -5    1    3    3    0  502 -0.65653207661E+02  0.56582147936E+02 -0.20310993061E+03  0.22087919108E+03  0.47000000000E+01 0. -1.
          5    1    4    4  503    0 -0.23210699521E+02 -0.70003712720E+02 -0.15798952816E+03  0.17441914280E+03  0.47000000000E+01 0.  1.
         -5    1    4    4    0  503  0.60598618383E+02  0.19440846601E+02 -0.90085476682E+02  0.11039756417E+03  0.47000000000E+01 0.  1.
<mgrwt>
<rscale>  0 0.13992889E+03</rscale>
<asrwt>0</asrwt>
<pdfrwt beam="2">  1        5 0.76249169E-01 0.13992978E+03</pdfrwt>
<pdfrwt beam="1">  1       -5 0.61123946E-02 0.13992978E+03</pdfrwt>
<totfact> 0.20427911E+02</totfact>
</mgrwt>
</event>
<event>
 8    1  0.3694627E-007  0.1471036E+03  0.7546771E-02  0.1204078E+00
         -5   -1    0    0    0  501 -0.00000000000E+00  0.00000000000E+00  0.26407524106E+03  0.26411706295E+03  0.47000000000E+01 0.  1.
          5   -1    0    0  501    0  0.00000000000E+00 -0.00000000000E+00 -0.11022478235E+03  0.11032494117E+03  0.47000000000E+01 0.  1.
         25    2    1    2    0    0 -0.43830384113E+02 -0.63978279138E+02  0.17188395393E+03  0.22623711723E+03  0.12499926728E+03 0.  0.
         25    2    1    2    0    0  0.43830384113E+02  0.63978279138E+02 -0.18033495228E+02  0.14820488689E+03  0.12500063510E+03 0.  0.
          5    1    4    4  502    0 -0.25927108431E+02 -0.18400369580E+02  0.14652211084E+02  0.35320898090E+02  0.47000000000E+01 0. -1.
         -5    1    4    4    0  502  0.69757492544E+02  0.82378648718E+02 -0.32685706311E+02  0.11288398880E+03  0.47000000000E+01 0. -1.
          5    1    3    3  503    0 -0.69198085099E+01 -0.96144479287E+02  0.98530712891E+02  0.13792039744E+03  0.47000000000E+01 0. -1.
         -5    1    3    3    0  503 -0.36910575603E+02  0.32166200150E+02  0.73353241041E+02  0.88316719791E+02  0.47000000000E+01 0. -1.
<mgrwt>
<rscale>  0 0.14710335E+03</rscale>
<asrwt>0</asrwt>
<pdfrwt beam="2">  1        5 0.16968581E-01 0.14710364E+03</pdfrwt>
<pdfrwt beam="1">  1       -5 0.40637881E-01 0.14710364E+03</pdfrwt>
<totfact> 0.13548962E+02</totfact>
</mgrwt>
</event>
<event>
 8    1  0.3694627E-007  0.1478585E+03  0.7546771E-02  0.1203130E+00
         -5   -1    0    0    0  501 -0.00000000000E+00  0.00000000000E+00  0.65413584895E+03  0.65415273361E+03  0.47000000000E+01 0. -1.
          5   -1    0    0  501    0  0.00000000000E+00 -0.00000000000E+00 -0.39257516773E+02  0.39537863159E+02  0.47000000000E+01 0. -1.
         25    2    1    2    0    0 -0.59279242266E+02  0.52176842989E+02  0.44269843701E+03  0.46673675078E+03  0.12499934755E+03 0.  0.
         25    2    1    2    0    0  0.59279242266E+02 -0.52176842989E+02  0.17217989517E+03  0.22695384599E+03  0.12500272157E+03 0.  0.
          5    1    4    4  502    0 -0.64488233127E+01 -0.76444702275E+02  0.10153289931E+03  0.12734362752E+03  0.47000000000E+01 0. -1.
         -5    1    4    4    0  502  0.65728065578E+02  0.24267859286E+02  0.70646995867E+02  0.99610218472E+02  0.47000000000E+01 0. -1.
          5    1    3    3  503    0 -0.57431533412E+02 -0.12898465488E+02  0.33973051870E+03  0.34482410992E+03  0.47000000000E+01 0. -1.
         -5    1    3    3    0  503 -0.18477088536E+01  0.65075308477E+02  0.10296791830E+03  0.12191264086E+03  0.47000000000E+01 0. -1.
<mgrwt>
<rscale>  0 0.14785777E+03</rscale>
<asrwt>0</asrwt>
<pdfrwt beam="2">  1        5 0.60624821E-02 0.14785849E+03</pdfrwt>
<pdfrwt beam="1">  1       -5 0.10065914E+00 0.14785849E+03</pdfrwt>
<totfact> 0.10940444E+02</totfact>
</mgrwt>
</event>
<event>
 8    1  0.3694627E-007  0.1250615E+03  0.7546771E-02  0.1234974E+00
         -5   -1    0    0    0  501 -0.00000000000E+00  0.00000000000E+00  0.24829791023E+02  0.25270704823E+02  0.47000000000E+01 0.  1.
          5   -1    0    0  501    0  0.00000000000E+00 -0.00000000000E+00 -0.65145113820E+03  0.65146809243E+03  0.47000000000E+01 0.  1.
         25    2    1    2    0    0  0.38755229495E+01  0.59332455301E+00 -0.24373910498E+03  0.27394953069E+03  0.12499688937E+03 0.  0.
         25    2    1    2    0    0 -0.38755229495E+01 -0.59332455301E+00 -0.38288224219E+03  0.40278926657E+03  0.12500004067E+03 0.  0.
          5    1    4    4  502    0  0.30131289728E+02  0.20014992572E+02 -0.34733805334E+03  0.34924820378E+03  0.47000000000E+01 0.  1.
         -5    1    4    4    0  502 -0.34006812678E+02 -0.20608317125E+02 -0.35544188850E+02  0.53541062786E+02  0.47000000000E+01 0.  1.
          5    1    3    3  503    0 -0.27537718671E+02 -0.52149716735E+02 -0.15532407324E+03  0.16620943605E+03  0.47000000000E+01 0. -1.
         -5    1    3    3    0  503  0.31413241620E+02  0.52743041288E+02 -0.88415031742E+02  0.10774009463E+03  0.47000000000E+01 0. -1.
<mgrwt>
<rscale>  0 0.12506072E+03</rscale>
<asrwt>0</asrwt>
<pdfrwt beam="2">  1        5 0.10025846E+00 0.12506151E+03</pdfrwt>
<pdfrwt beam="1">  1       -5 0.38551890E-02 0.12506151E+03</pdfrwt>
<totfact> 0.22134570E+02</totfact>
</mgrwt>
</event>
<event>
 8    1  0.3694627E-007  0.1819785E+03  0.7546771E-02  0.1165902E+00
          5   -1    0    0  501    0  0.00000000000E+00  0.00000000000E+00  0.12113297575E+04  0.12113388755E+04  0.47000000000E+01 0. -1.
         -5   -1    0    0    0  501 -0.00000000000E+00 -0.00000000000E+00 -0.31852016486E+02  0.32196909079E+02  0.47000000000E+01 0. -1.
         25    2    1    2    0    0 -0.32561628968E+02 -0.12818062892E+03  0.35170104784E+03  0.39599201699E+03  0.12500206861E+03 0.  0.
         25    2    1    2    0    0  0.32561628968E+02  0.12818062892E+03  0.82777669312E+03  0.84754376758E+03  0.12500260389E+03 0.  0.
          5    1    4    4  502    0 -0.36094093942E+02  0.10200581245E+03  0.48329601926E+03  0.49528285012E+03  0.47000000000E+01 0.  1.
         -5    1    4    4    0  502  0.68655722910E+02  0.26174816469E+02  0.34448067387E+03  0.35226091747E+03  0.47000000000E+01 0.  1.
          5    1    3    3  503    0  0.18720972900E+01 -0.13441164738E+03  0.20563290983E+03  0.24571727515E+03  0.47000000000E+01 0.  1.
         -5    1    3    3    0  503 -0.34433726258E+02  0.62310184603E+01  0.14606813801E+03  0.15027474185E+03  0.47000000000E+01 0.  1.
<mgrwt>
<rscale>  0 0.18197844E+03</rscale>
<asrwt>0</asrwt>
<pdfrwt beam="1">  1        5 0.18638562E+00 0.18197853E+03</pdfrwt>
<pdfrwt beam="2">  1       -5 0.49275428E-02 0.18197853E+03</pdfrwt>
<totfact> 0.31413539E+01</totfact>
</mgrwt>
</event>
<event>
 8    1  0.3694627E-007  0.1820497E+03  0.7546771E-02  0.1165835E+00
         -5   -1    0    0    0  501 -0.00000000000E+00  0.00000000000E+00  0.59813020150E+03  0.59814866709E+03  0.47000000000E+01 0.  1.
          5   -1    0    0  501    0  0.00000000000E+00 -0.00000000000E+00 -0.58630511259E+02  0.58818592728E+02  0.47000000000E+01 0.  1.
         25    2    1    2    0    0  0.12335001022E+03  0.47987131282E+02  0.34802289262E+03  0.39276000832E+03  0.12499000183E+03 0.  0.
         25    2    1    2    0    0 -0.12335001022E+03 -0.47987131282E+02  0.19147679761E+03  0.26420725149E+03  0.12499647166E+03 0.  0.
          5    1    4    4  502    0 -0.52619574892E+01 -0.20242198451E+02  0.12295344506E+03  0.12480815056E+03  0.47000000000E+01 0.  1.
         -5    1    4    4    0  502 -0.11808805273E+03 -0.27744932831E+02  0.68523352555E+02  0.13939910093E+03  0.47000000000E+01 0.  1.
          5    1    3    3  503    0  0.51854400308E+02  0.14004328148E+02  0.28878922746E+03  0.29377935246E+03  0.47000000000E+01 0.  1.
         -5    1    3    3    0  503  0.71495609913E+02  0.33982803134E+02  0.59233665166E+02  0.98980655860E+02  0.47000000000E+01 0.  1.
<mgrwt>
<rscale>  0 0.18204863E+03</rscale>
<asrwt>0</asrwt>
<pdfrwt beam="2">  1        5 0.90359677E-02 0.18204974E+03</pdfrwt>
<pdfrwt beam="1">  1       -5 0.92035911E-01 0.18204974E+03</pdfrwt>
<totfact> 0.72994817E+01</totfact>
</mgrwt>
</event>
<event>
 8    1  0.3694627E-007  0.1259388E+03  0.7546771E-02  0.1233622E+00
         -5   -1    0    0    0  501 -0.00000000000E+00  0.00000000000E+00  0.89260343426E+02  0.89383996938E+02  0.47000000000E+01 0.  1.
          5   -1    0    0  501    0  0.00000000000E+00 -0.00000000000E+00 -0.17809280959E+03  0.17815481702E+03  0.47000000000E+01 0.  1.
         25    2    1    2    0    0  0.13494588732E+02  0.67261240136E+01 -0.52958727854E+02  0.13659035473E+03  0.12499981392E+03 0.  0.
         25    2    1    2    0    0 -0.13494588732E+02 -0.67261240136E+01 -0.35873738310E+02  0.13094845923E+03  0.12503291249E+03 0.  0.
          5    1    3    3  502    0 -0.49736366421E+02  0.29877180179E+02 -0.28326095113E+02  0.64736463485E+02  0.47000000000E+01 0.  1.
         -5    1    3    3    0  502  0.63230955153E+02 -0.23151056165E+02 -0.24632632741E+02  0.71853891243E+02  0.47000000000E+01 0.  1.
          5    1    4    4  503    0  0.15795221715E+02 -0.58537630028E+02  0.91733446258E+00  0.60820018586E+02  0.47000000000E+01 0.  1.
         -5    1    4    4    0  503 -0.29289810447E+02  0.51811506014E+02 -0.36791072773E+02  0.70128440644E+02  0.47000000000E+01 0.  1.
<mgrwt>
<rscale>  0 0.12593055E+03</rscale>
<asrwt>0</asrwt>
<pdfrwt beam="2">  1        5 0.27413175E-01 0.12593877E+03</pdfrwt>
<pdfrwt beam="1">  1       -5 0.13746642E-01 0.12593877E+03</pdfrwt>
<totfact> 0.41213698E+02</totfact>
</mgrwt>
</event>
<event>
 8    1  0.3694627E-007  0.1268729E+03  0.7546771E-02  0.1232175E+00
          5   -1    0    0  501    0  0.00000000000E+00  0.00000000000E+00  0.40467202718E+02  0.40739225518E+02  0.47000000000E+01 0.  1.
         -5   -1    0    0    0  501 -0.00000000000E+00 -0.00000000000E+00 -0.41465642227E+03  0.41468305793E+03  0.47000000000E+01 0.  1.
         25    2    1    2    0    0 -0.19727429395E+02  0.90009372121E+01 -0.23521678435E+03  0.26724667314E+03  0.12499464118E+03 0.  0.
         25    2    1    2    0    0  0.19727429395E+02 -0.90009372121E+01 -0.13897243520E+03  0.18817561030E+03  0.12500613675E+03 0.  0.
          5    1    3    3  502    0  0.35712288145E+02  0.36398596379E+02 -0.48619114247E+02  0.70612559881E+02  0.47000000000E+01 0.  1.
         -5    1    3    3    0  502 -0.55439717540E+02 -0.27397659167E+02 -0.18659767011E+03  0.19663411326E+03  0.47000000000E+01 0.  1.
          5    1    4    4  503    0  0.43762060900E+02 -0.89498705956E+00 -0.15272430665E+03  0.15894251420E+03  0.47000000000E+01 0. -1.
         -5    1    4    4    0  503 -0.24034631505E+02 -0.81059501526E+01  0.13751871454E+02  0.29233096106E+02  0.47000000000E+01 0. -1.
<mgrwt>
<rscale>  0 0.12687003E+03</rscale>
<asrwt>0</asrwt>
<pdfrwt beam="1">  1        5 0.62486975E-02 0.12687286E+03</pdfrwt>
<pdfrwt beam="2">  1       -5 0.63816267E-01 0.12687286E+03</pdfrwt>
<totfact> 0.28399683E+02</totfact>
</mgrwt>
</event>
<event>
 8    1  0.3694627E-007  0.1332318E+03  0.7546771E-02  0.1222740E+00
         -5   -1    0    0    0  501 -0.00000000000E+00  0.00000000000E+00  0.11944360919E+03  0.11953604384E+03  0.47000000000E+01 0.  1.
          5   -1    0    0  501    0  0.00000000000E+00 -0.00000000000E+00 -0.18715501120E+03  0.18721401715E+03  0.47000000000E+01 0.  1.
         25    2    1    2    0    0 -0.22390036943E+02 -0.40303856569E+02  0.35895323033E+02  0.13797487845E+03  0.12499151274E+03 0.  0.
         25    2    1    2    0    0  0.22390036943E+02  0.40303856569E+02 -0.10360672504E+03  0.16877518255E+03  0.12499997664E+03 0.  0.
          5    1    4    4  502    0  0.39469107814E+02  0.71842862950E+02 -0.31196381808E+02  0.87832292845E+02  0.47000000000E+01 0. -1.
         -5    1    4    4    0  502 -0.17079070871E+02 -0.31539006381E+02 -0.72410343237E+02  0.80942889700E+02  0.47000000000E+01 0. -1.
          5    1    3    3  503    0 -0.21232650876E+02  0.12810478816E+02 -0.38743107014E+02  0.46239076243E+02  0.47000000000E+01 0.  1.
         -5    1    3    3    0  503 -0.11573860669E+01 -0.53114335385E+02  0.74638430047E+02  0.91735802203E+02  0.47000000000E+01 0.  1.
<mgrwt>
<rscale>  0 0.13322980E+03</rscale>
<asrwt>0</asrwt>
<pdfrwt beam="2">  1        5 0.28804728E-01 0.13323179E+03</pdfrwt>
<pdfrwt beam="1">  1       -5 0.18387589E-01 0.13323179E+03</pdfrwt>
<totfact> 0.22507702E+02</totfact>
</mgrwt>
</event>
<event>
 8    1  0.3694627E-007  0.1407571E+03  0.7546771E-02  0.1212315E+00
          5   -1    0    0  501    0  0.00000000000E+00  0.00000000000E+00  0.48861920613E+03  0.48864181012E+03  0.47000000000E+01 0.  1.
         -5   -1    0    0    0  501 -0.00000000000E+00 -0.00000000000E+00 -0.42158819210E+02  0.42419995723E+02  0.47000000000E+01 0.  1.
         25    2    1    2    0    0 -0.47933961630E+01 -0.64534163840E+02  0.16898996417E+03  0.21993098112E+03  0.12499757405E+03 0.  0.
         25    2    1    2    0    0  0.47933961630E+01  0.64534163840E+02  0.27747042275E+03  0.31113082473E+03  0.12499967857E+03 0.  0.
          5    1    3    3  502    0  0.48038955593E+02 -0.72370728769E+02  0.99612245694E+02  0.13224958650E+03  0.47000000000E+01 0.  1.
         -5    1    3    3    0  502 -0.52832351756E+02  0.78365649295E+01  0.69377718476E+02  0.87681394622E+02  0.47000000000E+01 0.  1.
          5    1    4    4  503    0  0.12284687776E+01  0.79645206210E+02  0.28296781528E+03  0.29400296341E+03  0.47000000000E+01 0. -1.
         -5    1    4    4    0  503  0.35649273854E+01 -0.15111042370E+02 -0.54973925277E+01  0.17127861319E+02  0.47000000000E+01 0. -1.
<mgrwt>
<rscale>  0 0.14075661E+03</rscale>
<asrwt>0</asrwt>
<pdfrwt beam="1">  1        5 0.75194013E-01 0.14075708E+03</pdfrwt>
<pdfrwt beam="2">  1       -5 0.65078016E-02 0.14075708E+03</pdfrwt>
<totfact> 0.19010869E+02</totfact>
</mgrwt>
</event>
<event>
 8    1  0.3694627E-007  0.1349069E+03  0.7546771E-02  0.1220367E+00
          5   -1    0    0  501    0  0.00000000000E+00  0.00000000000E+00  0.86647066994E+02  0.86774444502E+02  0.47000000000E+01 0.  1.
         -5   -1    0    0    0  501 -0.00000000000E+00 -0.00000000000E+00 -0.21614590427E+03  0.21619699798E+03  0.47000000000E+01 0.  1.
         25    2    1    2    0    0 -0.49587487337E+02  0.10157399616E+02 -0.90952931712E+02  0.16266580973E+03  0.12500255278E+03 0.  0.
         25    2    1    2    0    0  0.49587487337E+02 -0.10157399616E+02 -0.38545905566E+02  0.14030563275E+03  0.12505115784E+03 0.  0.
          5    1    4    4  502    0  0.85253014805E+02 -0.21421901955E+02 -0.23724261593E+01  0.88060733716E+02  0.47000000000E+01 0.  1.
         -5    1    4    4    0  502 -0.35665527468E+02  0.11264502339E+02 -0.36173479406E+02  0.52244899032E+02  0.47000000000E+01 0.  1.
          5    1    3    3  503    0 -0.17139491828E+02  0.45751725519E+02  0.10562161408E+02  0.50205894292E+02  0.47000000000E+01 0. -1.
         -5    1    3    3    0  503 -0.32447995509E+02 -0.35594325903E+02 -0.10151509312E+03  0.11245991544E+03  0.47000000000E+01 0. -1.
<mgrwt>
<rscale>  0 0.13489568E+03</rscale>
<asrwt>0</asrwt>
<pdfrwt beam="1">  1        5 0.13344047E-01 0.13490694E+03</pdfrwt>
<pdfrwt beam="2">  1       -5 0.33266945E-01 0.13490694E+03</pdfrwt>
<totfact> 0.30482591E+02</totfact>
</mgrwt>
</event>
<event>
 8    1  0.3694627E-007  0.1506708E+03  0.7546771E-02  0.1199653E+00
         -5   -1    0    0    0  501 -0.00000000000E+00  0.00000000000E+00  0.47848913155E+02  0.48079189782E+02  0.47000000000E+01 0. -1.
          5   -1    0    0  501    0  0.00000000000E+00 -0.00000000000E+00 -0.51318532352E+03  0.51320684550E+03  0.47000000000E+01 0. -1.
         25    2    1    2    0    0  0.23616213778E+02 -0.80727986817E+02 -0.15420087966E+03  0.21559127767E+03  0.12500781700E+03 0.  0.
         25    2    1    2    0    0 -0.23616213778E+02  0.80727986817E+02 -0.31113553070E+03  0.34569475761E+03  0.12499925427E+03 0.  0.
          5    1    3    3  502    0 -0.14518076982E+02  0.25844588261E+02 -0.88196327029E+01  0.31282474689E+02  0.47000000000E+01 0.  1.
         -5    1    3    3    0  502  0.38134290760E+02 -0.10657257508E+03 -0.14538124696E+03  0.18430880298E+03  0.47000000000E+01 0.  1.
          5    1    4    4  503    0 -0.24318752461E+02  0.97415023373E+01 -0.25137726633E+03  0.25278235425E+03  0.47000000000E+01 0.  1.
         -5    1    4    4    0  503  0.70253868357E+00  0.70986484480E+02 -0.59758264369E+02  0.92912403370E+02  0.47000000000E+01 0.  1.
<mgrwt>
<rscale>  0 0.15066902E+03</rscale>
<asrwt>0</asrwt>
<pdfrwt beam="2">  1        5 0.78970954E-01 0.15067079E+03</pdfrwt>
<pdfrwt beam="1">  1       -5 0.73807407E-02 0.15067079E+03</pdfrwt>
<totfact> 0.14021973E+02</totfact>
</mgrwt>
</event>
<event>
 8    1  0.3694627E-007  0.1380000E+03  0.7546771E-02  0.1216049E+00
          5   -1    0    0  501    0  0.00000000000E+00  0.00000000000E+00  0.13711899611E+03  0.13719952294E+03  0.47000000000E+01 0. -1.
         -5   -1    0    0    0  501 -0.00000000000E+00 -0.00000000000E+00 -0.14945792382E+03  0.14953180596E+03  0.47000000000E+01 0. -1.
         25    2    1    2    0    0 -0.19592923459E+02  0.55067645774E+02 -0.44585317056E+02  0.14502365193E+03  0.12501072298E+03 0.  0.
         25    2    1    2    0    0  0.19592923459E+02 -0.55067645774E+02  0.32246389341E+02  0.14170767697E+03  0.12499963130E+03 0.  0.
          5    1    3    3  502    0  0.44465429906E+02  0.47979145190E+02  0.15861055850E+01  0.65603190173E+02  0.47000000000E+01 0.  1.
         -5    1    3    3    0  502 -0.64058353366E+02  0.70885005842E+01 -0.46171422641E+02  0.79420461753E+02  0.47000000000E+01 0.  1.
          5    1    4    4  503    0  0.58151611359E+02 -0.68847986758E+02  0.41715445248E+02  0.99417923718E+02  0.47000000000E+01 0. -1.
         -5    1    4    4    0  503 -0.38558687900E+02  0.13780340983E+02 -0.94690559064E+01  0.42289753250E+02  0.47000000000E+01 0. -1.
<mgrwt>
<rscale>  0 0.13799752E+03</rscale>
<asrwt>0</asrwt>
<pdfrwt beam="1">  1        5 0.21107108E-01 0.13800003E+03</pdfrwt>
<pdfrwt beam="2">  1       -5 0.23005404E-01 0.13800003E+03</pdfrwt>
<totfact> 0.27144374E+02</totfact>
</mgrwt>
</event>
<event>
 8    1  0.3694627E-007  0.1268914E+03  0.7546771E-02  0.1232148E+00
          5   -1    0    0  501    0  0.00000000000E+00  0.00000000000E+00  0.24908532827E+03  0.24912966656E+03  0.47000000000E+01 0. -1.
         -5   -1    0    0    0  501 -0.00000000000E+00 -0.00000000000E+00 -0.12292134222E+03  0.12301116361E+03  0.47000000000E+01 0. -1.
         25    2    1    2    0    0 -0.21667388813E+02  0.23945021490E+01 -0.65102568063E+02  0.14261760952E+03  0.12500491509E+03 0.  0.
         25    2    1    2    0    0  0.21667388813E+02 -0.23945021490E+01  0.19126655412E+03  0.22952322065E+03  0.12499121855E+03 0.  0.
          5    1    4    4  502    0  0.11475842584E+02 -0.61289880243E+02  0.67584494499E+02  0.92075503148E+02  0.47000000000E+01 0. -1.
         -5    1    4    4    0  502  0.10191546230E+02  0.58895378094E+02  0.12368205962E+03  0.13744771750E+03  0.47000000000E+01 0. -1.
          5    1    3    3  503    0 -0.58447208556E+02  0.38251891519E+02 -0.16902585307E+02  0.72021321724E+02  0.47000000000E+01 0.  1.
         -5    1    3    3    0  503  0.36779819743E+02 -0.35857389370E+02 -0.48199982756E+02  0.70596287794E+02  0.47000000000E+01 0.  1.
<mgrwt>
<rscale>  0 0.12688807E+03</rscale>
<asrwt>0</asrwt>
<pdfrwt beam="1">  1        5 0.38331140E-01 0.12689144E+03</pdfrwt>
<pdfrwt beam="2">  1       -5 0.18921296E-01 0.12689144E+03</pdfrwt>
<totfact> 0.11889700E+02</totfact>
</mgrwt>
</event>
<event>
 8    1  0.3694627E-007  0.1438710E+03  0.7546771E-02  0.1208214E+00
          5   -1    0    0  501    0  0.00000000000E+00  0.00000000000E+00  0.58719970731E+02  0.58907766573E+02  0.47000000000E+01 0. -1.
         -5   -1    0    0    0  501 -0.00000000000E+00 -0.00000000000E+00 -0.35184602016E+03  0.35187741033E+03  0.47000000000E+01 0. -1.
         25    2    1    2    0    0 -0.20742592354E+02  0.68144866227E+02 -0.15026021140E+03  0.20803039751E+03  0.12499814890E+03 0.  0.
         25    2    1    2    0    0  0.20742592354E+02 -0.68144866227E+02 -0.14286583802E+03  0.20275477939E+03  0.12499949984E+03 0.  0.
          5    1    4    4  502    0  0.45343999773E+02 -0.67149974637E+02 -0.15495644167E+03  0.17492508746E+03  0.47000000000E+01 0.  1.
         -5    1    4    4    0  502 -0.24601407419E+02 -0.99489159016E+00  0.12090603643E+02  0.27829691926E+02  0.47000000000E+01 0.  1.
          5    1    3    3  503    0 -0.56735807407E+02  0.76064763095E+02 -0.14051432407E+03  0.16962065115E+03  0.47000000000E+01 0.  1.
         -5    1    3    3    0  503  0.35993215053E+02 -0.79198968678E+01 -0.97458873338E+01  0.38409746369E+02  0.47000000000E+01 0.  1.
<mgrwt>
<rscale>  0 0.14387067E+03</rscale>
<asrwt>0</asrwt>
<pdfrwt beam="1">  1        5 0.90507023E-02 0.14387096E+03</pdfrwt>
<pdfrwt beam="2">  1       -5 0.54147016E-01 0.14387096E+03</pdfrwt>
<totfact> 0.22547555E+02</totfact>
</mgrwt>
</event>
<event>
 8    1  0.3694627E-007  0.1431645E+03  0.7546771E-02  0.1209139E+00
          5   -1    0    0  501    0  0.00000000000E+00  0.00000000000E+00  0.10967626139E+03  0.10977692068E+03  0.47000000000E+01 0. -1.
         -5   -1    0    0    0  501 -0.00000000000E+00 -0.00000000000E+00 -0.20783487682E+03  0.20788801318E+03  0.47000000000E+01 0. -1.
         25    2    1    2    0    0 -0.24891303537E+02 -0.65205852107E+02 -0.99779721267E+02  0.17449124445E+03  0.12497928418E+03 0.  0.
         25    2    1    2    0    0  0.24891303537E+02  0.65205852107E+02  0.16211058393E+01  0.14317368940E+03  0.12499878884E+03 0.  0.
          5    1    3    3  502    0 -0.73584779680E+01 -0.99160144146E+02 -0.91286898165E+02  0.13506394471E+03  0.47000000000E+01 0. -1.
         -5    1    3    3    0  502 -0.17532825569E+02  0.33954292039E+02 -0.84928231020E+01  0.39427299737E+02  0.47000000000E+01 0. -1.
          5    1    4    4  503    0 -0.12348608920E+02 -0.32874017327E+02 -0.11707838773E+02  0.37314241868E+02  0.47000000000E+01 0.  1.
         -5    1    4    4    0  503  0.37239912456E+02  0.98079869434E+02  0.13328944612E+02  0.10585944753E+03  0.47000000000E+01 0.  1.
<mgrwt>
<rscale>  0 0.14316025E+03</rscale>
<asrwt>0</asrwt>
<pdfrwt beam="1">  1        5 0.16885101E-01 0.14316451E+03</pdfrwt>
<pdfrwt beam="2">  1       -5 0.31986427E-01 0.14316451E+03</pdfrwt>
<totfact> 0.21955007E+02</totfact>
</mgrwt>
</event>
<event>
 8    1  0.3694627E-007  0.1610598E+03  0.7546771E-02  0.1187508E+00
         -5   -1    0    0    0  501 -0.00000000000E+00  0.00000000000E+00  0.27997836323E+03  0.28001780993E+03  0.47000000000E+01 0. -1.
          5   -1    0    0  501    0  0.00000000000E+00 -0.00000000000E+00 -0.93003016888E+02  0.93121700749E+02  0.47000000000E+01 0. -1.
         25    2    1    2    0    0 -0.98241469099E+02  0.25752279096E+02  0.10664178697E+03  0.19316506254E+03  0.12500281808E+03 0.  0.
         25    2    1    2    0    0  0.98241469099E+02 -0.25752279096E+02  0.80333559368E+02  0.17997444813E+03  0.12499102004E+03 0.  0.
          5    1    3    3  502    0 -0.47617932538E+02 -0.36705547350E+02  0.98435457217E+00  0.60314373572E+02  0.47000000000E+01 0.  1.
         -5    1    3    3    0  502 -0.50623536561E+02  0.62457826446E+02  0.10565743240E+03  0.13285068897E+03  0.47000000000E+01 0.  1.
          5    1    4    4  503    0 -0.21771086006E+02 -0.19753818803E+02  0.46215150144E+02  0.54973845109E+02  0.47000000000E+01 0. -1.
         -5    1    4    4    0  503  0.12001255511E+03 -0.59984602927E+01  0.34118409224E+02  0.12500060303E+03  0.47000000000E+01 0. -1.
<mgrwt>
<rscale>  0 0.16105755E+03</rscale>
<asrwt>0</asrwt>
<pdfrwt beam="2">  1        5 0.14320320E-01 0.16105984E+03</pdfrwt>
<pdfrwt beam="1">  1       -5 0.43085758E-01 0.16105984E+03</pdfrwt>
<totfact> 0.16839315E+02</totfact>
</mgrwt>
</event>
<event>
 8    1  0.3694627E-007  0.1650995E+03  0.7546771E-02  0.1183057E+00
          5   -1    0    0  501    0  0.00000000000E+00  0.00000000000E+00  0.51265807436E+03  0.51267961848E+03  0.47000000000E+01 0.  1.
         -5   -1    0    0    0  501 -0.00000000000E+00 -0.00000000000E+00 -0.62152549732E+02  0.62330004317E+02  0.47000000000E+01 0.  1.
         25    2    1    2    0    0 -0.10391269634E+03  0.28896114395E+02  0.11537269497E+03  0.20141678002E+03  0.12500010656E+03 0.  0.
         25    2    1    2    0    0  0.10391269634E+03 -0.28896114395E+02  0.33513282965E+03  0.37359284278E+03  0.12499905910E+03 0.  0.
          5    1    4    4  502    0  0.21054574931E+01 -0.21647098185E+02  0.21386893067E+03  0.21502334598E+03  0.47000000000E+01 0. -1.
         -5    1    4    4    0  502  0.10180723885E+03 -0.72490162108E+01  0.12126389898E+03  0.15856949679E+03  0.47000000000E+01 0. -1.
          5    1    3    3  503    0 -0.99925969423E+02 -0.10599491992E+02  0.12485054437E+03  0.16033495260E+03  0.47000000000E+01 0. -1.
         -5    1    3    3    0  503 -0.39867269169E+01  0.39495606388E+02 -0.94778493911E+01  0.41081827424E+02  0.47000000000E+01 0. -1.
<mgrwt>
<rscale>  0 0.16509935E+03</rscale>
<asrwt>0</asrwt>
<pdfrwt beam="1">  1        5 0.78885783E-01 0.16509955E+03</pdfrwt>
<pdfrwt beam="2">  1       -5 0.95772380E-02 0.16509955E+03</pdfrwt>
<totfact> 0.92237429E+01</totfact>
</mgrwt>
</event>
<event>
 8    1  0.3694627E-007  0.1555710E+03  0.7546771E-02  0.1193791E+00
         -5   -1    0    0    0  501 -0.00000000000E+00  0.00000000000E+00  0.25797037529E+02  0.26221692266E+02  0.47000000000E+01 0.  1.
          5   -1    0    0  501    0  0.00000000000E+00 -0.00000000000E+00 -0.93078364038E+03  0.93079550665E+03  0.47000000000E+01 0.  1.
         25    2    1    2    0    0  0.47258705650E+01 -0.92491383412E+02 -0.43918293063E+03  0.46592273195E+03  0.12500142293E+03 0.  0.
         25    2    1    2    0    0 -0.47258705650E+01  0.92491383412E+02 -0.46580367222E+03  0.49109446697E+03  0.12499489818E+03 0.  0.
          5    1    4    4  502    0 -0.52333070851E+02  0.50084983893E+01 -0.21035564008E+03  0.21687651019E+03  0.47000000000E+01 0. -1.
         -5    1    4    4    0  502  0.47607200286E+02  0.87482885023E+02 -0.25544803215E+03  0.27421795678E+03  0.47000000000E+01 0. -1.
          5    1    3    3  503    0 -0.38602866599E+02 -0.32484516882E+02 -0.55556929859E+02  0.75193667301E+02  0.47000000000E+01 0.  1.
         -5    1    3    3    0  503  0.43328737164E+02 -0.60006866530E+02 -0.38362600077E+03  0.39072906465E+03  0.47000000000E+01 0.  1.
<mgrwt>
<rscale>  0 0.15556972E+03</rscale>
<asrwt>0</asrwt>
<pdfrwt beam="2">  1        5 0.14323104E+00 0.15557103E+03</pdfrwt>
<pdfrwt beam="1">  1       -5 0.40023542E-02 0.15557103E+03</pdfrwt>
<totfact> 0.89913181E+01</totfact>
</mgrwt>
</event>
<event>
 8    1  0.3694627E-007  0.1459960E+03  0.7546771E-02  0.1205508E+00
          5   -1    0    0  501    0  0.00000000000E+00  0.00000000000E+00  0.12235051027E+03  0.12244075042E+03  0.47000000000E+01 0. -1.
         -5   -1    0    0    0  501 -0.00000000000E+00 -0.00000000000E+00 -0.17409300939E+03  0.17415644093E+03  0.47000000000E+01 0. -1.
         25    2    1    2    0    0  0.20162941710E+02  0.72522869156E+02 -0.21268178024E+02  0.14745458197E+03  0.12499763029E+03 0.  0.
         25    2    1    2    0    0 -0.20162941710E+02 -0.72522869156E+02 -0.30474321101E+02  0.14914260938E+03  0.12509485567E+03 0.  0.
          5    1    3    3  502    0 -0.50409954828E+02  0.19177870221E+02  0.67042535805E+01  0.54552646756E+02  0.47000000000E+01 0.  1.
         -5    1    3    3    0  502  0.70572896538E+02  0.53344998935E+02 -0.27972431604E+02  0.92901935216E+02  0.47000000000E+01 0.  1.
          5    1    4    4  503    0 -0.69276098379E+02 -0.63170427189E+02 -0.82643901769E+01  0.94234127697E+02  0.47000000000E+01 0. -1.
         -5    1    4    4    0  503  0.49113156669E+02 -0.93524419675E+01 -0.22209930924E+02  0.54908481680E+02  0.47000000000E+01 0. -1.
<mgrwt>
<rscale>  0 0.14597518E+03</rscale>
<asrwt>0</asrwt>
<pdfrwt beam="1">  1        5 0.18834976E-01 0.14599601E+03</pdfrwt>
<pdfrwt beam="2">  1       -5 0.26795361E-01 0.14599601E+03</pdfrwt>
<totfact> 0.25552117E+02</totfact>
</mgrwt>
</event>
<event>
 8    1  0.3694627E-007  0.1340548E+03  0.7546771E-02  0.1221571E+00
          5   -1    0    0  501    0  0.00000000000E+00  0.00000000000E+00  0.80426670972E+02  0.80563883990E+02  0.47000000000E+01 0.  1.
         -5   -1    0    0    0  501 -0.00000000000E+00 -0.00000000000E+00 -0.22445967745E+03  0.22450887911E+03  0.47000000000E+01 0.  1.
         25    2    1    2    0    0  0.42088729637E+02 -0.23984416676E+02 -0.84136603179E+02  0.15824541722E+03  0.12496371741E+03 0.  0.
         25    2    1    2    0    0 -0.42088729637E+02  0.23984416676E+02 -0.59896403296E+02  0.14682734589E+03  0.12499590780E+03 0.  0.
          5    1    3    3  502    0 -0.19616094897E+02 -0.55239997708E+02 -0.62034456243E+02  0.85478724178E+02  0.47000000000E+01 0. -1.
         -5    1    3    3    0  502  0.61704824534E+02  0.31255581032E+02 -0.22102146937E+02  0.72766693037E+02  0.47000000000E+01 0. -1.
          5    1    4    4  503    0 -0.53839707196E+02  0.68266395700E+02 -0.30827934850E+02  0.92365937552E+02  0.47000000000E+01 0. -1.
         -5    1    4    4    0  503  0.11750977559E+02 -0.44281979024E+02 -0.29068468446E+02  0.54461408333E+02  0.47000000000E+01 0. -1.
<mgrwt>
<rscale>  0 0.13404730E+03</rscale>
<asrwt>0</asrwt>
<pdfrwt beam="1">  1        5 0.12387674E-01 0.13405480E+03</pdfrwt>
<pdfrwt beam="2">  1       -5 0.34546597E-01 0.13405480E+03</pdfrwt>
<totfact> 0.32209862E+02</totfact>
</mgrwt>
</event>
<event>
 8    1  0.3694627E-007  0.1390470E+03  0.7546771E-02  0.1214621E+00
          5   -1    0    0  501    0  0.00000000000E+00  0.00000000000E+00  0.37399910413E+03  0.37402863512E+03  0.47000000000E+01 0. -1.
         -5   -1    0    0    0  501 -0.00000000000E+00 -0.00000000000E+00 -0.65071245061E+02  0.65240761290E+02  0.47000000000E+01 0. -1.
         25    2    1    2    0    0 -0.56429897661E+02 -0.22883237509E+02  0.54531562163E+02  0.14935779068E+03  0.12500432975E+03 0.  0.
         25    2    1    2    0    0  0.56429897661E+02  0.22883237509E+02  0.25439629691E+03  0.28991160573E+03  0.12499314920E+03 0.  0.
          5    1    3    3  502    0  0.33179351918E+02 -0.31296283205E+02  0.33566820725E+02  0.56825594495E+02  0.47000000000E+01 0.  1.
         -5    1    3    3    0  502 -0.89609249579E+02  0.84130456956E+01  0.20964741438E+02  0.92532196189E+02  0.47000000000E+01 0.  1.
          5    1    4    4  503    0  0.35525805600E+02  0.20915987736E+02  0.76047637387E+01  0.42183928670E+02  0.47000000000E+01 0. -1.
         -5    1    4    4    0  503  0.20904092061E+02  0.19672497734E+01  0.24679153317E+03  0.24772767706E+03  0.47000000000E+01 0. -1.
<mgrwt>
<rscale>  0 0.13904445E+03</rscale>
<asrwt>0</asrwt>
<pdfrwt beam="1">  1        5 0.57553633E-01 0.13904696E+03</pdfrwt>
<pdfrwt beam="2">  1       -5 0.10026272E-01 0.13904696E+03</pdfrwt>
<totfact> 0.16353321E+02</totfact>
</mgrwt>
</event>
<event>
 8    1  0.3694627E-007  0.1375005E+03  0.7546771E-02  0.1216734E+00
          5   -1    0    0  501    0  0.00000000000E+00  0.00000000000E+00  0.83655465328E+03  0.83656785614E+03  0.47000000000E+01 0.  1.
         -5   -1    0    0    0  501 -0.00000000000E+00 -0.00000000000E+00 -0.22550090169E+02  0.23034681822E+02  0.47000000000E+01 0.  1.
         25    2    1    2    0    0  0.17712945239E+01  0.57248968194E+02  0.36613507633E+03  0.39110125575E+03  0.12499886512E+03 0.  0.
         25    2    1    2    0    0 -0.17712945239E+01 -0.57248968194E+02  0.44786948678E+03  0.46850128222E+03  0.12500316958E+03 0.  0.
          5    1    3    3  502    0 -0.40927917156E+02  0.19875483951E+02  0.42310629027E+02  0.62308976831E+02  0.47000000000E+01 0. -1.
         -5    1    3    3    0  502  0.42699211680E+02  0.37373484243E+02  0.32382444730E+03  0.32879227892E+03  0.47000000000E+01 0. -1.
          5    1    4    4  503    0  0.14651433431E+01  0.20903819966E+02  0.10025710989E+02  0.23700658535E+02  0.47000000000E+01 0. -1.
         -5    1    4    4    0  503 -0.32364378670E+01 -0.78152788160E+02  0.43784377579E+03  0.44480062368E+03  0.47000000000E+01 0. -1.
<mgrwt>
<rscale>  0 0.13749947E+03</rscale>
<asrwt>0</asrwt>
<pdfrwt beam="1">  1        5 0.12873900E+00 0.13750045E+03</pdfrwt>
<pdfrwt beam="2">  1       -5 0.35075366E-02 0.13750045E+03</pdfrwt>
<totfact> 0.14238431E+02</totfact>
</mgrwt>
</event>
<event>
 8    1  0.3694627E-007  0.1354351E+03  0.7546771E-02  0.1219641E+00
         -5   -1    0    0    0  501 -0.00000000000E+00  0.00000000000E+00  0.16082734161E+02  0.16755427124E+02  0.47000000000E+01 0. -1.
          5   -1    0    0  501    0  0.00000000000E+00 -0.00000000000E+00 -0.11388013306E+04  0.11388110294E+04  0.47000000000E+01 0. -1.
         25    2    1    2    0    0  0.14754589711E+02 -0.49843370583E+02 -0.64345634942E+03  0.65753537275E+03  0.12495852629E+03 0.  0.
         25    2    1    2    0    0 -0.14754589711E+02  0.49843370583E+02 -0.47926224702E+03  0.49803108374E+03  0.12506238219E+03 0.  0.
          5    1    3    3  502    0  0.50974771853E+02 -0.62071562885E+02 -0.55837446561E+03  0.56414132993E+03  0.47000000000E+01 0.  1.
         -5    1    3    3    0  502 -0.36220182142E+02  0.12228192302E+02 -0.85081883808E+02  0.93394042817E+02  0.47000000000E+01 0.  1.
          5    1    4    4  503    0  0.98349507805E+01 -0.25549623804E+02 -0.26630525014E+02  0.38480961473E+02  0.47000000000E+01 0.  1.
         -5    1    4    4    0  503 -0.24589540492E+02  0.75392994386E+02 -0.45263172201E+03  0.45955012226E+03  0.47000000000E+01 0.  1.
<mgrwt>
<rscale>  0 0.13541109E+03</rscale>
<asrwt>0</asrwt>
<pdfrwt beam="2">  1        5 0.17525263E+00 0.13543507E+03</pdfrwt>
<pdfrwt beam="1">  1       -5 0.25267594E-02 0.13543507E+03</pdfrwt>
<totfact> 0.10344899E+02</totfact>
</mgrwt>
</event>
<event>
 8    1  0.3694627E-007  0.1524438E+03  0.7546771E-02  0.1197507E+00
          5   -1    0    0  501    0  0.00000000000E+00  0.00000000000E+00  0.47385355397E+02  0.47617873809E+02  0.47000000000E+01 0. -1.
         -5   -1    0    0    0  501 -0.00000000000E+00 -0.00000000000E+00 -0.52032105253E+03  0.52034227937E+03  0.47000000000E+01 0. -1.
         25    2    1    2    0    0  0.60561454273E+02  0.62817837980E+02 -0.30618785574E+03  0.34203107364E+03  0.12498192597E+03 0.  0.
         25    2    1    2    0    0 -0.60561454273E+02 -0.62817837980E+02 -0.16674784140E+03  0.22592907955E+03  0.12500134344E+03 0.  0.
          5    1    3    3  502    0 -0.33954181748E+02 -0.12587819148E+01 -0.10726270603E+03  0.11261371628E+03  0.47000000000E+01 0. -1.
         -5    1    3    3    0  502  0.94515636021E+02  0.64076619895E+02 -0.19892514971E+03  0.22941735736E+03  0.47000000000E+01 0. -1.
          5    1    4    4  503    0 -0.73539092290E+02 -0.44612287327E+02 -0.17997659847E+03  0.19952924665E+03  0.47000000000E+01 0.  1.
         -5    1    4    4    0  503  0.12977638017E+02 -0.18205550654E+02  0.13228757070E+02  0.26399832892E+02  0.47000000000E+01 0.  1.
<mgrwt>
<rscale>  0 0.15243980E+03</rscale>
<asrwt>0</asrwt>
<pdfrwt beam="1">  1        5 0.73095739E-02 0.15244378E+03</pdfrwt>
<pdfrwt beam="2">  1       -5 0.80068907E-01 0.15244378E+03</pdfrwt>
<totfact> 0.13858931E+02</totfact>
</mgrwt>
</event>
<event>
 8    1  0.3694627E-007  0.1300229E+03  0.7546771E-02  0.1227423E+00
          5   -1    0    0  501    0  0.00000000000E+00  0.00000000000E+00  0.90890594133E+02  0.91012032731E+02  0.47000000000E+01 0.  1.
         -5   -1    0    0    0  501 -0.00000000000E+00 -0.00000000000E+00 -0.19426351569E+03  0.19432036313E+03  0.47000000000E+01 0.  1.
         25    2    1    2    0    0  0.35325913242E+02  0.57073052280E+01 -0.81583460298E+02  0.15349637457E+03  0.12499913012E+03 0.  0.
         25    2    1    2    0    0 -0.35325913242E+02 -0.57073052280E+01 -0.21789461257E+02  0.13183602130E+03  0.12500184963E+03 0.  0.
          5    1    4    4  502    0  0.27505525819E+02 -0.13605765434E+01  0.36450434738E+02  0.45925257884E+02  0.47000000000E+01 0.  1.
         -5    1    4    4    0  502 -0.62831439061E+02 -0.43467286847E+01 -0.58239895995E+02  0.85910763413E+02  0.47000000000E+01 0.  1.
          5    1    3    3  503    0 -0.12995208584E+02  0.57390882828E+02 -0.39734915486E+02  0.71158572123E+02  0.47000000000E+01 0.  1.
         -5    1    3    3    0  503  0.48321121827E+02 -0.51683577600E+02 -0.41848544812E+02  0.82337802442E+02  0.47000000000E+01 0.  1.
<mgrwt>
<rscale>  0 0.13002225E+03</rscale>
<asrwt>0</asrwt>
<pdfrwt beam="1">  1        5 0.13996883E-01 0.13002291E+03</pdfrwt>
<pdfrwt beam="2">  1       -5 0.29900409E-01 0.13002291E+03</pdfrwt>
<totfact> 0.34091547E+02</totfact>
</mgrwt>
</event>
<event>
 8    1  0.3694627E-007  0.1426821E+03  0.7546771E-02  0.1209765E+00
         -5   -1    0    0    0  501 -0.00000000000E+00  0.00000000000E+00  0.33603590692E+03  0.33606877382E+03  0.47000000000E+01 0. -1.
          5   -1    0    0  501    0  0.00000000000E+00 -0.00000000000E+00 -0.60461808927E+02  0.60644211090E+02  0.47000000000E+01 0. -1.
         25    2    1    2    0    0  0.68667695447E+02  0.42927073440E+01  0.13970905089E+03  0.19969140797E+03  0.12499743909E+03 0.  0.
         25    2    1    2    0    0 -0.68667695447E+02 -0.42927073440E+01  0.13586504710E+03  0.19702157694E+03  0.12499804408E+03 0.  0.
          5    1    4    4  502    0  0.20712776275E+02  0.33317772389E+02  0.15647801059E+02  0.42497490938E+02  0.47000000000E+01 0.  1.
         -5    1    4    4    0  502 -0.89380471723E+02 -0.37610479733E+02  0.12021724604E+03  0.15452408601E+03  0.47000000000E+01 0.  1.
          5    1    3    3  503    0 -0.49472795354E+01  0.53168804793E+02  0.44061308653E+02  0.69389381739E+02  0.47000000000E+01 0.  1.
         -5    1    3    3    0  503  0.73614974983E+02 -0.48876097449E+02  0.95647742240E+02  0.13030202623E+03  0.47000000000E+01 0.  1.
<mgrwt>
<rscale>  0 0.14268200E+03</rscale>
<asrwt>0</asrwt>
<pdfrwt beam="2">  1        5 0.93183760E-02 0.14268213E+03</pdfrwt>
<pdfrwt beam="1">  1       -5 0.51714391E-01 0.14268213E+03</pdfrwt>
<totfact> 0.23588168E+02</totfact>
</mgrwt>
</event>
<event>
 8    1  0.3694627E-007  0.1383757E+03  0.7546771E-02  0.1215532E+00
          5   -1    0    0  501    0  0.00000000000E+00  0.00000000000E+00  0.36227730866E+03  0.36230779507E+03  0.47000000000E+01 0.  1.
         -5   -1    0    0    0  501 -0.00000000000E+00 -0.00000000000E+00 -0.55985012594E+02  0.56181951152E+02  0.47000000000E+01 0.  1.
         25    2    1    2    0    0 -0.66427886167E+01  0.58970728986E+02  0.10269234008E+03  0.17231819912E+03  0.12500468599E+03 0.  0.
         25    2    1    2    0    0  0.66427886167E+01 -0.58970728986E+02  0.20359995598E+03  0.24617154709E+03  0.12500325998E+03 0.  0.
          5    1    4    4  502    0 -0.26271351536E+02  0.19360956711E+02  0.12854289404E+03  0.13270416785E+03  0.47000000000E+01 0. -1.
         -5    1    4    4    0  502  0.32914140153E+02 -0.78331685697E+02  0.75057061941E+02  0.11346737925E+03  0.47000000000E+01 0. -1.
          5    1    3    3  503    0 -0.23129215429E+02  0.93342291865E+02  0.54303888910E+02  0.11053843860E+03  0.47000000000E+01 0. -1.
         -5    1    3    3    0  503  0.16486426812E+02 -0.34371562880E+02  0.48388451172E+02  0.61779760526E+02  0.47000000000E+01 0. -1.
<mgrwt>
<rscale>  0 0.13837542E+03</rscale>
<asrwt>0</asrwt>
<pdfrwt beam="1">  1        5 0.55752466E-01 0.13837574E+03</pdfrwt>
<pdfrwt beam="2">  1       -5 0.86305728E-02 0.13837574E+03</pdfrwt>
<totfact> 0.22687052E+02</totfact>
</mgrwt>
</event>
<event>
 8    1  0.3694627E-007  0.1517840E+03  0.7546771E-02  0.1198298E+00
          5   -1    0    0  501    0  0.00000000000E+00  0.00000000000E+00  0.15246668733E+03  0.15253911218E+03  0.47000000000E+01 0. -1.
         -5   -1    0    0    0  501 -0.00000000000E+00 -0.00000000000E+00 -0.22386517478E+03  0.22391450708E+03  0.47000000000E+01 0. -1.
         25    2    1    2    0    0 -0.83875101561E+02 -0.19445663628E+02 -0.14308345523E+03  0.20859320994E+03  0.12500034230E+03 0.  0.
         25    2    1    2    0    0  0.83875101561E+02  0.19445663628E+02  0.71684967784E+02  0.16786040932E+03  0.12500086366E+03 0.  0.
          5    1    3    3  502    0 -0.50970207557E+02  0.51703595370E+02 -0.77263340186E+02  0.10612698794E+03  0.47000000000E+01 0. -1.
         -5    1    3    3    0  502 -0.32904894003E+02 -0.71149258999E+02 -0.65820115049E+02  0.10246622200E+03  0.47000000000E+01 0. -1.
          5    1    4    4  503    0  0.35337879368E+02  0.66652710853E+02  0.64944663842E+02  0.99655651841E+02  0.47000000000E+01 0.  1.
         -5    1    4    4    0  503  0.48537222192E+02 -0.47207047224E+02  0.67403039419E+01  0.68204757481E+02  0.47000000000E+01 0.  1.
<mgrwt>
<rscale>  0 0.15178389E+03</rscale>
<asrwt>0</asrwt>
<pdfrwt beam="1">  1        5 0.23465779E-01 0.15178400E+03</pdfrwt>
<pdfrwt beam="2">  1       -5 0.34450162E-01 0.15178400E+03</pdfrwt>
<totfact> 0.10437481E+02</totfact>
</mgrwt>
</event>
<event>
 8    1  0.3694627E-007  0.1414259E+03  0.7546771E-02  0.1211427E+00
          5   -1    0    0  501    0  0.00000000000E+00  0.00000000000E+00  0.26758360108E+02  0.27167992853E+02  0.47000000000E+01 0.  1.
         -5   -1    0    0    0  501 -0.00000000000E+00 -0.00000000000E+00 -0.11807614487E+04  0.11807708028E+04  0.47000000000E+01 0.  1.
         25    2    1    2    0    0  0.53786441560E+02  0.38495825047E+02 -0.94537479063E+03  0.95589303641E+03  0.12499236959E+03 0.  0.
         25    2    1    2    0    0 -0.53786441560E+02 -0.38495825047E+02 -0.20862829795E+03  0.25204575923E+03  0.12500555267E+03 0.  0.
          5    1    4    4  502    0 -0.65616113461E+02  0.28843212109E+02 -0.91297762116E+02  0.11616702027E+03  0.47000000000E+01 0.  1.
         -5    1    4    4    0  502  0.11829671901E+02 -0.67339037156E+02 -0.11733053584E+03  0.13587873896E+03  0.47000000000E+01 0.  1.
          5    1    3    3  503    0  0.37634640843E+02  0.63578011093E+02 -0.88777122117E+03  0.89085260331E+03  0.47000000000E+01 0.  1.
         -5    1    3    3    0  503  0.16151800716E+02 -0.25082186046E+02 -0.57603569457E+02  0.65040433097E+02  0.47000000000E+01 0.  1.
<mgrwt>
<rscale>  0 0.14142303E+03</rscale>
<asrwt>0</asrwt>
<pdfrwt beam="1">  1        5 0.41489015E-02 0.14142595E+03</pdfrwt>
<pdfrwt beam="2">  1       -5 0.18168780E+00 0.14142595E+03</pdfrwt>
<totfact> 0.42168783E+01</totfact>
</mgrwt>
</event>
<event>
 8    1  0.3694627E-007  0.1252677E+03  0.7546771E-02  0.1234652E+00
          5   -1    0    0  501    0  0.00000000000E+00  0.00000000000E+00  0.95241370450E+02  0.95357268444E+02  0.47000000000E+01 0.  1.
         -5   -1    0    0    0  501 -0.00000000000E+00 -0.00000000000E+00 -0.16999126429E+03  0.17005622581E+03  0.47000000000E+01 0.  1.
         25    2    1    2    0    0  0.81098185424E+01  0.10774246237E+01 -0.61195007740E+02  0.13941457160E+03  0.12499865520E+03 0.  0.
         25    2    1    2    0    0 -0.81098185424E+01 -0.10774246237E+01 -0.13554886104E+02  0.12599892265E+03  0.12500025428E+03 0.  0.
          5    1    3    3  502    0 -0.42979913008E+02  0.26728410959E+02 -0.64306110791E+02  0.81969791751E+02  0.47000000000E+01 0.  1.
         -5    1    3    3    0  502  0.51089731551E+02 -0.25650986335E+02  0.31111030511E+01  0.57444779851E+02  0.47000000000E+01 0.  1.
          5    1    4    4  503    0 -0.62835200798E+02  0.44078406225E+01  0.13398075512E+02  0.64570039072E+02  0.47000000000E+01 0.  1.
         -5    1    4    4    0  503  0.54725382256E+02 -0.54852652462E+01 -0.26952961616E+02  0.61428883579E+02  0.47000000000E+01 0.  1.
<mgrwt>
<rscale>  0 0.12526729E+03</rscale>
<asrwt>0</asrwt>
<pdfrwt beam="1">  1        5 0.14666431E-01 0.12526769E+03</pdfrwt>
<pdfrwt beam="2">  1       -5 0.26166415E-01 0.12526769E+03</pdfrwt>
<totfact> 0.40051224E+02</totfact>
</mgrwt>
</event>
<event>
 8    1  0.3694627E-007  0.1687187E+03  0.7546771E-02  0.1179191E+00
          5   -1    0    0  501    0  0.00000000000E+00  0.00000000000E+00  0.11254720144E+03  0.11264529530E+03  0.47000000000E+01 0.  1.
         -5   -1    0    0    0  501 -0.00000000000E+00 -0.00000000000E+00 -0.33043830155E+03  0.33047172516E+03  0.47000000000E+01 0.  1.
         25    2    1    2    0    0  0.33466368121E+02  0.10826900967E+03 -0.21639162087E+03  0.27439160811E+03  0.12499297887E+03 0.  0.
         25    2    1    2    0    0 -0.33466368121E+02 -0.10826900967E+03 -0.14994792353E+01  0.16872541235E+03  0.12499536025E+03 0.  0.
          5    1    4    4  502    0 -0.10970904171E+02 -0.95954239908E+02  0.51577967495E+02  0.10958993396E+03  0.47000000000E+01 0.  1.
         -5    1    4    4    0  502 -0.22495463950E+02 -0.12314769762E+02 -0.53077446730E+02  0.59135478387E+02  0.47000000000E+01 0.  1.
          5    1    3    3  503    0 -0.20821840658E+02  0.14526091870E+01  0.55715699835E+01  0.22108629851E+02  0.47000000000E+01 0.  1.
         -5    1    3    3    0  503  0.54288208779E+02  0.10681640048E+03 -0.22196319085E+03  0.25228297826E+03  0.47000000000E+01 0.  1.
<mgrwt>
<rscale>  0 0.16871831E+03</rscale>
<asrwt>0</asrwt>
<pdfrwt beam="1">  1        5 0.17325071E-01 0.16871875E+03</pdfrwt>
<pdfrwt beam="2">  1       -5 0.50846778E-01 0.16871875E+03</pdfrwt>
<totfact> 0.85118138E+01</totfact>
</mgrwt>
</event>
<event>
 8    1  0.3694627E-007  0.1317549E+03  0.7546771E-02  0.1224886E+00
         -5   -1    0    0    0  501 -0.00000000000E+00  0.00000000000E+00  0.97893699884E+03  0.97894828142E+03  0.47000000000E+01 0. -1.
          5   -1    0    0  501    0  0.00000000000E+00 -0.00000000000E+00 -0.18680216995E+02  0.19262411765E+02  0.47000000000E+01 0. -1.
         25    2    1    2    0    0 -0.31792066349E+02 -0.26906615338E+02  0.60835494883E+03  0.62245246323E+03  0.12496649065E+03 0.  0.
         25    2    1    2    0    0  0.31792066349E+02  0.26906615338E+02  0.35190183302E+03  0.37575822996E+03  0.12499858346E+03 0.  0.
          5    1    3    3  502    0  0.13657771112E+02  0.43560205397E+02  0.26717661948E+03  0.27108939891E+03  0.47000000000E+01 0. -1.
         -5    1    3    3    0  502 -0.45449837461E+02 -0.70466820734E+02  0.34117832935E+03  0.35136306432E+03  0.47000000000E+01 0. -1.
          5    1    4    4  503    0  0.73344619886E+01  0.66102116433E+02  0.29435207677E+03  0.30180874611E+03  0.47000000000E+01 0.  1.
         -5    1    4    4    0  503  0.24457604360E+02 -0.39195501095E+02  0.57549756245E+02  0.73949483845E+02  0.47000000000E+01 0.  1.
<mgrwt>
<rscale>  0 0.13174726E+03</rscale>
<asrwt>0</asrwt>
<pdfrwt beam="2">  1        5 0.29195309E-02 0.13175488E+03</pdfrwt>
<pdfrwt beam="1">  1       -5 0.15065138E+00 0.13175488E+03</pdfrwt>
<totfact> 0.12446774E+02</totfact>
</mgrwt>
</event>
<event>
 8    1  0.3694627E-007  0.1312213E+03  0.7546771E-02  0.1225660E+00
         -5   -1    0    0    0  501 -0.00000000000E+00  0.00000000000E+00  0.31522797115E+03  0.31526300733E+03  0.47000000000E+01 0. -1.
          5   -1    0    0  501    0  0.00000000000E+00 -0.00000000000E+00 -0.55844132343E+02  0.56041565977E+02  0.47000000000E+01 0. -1.
         25    2    1    2    0    0  0.38814757645E+02  0.93111358583E+01  0.15865641619E+03  0.20588072363E+03  0.12498692452E+03 0.  0.
         25    2    1    2    0    0 -0.38814757645E+02 -0.93111358583E+01  0.10072742262E+03  0.16542384968E+03  0.12500301483E+03 0.  0.
          5    1    4    4  502    0 -0.68781851922E+02  0.30588899747E+02  0.36041942673E+02  0.83592676552E+02  0.47000000000E+01 0. -1.
         -5    1    4    4    0  502  0.29967094277E+02 -0.39900035605E+02  0.64685479943E+02  0.81831173132E+02  0.47000000000E+01 0. -1.
          5    1    3    3  503    0 -0.37113084803E+02  0.22575604696E+02  0.99285050924E+02  0.10847419199E+03  0.47000000000E+01 0. -1.
         -5    1    3    3    0  503  0.75927842448E+02 -0.13264468838E+02  0.59371365264E+02  0.97406531637E+02  0.47000000000E+01 0. -1.
<mgrwt>
<rscale>  0 0.13121749E+03</rscale>
<asrwt>0</asrwt>
<pdfrwt beam="2">  1        5 0.86092871E-02 0.13122133E+03</pdfrwt>
<pdfrwt beam="1">  1       -5 0.48514494E-01 0.13122133E+03</pdfrwt>
<totfact> 0.30096404E+02</totfact>
</mgrwt>
</event>
<event>
 8    1  0.3694627E-007  0.1250736E+03  0.7546771E-02  0.1234961E+00
         -5   -1    0    0    0  501 -0.00000000000E+00  0.00000000000E+00  0.30777423247E+02  0.31134222035E+02  0.47000000000E+01 0. -1.
          5   -1    0    0  501    0  0.00000000000E+00 -0.00000000000E+00 -0.50490739604E+03  0.50492927086E+03  0.47000000000E+01 0. -1.
         25    2    1    2    0    0 -0.41225436031E+01  0.11246701728E+01 -0.23740865842E+03  0.26833984334E+03  0.12500056073E+03 0.  0.
         25    2    1    2    0    0  0.41225436031E+01 -0.11246701728E+01 -0.23672131437E+03  0.26772364956E+03  0.12498284524E+03 0.  0.
          5    1    4    4  502    0  0.19012029801E+02  0.54998365030E+02 -0.16676110772E+03  0.17668512807E+03  0.47000000000E+01 0. -1.
         -5    1    4    4    0  502 -0.14889486197E+02 -0.56123035202E+02 -0.69960206649E+02  0.91038521483E+02  0.47000000000E+01 0. -1.
          5    1    3    3  503    0 -0.64003431114E+02  0.74731930729E+01 -0.12700467609E+03  0.14249408956E+03  0.47000000000E+01 0. -1.
         -5    1    3    3    0  503  0.59880887511E+02 -0.63485229000E+01 -0.11040398233E+03  0.12584575378E+03  0.47000000000E+01 0. -1.
<mgrwt>
<rscale>  0 0.12506915E+03</rscale>
<asrwt>0</asrwt>
<pdfrwt beam="2">  1        5 0.77707184E-01 0.12507358E+03</pdfrwt>
<pdfrwt beam="1">  1       -5 0.47641173E-02 0.12507358E+03</pdfrwt>
<totfact> 0.28506647E+02</totfact>
</mgrwt>
</event>
<event>
 8    1  0.3694627E-007  0.2881126E+03  0.7546771E-02  0.1091339E+00
         -5   -1    0    0    0  501 -0.00000000000E+00  0.00000000000E+00  0.11881172459E+03  0.11890465045E+03  0.47000000000E+01 0. -1.
          5   -1    0    0  501    0  0.00000000000E+00 -0.00000000000E+00 -0.70925290510E+03  0.70926847765E+03  0.47000000000E+01 0. -1.
         25    2    1    2    0    0  0.21942241863E+02 -0.25865324458E+03 -0.24372261059E+03  0.37737194336E+03  0.12500363919E+03 0.  0.
         25    2    1    2    0    0 -0.21942241863E+02  0.25865324458E+03 -0.34671856992E+03  0.45080118475E+03  0.12499991414E+03 0.  0.
          5    1    4    4  502    0 -0.21984580837E+02  0.19666570034E+02 -0.24208778478E+00  0.29870459956E+02  0.47000000000E+01 0.  1.
         -5    1    4    4    0  502  0.42338973811E-01  0.23898667454E+03 -0.34647648214E+03  0.42093072480E+03  0.47000000000E+01 0.  1.
          5    1    3    3  503    0  0.50920827248E+02 -0.17530129982E+03 -0.21992277434E+03  0.28585239730E+03  0.47000000000E+01 0.  1.
         -5    1    3    3    0  503 -0.28978585385E+02 -0.83351944754E+02 -0.23799836248E+02  0.91519546058E+02  0.47000000000E+01 0.  1.
<mgrwt>
<rscale>  0 0.28811220E+03</rscale>
<asrwt>0</asrwt>
<pdfrwt beam="2">  1        5 0.10912417E+00 0.28811260E+03</pdfrwt>
<pdfrwt beam="1">  1       -5 0.18287073E-01 0.28811260E+03</pdfrwt>
<totfact> 0.15023517E+01</totfact>
</mgrwt>
</event>
<event>
 8    1  0.3694627E-007  0.1463210E+03  0.7546771E-02  0.1205070E+00
         -5   -1    0    0    0  501 -0.00000000000E+00  0.00000000000E+00  0.42567040800E+02  0.42825727810E+02  0.47000000000E+01 0. -1.
          5   -1    0    0  501    0  0.00000000000E+00 -0.00000000000E+00 -0.50150493205E+03  0.50152695527E+03  0.47000000000E+01 0. -1.
         25    2    1    2    0    0  0.27633615141E+02  0.70856494020E+02 -0.22227301841E+03  0.26611112370E+03  0.12500230403E+03 0.  0.
         25    2    1    2    0    0 -0.27633615141E+02 -0.70856494020E+02 -0.23666487284E+03  0.27824155939E+03  0.12499537553E+03 0.  0.
          5    1    4    4  502    0 -0.19266795422E+01 -0.68750991732E+02 -0.39726413784E+02  0.79565626438E+02  0.47000000000E+01 0. -1.
         -5    1    4    4    0  502 -0.25706935599E+02 -0.21055022880E+01 -0.19693845906E+03  0.19867593295E+03  0.47000000000E+01 0. -1.
          5    1    3    3  503    0  0.14803805974E+02  0.10081767159E+03 -0.20488167254E+03  0.22887102333E+03  0.47000000000E+01 0.  1.
         -5    1    3    3    0  503  0.12829809167E+02 -0.29961177567E+02 -0.17391345861E+02  0.37240100367E+02  0.47000000000E+01 0.  1.
<mgrwt>
<rscale>  0 0.14631952E+03</rscale>
<asrwt>0</asrwt>
<pdfrwt beam="2">  1        5 0.77176194E-01 0.14632100E+03</pdfrwt>
<pdfrwt beam="1">  1       -5 0.65703690E-02 0.14632100E+03</pdfrwt>
<totfact> 0.17847882E+02</totfact>
</mgrwt>
</event>
<event>
 8    1  0.3694627E-007  0.1282962E+03  0.7546771E-02  0.1230013E+00
         -5   -1    0    0    0  501 -0.00000000000E+00  0.00000000000E+00  0.15750758240E+02  0.16437043078E+02  0.47000000000E+01 0.  1.
          5   -1    0    0  501    0  0.00000000000E+00 -0.00000000000E+00 -0.10330715952E+04  0.10330822866E+04  0.47000000000E+01 0.  1.
         25    2    1    2    0    0 -0.10255640663E+02  0.26930263239E+02 -0.45409820888E+03  0.47186921877E+03  0.12499983628E+03 0.  0.
         25    2    1    2    0    0  0.10255640663E+02 -0.26930263239E+02 -0.56322262810E+03  0.57765011089E+03  0.12501801696E+03 0.  0.
          5    1    4    4  502    0 -0.19293826128E+02  0.42677733151E+02 -0.14006734719E+03  0.14776532876E+03  0.47000000000E+01 0.  1.
         -5    1    4    4    0  502  0.29549466791E+02 -0.69607996391E+02 -0.42315528090E+03  0.42988478213E+03  0.47000000000E+01 0.  1.
          5    1    3    3  503    0 -0.31997795204E+02 -0.26777668901E+02 -0.58420973519E+02  0.71944441040E+02  0.47000000000E+01 0. -1.
         -5    1    3    3    0  503  0.21742154541E+02  0.53707932140E+02 -0.39567723536E+03  0.39992477773E+03  0.47000000000E+01 0. -1.
<mgrwt>
<rscale>  0 0.12829180E+03</rscale>
<asrwt>0</asrwt>
<pdfrwt beam="2">  1        5 0.15898765E+00 0.12829623E+03</pdfrwt>
<pdfrwt beam="1">  1       -5 0.24768080E-02 0.12829623E+03</pdfrwt>
<totfact> 0.13847348E+02</totfact>
</mgrwt>
</event>
<event>
 8    1  0.3694627E-007  0.1294369E+03  0.7546771E-02  0.1228306E+00
          5   -1    0    0  501    0  0.00000000000E+00  0.00000000000E+00  0.27390093145E+04  0.27390133470E+04  0.47000000000E+01 0. -1.
         -5   -1    0    0    0  501 -0.00000000000E+00 -0.00000000000E+00 -0.58708233611E+01  0.75204100246E+01  0.47000000000E+01 0. -1.
         25    2    1    2    0    0  0.18531196657E+02 -0.27857883955E+02  0.96080100882E+03  0.96947606168E+03  0.12500315462E+03 0.  0.
         25    2    1    2    0    0 -0.18531196657E+02  0.27857883955E+02  0.17723374823E+04  0.17770576953E+04  0.12503773164E+03 0.  0.
          5    1    4    4  502    0 -0.52957660050E+02  0.34741620029E+02  0.47385670872E+03  0.47809388652E+03  0.47000000000E+01 0.  1.
         -5    1    4    4    0  502  0.34426463393E+02 -0.68837360736E+01  0.12984807736E+04  0.12989638088E+04  0.47000000000E+01 0.  1.
          5    1    3    3  503    0 -0.17453822266E+02  0.25048022592E+02  0.71792131452E+02  0.78155226862E+02  0.47000000000E+01 0. -1.
         -5    1    3    3    0  503  0.35985018923E+02 -0.52905906547E+02  0.88900887737E+03  0.89132083482E+03  0.47000000000E+01 0. -1.
<mgrwt>
<rscale>  0 0.12942851E+03</rscale>
<asrwt>0</asrwt>
<pdfrwt beam="1">  1        5 0.42151223E+00 0.12943686E+03</pdfrwt>
<pdfrwt beam="2">  1       -5 0.10304076E-02 0.12943686E+03</pdfrwt>
<totfact> 0.99503826E+00</totfact>
</mgrwt>
</event>
<event>
 8    1  0.3694627E-007  0.1308843E+03  0.7546771E-02  0.1226152E+00
          5   -1    0    0  501    0  0.00000000000E+00  0.00000000000E+00  0.33783487578E+03  0.33786756768E+03  0.47000000000E+01 0.  1.
         -5   -1    0    0    0  501 -0.00000000000E+00 -0.00000000000E+00 -0.51554596994E+02  0.51768392589E+02  0.47000000000E+01 0.  1.
         25    2    1    2    0    0 -0.18607296120E+02 -0.34030313155E+02  0.17011892433E+03  0.21463839546E+03  0.12499959483E+03 0.  0.
         25    2    1    2    0    0  0.18607296120E+02  0.34030313155E+02  0.11616135446E+03  0.17499756482E+03  0.12500557484E+03 0.  0.
          5    1    3    3  502    0 -0.36527525414E+02 -0.74426185807E+02  0.86281194311E+02  0.11974995507E+03  0.47000000000E+01 0.  1.
         -5    1    3    3    0  502  0.17920229295E+02  0.40395872652E+02  0.83837730015E+02  0.94888440389E+02  0.47000000000E+01 0.  1.
          5    1    4    4  503    0  0.70338779417E+02  0.34945792936E+01  0.65000118276E+02  0.95952391060E+02  0.47000000000E+01 0. -1.
         -5    1    4    4    0  503 -0.51731483297E+02  0.30535733862E+02  0.51161236183E+02  0.79045173758E+02  0.47000000000E+01 0. -1.
<mgrwt>
<rscale>  0 0.13088282E+03</rscale>
<asrwt>0</asrwt>
<pdfrwt beam="1">  1        5 0.51993555E-01 0.13088425E+03</pdfrwt>
<pdfrwt beam="2">  1       -5 0.79504373E-02 0.13088425E+03</pdfrwt>
<totfact> 0.29768128E+02</totfact>
</mgrwt>
</event>
<event>
 8    1  0.3694627E-007  0.1610358E+03  0.7546771E-02  0.1187533E+00
         -5   -1    0    0    0  501 -0.00000000000E+00  0.00000000000E+00  0.72670798521E+02  0.72822626687E+02  0.47000000000E+01 0.  1.
          5   -1    0    0  501    0  0.00000000000E+00 -0.00000000000E+00 -0.35638676714E+03  0.35641775740E+03  0.47000000000E+01 0.  1.
         25    2    1    2    0    0  0.34769060397E+02  0.95390677824E+02 -0.13865178760E+03  0.21250055112E+03  0.12499558809E+03 0.  0.
         25    2    1    2    0    0 -0.34769060397E+02 -0.95390677824E+02 -0.14506418102E+03  0.21673983298E+03  0.12499707839E+03 0.  0.
          5    1    4    4  502    0 -0.45386445770E+02 -0.50290820302E+02 -0.15491000667E+03  0.16913987181E+03  0.47000000000E+01 0.  1.
         -5    1    4    4    0  502  0.10617385373E+02 -0.45099857522E+02  0.98458256556E+01  0.47599961171E+02  0.47000000000E+01 0.  1.
          5    1    3    3  503    0  0.26423125358E+01 -0.26492635161E+02 -0.54600945121E+02  0.60927783001E+02  0.47000000000E+01 0. -1.
         -5    1    3    3    0  503  0.32126747861E+02  0.12188331299E+03 -0.84050842480E+02  0.15157276812E+03  0.47000000000E+01 0. -1.
<mgrwt>
<rscale>  0 0.16103554E+03</rscale>
<asrwt>0</asrwt>
<pdfrwt beam="2">  1        5 0.54842795E-01 0.16103583E+03</pdfrwt>
<pdfrwt beam="1">  1       -5 0.11194186E-01 0.16103583E+03</pdfrwt>
<totfact> 0.15689321E+02</totfact>
</mgrwt>
</event>
<event>
 8    1  0.3694627E-007  0.1520570E+03  0.7546771E-02  0.1197971E+00
          5   -1    0    0  501    0  0.00000000000E+00  0.00000000000E+00  0.38861970165E+02  0.39145149445E+02  0.47000000000E+01 0. -1.
         -5   -1    0    0    0  501 -0.00000000000E+00 -0.00000000000E+00 -0.60614075035E+03  0.60615897192E+03  0.47000000000E+01 0. -1.
         25    2    1    2    0    0 -0.77236904072E+02  0.39099514750E+02 -0.33210287640E+03  0.36525832265E+03  0.12500804114E+03 0.  0.
         25    2    1    2    0    0  0.77236904072E+02 -0.39099514750E+02 -0.23517590379E+03  0.28004579871E+03  0.12499452888E+03 0.  0.
          5    1    4    4  502    0 -0.36533756814E+01 -0.11769217687E+02 -0.17496807456E+03  0.17546446579E+03  0.47000000000E+01 0. -1.
         -5    1    4    4    0  502  0.80890279754E+02 -0.27330297063E+02 -0.60207829229E+02  0.10458133293E+03  0.47000000000E+01 0. -1.
          5    1    3    3  503    0 -0.65446407141E+02  0.53097655056E+02 -0.93718783964E+02  0.12612649860E+03  0.47000000000E+01 0.  1.
         -5    1    3    3    0  503 -0.11790496931E+02 -0.13998140307E+02 -0.23838409243E+03  0.23913182405E+03  0.47000000000E+01 0.  1.
<mgrwt>
<rscale>  0 0.15205419E+03</rscale>
<asrwt>0</asrwt>
<pdfrwt beam="1">  1        5 0.60019498E-02 0.15205697E+03</pdfrwt>
<pdfrwt beam="2">  1       -5 0.93275601E-01 0.15205697E+03</pdfrwt>
<totfact> 0.13495845E+02</totfact>
</mgrwt>
</event>
<event>
 8    1  0.3694627E-007  0.1490519E+03  0.7546771E-02  0.1201645E+00
         -5   -1    0    0    0  501 -0.00000000000E+00  0.00000000000E+00  0.76326608920E+03  0.76328055977E+03  0.47000000000E+01 0.  1.
          5   -1    0    0  501    0  0.00000000000E+00 -0.00000000000E+00 -0.32083926115E+02  0.32426352168E+02  0.47000000000E+01 0.  1.
         25    2    1    2    0    0 -0.12403397596E+02  0.80235444723E+02  0.49018197397E+03  0.51234248759E+03  0.12499954451E+03 0.  0.
         25    2    1    2    0    0  0.12403397596E+02 -0.80235444723E+02  0.24100018912E+03  0.28336442435E+03  0.12499093954E+03 0.  0.
          5    1    3    3  502    0  0.32964487838E+02  0.32147818452E+02  0.53858340079E+02  0.71013734486E+02  0.47000000000E+01 0. -1.
         -5    1    3    3    0  502 -0.45367885433E+02  0.48087626271E+02  0.43632363389E+03  0.44132875310E+03  0.47000000000E+01 0. -1.
          5    1    4    4  503    0  0.67515491061E+02 -0.55465610004E+02  0.15770396549E+03  0.18035355876E+03  0.47000000000E+01 0.  1.
         -5    1    4    4    0  503 -0.55112093465E+02 -0.24769834719E+02  0.83296223636E+02  0.10301086559E+03  0.47000000000E+01 0.  1.
<mgrwt>
<rscale>  0 0.14905006E+03</rscale>
<asrwt>0</asrwt>
<pdfrwt beam="2">  1        5 0.49634423E-02 0.14905186E+03</pdfrwt>
<pdfrwt beam="1">  1       -5 0.11745300E+00 0.14905186E+03</pdfrwt>
<totfact> 0.10443058E+02</totfact>
</mgrwt>
</event>
<event>
 8    1  0.3694627E-007  0.1493149E+03  0.7546771E-02  0.1201321E+00
         -5   -1    0    0    0  501 -0.00000000000E+00  0.00000000000E+00  0.29479721066E+03  0.29483467471E+03  0.47000000000E+01 0.  1.
          5   -1    0    0  501    0  0.00000000000E+00 -0.00000000000E+00 -0.82536029480E+02  0.82669741516E+02  0.47000000000E+01 0.  1.
         25    2    1    2    0    0  0.84911772454E+01 -0.81231084377E+02  0.16114967110E+03  0.21968390243E+03  0.12498484442E+03 0.  0.
         25    2    1    2    0    0 -0.84911772454E+01  0.81231084377E+02  0.51111510085E+02  0.15782051380E+03  0.12499735578E+03 0.  0.
          5    1    3    3  502    0  0.61554897517E+02 -0.67677856945E+02  0.79709676204E+02  0.12142907481E+03  0.47000000000E+01 0. -1.
         -5    1    3    3    0  502 -0.53063720272E+02 -0.13553227432E+02  0.81439994892E+02  0.98254827621E+02  0.47000000000E+01 0. -1.
          5    1    4    4  503    0  0.28708286828E+01  0.67729333300E+02 -0.30288308082E+02  0.74397418323E+02  0.47000000000E+01 0. -1.
         -5    1    4    4    0  503 -0.11362005928E+02  0.13501751076E+02  0.81399818168E+02  0.83423095474E+02  0.47000000000E+01 0. -1.
<mgrwt>
<rscale>  0 0.14931224E+03</rscale>
<asrwt>0</asrwt>
<pdfrwt beam="2">  1        5 0.12711018E-01 0.14931486E+03</pdfrwt>
<pdfrwt beam="1">  1       -5 0.45366584E-01 0.14931486E+03</pdfrwt>
<totfact> 0.18281804E+02</totfact>
</mgrwt>
</event>
<event>
 8    1  0.3694627E-007  0.1474766E+03  0.7546771E-02  0.1203609E+00
          5   -1    0    0  501    0  0.00000000000E+00  0.00000000000E+00  0.63129903974E+03  0.63131653517E+03  0.47000000000E+01 0. -1.
         -5   -1    0    0    0  501 -0.00000000000E+00 -0.00000000000E+00 -0.34932158899E+02  0.35246925048E+02  0.47000000000E+01 0. -1.
         25    2    1    2    0    0  0.46959393190E+02 -0.62600648571E+02  0.25261847865E+03  0.29251570724E+03  0.12500126966E+03 0.  0.
         25    2    1    2    0    0 -0.46959393190E+02  0.62600648571E+02  0.34374840220E+03  0.37404775298E+03  0.12499892674E+03 0.  0.
          5    1    3    3  502    0 -0.21118596246E+02 -0.18384768004E+02  0.13563097934E+01  0.28424010594E+02  0.47000000000E+01 0.  1.
         -5    1    3    3    0  502  0.68077989436E+02 -0.44215880567E+02  0.25126216885E+03  0.26409169664E+03  0.47000000000E+01 0.  1.
          5    1    4    4  503    0  0.26856940942E+02  0.52555478169E+02  0.23362172336E+03  0.24100741314E+03  0.47000000000E+01 0. -1.
         -5    1    4    4    0  503 -0.73816334132E+02  0.10045170402E+02  0.11012667883E+03  0.13304033984E+03  0.47000000000E+01 0. -1.
<mgrwt>
<rscale>  0 0.14747609E+03</rscale>
<asrwt>0</asrwt>
<pdfrwt beam="1">  1        5 0.97148486E-01 0.14747659E+03</pdfrwt>
<pdfrwt beam="2">  1       -5 0.53997370E-02 0.14747659E+03</pdfrwt>
<totfact> 0.14469723E+02</totfact>
</mgrwt>
</event>
<event>
 8    1  0.3694627E-007  0.1709290E+03  0.7546771E-02  0.1176883E+00
         -5   -1    0    0    0  501 -0.00000000000E+00  0.00000000000E+00  0.13178493406E+03  0.13186871822E+03  0.47000000000E+01 0.  1.
          5   -1    0    0  501    0  0.00000000000E+00 -0.00000000000E+00 -0.24613867253E+03  0.24618354152E+03  0.47000000000E+01 0.  1.
         25    2    1    2    0    0  0.17071307007E+02 -0.11532588893E+03  0.25913737611E+01  0.17094626348E+03  0.12499767838E+03 0.  0.
         25    2    1    2    0    0 -0.17071307007E+02  0.11532588893E+03 -0.11694511223E+03  0.20710599626E+03  0.12500097692E+03 0.  0.
          5    1    3    3  502    0  0.30891575885E+01  0.26988631160E+02  0.40341330504E+01  0.27862041130E+02  0.47000000000E+01 0. -1.
         -5    1    3    3    0  502  0.13982149418E+02 -0.14231452009E+03 -0.14427592892E+01  0.14308422235E+03  0.47000000000E+01 0. -1.
          5    1    4    4  503    0 -0.52070098528E+02  0.30621150375E+01 -0.26594913968E+02  0.58737136108E+02  0.47000000000E+01 0. -1.
         -5    1    4    4    0  503  0.34998791521E+02  0.11226377390E+03 -0.90350198262E+02  0.14836886015E+03  0.47000000000E+01 0. -1.
<mgrwt>
<rscale>  0 0.17092843E+03</rscale>
<asrwt>0</asrwt>
<pdfrwt beam="2">  1        5 0.37877385E-01 0.17092903E+03</pdfrwt>
<pdfrwt beam="1">  1       -5 0.20284502E-01 0.17092903E+03</pdfrwt>
<totfact> 0.11770244E+02</totfact>
</mgrwt>
</event>
<event>
 8    1  0.3694627E-007  0.1320750E+03  0.7546771E-02  0.1224409E+00
          5   -1    0    0  501    0  0.00000000000E+00  0.00000000000E+00  0.45555471316E+02  0.45797281216E+02  0.47000000000E+01 0. -1.
         -5   -1    0    0    0  501 -0.00000000000E+00 -0.00000000000E+00 -0.44817415930E+03  0.44819880306E+03  0.47000000000E+01 0. -1.
         25    2    1    2    0    0  0.40395930503E+02  0.13682857714E+02 -0.29644924841E+03  0.32453963157E+03  0.12499905512E+03 0.  0.
         25    2    1    2    0    0 -0.40395930503E+02 -0.13682857714E+02 -0.10616943957E+03  0.16945645270E+03  0.12499795065E+03 0.  0.
          5    1    4    4  502    0 -0.15242738397E+02 -0.52610983278E+02 -0.10973410459E+03  0.12273516344E+03  0.47000000000E+01 0.  1.
         -5    1    4    4    0  502 -0.25153192106E+02  0.38928125564E+02  0.35646650225E+01  0.46721289256E+02  0.47000000000E+01 0.  1.
          5    1    3    3  503    0  0.42251726342E+02 -0.54562643155E+01 -0.19852534306E+02  0.47235498490E+02  0.47000000000E+01 0.  1.
         -5    1    3    3    0  503 -0.18557958398E+01  0.19139122029E+02 -0.27659671411E+03  0.27730413308E+03  0.47000000000E+01 0.  1.
<mgrwt>
<rscale>  0 0.13207478E+03</rscale>
<asrwt>0</asrwt>
<pdfrwt beam="1">  1        5 0.70290308E-02 0.13207504E+03</pdfrwt>
<pdfrwt beam="2">  1       -5 0.68970364E-01 0.13207504E+03</pdfrwt>
<totfact> 0.19864268E+02</totfact>
</mgrwt>
</event>
<event>
 8    1  0.3694627E-007  0.1430146E+03  0.7546771E-02  0.1209329E+00
         -5   -1    0    0    0  501 -0.00000000000E+00  0.00000000000E+00  0.45076046947E+03  0.45078497184E+03  0.47000000000E+01 0.  1.
          5   -1    0    0  501    0  0.00000000000E+00 -0.00000000000E+00 -0.45356668256E+02  0.45599532402E+02  0.47000000000E+01 0.  1.
         25    2    1    2    0    0  0.64402767126E+02 -0.26074822172E+02  0.18947629945E+03  0.23739089834E+03  0.12500223117E+03 0.  0.
         25    2    1    2    0    0 -0.64402767126E+02  0.26074822172E+02  0.21592750176E+03  0.25899360590E+03  0.12500155645E+03 0.  0.
          5    1    4    4  502    0 -0.40019261160E+02  0.60848378586E+02  0.52058337504E+02  0.89645005126E+02  0.47000000000E+01 0.  1.
         -5    1    4    4    0  502 -0.24383505966E+02 -0.34773556414E+02  0.16386916426E+03  0.16934860077E+03  0.47000000000E+01 0.  1.
          5    1    3    3  503    0 -0.72436322940E+01  0.42186468555E+02  0.69984396616E+02  0.82171005274E+02  0.47000000000E+01 0. -1.
         -5    1    3    3    0  503  0.71646399420E+02 -0.68261290727E+02  0.11949190283E+03  0.15521989307E+03  0.47000000000E+01 0. -1.
<mgrwt>
<rscale>  0 0.14301443E+03</rscale>
<asrwt>0</asrwt>
<pdfrwt beam="2">  1        5 0.69985158E-02 0.14301458E+03</pdfrwt>
<pdfrwt beam="1">  1       -5 0.69368329E-01 0.14301458E+03</pdfrwt>
<totfact> 0.20286137E+02</totfact>
</mgrwt>
</event>
<event>
 8    1  0.3694627E-007  0.1395447E+03  0.7546771E-02  0.1213956E+00
          5   -1    0    0  501    0  0.00000000000E+00  0.00000000000E+00  0.10336592603E+03  0.10347272425E+03  0.47000000000E+01 0. -1.
         -5   -1    0    0    0  501 -0.00000000000E+00 -0.00000000000E+00 -0.22698146291E+03  0.22703011806E+03  0.47000000000E+01 0. -1.
         25    2    1    2    0    0  0.75494141912E+01  0.61573819905E+02 -0.13017183638E+03  0.19080422883E+03  0.12495286232E+03 0.  0.
         25    2    1    2    0    0 -0.75494141912E+01 -0.61573819905E+02  0.65562994947E+01  0.13969861348E+03  0.12499755435E+03 0.  0.
          5    1    4    4  502    0 -0.48985029925E+02 -0.24748643854E+02 -0.39248022070E+02  0.67635240561E+02  0.47000000000E+01 0.  1.
         -5    1    4    4    0  502  0.41435615734E+02 -0.36825176050E+02  0.45804321565E+02  0.72063372918E+02  0.47000000000E+01 0.  1.
          5    1    3    3  503    0 -0.13505153207E+02 -0.30701467228E+02 -0.56681794453E+01  0.34339299809E+02  0.47000000000E+01 0.  1.
         -5    1    3    3    0  503  0.21054567398E+02  0.92275287133E+02 -0.12450365693E+03  0.15646492902E+03  0.47000000000E+01 0.  1.
<mgrwt>
<rscale>  0 0.13953467E+03</rscale>
<asrwt>0</asrwt>
<pdfrwt beam="1">  1        5 0.15914408E-01 0.13954468E+03</pdfrwt>
<pdfrwt beam="2">  1       -5 0.34932183E-01 0.13954468E+03</pdfrwt>
<totfact> 0.20349783E+02</totfact>
</mgrwt>
</event>
<event>
 8    1  0.3694627E-007  0.1330834E+03  0.7546771E-02  0.1222961E+00
         -5   -1    0    0    0  501 -0.00000000000E+00  0.00000000000E+00  0.24125925102E+02  0.24579468302E+02  0.47000000000E+01 0.  1.
          5   -1    0    0  501    0  0.00000000000E+00 -0.00000000000E+00 -0.81638597641E+03  0.81639950543E+03  0.47000000000E+01 0.  1.
         25    2    1    2    0    0 -0.42833034712E+02  0.15926853306E+02 -0.25674132760E+03  0.28917148447E+03  0.12496281292E+03 0.  0.
         25    2    1    2    0    0  0.42833034712E+02 -0.15926853306E+02 -0.53551872370E+03  0.55180748927E+03  0.12499147273E+03 0.  0.
          5    1    3    3  502    0 -0.65892303845E+02  0.14949639721E+02 -0.25683720186E+03  0.26561763062E+03  0.47000000000E+01 0.  1.
         -5    1    3    3    0  502  0.23059269134E+02  0.97721358474E+00  0.95874261754E-01  0.23553853851E+02  0.47000000000E+01 0.  1.
          5    1    4    4  503    0 -0.33003559362E+02 -0.91911085629E+01 -0.34282809702E+03  0.34456770817E+03  0.47000000000E+01 0.  1.
         -5    1    4    4    0  503  0.75836594074E+02 -0.67357447432E+01 -0.19269062669E+03  0.20723978110E+03  0.47000000000E+01 0.  1.
<mgrwt>
<rscale>  0 0.13307671E+03</rscale>
<asrwt>0</asrwt>
<pdfrwt beam="2">  1        5 0.12563375E+00 0.13308344E+03</pdfrwt>
<pdfrwt beam="1">  1       -5 0.37476100E-02 0.13308344E+03</pdfrwt>
<totfact> 0.13474143E+02</totfact>
</mgrwt>
</event>
<event>
 8    1  0.3694627E-007  0.1285667E+03  0.7546771E-02  0.1229598E+00
          5   -1    0    0  501    0  0.00000000000E+00  0.00000000000E+00  0.55740919809E+03  0.55742901262E+03  0.47000000000E+01 0.  1.
         -5   -1    0    0    0  501 -0.00000000000E+00 -0.00000000000E+00 -0.35452804367E+02  0.35762988375E+02  0.47000000000E+01 0.  1.
         25    2    1    2    0    0  0.29262238362E+02  0.69254136105E+01  0.13952347844E+03  0.18972663929E+03  0.12500062669E+03 0.  0.
         25    2    1    2    0    0 -0.29262238362E+02 -0.69254136105E+01  0.38243291528E+03  0.40346536171E+03  0.12500049383E+03 0.  0.
          5    1    3    3  502    0 -0.72309967160E+01  0.61823412219E+02  0.70585802755E+02  0.94227740939E+02  0.47000000000E+01 0.  1.
         -5    1    3    3    0  502  0.36493235078E+02 -0.54897998609E+02  0.68937675681E+02  0.95498898350E+02  0.47000000000E+01 0.  1.
          5    1    4    4  503    0 -0.71430639575E+02  0.19103518828E+02  0.17298896668E+03  0.18818754819E+03  0.47000000000E+01 0.  1.
         -5    1    4    4    0  503  0.42168401213E+02 -0.26028932439E+02  0.20944394860E+03  0.21527781351E+03  0.47000000000E+01 0.  1.
<mgrwt>
<rscale>  0 0.12856667E+03</rscale>
<asrwt>0</asrwt>
<pdfrwt beam="1">  1        5 0.85780641E-01 0.12856670E+03</pdfrwt>
<pdfrwt beam="2">  1       -5 0.54796624E-02 0.12856670E+03</pdfrwt>
<totfact> 0.18143694E+02</totfact>
</mgrwt>
</event>
<event>
 8    1  0.3694627E-007  0.1488325E+03  0.7546771E-02  0.1201916E+00
          5   -1    0    0  501    0  0.00000000000E+00  0.00000000000E+00  0.26482648789E+02  0.26896480939E+02  0.47000000000E+01 0. -1.
         -5   -1    0    0    0  501 -0.00000000000E+00 -0.00000000000E+00 -0.82973507986E+03  0.82974839123E+03  0.47000000000E+01 0. -1.
         25    2    1    2    0    0  0.62721119769E+02  0.50911464207E+02 -0.40857907114E+03  0.43484139863E+03  0.12499707410E+03 0.  0.
         25    2    1    2    0    0 -0.62721119769E+02 -0.50911464207E+02 -0.39467335993E+03  0.42180347354E+03  0.12500077280E+03 0.  0.
          5    1    4    4  502    0 -0.54374002496E+02  0.10414828188E+02 -0.61433055199E+02  0.82831823985E+02  0.47000000000E+01 0. -1.
         -5    1    4    4    0  502 -0.83471172726E+01 -0.61326292395E+02 -0.33324030473E+03  0.33897164955E+03  0.47000000000E+01 0. -1.
          5    1    3    3  503    0  0.63947333748E+02  0.42613816874E+02 -0.41576808764E+03  0.42283612852E+03  0.47000000000E+01 0.  1.
         -5    1    3    3    0  503 -0.12262139793E+01  0.82976473322E+01  0.71890165038E+01  0.12005270104E+02  0.47000000000E+01 0.  1.
<mgrwt>
<rscale>  0 0.14883171E+03</rscale>
<asrwt>0</asrwt>
<pdfrwt beam="1">  1        5 0.41071115E-02 0.14883249E+03</pdfrwt>
<pdfrwt beam="2">  1       -5 0.12768439E+00 0.14883249E+03</pdfrwt>
<totfact> 0.11519113E+02</totfact>
</mgrwt>
</event>
<event>
 8    1  0.3694627E-007  0.1663327E+03  0.7546771E-02  0.1181727E+00
         -5   -1    0    0    0  501 -0.00000000000E+00  0.00000000000E+00  0.40258181546E+03  0.40260924994E+03  0.47000000000E+01 0. -1.
          5   -1    0    0  501    0  0.00000000000E+00 -0.00000000000E+00 -0.68785401121E+02  0.68945786001E+02  0.47000000000E+01 0. -1.
         25    2    1    2    0    0 -0.10227720120E+03  0.39759712902E+02  0.17870052039E+03  0.24413201732E+03  0.12500042095E+03 0.  0.
         25    2    1    2    0    0  0.10227720120E+03 -0.39759712902E+02  0.15509589395E+03  0.22742301862E+03  0.12500012969E+03 0.  0.
          5    1    3    3  502    0 -0.84056460005E+02  0.22350529781E+02  0.19512666961E+03  0.21368561449E+03  0.47000000000E+01 0. -1.
         -5    1    3    3    0  502 -0.18220741199E+02  0.17409183121E+02 -0.16426149218E+02  0.30446402824E+02  0.47000000000E+01 0. -1.
          5    1    4    4  503    0 -0.89897768786E+01 -0.31624211756E+02  0.94952337796E+02  0.10059295855E+03  0.47000000000E+01 0.  1.
         -5    1    4    4    0  503  0.11126697808E+03 -0.81355011468E+01  0.60143556151E+02  0.12683006007E+03  0.47000000000E+01 0.  1.
<mgrwt>
<rscale>  0 0.16633264E+03</rscale>
<asrwt>0</asrwt>
<pdfrwt beam="2">  1        5 0.10596817E-01 0.16633270E+03</pdfrwt>
<pdfrwt beam="1">  1       -5 0.61950112E-01 0.16633270E+03</pdfrwt>
<totfact> 0.13372748E+02</totfact>
</mgrwt>
</event>
<event>
 8    1  0.3694627E-007  0.1422718E+03  0.7546771E-02  0.1210305E+00
         -5   -1    0    0    0  501 -0.00000000000E+00  0.00000000000E+00  0.20409480497E+02  0.20943659999E+02  0.47000000000E+01 0. -1.
          5   -1    0    0  501    0  0.00000000000E+00 -0.00000000000E+00 -0.10093808467E+04  0.10093917890E+04  0.47000000000E+01 0. -1.
         25    2    1    2    0    0 -0.49458318161E+02 -0.46581250959E+02 -0.40425644925E+03  0.42856099936E+03  0.12500126093E+03 0.  0.
         25    2    1    2    0    0  0.49458318161E+02  0.46581250959E+02 -0.58471491691E+03  0.60177444959E+03  0.12500006379E+03 0.  0.
          5    1    3    3  502    0  0.40777315242E+02 -0.10521285104E+02 -0.87853493442E+02  0.97538777871E+02  0.47000000000E+01 0. -1.
         -5    1    3    3    0  502 -0.90235633403E+02 -0.36059965854E+02 -0.31640295581E+03  0.33102222149E+03  0.47000000000E+01 0. -1.
          5    1    4    4  503    0 -0.11481958818E+02  0.70748002443E+02 -0.22771105695E+03  0.23877087486E+03  0.47000000000E+01 0. -1.
         -5    1    4    4    0  503  0.60940276979E+02 -0.24166751484E+02 -0.35700385997E+03  0.36300357473E+03  0.47000000000E+01 0. -1.
<mgrwt>
<rscale>  0 0.14227150E+03</rscale>
<asrwt>0</asrwt>
<pdfrwt beam="2">  1        5 0.15533126E+00 0.14227176E+03</pdfrwt>
<pdfrwt beam="1">  1       -5 0.31818533E-02 0.14227176E+03</pdfrwt>
<totfact> 0.10199246E+02</totfact>
</mgrwt>
</event>
<event>
 8    1  0.3694627E-007  0.1282891E+03  0.7546771E-02  0.1230020E+00
         -5   -1    0    0    0  501 -0.00000000000E+00  0.00000000000E+00  0.51320434797E+02  0.51535201831E+02  0.47000000000E+01 0. -1.
          5   -1    0    0  501    0  0.00000000000E+00 -0.00000000000E+00 -0.34789090195E+03  0.34792264896E+03  0.47000000000E+01 0. -1.
         25    2    1    2    0    0 -0.54138989697E+01 -0.28338557160E+02 -0.91522888487E+02  0.15758973541E+03  0.12500280584E+03 0.  0.
         25    2    1    2    0    0  0.54138989697E+01  0.28338557160E+02 -0.20504757867E+03  0.24186811538E+03  0.12499316619E+03 0.  0.
          5    1    4    4  502    0  0.16964351720E+02  0.59430837196E+02 -0.19821291787E+03  0.20767827150E+03  0.47000000000E+01 0. -1.
         -5    1    4    4    0  502 -0.11550452750E+02 -0.31092280036E+02 -0.68346607936E+01  0.34189843883E+02  0.47000000000E+01 0. -1.
          5    1    3    3  503    0 -0.43878051428E+02 -0.89293406041E+00 -0.10004227121E+03  0.10934636143E+03  0.47000000000E+01 0.  1.
         -5    1    3    3    0  503  0.38464152458E+02 -0.27445623099E+02  0.85193827241E+01  0.48243373987E+02  0.47000000000E+01 0.  1.
<mgrwt>
<rscale>  0 0.12828672E+03</rscale>
<asrwt>0</asrwt>
<pdfrwt beam="2">  1        5 0.53540638E-01 0.12828907E+03</pdfrwt>
<pdfrwt beam="1">  1       -5 0.79144144E-02 0.12828907E+03</pdfrwt>
<totfact> 0.27975074E+02</totfact>
</mgrwt>
</event>
<event>
 8    1  0.3694627E-007  0.1335174E+03  0.7546771E-02  0.1222329E+00
         -5   -1    0    0    0  501 -0.00000000000E+00  0.00000000000E+00  0.40922482709E+02  0.41191499015E+02  0.47000000000E+01 0. -1.
          5   -1    0    0  501    0  0.00000000000E+00 -0.00000000000E+00 -0.47191355481E+03  0.47193695894E+03  0.47000000000E+01 0. -1.
         25    2    1    2    0    0  0.44860001444E+02 -0.13790144011E+02 -0.14270373411E+03  0.19542342235E+03  0.12499348172E+03 0.  0.
         25    2    1    2    0    0 -0.44860001444E+02  0.13790144011E+02 -0.28828733799E+03  0.31770503560E+03  0.12499725037E+03 0.  0.
          5    1    3    3  502    0 -0.29819178733E+02 -0.37458351002E-01  0.37183217193E+01  0.30415468760E+02  0.47000000000E+01 0.  1.
         -5    1    3    3    0  502  0.74679180178E+02 -0.13752685660E+02 -0.14642205583E+03  0.16500795359E+03  0.47000000000E+01 0.  1.
          5    1    4    4  503    0 -0.38545941887E+02  0.58042238747E+02 -0.24696930911E+03  0.25665272404E+03  0.47000000000E+01 0. -1.
         -5    1    4    4    0  503 -0.63140595575E+01 -0.44252094736E+02 -0.41318028877E+02  0.61052311560E+02  0.47000000000E+01 0. -1.
<mgrwt>
<rscale>  0 0.13351653E+03</rscale>
<asrwt>0</asrwt>
<pdfrwt beam="2">  1        5 0.72624575E-01 0.13351742E+03</pdfrwt>
<pdfrwt beam="1">  1       -5 0.63182608E-02 0.13351742E+03</pdfrwt>
<totfact> 0.21252836E+02</totfact>
</mgrwt>
</event>
<event>
 8    1  0.3694627E-007  0.1852800E+03  0.7546771E-02  0.1162789E+00
         -5   -1    0    0    0  501 -0.00000000000E+00  0.00000000000E+00  0.27133029489E+02  0.27537089339E+02  0.47000000000E+01 0. -1.
          5   -1    0    0  501    0  0.00000000000E+00 -0.00000000000E+00 -0.12713774050E+04  0.12713860924E+04  0.47000000000E+01 0. -1.
         25    2    1    2    0    0 -0.52599008817E+02  0.12623638929E+03 -0.54938493417E+03  0.57978597537E+03  0.12500275848E+03 0.  0.
         25    2    1    2    0    0  0.52599008817E+02 -0.12623638929E+03 -0.69485944131E+03  0.71913720634E+03  0.12500558650E+03 0.  0.
          5    1    4    4  502    0 -0.35759843395E+02 -0.12149022850E+02 -0.99737201279E+02  0.10675188277E+03  0.47000000000E+01 0.  1.
         -5    1    4    4    0  502  0.88358852212E+02 -0.11408736644E+03 -0.59512224003E+03  0.61238532357E+03  0.47000000000E+01 0.  1.
          5    1    3    3  503    0 -0.65744660410E+02  0.48212775174E+02 -0.13413262418E+03  0.15703656559E+03  0.47000000000E+01 0.  1.
         -5    1    3    3    0  503  0.13145651593E+02  0.78023614115E+02 -0.41525230999E+03  0.42274940978E+03  0.47000000000E+01 0.  1.
<mgrwt>
<rscale>  0 0.18527952E+03</rscale>
<asrwt>0</asrwt>
<pdfrwt beam="2">  1        5 0.19562823E+00 0.18528000E+03</pdfrwt>
<pdfrwt beam="1">  1       -5 0.42060630E-02 0.18528000E+03</pdfrwt>
<totfact> 0.35383945E+01</totfact>
</mgrwt>
</event>
<event>
 8    1  0.3694627E-007  0.1513241E+03  0.7546771E-02  0.1198856E+00
         -5   -1    0    0    0  501 -0.00000000000E+00  0.00000000000E+00  0.26078485612E+03  0.26082720560E+03  0.47000000000E+01 0. -1.
          5   -1    0    0  501    0  0.00000000000E+00 -0.00000000000E+00 -0.10808024844E+03  0.10818239276E+03  0.47000000000E+01 0. -1.
         25    2    1    2    0    0  0.48020170559E+02  0.70481174507E+02  0.15642479061E+03  0.21764120872E+03  0.12500179148E+03 0.  0.
         25    2    1    2    0    0 -0.48020170559E+02 -0.70481174507E+02 -0.37201829339E+01  0.15136838964E+03  0.12500006752E+03 0.  0.
          5    1    4    4  502    0 -0.88429803249E+02 -0.47759297126E+02  0.13864872351E+02  0.10156330661E+03  0.47000000000E+01 0.  1.
         -5    1    4    4    0  502  0.40409632689E+02 -0.22721877381E+02 -0.17585055285E+02  0.49805083026E+02  0.47000000000E+01 0.  1.
          5    1    3    3  503    0  0.65828312218E+02  0.66015345659E+02  0.17026473266E+03  0.19417405012E+03  0.47000000000E+01 0.  1.
         -5    1    3    3    0  503 -0.17808141659E+02  0.44658288480E+01 -0.13839942048E+02  0.23467158596E+02  0.47000000000E+01 0.  1.
<mgrwt>
<rscale>  0 0.15132374E+03</rscale>
<asrwt>0</asrwt>
<pdfrwt beam="2">  1        5 0.16638846E-01 0.15132409E+03</pdfrwt>
<pdfrwt beam="1">  1       -5 0.40131861E-01 0.15132409E+03</pdfrwt>
<totfact> 0.14543501E+02</totfact>
</mgrwt>
</event>
<event>
 8    1  0.3694627E-007  0.1742310E+03  0.7546771E-02  0.1173506E+00
          5   -1    0    0  501    0  0.00000000000E+00  0.00000000000E+00  0.27320413656E+03  0.27324456122E+03  0.47000000000E+01 0. -1.
         -5   -1    0    0    0  501 -0.00000000000E+00 -0.00000000000E+00 -0.12370012452E+03  0.12378938083E+03  0.47000000000E+01 0. -1.
         25    2    1    2    0    0  0.49309285090E+02  0.11090584618E+03  0.11212753430E+02  0.17459146410E+03  0.12499976473E+03 0.  0.
         25    2    1    2    0    0 -0.49309285090E+02 -0.11090584618E+03  0.13829125861E+03  0.22244247795E+03  0.12499868589E+03 0.  0.
          5    1    3    3  502    0  0.77225055800E+02  0.11572597695E+03 -0.89661620785E+01  0.13949441941E+03  0.47000000000E+01 0.  1.
         -5    1    3    3    0  502 -0.27915770710E+02 -0.48201307663E+01  0.20178915508E+02  0.35097044691E+02  0.47000000000E+01 0.  1.
          5    1    4    4  503    0  0.35602185555E+02 -0.37147302025E+02  0.81141193230E+02  0.96194703091E+02  0.47000000000E+01 0.  1.
         -5    1    4    4    0  503 -0.84911470645E+02 -0.73758544157E+02  0.57150065382E+02  0.12624777486E+03  0.47000000000E+01 0.  1.
<mgrwt>
<rscale>  0 0.17423084E+03</rscale>
<asrwt>0</asrwt>
<pdfrwt beam="1">  1        5 0.42041381E-01 0.17423103E+03</pdfrwt>
<pdfrwt beam="2">  1       -5 0.19040764E-01 0.17423103E+03</pdfrwt>
<totfact> 0.10755679E+02</totfact>
</mgrwt>
</event>
<event>
 8    1  0.3694627E-007  0.1312121E+03  0.7546771E-02  0.1225671E+00
          5   -1    0    0  501    0  0.00000000000E+00  0.00000000000E+00  0.13728230502E+04  0.13728310956E+04  0.47000000000E+01 0. -1.
         -5   -1    0    0    0  501 -0.00000000000E+00 -0.00000000000E+00 -0.12546535669E+02  0.13397968402E+02  0.47000000000E+01 0. -1.
         25    2    1    2    0    0  0.34774125060E+02  0.19406732718E+02  0.55251619543E+03  0.56788113147E+03  0.12501588788E+03 0.  0.
         25    2    1    2    0    0 -0.34774125060E+02 -0.19406732718E+02  0.80776031905E+03  0.81834793252E+03  0.12502297621E+03 0.  0.
          5    1    3    3  502    0  0.35167444416E+02  0.25586917974E+02  0.55712746866E+03  0.55884214753E+03  0.47000000000E+01 0. -1.
         -5    1    3    3    0  502 -0.39331935611E+00 -0.61801852564E+01 -0.46112732310E+01  0.90389839435E+01  0.47000000000E+01 0. -1.
          5    1    4    4  503    0  0.45671517822E+02 -0.20863638825E+02  0.29000849019E+03  0.29436065184E+03  0.47000000000E+01 0. -1.
         -5    1    4    4    0  503 -0.80445642882E+02  0.14569061074E+01  0.51775182886E+03  0.52398728069E+03  0.47000000000E+01 0. -1.
<mgrwt>
<rscale>  0 0.13121038E+03</rscale>
<asrwt>0</asrwt>
<pdfrwt beam="1">  1        5 0.21126977E+00 0.13121206E+03</pdfrwt>
<pdfrwt beam="2">  1       -5 0.19963490E-02 0.13121206E+03</pdfrwt>
<totfact> 0.84364985E+01</totfact>
</mgrwt>
</event>
<event>
 8    1  0.3694627E-007  0.1283490E+03  0.7546771E-02  0.1229932E+00
         -5   -1    0    0    0  501 -0.00000000000E+00  0.00000000000E+00  0.28798138417E+03  0.28801973479E+03  0.47000000000E+01 0.  1.
          5   -1    0    0  501    0  0.00000000000E+00 -0.00000000000E+00 -0.73136141876E+02  0.73287006001E+02  0.47000000000E+01 0.  1.
         25    2    1    2    0    0 -0.16849101487E+02 -0.23689393896E+02  0.19199895384E+03  0.23094024329E+03  0.12499887236E+03 0.  0.
         25    2    1    2    0    0  0.16849101487E+02  0.23689393896E+02  0.22846288456E+02  0.13036649750E+03  0.12501356395E+03 0.  0.
          5    1    4    4  502    0 -0.23602669657E+02  0.29742621039E+02  0.62450769708E+02  0.73238638425E+02  0.47000000000E+01 0. -1.
         -5    1    4    4    0  502  0.40451771144E+02 -0.60532271429E+01 -0.39604481252E+02  0.57127859077E+02  0.47000000000E+01 0. -1.
          5    1    3    3  503    0  0.23382055975E+02  0.43487849420E+02  0.82064277610E+02  0.95888212249E+02  0.47000000000E+01 0.  1.
         -5    1    3    3    0  503 -0.40231157462E+02 -0.67177243316E+02  0.10993467623E+03  0.13505203104E+03  0.47000000000E+01 0.  1.
<mgrwt>
<rscale>  0 0.12834544E+03</rscale>
<asrwt>0</asrwt>
<pdfrwt beam="2">  1        5 0.11266269E-01 0.12834902E+03</pdfrwt>
<pdfrwt beam="1">  1       -5 0.44319384E-01 0.12834902E+03</pdfrwt>
<totfact> 0.22582609E+02</totfact>
</mgrwt>
</event>
<event>
 8    1  0.3694627E-007  0.1833720E+03  0.7546771E-02  0.1164583E+00
          5   -1    0    0  501    0  0.00000000000E+00  0.00000000000E+00  0.36684364441E+03  0.36687375137E+03  0.47000000000E+01 0. -1.
         -5   -1    0    0    0  501 -0.00000000000E+00 -0.00000000000E+00 -0.10494930304E+03  0.10505449162E+03  0.47000000000E+01 0. -1.
         25    2    1    2    0    0  0.12982426161E+03  0.33787129357E+02  0.46713611714E+02  0.18921278277E+03  0.12499362636E+03 0.  0.
         25    2    1    2    0    0 -0.12982426161E+03 -0.33787129357E+02  0.21518072965E+03  0.28271546022E+03  0.12501750285E+03 0.  0.
          5    1    3    3  502    0  0.11669314509E+03  0.72194718858E+02  0.16278446875E+02  0.13826223409E+03  0.47000000000E+01 0.  1.
         -5    1    3    3    0  502  0.13131116519E+02 -0.38407589501E+02  0.30435164839E+02  0.50950548683E+02  0.47000000000E+01 0.  1.
          5    1    4    4  503    0 -0.48626277412E+02  0.31877690615E+02  0.14637484306E+03  0.15757025955E+03  0.47000000000E+01 0. -1.
         -5    1    4    4    0  503 -0.81197984200E+02 -0.65664819972E+02  0.68805886591E+02  0.12514520067E+03  0.47000000000E+01 0. -1.
<mgrwt>
<rscale>  0 0.18336792E+03</rscale>
<asrwt>0</asrwt>
<pdfrwt beam="1">  1        5 0.56447890E-01 0.18337199E+03</pdfrwt>
<pdfrwt beam="2">  1       -5 0.16156454E-01 0.18337199E+03</pdfrwt>
<totfact> 0.79140169E+01</totfact>
</mgrwt>
</event>
<event>
 8    1  0.3694627E-007  0.1427804E+03  0.7546771E-02  0.1209638E+00
          5   -1    0    0  501    0  0.00000000000E+00  0.00000000000E+00  0.94905029370E+01  0.10590545123E+02  0.47000000000E+01 0. -1.
         -5   -1    0    0    0  501 -0.00000000000E+00 -0.00000000000E+00 -0.20308699342E+04  0.20308753728E+04  0.47000000000E+01 0. -1.
         25    2    1    2    0    0  0.20510534246E+02  0.65870841564E+02 -0.98156725028E+03  0.99189666552E+03  0.12500031388E+03 0.  0.
         25    2    1    2    0    0 -0.20510534246E+02 -0.65870841564E+02 -0.10398121810E+04  0.10495692524E+04  0.12500637573E+03 0.  0.
          5    1    4    4  502    0 -0.57762817143E+02 -0.62768865677E+02 -0.41932289661E+03  0.42793720937E+03  0.47000000000E+01 0. -1.
         -5    1    4    4    0  502  0.37252282897E+02 -0.31019758871E+01 -0.62048928440E+03  0.62163204300E+03  0.47000000000E+01 0. -1.
          5    1    3    3  503    0  0.42465599138E+02  0.24862873921E+02 -0.86344326299E+03  0.86485712578E+03  0.47000000000E+01 0. -1.
         -5    1    3    3    0  503 -0.21955064892E+02  0.41007967643E+02 -0.11812398729E+03  0.12703953974E+03  0.47000000000E+01 0. -1.
<mgrwt>
<rscale>  0 0.14277908E+03</rscale>
<asrwt>0</asrwt>
<pdfrwt beam="1">  1        5 0.15451160E-02 0.14278040E+03</pdfrwt>
<pdfrwt beam="2">  1       -5 0.31252624E+00 0.14278040E+03</pdfrwt>
<totfact> 0.29342531E+01</totfact>
</mgrwt>
</event>
<event>
 8    1  0.3694627E-007  0.1521004E+03  0.7546771E-02  0.1197916E+00
         -5   -1    0    0    0  501 -0.00000000000E+00  0.00000000000E+00  0.19765930893E+04  0.19765986771E+04  0.47000000000E+01 0.  1.
          5   -1    0    0  501    0  0.00000000000E+00 -0.00000000000E+00 -0.13853837834E+02  0.14629382172E+02  0.47000000000E+01 0.  1.
         25    2    1    2    0    0 -0.62548651912E+02  0.59973531193E+02  0.14020043920E+04  0.14102305346E+04  0.12499874900E+03 0.  0.
         25    2    1    2    0    0  0.62548651912E+02 -0.59973531193E+02  0.56073485944E+03  0.58099752473E+03  0.12500153139E+03 0.  0.
          5    1    4    4  502    0  0.90102236706E+02 -0.27667973551E+02  0.24782968168E+03  0.26518968860E+03  0.47000000000E+01 0.  1.
         -5    1    4    4    0  502 -0.27553584795E+02 -0.32305557642E+02  0.31290517776E+03  0.31580783613E+03  0.47000000000E+01 0.  1.
          5    1    3    3  503    0 -0.14859738774E+02 -0.26025699784E+02  0.99764975246E+02  0.10427506496E+03  0.47000000000E+01 0.  1.
         -5    1    3    3    0  503 -0.47688913137E+02  0.85999230976E+02  0.13022394167E+04  0.13059554696E+04  0.47000000000E+01 0.  1.
<mgrwt>
<rscale>  0 0.15209986E+03</rscale>
<asrwt>0</asrwt>
<pdfrwt beam="2">  1        5 0.21914465E-02 0.15210043E+03</pdfrwt>
<pdfrwt beam="1">  1       -5 0.30415136E+00 0.15210043E+03</pdfrwt>
<totfact> 0.19371634E+01</totfact>
</mgrwt>
</event>
<event>
 8    1  0.3694627E-007  0.2278279E+03  0.7546771E-02  0.1128178E+00
          5   -1    0    0  501    0  0.00000000000E+00  0.00000000000E+00  0.92936271193E+02  0.93055040182E+02  0.47000000000E+01 0. -1.
         -5   -1    0    0    0  501 -0.00000000000E+00 -0.00000000000E+00 -0.63150926132E+03  0.63152675092E+03  0.47000000000E+01 0. -1.
         25    2    1    2    0    0  0.19045719681E+03  0.24998407665E+01 -0.39286174403E+03  0.45414265263E+03  0.12500002400E+03 0.  0.
         25    2    1    2    0    0 -0.19045719681E+03 -0.24998407665E+01 -0.14571124610E+03  0.27043913847E+03  0.12500146942E+03 0.  0.
          5    1    3    3  502    0  0.53216467993E+02  0.55093212374E-01 -0.20435320190E+02  0.57198669672E+02  0.47000000000E+01 0.  1.
         -5    1    3    3    0  502  0.13724072882E+03  0.24447475541E+01 -0.37242642384E+03  0.39694398296E+03  0.47000000000E+01 0.  1.
          5    1    4    4  503    0 -0.19983170210E+03  0.21617179230E+02 -0.13423376357E+03  0.24174533063E+03  0.47000000000E+01 0. -1.
         -5    1    4    4    0  503  0.93745052913E+01 -0.24117019996E+02 -0.11477482530E+02  0.28693807837E+02  0.47000000000E+01 0. -1.
<mgrwt>
<rscale>  0 0.22782772E+03</rscale>
<asrwt>0</asrwt>
<pdfrwt beam="1">  1        5 0.14308370E-01 0.22782792E+03</pdfrwt>
<pdfrwt beam="2">  1       -5 0.97165750E-01 0.22782792E+03</pdfrwt>
<totfact> 0.29964470E+01</totfact>
</mgrwt>
</event>
<event>
 8    1  0.3694627E-007  0.1410220E+03  0.7546771E-02  0.1211962E+00
         -5   -1    0    0    0  501 -0.00000000000E+00  0.00000000000E+00  0.27434207190E+03  0.27438232890E+03  0.47000000000E+01 0.  1.
          5   -1    0    0  501    0  0.00000000000E+00 -0.00000000000E+00 -0.80408259985E+02  0.80545504367E+02  0.47000000000E+01 0.  1.
         25    2    1    2    0    0  0.59799089159E+02 -0.26177966987E+02  0.15302638810E+03  0.20809680171E+03  0.12500394558E+03 0.  0.
         25    2    1    2    0    0 -0.59799089159E+02  0.26177966987E+02  0.40907423817E+02  0.14683103155E+03  0.12499886993E+03 0.  0.
          5    1    3    3  502    0  0.32196853990E+01 -0.64926485861E+02  0.10728715679E+03  0.12553262107E+03  0.47000000000E+01 0. -1.
         -5    1    3    3    0  502  0.56579403760E+02  0.38748518874E+02  0.45739231302E+02  0.82564180641E+02  0.47000000000E+01 0. -1.
          5    1    4    4  503    0 -0.95798924658E+02  0.95590662201E+00  0.20237118806E+02  0.98030498829E+02  0.47000000000E+01 0.  1.
         -5    1    4    4    0  503  0.35999835500E+02  0.25222060365E+02  0.20670305010E+02  0.48800532725E+02  0.47000000000E+01 0.  1.
<mgrwt>
<rscale>  0 0.14102087E+03</rscale>
<asrwt>0</asrwt>
<pdfrwt beam="2">  1        5 0.12384156E-01 0.14102200E+03</pdfrwt>
<pdfrwt beam="1">  1       -5 0.42220126E-01 0.14102200E+03</pdfrwt>
<totfact> 0.21815515E+02</totfact>
</mgrwt>
</event>
<event>
 8    1  0.3694627E-007  0.1361318E+03  0.7546771E-02  0.1218633E+00
          5   -1    0    0  501    0  0.00000000000E+00  0.00000000000E+00  0.22466806157E+03  0.22471721761E+03  0.47000000000E+01 0. -1.
         -5   -1    0    0    0  501 -0.00000000000E+00 -0.00000000000E+00 -0.84001686981E+02  0.84133069691E+02  0.47000000000E+01 0. -1.
         25    2    1    2    0    0 -0.40445000219E+02 -0.35636552488E+02  0.48747971747E+02  0.14459682273E+03  0.12500445784E+03 0.  0.
         25    2    1    2    0    0  0.40445000219E+02  0.35636552488E+02  0.91918402846E+02  0.16425346457E+03  0.12499778368E+03 0.  0.
          5    1    4    4  502    0 -0.56359026993E+01 -0.53134035540E+01 -0.27948997931E+02  0.29380812478E+02  0.47000000000E+01 0. -1.
         -5    1    4    4    0  502  0.46080902918E+02  0.40949956041E+02  0.11986740078E+03  0.13487265209E+03  0.47000000000E+01 0. -1.
          5    1    3    3  503    0 -0.37076112537E+02 -0.39238723149E+02  0.88768137657E+02  0.10400090278E+03  0.47000000000E+01 0.  1.
         -5    1    3    3    0  503 -0.33688876819E+01  0.36021706615E+01 -0.40020165910E+02  0.40595919957E+02  0.47000000000E+01 0.  1.
<mgrwt>
<rscale>  0 0.13613030E+03</rscale>
<asrwt>0</asrwt>
<pdfrwt beam="1">  1        5 0.34578205E-01 0.13613183E+03</pdfrwt>
<pdfrwt beam="2">  1       -5 0.12937224E-01 0.13613183E+03</pdfrwt>
<totfact> 0.29917930E+02</totfact>
</mgrwt>
</event>
<event>
 8    1  0.3694627E-007  0.1582551E+03  0.7546771E-02  0.1190683E+00
          5   -1    0    0  501    0  0.00000000000E+00  0.00000000000E+00  0.91600388257E+03  0.91601594030E+03  0.47000000000E+01 0. -1.
         -5   -1    0    0    0  501 -0.00000000000E+00 -0.00000000000E+00 -0.27143141203E+02  0.27547052734E+02  0.47000000000E+01 0. -1.
         25    2    1    2    0    0 -0.39184889416E+02  0.88782079865E+02  0.45631967972E+03  0.48298273923E+03  0.12500785188E+03 0.  0.
         25    2    1    2    0    0  0.39184889416E+02 -0.88782079865E+02  0.43254106165E+03  0.46058025381E+03  0.12499874767E+03 0.  0.
          5    1    3    3  502    0  0.69444681728E+01 -0.27549752204E+02  0.48889908658E+02  0.56740881675E+02  0.47000000000E+01 0. -1.
         -5    1    3    3    0  502 -0.46129357589E+02  0.11633183207E+03  0.40742977106E+03  0.42624185755E+03  0.47000000000E+01 0. -1.
          5    1    4    4  503    0  0.81281397793E+02 -0.81596083810E+02  0.31209363383E+03  0.33269973369E+03  0.47000000000E+01 0. -1.
         -5    1    4    4    0  503 -0.42096508377E+02 -0.71859960550E+01  0.12044742783E+03  0.12788052012E+03  0.47000000000E+01 0. -1.
<mgrwt>
<rscale>  0 0.15825330E+03</rscale>
<asrwt>0</asrwt>
<pdfrwt beam="1">  1        5 0.14095569E+00 0.15825510E+03</pdfrwt>
<pdfrwt beam="2">  1       -5 0.42078650E-02 0.15825510E+03</pdfrwt>
<totfact> 0.86894497E+01</totfact>
</mgrwt>
</event>
<event>
 8    1  0.3694627E-007  0.1352467E+03  0.7546771E-02  0.1219876E+00
         -5   -1    0    0    0  501 -0.00000000000E+00  0.00000000000E+00  0.17749903642E+03  0.17756125121E+03  0.47000000000E+01 0. -1.
          5   -1    0    0  501    0  0.00000000000E+00 -0.00000000000E+00 -0.10369661430E+03  0.10380307229E+03  0.47000000000E+01 0. -1.
         25    2    1    2    0    0  0.47609136156E+02  0.20013379807E+02  0.24648669773E+02  0.13746244450E+03  0.12498480511E+03 0.  0.
         25    2    1    2    0    0 -0.47609136156E+02 -0.20013379807E+02  0.49153752352E+02  0.14390187899E+03  0.12499797675E+03 0.  0.
          5    1    4    4  502    0 -0.64480821214E+02  0.31608722568E+02  0.52816384674E+02  0.89266724690E+02  0.47000000000E+01 0.  1.
         -5    1    4    4    0  502  0.16871685058E+02 -0.51622102375E+02 -0.36626323225E+01  0.54635154304E+02  0.47000000000E+01 0.  1.
          5    1    3    3  503    0  0.11320200179E+00  0.67090272068E+02  0.20437846110E+02  0.70291628054E+02  0.47000000000E+01 0.  1.
         -5    1    3    3    0  503  0.47495934155E+02 -0.47076892261E+02  0.42108236631E+01  0.67170816446E+02  0.47000000000E+01 0.  1.
<mgrwt>
<rscale>  0 0.13524362E+03</rscale>
<asrwt>0</asrwt>
<pdfrwt beam="2">  1        5 0.15966300E-01 0.13524666E+03</pdfrwt>
<pdfrwt beam="1">  1       -5 0.27320519E-01 0.13524666E+03</pdfrwt>
<totfact> 0.32485332E+02</totfact>
</mgrwt>
</event>
<event>
 8    1  0.3694627E-007  0.1345342E+03  0.7546771E-02  0.1220879E+00
         -5   -1    0    0    0  501 -0.00000000000E+00  0.00000000000E+00  0.49274575349E+03  0.49276816819E+03  0.47000000000E+01 0.  1.
          5   -1    0    0  501    0  0.00000000000E+00 -0.00000000000E+00 -0.39737565987E+02  0.40014549236E+02  0.47000000000E+01 0.  1.
         25    2    1    2    0    0  0.30498413140E+02  0.39297459472E+02  0.30156647558E+03  0.33021408344E+03  0.12499823272E+03 0.  0.
         25    2    1    2    0    0 -0.30498413140E+02 -0.39297459472E+02  0.15144171192E+03  0.20256863399E+03  0.12500006336E+03 0.  0.
          5    1    4    4  502    0  0.41275016738E+02 -0.28378042616E+02  0.23811702874E+02  0.55659927265E+02  0.47000000000E+01 0.  1.
         -5    1    4    4    0  502 -0.71773429878E+02 -0.10919416856E+02  0.12763000905E+03  0.14690870672E+03  0.47000000000E+01 0.  1.
          5    1    3    3  503    0 -0.37001459412E+02  0.45580764436E+02  0.86343361778E+02  0.10451784636E+03  0.47000000000E+01 0.  1.
         -5    1    3    3    0  503  0.67499872552E+02 -0.62833049640E+01  0.21522311380E+03  0.22569623707E+03  0.47000000000E+01 0.  1.
<mgrwt>
<rscale>  0 0.13453381E+03</rscale>
<asrwt>0</asrwt>
<pdfrwt beam="2">  1        5 0.61365020E-02 0.13453423E+03</pdfrwt>
<pdfrwt beam="1">  1       -5 0.75830073E-01 0.13453423E+03</pdfrwt>
<totfact> 0.20283764E+02</totfact>
</mgrwt>
</event>
<event>
 8    1  0.3694627E-007  0.1430806E+03  0.7546771E-02  0.1209246E+00
         -5   -1    0    0    0  501 -0.00000000000E+00  0.00000000000E+00  0.52971337846E+03  0.52973422895E+03  0.47000000000E+01 0. -1.
          5   -1    0    0  501    0  0.00000000000E+00 -0.00000000000E+00 -0.59698099275E+02  0.59882827731E+02  0.47000000000E+01 0. -1.
         25    2    1    2    0    0  0.62271698094E+02 -0.31119666066E+02  0.41038334695E+03  0.43460726686E+03  0.12499114751E+03 0.  0.
         25    2    1    2    0    0 -0.62271698094E+02  0.31119666066E+02  0.59631932235E+02  0.15500978982E+03  0.12500347834E+03 0.  0.
          5    1    4    4  502    0 -0.12527822998E+02 -0.44268381935E+02  0.42803284059E+02  0.63014657933E+02  0.47000000000E+01 0. -1.
         -5    1    4    4    0  502 -0.49743875096E+02  0.75388048001E+02  0.16828648176E+02  0.91995131884E+02  0.47000000000E+01 0. -1.
          5    1    3    3  503    0  0.86178999561E+02 -0.37718017175E+02  0.18290199591E+03  0.20572967432E+03  0.47000000000E+01 0.  1.
         -5    1    3    3    0  503 -0.23907301467E+02  0.65983511085E+01  0.22748135103E+03  0.22887759254E+03  0.47000000000E+01 0.  1.
<mgrwt>
<rscale>  0 0.14307794E+03</rscale>
<asrwt>0</asrwt>
<pdfrwt beam="2">  1        5 0.92001368E-02 0.14308063E+03</pdfrwt>
<pdfrwt beam="1">  1       -5 0.81510179E-01 0.14308063E+03</pdfrwt>
<totfact> 0.87736738E+01</totfact>
</mgrwt>
</event>
<event>
 8    1  0.3694627E-007  0.1317562E+03  0.7546771E-02  0.1224873E+00
         -5   -1    0    0    0  501 -0.00000000000E+00  0.00000000000E+00  0.19974452954E+03  0.19979981752E+03  0.47000000000E+01 0. -1.
          5   -1    0    0  501    0  0.00000000000E+00 -0.00000000000E+00 -0.88477599977E+02  0.88602345893E+02  0.47000000000E+01 0. -1.
         25    2    1    2    0    0 -0.38333137370E+02 -0.16299428516E+02  0.75597953356E+02  0.15190320493E+03  0.12499772928E+03 0.  0.
         25    2    1    2    0    0  0.38333137370E+02  0.16299428516E+02  0.35668976203E+02  0.13649895848E+03  0.12499835604E+03 0.  0.
          5    1    3    3  502    0 -0.32485758884E+02 -0.47057317355E+02 -0.12125496509E+02  0.58641566423E+02  0.47000000000E+01 0.  1.
         -5    1    3    3    0  502 -0.58473784859E+01  0.30757888839E+02  0.87723449864E+02  0.93261638507E+02  0.47000000000E+01 0.  1.
          5    1    4    4  503    0 -0.31621744110E+01  0.65069138440E+02  0.30498378027E+02  0.72084902626E+02  0.47000000000E+01 0.  1.
         -5    1    4    4    0  503  0.41495311781E+02 -0.48769709924E+02  0.51705981757E+01  0.64414055852E+02  0.47000000000E+01 0.  1.
<mgrwt>
<rscale>  0 0.13175603E+03</rscale>
<asrwt>0</asrwt>
<pdfrwt beam="2">  1        5 0.13625787E-01 0.13175618E+03</pdfrwt>
<pdfrwt beam="1">  1       -5 0.30743776E-01 0.13175618E+03</pdfrwt>
<totfact> 0.34038766E+02</totfact>
</mgrwt>
</event>
<event>
 8    1  0.3694627E-007  0.1348271E+03  0.7546771E-02  0.1220467E+00
         -5   -1    0    0    0  501 -0.00000000000E+00  0.00000000000E+00  0.31637365542E+02  0.31984572819E+02  0.47000000000E+01 0.  1.
          5   -1    0    0  501    0  0.00000000000E+00 -0.00000000000E+00 -0.57477839194E+03  0.57479760772E+03  0.47000000000E+01 0.  1.
         25    2    1    2    0    0 -0.32467224647E+02 -0.38708770164E+02 -0.29597601416E+03  0.32523487325E+03  0.12499372888E+03 0.  0.
         25    2    1    2    0    0  0.32467224647E+02  0.38708770164E+02 -0.24716501224E+03  0.28154730729E+03  0.12500341356E+03 0.  0.
          5    1    3    3  502    0  0.30701295822E+02  0.24789530697E+02 -0.53071662742E+02  0.66300692180E+02  0.47000000000E+01 0. -1.
         -5    1    3    3    0  502 -0.63168520469E+02 -0.63498300861E+02 -0.24290435142E+03  0.25893418108E+03  0.47000000000E+01 0. -1.
          5    1    4    4  503    0  0.18221522376E+02 -0.45459618565E+02 -0.84353439188E+02  0.97653435682E+02  0.47000000000E+01 0. -1.
         -5    1    4    4    0  503  0.14245702271E+02  0.84168388728E+02 -0.16281157305E+03  0.18389387160E+03  0.47000000000E+01 0. -1.
<mgrwt>
<rscale>  0 0.13482484E+03</rscale>
<asrwt>0</asrwt>
<pdfrwt beam="2">  1        5 0.88455624E-01 0.13482709E+03</pdfrwt>
<pdfrwt beam="1">  1       -5 0.48954738E-02 0.13482709E+03</pdfrwt>
<totfact> 0.20696772E+02</totfact>
</mgrwt>
</event>
<event>
 8    1  0.3694627E-007  0.1263779E+03  0.7546771E-02  0.1232934E+00
         -5   -1    0    0    0  501 -0.00000000000E+00  0.00000000000E+00  0.12211508923E+03  0.12220550322E+03  0.47000000000E+01 0. -1.
          5   -1    0    0  501    0  0.00000000000E+00 -0.00000000000E+00 -0.13185320660E+03  0.13193694741E+03  0.47000000000E+01 0. -1.
         25    2    1    2    0    0  0.14644708422E+02 -0.11456368899E+02  0.75077630044E+01  0.12660072949E+03  0.12500264929E+03 0.  0.
         25    2    1    2    0    0 -0.14644708422E+02  0.11456368899E+02 -0.17245880380E+02  0.12754172113E+03  0.12499501737E+03 0.  0.
          5    1    4    4  502    0  0.37065222650E+02 -0.34155517147E+02  0.12748149299E+02  0.52201871540E+02  0.47000000000E+01 0. -1.
         -5    1    4    4    0  502 -0.51709931073E+02  0.45611886047E+02 -0.29994029680E+02  0.75339849593E+02  0.47000000000E+01 0. -1.
          5    1    3    3  503    0  0.21103002362E+02 -0.43365313223E+02  0.52125145882E+02  0.71168869127E+02  0.47000000000E+01 0. -1.
         -5    1    3    3    0  503 -0.64582939399E+01  0.31908944324E+02 -0.44617382877E+02  0.55431860363E+02  0.47000000000E+01 0. -1.
<mgrwt>
<rscale>  0 0.12637603E+03</rscale>
<asrwt>0</asrwt>
<pdfrwt beam="2">  1        5 0.20298505E-01 0.12637792E+03</pdfrwt>
<pdfrwt beam="1">  1       -5 0.18800333E-01 0.12637792E+03</pdfrwt>
<totfact> 0.41307362E+02</totfact>
</mgrwt>
</event>
<event>
 8    1  0.3694627E-007  0.1449308E+03  0.7546771E-02  0.1206849E+00
         -5   -1    0    0    0  501 -0.00000000000E+00  0.00000000000E+00  0.21547259527E+02  0.22053897459E+02  0.47000000000E+01 0.  1.
          5   -1    0    0  501    0  0.00000000000E+00 -0.00000000000E+00 -0.97577767438E+03  0.97578899349E+03  0.47000000000E+01 0.  1.
         25    2    1    2    0    0  0.72691317427E+02 -0.97759316155E+01 -0.41977862587E+03  0.44408874469E+03  0.12498448686E+03 0.  0.
         25    2    1    2    0    0 -0.72691317427E+02  0.97759316155E+01 -0.53445178898E+03  0.55375414626E+03  0.12500137313E+03 0.  0.
          5    1    4    4  502    0 -0.26261347312E+02 -0.12536197405E+02 -0.17623443307E+02  0.34343709206E+02  0.47000000000E+01 0. -1.
         -5    1    4    4    0  502 -0.46429970115E+02  0.22312129020E+02 -0.51682834567E+03  0.51941043705E+03  0.47000000000E+01 0. -1.
          5    1    3    3  503    0 -0.23341777324E+02  0.29155753520E+02 -0.73085242070E+02  0.82209726556E+02  0.47000000000E+01 0.  1.
         -5    1    3    3    0  503  0.96033094751E+02 -0.38931685136E+02 -0.34669338380E+03  0.36187901814E+03  0.47000000000E+01 0.  1.
<mgrwt>
<rscale>  0 0.14492717E+03</rscale>
<asrwt>0</asrwt>
<pdfrwt beam="2">  1        5 0.15015945E+00 0.14493081E+03</pdfrwt>
<pdfrwt beam="1">  1       -5 0.33548066E-02 0.14493081E+03</pdfrwt>
<totfact> 0.10329699E+02</totfact>
</mgrwt>
</event>
<event>
 8    1  0.3694627E-007  0.1642337E+03  0.7546771E-02  0.1183999E+00
         -5   -1    0    0    0  501 -0.00000000000E+00  0.00000000000E+00  0.22230612251E+03  0.22235580070E+03  0.47000000000E+01 0. -1.
          5   -1    0    0  501    0  0.00000000000E+00 -0.00000000000E+00 -0.12174689367E+03  0.12183758090E+03  0.47000000000E+01 0. -1.
         25    2    1    2    0    0  0.24217615759E+01  0.10649816471E+03  0.61577021068E+02  0.17539792685E+03  0.12499991681E+03 0.  0.
         25    2    1    2    0    0 -0.24217615759E+01 -0.10649816471E+03  0.38982207769E+02  0.16879545475E+03  0.12499827601E+03 0.  0.
          5    1    3    3  502    0 -0.49335237493E+02  0.91472946983E+02  0.17244113747E+02  0.10545480144E+03  0.47000000000E+01 0. -1.
         -5    1    3    3    0  502  0.51756999068E+02  0.15025217730E+02  0.44332907321E+02  0.69943125409E+02  0.47000000000E+01 0. -1.
          5    1    4    4  503    0  0.29166550572E+02 -0.45956416170E+02 -0.37417425068E+02  0.66218075767E+02  0.47000000000E+01 0. -1.
         -5    1    4    4    0  503 -0.31588312148E+02 -0.60541748543E+02  0.76399632837E+02  0.10257737898E+03  0.47000000000E+01 0. -1.
<mgrwt>
<rscale>  0 0.16423337E+03</rscale>
<asrwt>0</asrwt>
<pdfrwt beam="2">  1        5 0.18741089E-01 0.16423368E+03</pdfrwt>
<pdfrwt beam="1">  1       -5 0.34211739E-01 0.16423368E+03</pdfrwt>
<totfact> 0.16560479E+02</totfact>
</mgrwt>
</event>
<event>
 8    1  0.3694627E-007  0.1466554E+03  0.7546771E-02  0.1204646E+00
          5   -1    0    0  501    0  0.00000000000E+00  0.00000000000E+00  0.36206210421E+03  0.36209260874E+03  0.47000000000E+01 0.  1.
         -5   -1    0    0    0  501 -0.00000000000E+00 -0.00000000000E+00 -0.64203179546E+02  0.64374981660E+02  0.47000000000E+01 0.  1.
         25    2    1    2    0    0 -0.23025360197E+01  0.76666745645E+02  0.89955136752E+02  0.17204569312E+03  0.12499880932E+03 0.  0.
         25    2    1    2    0    0  0.23025360197E+01 -0.76666745645E+02  0.20790378791E+03  0.25442189728E+03  0.12499370076E+03 0.  0.
          5    1    3    3  502    0  0.39023874066E+02 -0.15723856646E+02  0.11408850177E+02  0.43844660762E+02  0.47000000000E+01 0.  1.
         -5    1    3    3    0  502 -0.41326410086E+02  0.92390602291E+02  0.78546286574E+02  0.12820103235E+03  0.47000000000E+01 0.  1.
          5    1    4    4  503    0  0.49595755466E+02  0.53899019416E+01  0.54145734953E+02  0.73774254431E+02  0.47000000000E+01 0.  1.
         -5    1    4    4    0  503 -0.47293219446E+02 -0.82056647586E+02  0.15375805296E+03  0.18064764285E+03  0.47000000000E+01 0.  1.
<mgrwt>
<rscale>  0 0.14665427E+03</rscale>
<asrwt>0</asrwt>
<pdfrwt beam="1">  1        5 0.55717423E-01 0.14665536E+03</pdfrwt>
<pdfrwt beam="2">  1       -5 0.98929745E-02 0.14665536E+03</pdfrwt>
<totfact> 0.18275745E+02</totfact>
</mgrwt>
</event>
<event>
 8    1  0.3694627E-007  0.1300694E+03  0.7546771E-02  0.1227359E+00
          5   -1    0    0  501    0  0.00000000000E+00  0.00000000000E+00  0.11746935363E+04  0.11747029387E+04  0.47000000000E+01 0. -1.
         -5   -1    0    0    0  501 -0.00000000000E+00 -0.00000000000E+00 -0.14032476018E+02  0.14798661534E+02  0.47000000000E+01 0. -1.
         25    2    1    2    0    0 -0.10929672132E+02 -0.34257554916E+02  0.55565780928E+03  0.57067450128E+03  0.12498298923E+03 0.  0.
         25    2    1    2    0    0  0.10929672132E+02  0.34257554916E+02  0.60500325095E+03  0.61882709892E+03  0.12500002756E+03 0.  0.
          5    1    4    4  502    0  0.19617737541E+01  0.81001847249E+02  0.34093259264E+03  0.35046008408E+03  0.47000000000E+01 0. -1.
         -5    1    4    4    0  502  0.89678983783E+01 -0.46744292333E+02  0.26407065832E+03  0.26836701484E+03  0.47000000000E+01 0. -1.
          5    1    3    3  503    0 -0.51711041148E+02  0.18169433492E+02  0.35550901750E+03  0.35974006117E+03  0.47000000000E+01 0. -1.
         -5    1    3    3    0  503  0.40781369016E+02 -0.52426988408E+02  0.20014879178E+03  0.21093444011E+03  0.47000000000E+01 0. -1.
<mgrwt>
<rscale>  0 0.13006529E+03</rscale>
<asrwt>0</asrwt>
<pdfrwt beam="1">  1        5 0.18078175E+00 0.13006938E+03</pdfrwt>
<pdfrwt beam="2">  1       -5 0.22185030E-02 0.13006938E+03</pdfrwt>
<totfact> 0.11479261E+02</totfact>
</mgrwt>
</event>
<event>
 8    1  0.3694627E-007  0.1568291E+03  0.7546771E-02  0.1192325E+00
          5   -1    0    0  501    0  0.00000000000E+00  0.00000000000E+00  0.12204865238E+03  0.12213911556E+03  0.47000000000E+01 0.  1.
         -5   -1    0    0    0  501 -0.00000000000E+00 -0.00000000000E+00 -0.21584351202E+03  0.21589467728E+03  0.47000000000E+01 0.  1.
         25    2    1    2    0    0  0.80915834722E+02  0.49219523049E+02 -0.90720766001E+02  0.18117452172E+03  0.12499606466E+03 0.  0.
         25    2    1    2    0    0 -0.80915834722E+02 -0.49219523049E+02 -0.30740936309E+01  0.15685927112E+03  0.12500178849E+03 0.  0.
          5    1    3    3  502    0 -0.32185101320E+02  0.11435278801E+00 -0.27161534358E+02  0.42376087269E+02  0.47000000000E+01 0. -1.
         -5    1    3    3    0  502  0.11310093604E+03  0.49105170261E+02 -0.63559231643E+02  0.13879843445E+03  0.47000000000E+01 0. -1.
          5    1    4    4  503    0 -0.83857617870E+02 -0.72545087411E+02 -0.35509847414E+02  0.11652437104E+03  0.47000000000E+01 0. -1.
         -5    1    4    4    0  503  0.29417831477E+01  0.23325564362E+02  0.32435753784E+02  0.40334900079E+02  0.47000000000E+01 0. -1.
<mgrwt>
<rscale>  0 0.15682800E+03</rscale>
<asrwt>0</asrwt>
<pdfrwt beam="1">  1        5 0.18787610E-01 0.15682915E+03</pdfrwt>
<pdfrwt beam="2">  1       -5 0.33217589E-01 0.15682915E+03</pdfrwt>
<totfact> 0.17234838E+02</totfact>
</mgrwt>
</event>
<event>
 8    1  0.3694627E-007  0.2108760E+03  0.7546771E-02  0.1140874E+00
         -5   -1    0    0    0  501 -0.00000000000E+00  0.00000000000E+00  0.90769475736E+02  0.90891076159E+02  0.47000000000E+01 0.  1.
          5   -1    0    0  501    0  0.00000000000E+00 -0.00000000000E+00 -0.51994590478E+03  0.51996714694E+03  0.47000000000E+01 0.  1.
         25    2    1    2    0    0  0.13636495138E+03 -0.10123006949E+03 -0.14062125233E+03  0.25346102111E+03  0.12500090272E+03 0.  0.
         25    2    1    2    0    0 -0.13636495138E+03  0.10123006949E+03 -0.28855517671E+03  0.35739720199E+03  0.12500297218E+03 0.  0.
          5    1    3    3  502    0  0.72033634180E+02 -0.13402686860E+02 -0.12275616449E+03  0.14303720631E+03  0.47000000000E+01 0. -1.
         -5    1    3    3    0  502  0.64331317197E+02 -0.87827382625E+02 -0.17865087842E+02  0.11042381480E+03  0.47000000000E+01 0. -1.
          5    1    4    4  503    0 -0.53339581671E+02  0.27592093398E+02 -0.21714907182E+03  0.22534916016E+03  0.47000000000E+01 0. -1.
         -5    1    4    4    0  503 -0.83025369706E+02  0.73637976087E+02 -0.71406104895E+02  0.13204804184E+03  0.47000000000E+01 0. -1.
<mgrwt>
<rscale>  0 0.21087565E+03</rscale>
<asrwt>0</asrwt>
<pdfrwt beam="2">  1        5 0.80002664E-01 0.21087596E+03</pdfrwt>
<pdfrwt beam="1">  1       -5 0.13975523E-01 0.21087596E+03</pdfrwt>
<totfact> 0.48779683E+01</totfact>
</mgrwt>
</event>
<event>
 8    1  0.3694627E-007  0.1490164E+03  0.7546771E-02  0.1201688E+00
          5   -1    0    0  501    0  0.00000000000E+00  0.00000000000E+00  0.51185252674E+03  0.51187410477E+03  0.47000000000E+01 0. -1.
         -5   -1    0    0    0  501 -0.00000000000E+00 -0.00000000000E+00 -0.73792021129E+02  0.73941547065E+02  0.47000000000E+01 0. -1.
         25    2    1    2    0    0 -0.63513867385E+02  0.50468409189E+02  0.30820636699E+02  0.15216811801E+03  0.12499661122E+03 0.  0.
         25    2    1    2    0    0  0.63513867385E+02 -0.50468409189E+02  0.40723986891E+03  0.43364753382E+03  0.12499920431E+03 0.  0.
          5    1    3    3  502    0 -0.83281255629E+02 -0.10974497961E+02  0.13853715708E+02  0.85265600235E+02  0.47000000000E+01 0. -1.
         -5    1    3    3    0  502  0.19767388243E+02  0.61442907150E+02  0.16966920991E+02  0.66902517778E+02  0.47000000000E+01 0. -1.
          5    1    4    4  503    0  0.15931004815E+02  0.39934360744E+02  0.81991479379E+02  0.92699745271E+02  0.47000000000E+01 0. -1.
         -5    1    4    4    0  503  0.47582862570E+02 -0.90402769934E+02  0.32524838953E+03  0.34094778855E+03  0.47000000000E+01 0. -1.
<mgrwt>
<rscale>  0 0.14901581E+03</rscale>
<asrwt>0</asrwt>
<pdfrwt beam="1">  1        5 0.78759705E-01 0.14901635E+03</pdfrwt>
<pdfrwt beam="2">  1       -5 0.11365780E-01 0.14901635E+03</pdfrwt>
<totfact> 0.66454422E+01</totfact>
</mgrwt>
</event>
<event>
 8    1  0.3694627E-007  0.1402815E+03  0.7546771E-02  0.1212958E+00
          5   -1    0    0  501    0  0.00000000000E+00  0.00000000000E+00  0.11170860912E+03  0.11180743871E+03  0.47000000000E+01 0. -1.
         -5   -1    0    0    0  501 -0.00000000000E+00 -0.00000000000E+00 -0.19443563169E+03  0.19449242883E+03  0.47000000000E+01 0. -1.
         25    2    1    2    0    0  0.28018074157E+02 -0.57115830076E+02 -0.88593836183E+02  0.16589576649E+03  0.12500122802E+03 0.  0.
         25    2    1    2    0    0 -0.28018074157E+02  0.57115830076E+02  0.58668136116E+01  0.14040410104E+03  0.12502664341E+03 0.  0.
          5    1    3    3  502    0 -0.42783957551E+02 -0.54049457831E+02 -0.47410029827E+02  0.83795058588E+02  0.47000000000E+01 0. -1.
         -5    1    3    3    0  502  0.70802031707E+02 -0.30663722446E+01 -0.41183806355E+02  0.82100707905E+02  0.47000000000E+01 0. -1.
          5    1    4    4  503    0  0.48928078420E+02  0.11045568871E+02 -0.37673399098E+00  0.50380486084E+02  0.47000000000E+01 0. -1.
         -5    1    4    4    0  503 -0.76946152577E+02  0.46070261205E+02  0.62435476026E+01  0.90023614960E+02  0.47000000000E+01 0. -1.
<mgrwt>
<rscale>  0 0.14027581E+03</rscale>
<asrwt>0</asrwt>
<pdfrwt beam="1">  1        5 0.17197911E-01 0.14028147E+03</pdfrwt>
<pdfrwt beam="2">  1       -5 0.29925145E-01 0.14028147E+03</pdfrwt>
<totfact> 0.24042543E+02</totfact>
</mgrwt>
</event>
<event>
 8    1  0.3694627E-007  0.1494503E+03  0.7546771E-02  0.1201154E+00
         -5   -1    0    0    0  501 -0.00000000000E+00  0.00000000000E+00  0.47887764578E+03  0.47890070957E+03  0.47000000000E+01 0.  1.
          5   -1    0    0  501    0  0.00000000000E+00 -0.00000000000E+00 -0.55366374584E+02  0.55565505798E+02  0.47000000000E+01 0.  1.
         25    2    1    2    0    0  0.69947733319E+02 -0.42646251478E+02  0.31849007632E+03  0.35180573423E+03  0.12497982941E+03 0.  0.
         25    2    1    2    0    0 -0.69947733319E+02  0.42646251478E+02  0.10502119488E+03  0.18266048115E+03  0.12499604728E+03 0.  0.
          5    1    3    3  502    0 -0.11432416536E+02 -0.45760462336E+02  0.21430226948E+03  0.21948182787E+03  0.47000000000E+01 0.  1.
         -5    1    3    3    0  502  0.81380149855E+02  0.31142108583E+01  0.10418780684E+03  0.13232390636E+03  0.47000000000E+01 0.  1.
          5    1    4    4  503    0 -0.56202920988E+02  0.67737621215E+02  0.12088790693E+03  0.14960992513E+03  0.47000000000E+01 0.  1.
         -5    1    4    4    0  503 -0.13744812330E+02 -0.25091369738E+02 -0.15866712053E+02  0.33050556012E+02  0.47000000000E+01 0.  1.
<mgrwt>
<rscale>  0 0.14944694E+03</rscale>
<asrwt>0</asrwt>
<pdfrwt beam="2">  1        5 0.85349957E-02 0.14945033E+03</pdfrwt>
<pdfrwt beam="1">  1       -5 0.73690576E-01 0.14945033E+03</pdfrwt>
<totfact> 0.12775245E+02</totfact>
</mgrwt>
</event>
<event>
 8    1  0.3694627E-007  0.1451004E+03  0.7546771E-02  0.1206639E+00
         -5   -1    0    0    0  501 -0.00000000000E+00  0.00000000000E+00  0.34379261532E+03  0.34382474074E+03  0.47000000000E+01 0. -1.
          5   -1    0    0  501    0  0.00000000000E+00 -0.00000000000E+00 -0.62813656148E+02  0.62989248278E+02  0.47000000000E+01 0. -1.
         25    2    1    2    0    0 -0.69364502813E+02  0.24789768367E+02  0.17401905795E+03  0.22655156814E+03  0.12496805044E+03 0.  0.
         25    2    1    2    0    0  0.69364502813E+02 -0.24789768367E+02  0.10695990122E+03  0.18026242088E+03  0.12501261155E+03 0.  0.
          5    1    4    4  502    0  0.57792644499E+02 -0.57403266896E+02  0.16429475833E+02  0.83229456833E+02  0.47000000000E+01 0.  1.
         -5    1    4    4    0  502  0.11571858314E+02  0.32613498529E+02  0.90530425388E+02  0.97032964049E+02  0.47000000000E+01 0.  1.
          5    1    3    3  503    0  0.56591525412E+01  0.41126644868E+01  0.14203234014E+03  0.14228216916E+03  0.47000000000E+01 0.  1.
         -5    1    3    3    0  503 -0.75023655354E+02  0.20677103880E+02  0.31986717811E+02  0.84269398977E+02  0.47000000000E+01 0.  1.
<mgrwt>
<rscale>  0 0.14509078E+03</rscale>
<asrwt>0</asrwt>
<pdfrwt beam="2">  1        5 0.96796177E-02 0.14510038E+03</pdfrwt>
<pdfrwt beam="1">  1       -5 0.52907150E-01 0.14510038E+03</pdfrwt>
<totfact> 0.21145993E+02</totfact>
</mgrwt>
</event>
<event>
 8    1  0.3694627E-007  0.1407630E+03  0.7546771E-02  0.1212306E+00
         -5   -1    0    0    0  501 -0.00000000000E+00  0.00000000000E+00  0.69142861125E+02  0.69302418750E+02  0.47000000000E+01 0.  1.
          5   -1    0    0  501    0  0.00000000000E+00 -0.00000000000E+00 -0.29420182803E+03  0.29423936789E+03  0.47000000000E+01 0.  1.
         25    2    1    2    0    0  0.20568121565E+02  0.61363289663E+02 -0.82299319990E+02  0.16305606294E+03  0.12500240256E+03 0.  0.
         25    2    1    2    0    0 -0.20568121565E+02 -0.61363289663E+02 -0.14275964692E+03  0.20048572371E+03  0.12500283068E+03 0.  0.
          5    1    3    3  502    0  0.16072438963E+01  0.42918306928E+02 -0.11375794895E+03  0.12168617527E+03  0.47000000000E+01 0.  1.
         -5    1    3    3    0  502  0.18960877669E+02  0.18444982735E+02  0.31458628956E+02  0.41369887670E+02  0.47000000000E+01 0.  1.
          5    1    4    4  503    0  0.65117045655E+01  0.67281013788E+01 -0.12434122417E+03  0.12478180826E+03  0.47000000000E+01 0. -1.
         -5    1    4    4    0  503 -0.27079826131E+02 -0.68091391042E+02 -0.18418422746E+02  0.75703915445E+02  0.47000000000E+01 0. -1.
<mgrwt>
<rscale>  0 0.14076286E+03</rscale>
<asrwt>0</asrwt>
<pdfrwt beam="2">  1        5 0.45276981E-01 0.14076295E+03</pdfrwt>
<pdfrwt beam="1">  1       -5 0.10652525E-01 0.14076295E+03</pdfrwt>
<totfact> 0.24607070E+02</totfact>
</mgrwt>
</event>
<event>
 8    1  0.3694627E-007  0.1560751E+03  0.7546771E-02  0.1193210E+00
          5   -1    0    0  501    0  0.00000000000E+00  0.00000000000E+00  0.42897152680E+03  0.42899727366E+03  0.47000000000E+01 0.  1.
         -5   -1    0    0    0  501 -0.00000000000E+00 -0.00000000000E+00 -0.58170478965E+02  0.58360043035E+02  0.47000000000E+01 0.  1.
         25    2    1    2    0    0 -0.64835326323E+02 -0.67308266044E+02  0.14608540278E+03  0.21377647673E+03  0.12500165951E+03 0.  0.
         25    2    1    2    0    0  0.64835326323E+02  0.67308266044E+02  0.22471564505E+03  0.27358083996E+03  0.12496132459E+03 0.  0.
          5    1    3    3  502    0  0.35794688378E+02 -0.34048153116E+02  0.53461821787E+02  0.72943764884E+02  0.47000000000E+01 0. -1.
         -5    1    3    3    0  502 -0.10063001470E+03 -0.33260112928E+02  0.92623580996E+02  0.14083271185E+03  0.47000000000E+01 0. -1.
          5    1    4    4  503    0  0.80288735751E+01 -0.35443846767E+02  0.36665958057E+02  0.51838321392E+02  0.47000000000E+01 0. -1.
         -5    1    4    4    0  503  0.56806452748E+02  0.10275211281E+03  0.18804968699E+03  0.22174251856E+03  0.47000000000E+01 0. -1.
<mgrwt>
<rscale>  0 0.15606702E+03</rscale>
<asrwt>0</asrwt>
<pdfrwt beam="1">  1        5 0.66012183E-01 0.15607510E+03</pdfrwt>
<pdfrwt beam="2">  1       -5 0.89658667E-02 0.15607510E+03</pdfrwt>
<totfact> 0.15247978E+02</totfact>
</mgrwt>
</event>
<event>
 8    1  0.3694627E-007  0.1268011E+03  0.7546771E-02  0.1232315E+00
         -5   -1    0    0    0  501 -0.00000000000E+00  0.00000000000E+00  0.12018191028E+03  0.12027377752E+03  0.47000000000E+01 0. -1.
          5   -1    0    0  501    0  0.00000000000E+00 -0.00000000000E+00 -0.13443699464E+03  0.13451912699E+03  0.47000000000E+01 0. -1.
         25    2    1    2    0    0  0.11132484778E+02  0.17535091294E+02  0.34572416281E+01  0.12676069465E+03  0.12499963817E+03 0.  0.
         25    2    1    2    0    0 -0.11132484778E+02 -0.17535091294E+02 -0.17712325985E+02  0.12803220986E+03  0.12508840325E+03 0.  0.
          5    1    3    3  502    0  0.68061232845E+02  0.77213355947E+01 -0.57512298998E+00  0.68661278798E+02  0.47000000000E+01 0.  1.
         -5    1    3    3    0  502 -0.56928748067E+02  0.98137556992E+01  0.40323646180E+01  0.58099415847E+02  0.47000000000E+01 0.  1.
          5    1    4    4  503    0 -0.32596458519E+02  0.35210993826E+02 -0.43874949670E+02  0.65187762676E+02  0.47000000000E+01 0. -1.
         -5    1    4    4    0  503  0.21463973741E+02 -0.52746085120E+02  0.26162623686E+02  0.62844447188E+02  0.47000000000E+01 0. -1.
<mgrwt>
<rscale>  0 0.12677921E+03</rscale>
<asrwt>0</asrwt>
<pdfrwt beam="2">  1        5 0.20695999E-01 0.12680111E+03</pdfrwt>
<pdfrwt beam="1">  1       -5 0.18502909E-01 0.12680111E+03</pdfrwt>
<totfact> 0.41080144E+02</totfact>
</mgrwt>
</event>
<event>
 8    1  0.3694627E-007  0.1355629E+03  0.7546771E-02  0.1219429E+00
          5   -1    0    0  501    0  0.00000000000E+00  0.00000000000E+00  0.71209240801E+03  0.71210791847E+03  0.47000000000E+01 0. -1.
         -5   -1    0    0    0  501 -0.00000000000E+00 -0.00000000000E+00 -0.45766757639E+02  0.46007457056E+02  0.47000000000E+01 0. -1.
         25    2    1    2    0    0  0.22994449206E+02 -0.47152012651E+02  0.82355804174E+02  0.15861835615E+03  0.12500098974E+03 0.  0.
         25    2    1    2    0    0 -0.22994449206E+02  0.47152012651E+02  0.58396984620E+03  0.59949701938E+03  0.12499535183E+03 0.  0.
          5    1    4    4  502    0  0.39937646884E+02  0.52061217378E+02  0.38860904731E+03  0.39413762526E+03  0.47000000000E+01 0. -1.
         -5    1    4    4    0  502 -0.62932096090E+02 -0.49092047273E+01  0.19536079889E+03  0.20535939411E+03  0.47000000000E+01 0. -1.
          5    1    3    3  503    0 -0.39821806501E+02 -0.13272896896E+02 -0.84008417026E+01  0.43065185548E+02  0.47000000000E+01 0.  1.
         -5    1    3    3    0  503  0.62816255707E+02 -0.33879115755E+02  0.90756645877E+02  0.11555317060E+03  0.47000000000E+01 0.  1.
<mgrwt>
<rscale>  0 0.13556162E+03</rscale>
<asrwt>0</asrwt>
<pdfrwt beam="1">  1        5 0.10957239E+00 0.13556292E+03</pdfrwt>
<pdfrwt beam="2">  1       -5 0.70607479E-02 0.13556292E+03</pdfrwt>
<totfact> 0.66742613E+01</totfact>
</mgrwt>
</event>
<event>
 8    1  0.3694627E-007  0.1271233E+03  0.7546771E-02  0.1231806E+00
         -5   -1    0    0    0  501 -0.00000000000E+00  0.00000000000E+00  0.69336776806E+03  0.69338369737E+03  0.47000000000E+01 0. -1.
          5   -1    0    0  501    0  0.00000000000E+00 -0.00000000000E+00 -0.38663673597E+02  0.38948294648E+02  0.47000000000E+01 0. -1.
         25    2    1    2    0    0 -0.13915394502E+02  0.18137560386E+02  0.55886294836E+03  0.57312819054E+03  0.12500207376E+03 0.  0.
         25    2    1    2    0    0  0.13915394502E+02 -0.18137560386E+02  0.95841146098E+02  0.15920380147E+03  0.12505085293E+03 0.  0.
          5    1    4    4  502    0  0.51918099998E+02 -0.40512135840E+02  0.16094943634E+02  0.67954834032E+02  0.47000000000E+01 0.  1.
         -5    1    4    4    0  502 -0.38002705496E+02  0.22374575454E+02  0.79746202465E+02  0.91248967442E+02  0.47000000000E+01 0.  1.
          5    1    3    3  503    0 -0.50991761703E+01  0.15240872865E+02  0.28107430568E+01  0.16978694880E+02  0.47000000000E+01 0. -1.
         -5    1    3    3    0  503 -0.88162183317E+01  0.28966875212E+01  0.55605220530E+03  0.55614949566E+03  0.47000000000E+01 0. -1.
<mgrwt>
<rscale>  0 0.12711127E+03</rscale>
<asrwt>0</asrwt>
<pdfrwt beam="2">  1        5 0.59713770E-02 0.12712327E+03</pdfrwt>
<pdfrwt beam="1">  1       -5 0.10669508E+00 0.12712327E+03</pdfrwt>
<totfact> 0.92636947E+01</totfact>
</mgrwt>
</event>
<event>
 8    1  0.3694627E-007  0.1531577E+03  0.7546771E-02  0.1196649E+00
          5   -1    0    0  501    0  0.00000000000E+00  0.00000000000E+00  0.44059528569E+03  0.44062035334E+03  0.47000000000E+01 0.  1.
         -5   -1    0    0    0  501 -0.00000000000E+00 -0.00000000000E+00 -0.58149147840E+02  0.58338781223E+02  0.47000000000E+01 0.  1.
         25    2    1    2    0    0 -0.57317271448E+02 -0.67433776295E+02  0.11788477577E+03  0.19326319739E+03  0.12498503637E+03 0.  0.
         25    2    1    2    0    0  0.57317271448E+02  0.67433776295E+02  0.26456136208E+03  0.30569593717E+03  0.12499883160E+03 0.  0.
          5    1    4    4  502    0  0.64499620574E+02  0.89134835118E+02  0.13581415057E+03  0.17485077460E+03  0.47000000000E+01 0.  1.
         -5    1    4    4    0  502 -0.71823491263E+01 -0.21701058823E+02  0.12874721152E+03  0.13084516256E+03  0.47000000000E+01 0.  1.
          5    1    3    3  503    0 -0.18809564852E+02  0.16095080478E+02  0.95109838903E+02  0.98391172377E+02  0.47000000000E+01 0. -1.
         -5    1    3    3    0  503 -0.38507706596E+02 -0.83528856773E+02  0.22774936866E+02  0.94872025014E+02  0.47000000000E+01 0. -1.
<mgrwt>
<rscale>  0 0.15315492E+03</rscale>
<asrwt>0</asrwt>
<pdfrwt beam="1">  1        5 0.67800409E-01 0.15315773E+03</pdfrwt>
<pdfrwt beam="2">  1       -5 0.89625378E-02 0.15315773E+03</pdfrwt>
<totfact> 0.14285079E+02</totfact>
</mgrwt>
</event>
<event>
 8    1  0.3694627E-007  0.1273586E+03  0.7546771E-02  0.1231430E+00
         -5   -1    0    0    0  501 -0.00000000000E+00  0.00000000000E+00  0.25930083626E+03  0.25934342808E+03  0.47000000000E+01 0. -1.
          5   -1    0    0  501    0  0.00000000000E+00 -0.00000000000E+00 -0.69552425000E+02  0.69711045204E+02  0.47000000000E+01 0. -1.
         25    2    1    2    0    0 -0.23268683633E+02 -0.72434962205E+01  0.14749671008E+03  0.19487015708E+03  0.12500079504E+03 0.  0.
         25    2    1    2    0    0  0.23268683633E+02  0.72434962205E+01  0.42251701181E+02  0.13418431620E+03  0.12500529823E+03 0.  0.
          5    1    3    3  502    0 -0.38579736484E+02 -0.45040493886E+02  0.14135420973E+03  0.15336278807E+03  0.47000000000E+01 0.  1.
         -5    1    3    3    0  502  0.15311052851E+02  0.37796997665E+02  0.61425003541E+01  0.41507369014E+02  0.47000000000E+01 0.  1.
          5    1    4    4  503    0  0.38706445479E+02  0.31262178365E+02 -0.28649588419E+02  0.57605569473E+02  0.47000000000E+01 0. -1.
         -5    1    4    4    0  503 -0.15437761846E+02 -0.24018682144E+02  0.70901289601E+02  0.76578746724E+02  0.47000000000E+01 0. -1.
<mgrwt>
<rscale>  0 0.12735754E+03</rscale>
<asrwt>0</asrwt>
<pdfrwt beam="2">  1        5 0.10715851E-01 0.12735865E+03</pdfrwt>
<pdfrwt beam="1">  1       -5 0.39907915E-01 0.12735865E+03</pdfrwt>
<totfact> 0.30513391E+02</totfact>
</mgrwt>
</event>
<event>
 8    1  0.3694627E-007  0.1418850E+03  0.7546771E-02  0.1210820E+00
          5   -1    0    0  501    0  0.00000000000E+00  0.00000000000E+00  0.28698250391E+02  0.29080570412E+02  0.47000000000E+01 0. -1.
         -5   -1    0    0    0  501 -0.00000000000E+00 -0.00000000000E+00 -0.69671143100E+03  0.69672728386E+03  0.47000000000E+01 0. -1.
         25    2    1    2    0    0 -0.65990224532E+02 -0.12146419260E+02 -0.34202819997E+03  0.37028995767E+03  0.12501647069E+03 0.  0.
         25    2    1    2    0    0  0.65990224532E+02  0.12146419260E+02 -0.32598498064E+03  0.35551789661E+03  0.12499808788E+03 0.  0.
          5    1    4    4  502    0  0.11058457141E+02 -0.18059926888E+01  0.93893895221E+01  0.15355836660E+02  0.47000000000E+01 0.  1.
         -5    1    4    4    0  502  0.54931767392E+02  0.13952411948E+02 -0.33537437016E+03  0.34016205995E+03  0.47000000000E+01 0.  1.
          5    1    3    3  503    0 -0.51184977529E+02 -0.62986824255E+02 -0.26109420774E+03  0.27345843792E+03  0.47000000000E+01 0.  1.
         -5    1    3    3    0  503 -0.14805247004E+02  0.50840404996E+02 -0.80933992231E+02  0.96831519752E+02  0.47000000000E+01 0.  1.
<mgrwt>
<rscale>  0 0.14188099E+03</rscale>
<asrwt>0</asrwt>
<pdfrwt beam="1">  1        5 0.44457447E-02 0.14188504E+03</pdfrwt>
<pdfrwt beam="2">  1       -5 0.10721699E+00 0.14188504E+03</pdfrwt>
<totfact> 0.15499187E+02</totfact>
</mgrwt>
</event>
<event>
 8    1  0.3694627E-007  0.1404807E+03  0.7546771E-02  0.1212686E+00
          5   -1    0    0  501    0  0.00000000000E+00  0.00000000000E+00  0.27611673149E+02  0.28008828860E+02  0.47000000000E+01 0. -1.
         -5   -1    0    0    0  501 -0.00000000000E+00 -0.00000000000E+00 -0.71391236015E+03  0.71392783107E+03  0.47000000000E+01 0. -1.
         25    2    1    2    0    0 -0.63576975928E+02  0.81527397211E+01 -0.37332431905E+03  0.39888079273E+03  0.12500536223E+03 0.  0.
         25    2    1    2    0    0  0.63576975928E+02 -0.81527397211E+01 -0.31297636795E+03  0.34305586719E+03  0.12499848834E+03 0.  0.
          5    1    3    3  502    0  0.35527475493E+02 -0.98860263841E+01 -0.70405329508E+02  0.79617431859E+02  0.47000000000E+01 0.  1.
         -5    1    3    3    0  502 -0.99104451421E+02  0.18038766105E+02 -0.30291898954E+03  0.31926336087E+03  0.47000000000E+01 0.  1.
          5    1    4    4  503    0  0.88674924195E+02 -0.38848000605E+02 -0.18297542711E+03  0.20706160015E+03  0.47000000000E+01 0. -1.
         -5    1    4    4    0  503 -0.25097948267E+02  0.30695260884E+02 -0.13000094085E+03  0.13599426704E+03  0.47000000000E+01 0. -1.
<mgrwt>
<rscale>  0 0.14047922E+03</rscale>
<asrwt>0</asrwt>
<pdfrwt beam="1">  1        5 0.42796908E-02 0.14048074E+03</pdfrwt>
<pdfrwt beam="2">  1       -5 0.10986440E+00 0.14048074E+03</pdfrwt>
<totfact> 0.15483609E+02</totfact>
</mgrwt>
</event>
<event>
 8    1  0.3694627E-007  0.1375294E+03  0.7546771E-02  0.1216700E+00
          5   -1    0    0  501    0  0.00000000000E+00  0.00000000000E+00  0.24703455771E+03  0.24707926401E+03  0.47000000000E+01 0.  1.
         -5   -1    0    0    0  501 -0.00000000000E+00 -0.00000000000E+00 -0.76643521612E+02  0.76787495109E+02  0.47000000000E+01 0.  1.
         25    2    1    2    0    0  0.66402167621E+01  0.56963215557E+02  0.76653505774E+02  0.15744866703E+03  0.12500168958E+03 0.  0.
         25    2    1    2    0    0 -0.66402167621E+01 -0.56963215557E+02  0.93737530329E+02  0.16641809209E+03  0.12497742347E+03 0.  0.
          5    1    4    4  502    0  0.40205155052E+02  0.15873725713E+02  0.75185615008E+01  0.44125371702E+02  0.47000000000E+01 0. -1.
         -5    1    4    4    0  502 -0.46845371814E+02 -0.72836941270E+02  0.86218968828E+02  0.12229272039E+03  0.47000000000E+01 0. -1.
          5    1    3    3  503    0 -0.27947779470E+02  0.13454449453E+02  0.93949091309E+02  0.99048585781E+02  0.47000000000E+01 0.  1.
         -5    1    3    3    0  503  0.34587996232E+02  0.43508766104E+02 -0.17295585535E+02  0.58400081252E+02  0.47000000000E+01 0.  1.
<mgrwt>
<rscale>  0 0.13752384E+03</rscale>
<asrwt>0</asrwt>
<pdfrwt beam="1">  1        5 0.38019830E-01 0.13752935E+03</pdfrwt>
<pdfrwt beam="2">  1       -5 0.11805825E-01 0.13752935E+03</pdfrwt>
<totfact> 0.29177300E+02</totfact>
</mgrwt>
</event>
<event>
 8    1  0.3694627E-007  0.1428525E+03  0.7546771E-02  0.1209545E+00
          5   -1    0    0  501    0  0.00000000000E+00  0.00000000000E+00  0.21778902069E+03  0.21783972901E+03  0.47000000000E+01 0. -1.
         -5   -1    0    0    0  501 -0.00000000000E+00 -0.00000000000E+00 -0.12395399081E+03  0.12404306445E+03  0.47000000000E+01 0. -1.
         25    2    1    2    0    0  0.45484850183E+02 -0.52075496037E+02 -0.37662147421E+02  0.14772214880E+03  0.12499066771E+03 0.  0.
         25    2    1    2    0    0 -0.45484850183E+02  0.52075496037E+02  0.13149717730E+03  0.19416064465E+03  0.12500447756E+03 0.  0.
          5    1    4    4  502    0  0.22595845585E+02  0.67456800304E+02  0.51860787024E+02  0.88162482813E+02  0.47000000000E+01 0.  1.
         -5    1    4    4    0  502 -0.68080695768E+02 -0.15381304267E+02  0.79636390279E+02  0.10599816184E+03  0.47000000000E+01 0.  1.
          5    1    3    3  503    0  0.32681720986E+02  0.10573766000E+02  0.36057239372E+02  0.50021134784E+02  0.47000000000E+01 0. -1.
         -5    1    3    3    0  503  0.12803129197E+02 -0.62649262037E+02 -0.73719386792E+02  0.97701014017E+02  0.47000000000E+01 0. -1.
<mgrwt>
<rscale>  0 0.14284952E+03</rscale>
<asrwt>0</asrwt>
<pdfrwt beam="1">  1        5 0.33516755E-01 0.14285254E+03</pdfrwt>
<pdfrwt beam="2">  1       -5 0.19080597E-01 0.14285254E+03</pdfrwt>
<totfact> 0.15956025E+02</totfact>
</mgrwt>
</event>
<event>
 8    1  0.3694627E-007  0.1285375E+03  0.7546771E-02  0.1229644E+00
          5   -1    0    0  501    0  0.00000000000E+00  0.00000000000E+00  0.29847362308E+02  0.30215145817E+02  0.47000000000E+01 0.  1.
         -5   -1    0    0    0  501 -0.00000000000E+00 -0.00000000000E+00 -0.62991072967E+03  0.62992826365E+03  0.47000000000E+01 0.  1.
         25    2    1    2    0    0 -0.12772648447E+02  0.27075911725E+02 -0.41773046192E+03  0.43705781660E+03  0.12499820272E+03 0.  0.
         25    2    1    2    0    0  0.12772648447E+02 -0.27075911725E+02 -0.18233290543E+03  0.22308559288E+03  0.12500259118E+03 0.  0.
          5    1    3    3  502    0 -0.58098201577E+02 -0.11701963360E+02 -0.12689729927E+03  0.14013333485E+03  0.47000000000E+01 0. -1.
         -5    1    3    3    0  502  0.45325553130E+02  0.38777875085E+02 -0.29083316265E+03  0.29692448174E+03  0.47000000000E+01 0. -1.
          5    1    4    4  503    0 -0.56188109910E+02 -0.14037998939E+02 -0.86702788090E+02  0.10437256618E+03  0.47000000000E+01 0.  1.
         -5    1    4    4    0  503  0.68960758357E+02 -0.13037912786E+02 -0.95630117345E+02  0.11871302669E+03  0.47000000000E+01 0.  1.
<mgrwt>
<rscale>  0 0.12853645E+03</rscale>
<asrwt>0</asrwt>
<pdfrwt beam="1">  1        5 0.46215422E-02 0.12853752E+03</pdfrwt>
<pdfrwt beam="2">  1       -5 0.96938973E-01 0.12853752E+03</pdfrwt>
<totfact> 0.18001572E+02</totfact>
</mgrwt>
</event>
<event>
 8    1  0.3694627E-007  0.1369195E+03  0.7546771E-02  0.1217536E+00
          5   -1    0    0  501    0  0.00000000000E+00  0.00000000000E+00  0.11965634440E+04  0.11965726746E+04  0.47000000000E+01 0. -1.
         -5   -1    0    0    0  501 -0.00000000000E+00 -0.00000000000E+00 -0.15746764124E+02  0.16433215765E+02  0.47000000000E+01 0. -1.
         25    2    1    2    0    0 -0.40040805476E+02 -0.38965289897E+02  0.49103846227E+03  0.50977027154E+03  0.12500159358E+03 0.  0.
         25    2    1    2    0    0  0.40040805476E+02  0.38965289897E+02  0.68977821763E+03  0.70323561881E+03  0.12499914453E+03 0.  0.
          5    1    3    3  502    0  0.28730259954E+01  0.34717865256E+02  0.53771092759E+02  0.64241768833E+02  0.47000000000E+01 0. -1.
         -5    1    3    3    0  502 -0.42913831472E+02 -0.73683155154E+02  0.43726736951E+03  0.44552850271E+03  0.47000000000E+01 0. -1.
          5    1    4    4  503    0 -0.35679190288E+02  0.32133913456E+02  0.42465088832E+03  0.42738280261E+03  0.47000000000E+01 0.  1.
         -5    1    4    4    0  503  0.75719995765E+02  0.68313764407E+01  0.26512732931E+03  0.27585281621E+03  0.47000000000E+01 0.  1.
<mgrwt>
<rscale>  0 0.13691897E+03</rscale>
<asrwt>0</asrwt>
<pdfrwt beam="1">  1        5 0.18414020E+00 0.13691953E+03</pdfrwt>
<pdfrwt beam="2">  1       -5 0.24760931E-02 0.13691953E+03</pdfrwt>
<totfact> 0.92681834E+01</totfact>
</mgrwt>
</event>
<event>
 8    1  0.3694627E-007  0.1798714E+03  0.7546771E-02  0.1167930E+00
          5   -1    0    0  501    0  0.00000000000E+00  0.00000000000E+00  0.28462204305E+03  0.28466084625E+03  0.47000000000E+01 0.  1.
         -5   -1    0    0    0  501 -0.00000000000E+00 -0.00000000000E+00 -0.11796214885E+03  0.11805574345E+03  0.47000000000E+01 0.  1.
         25    2    1    2    0    0 -0.66078663630E+02 -0.11118750192E+03  0.44501035463E+02  0.18528497634E+03  0.12498451876E+03 0.  0.
         25    2    1    2    0    0  0.66078663630E+02  0.11118750192E+03  0.12215885874E+03  0.21743161335E+03  0.12499867738E+03 0.  0.
          5    1    4    4  502    0  0.58638889680E+01  0.12389252439E+02 -0.25773351239E+02  0.29567455148E+02  0.47000000000E+01 0. -1.
         -5    1    4    4    0  502  0.60214774662E+02  0.98798249485E+02  0.14793220998E+03  0.18786415821E+03  0.47000000000E+01 0. -1.
          5    1    3    3  503    0 -0.80237023453E+02 -0.88676748104E+02 -0.14345218550E+02  0.12053804745E+03  0.47000000000E+01 0. -1.
         -5    1    3    3    0  503  0.14158359823E+02 -0.22510753820E+02  0.58846254012E+02  0.64746928898E+02  0.47000000000E+01 0. -1.
<mgrwt>
<rscale>  0 0.17986894E+03</rscale>
<asrwt>0</asrwt>
<pdfrwt beam="1">  1        5 0.43798191E-01 0.17987140E+03</pdfrwt>
<pdfrwt beam="2">  1       -5 0.18158208E-01 0.17987140E+03</pdfrwt>
<totfact> 0.10891255E+02</totfact>
</mgrwt>
</event>
<event>
 8    1  0.3694627E-007  0.1397987E+03  0.7546771E-02  0.1213601E+00
         -5   -1    0    0    0  501 -0.00000000000E+00  0.00000000000E+00  0.21002257812E+04  0.21002310402E+04  0.47000000000E+01 0. -1.
          5   -1    0    0  501    0  0.00000000000E+00 -0.00000000000E+00 -0.11290727839E+02  0.12229903316E+02  0.47000000000E+01 0. -1.
         25    2    1    2    0    0 -0.46657002981E+02 -0.41721650646E+02  0.15274637288E+04  0.15338478143E+04  0.12500441058E+03 0.  0.
         25    2    1    2    0    0  0.46657002981E+02  0.41721650646E+02  0.56147132461E+03  0.57861312919E+03  0.12500213138E+03 0.  0.
          5    1    4    4  502    0 -0.24119566038E+02 -0.20880272495E+02  0.27591346281E+03  0.27779141132E+03  0.47000000000E+01 0.  1.
         -5    1    4    4    0  502  0.70776569019E+02  0.62601923140E+02  0.28555786180E+03  0.30082171786E+03  0.47000000000E+01 0.  1.
          5    1    3    3  503    0 -0.49879900298E+02 -0.62559335516E+02  0.14740992676E+04  0.14762765377E+04  0.47000000000E+01 0.  1.
         -5    1    3    3    0  503  0.32228973176E+01  0.20837684870E+02  0.53364461196E+02  0.57571276663E+02  0.47000000000E+01 0.  1.
<mgrwt>
<rscale>  0 0.13979818E+03</rscale>
<asrwt>0</asrwt>
<pdfrwt beam="2">  1        5 0.18096835E-02 0.13979869E+03</pdfrwt>
<pdfrwt beam="1">  1       -5 0.32318438E+00 0.13979869E+03</pdfrwt>
<totfact> 0.19460563E+01</totfact>
</mgrwt>
</event>
<event>
 8    1  0.3694627E-007  0.1294946E+03  0.7546771E-02  0.1228215E+00
          5   -1    0    0  501    0  0.00000000000E+00  0.00000000000E+00  0.11731730614E+03  0.11741141478E+03  0.47000000000E+01 0.  1.
         -5   -1    0    0    0  501 -0.00000000000E+00 -0.00000000000E+00 -0.15288854255E+03  0.15296076766E+03  0.47000000000E+01 0.  1.
         25    2    1    2    0    0  0.67061684664E+01 -0.33076269134E+02 -0.52622239276E+02  0.13975979923E+03  0.12499875655E+03 0.  0.
         25    2    1    2    0    0 -0.67061684664E+01  0.33076269134E+02  0.17051002863E+02  0.13061238321E+03  0.12501938120E+03 0.  0.
          5    1    3    3  502    0 -0.38368173913E+02 -0.58273685863E+02 -0.53262967218E+02  0.87903201935E+02  0.47000000000E+01 0. -1.
         -5    1    3    3    0  502  0.45074342379E+02  0.25197416730E+02  0.64072794188E+00  0.51856597296E+02  0.47000000000E+01 0. -1.
          5    1    4    4  503    0  0.75486936789E+01  0.67086588154E+02 -0.27097455403E+02  0.72896880426E+02  0.47000000000E+01 0.  1.
         -5    1    4    4    0  503 -0.14254862145E+02 -0.34010319021E+02  0.44148458267E+02  0.57715502787E+02  0.47000000000E+01 0.  1.
<mgrwt>
<rscale>  0 0.12948965E+03</rscale>
<asrwt>0</asrwt>
<pdfrwt beam="1">  1        5 0.18061611E-01 0.12949463E+03</pdfrwt>
<pdfrwt beam="2">  1       -5 0.23534109E-01 0.12949463E+03</pdfrwt>
<totfact> 0.33973038E+02</totfact>
</mgrwt>
</event>
<event>
 8    1  0.3694627E-007  0.1370033E+03  0.7546771E-02  0.1217444E+00
          5   -1    0    0  501    0  0.00000000000E+00  0.00000000000E+00  0.33327211689E+03  0.33330525633E+03  0.47000000000E+01 0. -1.
         -5   -1    0    0    0  501 -0.00000000000E+00 -0.00000000000E+00 -0.76654723107E+02  0.76798675605E+02  0.47000000000E+01 0. -1.
         25    2    1    2    0    0 -0.11642271909E+02 -0.54849562507E+02  0.22389931082E+02  0.13875098877E+03  0.12492602158E+03 0.  0.
         25    2    1    2    0    0  0.11642271909E+02  0.54849562507E+02  0.23422746271E+03  0.27135294317E+03  0.12500359387E+03 0.  0.
          5    1    3    3  502    0  0.56823313515E+01 -0.92948314863E+02  0.25063835820E+02  0.96550318443E+02  0.47000000000E+01 0.  1.
         -5    1    3    3    0  502 -0.17324603260E+02  0.38098752356E+02 -0.26739047381E+01  0.42200670324E+02  0.47000000000E+01 0.  1.
          5    1    4    4  503    0 -0.50437993075E+01 -0.52497993419E+01  0.19973601370E+03  0.19992389921E+03  0.47000000000E+01 0.  1.
         -5    1    4    4    0  503  0.16686071216E+02  0.60099361849E+02  0.34491449003E+02  0.71429043964E+02  0.47000000000E+01 0.  1.
<mgrwt>
<rscale>  0 0.13698564E+03</rscale>
<asrwt>0</asrwt>
<pdfrwt beam="1">  1        5 0.51286255E-01 0.13700334E+03</pdfrwt>
<pdfrwt beam="2">  1       -5 0.11806657E-01 0.13700334E+03</pdfrwt>
<totfact> 0.15644847E+02</totfact>
</mgrwt>
</event>
<event>
 8    1  0.3694627E-007  0.1631456E+03  0.7546771E-02  0.1185192E+00
         -5   -1    0    0    0  501 -0.00000000000E+00  0.00000000000E+00  0.46716183055E+03  0.46718547272E+03  0.47000000000E+01 0.  1.
          5   -1    0    0  501    0  0.00000000000E+00 -0.00000000000E+00 -0.64663874404E+02  0.64834455754E+02  0.47000000000E+01 0.  1.
         25    2    1    2    0    0 -0.82865026525E+02 -0.64206750851E+02  0.29356610376E+03  0.33585000687E+03  0.12500020143E+03 0.  0.
         25    2    1    2    0    0  0.82865026525E+02  0.64206750851E+02  0.10893185239E+03  0.19616992161E+03  0.12500948046E+03 0.  0.
          5    1    3    3  502    0 -0.70766018141E+02 -0.52535394858E+02  0.30328819990E+03  0.31586962379E+03  0.47000000000E+01 0.  1.
         -5    1    3    3    0  502 -0.12099008384E+02 -0.11671355993E+02 -0.97220961356E+01  0.19980383076E+02  0.47000000000E+01 0.  1.
          5    1    4    4  503    0  0.65718086892E+02  0.69577701119E+02  0.10953608582E+02  0.96446850538E+02  0.47000000000E+01 0.  1.
         -5    1    4    4    0  503  0.17146939634E+02 -0.53709502676E+01  0.97978243805E+02  0.99723071075E+02  0.47000000000E+01 0.  1.
<mgrwt>
<rscale>  0 0.16314383E+03</rscale>
<asrwt>0</asrwt>
<pdfrwt beam="2">  1        5 0.99632285E-02 0.16314561E+03</pdfrwt>
<pdfrwt beam="1">  1       -5 0.71885992E-01 0.16314561E+03</pdfrwt>
<totfact> 0.10616296E+02</totfact>
</mgrwt>
</event>
<event>
 8    1  0.3694627E-007  0.1401329E+03  0.7546771E-02  0.1213155E+00
          5   -1    0    0  501    0  0.00000000000E+00  0.00000000000E+00  0.44058564143E+03  0.44061070962E+03  0.47000000000E+01 0.  1.
         -5   -1    0    0    0  501 -0.00000000000E+00 -0.00000000000E+00 -0.45466804038E+02  0.45709083008E+02  0.47000000000E+01 0.  1.
         25    2    1    2    0    0  0.52621806785E+02 -0.35234119873E+02  0.16071772910E+03  0.21323089648E+03  0.12500691586E+03 0.  0.
         25    2    1    2    0    0 -0.52621806785E+02  0.35234119873E+02  0.23440110829E+03  0.27308889615E+03  0.12499267131E+03 0.  0.
          5    1    4    4  502    0 -0.52733376521E+02  0.25376620504E+02  0.25677366148E+02  0.64079630147E+02  0.47000000000E+01 0. -1.
         -5    1    4    4    0  502  0.11156973614E+00  0.98574993690E+01  0.20872374214E+03  0.20900926600E+03  0.47000000000E+01 0. -1.
          5    1    3    3  503    0  0.37633851778E+02  0.14471214405E+02 -0.36865069889E+01  0.40760313784E+02  0.47000000000E+01 0.  1.
         -5    1    3    3    0  503  0.14987955007E+02 -0.49705334278E+02  0.16440423609E+03  0.17247058270E+03  0.47000000000E+01 0.  1.
<mgrwt>
<rscale>  0 0.14012971E+03</rscale>
<asrwt>0</asrwt>
<pdfrwt beam="1">  1        5 0.67802968E-01 0.14013289E+03</pdfrwt>
<pdfrwt beam="2">  1       -5 0.70154584E-02 0.14013289E+03</pdfrwt>
<totfact> 0.21122144E+02</totfact>
</mgrwt>
</event>
<event>
 8    1  0.3694627E-007  0.1290492E+03  0.7546771E-02  0.1228874E+00
         -5   -1    0    0    0  501 -0.00000000000E+00  0.00000000000E+00  0.13268876018E+04  0.13268959258E+04  0.47000000000E+01 0. -1.
          5   -1    0    0  501    0  0.00000000000E+00 -0.00000000000E+00 -0.13739388641E+02  0.14521046802E+02  0.47000000000E+01 0. -1.
         25    2    1    2    0    0  0.42823798025E+01 -0.31783604637E+02  0.88133117396E+03  0.89072910000E+03  0.12500062041E+03 0.  0.
         25    2    1    2    0    0 -0.42823798025E+01  0.31783604637E+02  0.43181703919E+03  0.45068787255E+03  0.12500026732E+03 0.  0.
          5    1    4    4  502    0 -0.29204350361E+02 -0.88887332896E+01  0.37535829346E+03  0.37662692699E+03  0.47000000000E+01 0.  1.
         -5    1    4    4    0  502  0.24921970558E+02  0.40672337927E+02  0.56458745725E+02  0.74060945564E+02  0.47000000000E+01 0.  1.
          5    1    3    3  503    0 -0.54190609215E+02  0.29476792775E+01  0.53397451861E+03  0.53674592450E+03  0.47000000000E+01 0.  1.
         -5    1    3    3    0  503  0.58472989018E+02 -0.34731283915E+02  0.34735665534E+03  0.35398317550E+03  0.47000000000E+01 0.  1.
<mgrwt>
<rscale>  0 0.12904910E+03</rscale>
<asrwt>0</asrwt>
<pdfrwt beam="2">  1        5 0.21745197E-02 0.12904918E+03</pdfrwt>
<pdfrwt beam="1">  1       -5 0.20419735E+00 0.12904918E+03</pdfrwt>
<totfact> 0.81648262E+01</totfact>
</mgrwt>
</event>
<event>
 8    1  0.3694627E-007  0.1351403E+03  0.7546771E-02  0.1220027E+00
         -5   -1    0    0    0  501 -0.00000000000E+00  0.00000000000E+00  0.29939179990E+04  0.29939216881E+04  0.47000000000E+01 0. -1.
          5   -1    0    0  501    0  0.00000000000E+00 -0.00000000000E+00 -0.56082522304E+01  0.73172736097E+01  0.47000000000E+01 0. -1.
         25    2    1    2    0    0 -0.26802367011E+02 -0.43803691910E+02  0.18517911503E+04  0.18567157452E+04  0.12500305560E+03 0.  0.
         25    2    1    2    0    0  0.26802367011E+02  0.43803691910E+02  0.11365185965E+04  0.11445232166E+04  0.12498697038E+03 0.  0.
          5    1    3    3  502    0  0.29492596573E+02  0.21550306938E+02  0.97109931323E+03  0.97179740437E+03  0.47000000000E+01 0.  1.
         -5    1    3    3    0  502 -0.56294963584E+02 -0.65353998848E+02  0.88069183703E+03  0.88491834081E+03  0.47000000000E+01 0.  1.
          5    1    4    4  503    0  0.23829974843E+02  0.44633034857E+02  0.11376531056E+04  0.11387873613E+04  0.47000000000E+01 0. -1.
         -5    1    4    4    0  503  0.29723921684E+01 -0.82934294766E+00 -0.11345091123E+01  0.57358552853E+01  0.47000000000E+01 0. -1.
<mgrwt>
<rscale>  0 0.13513656E+03</rscale>
<asrwt>0</asrwt>
<pdfrwt beam="2">  1        5 0.99455360E-03 0.13514028E+03</pdfrwt>
<pdfrwt beam="1">  1       -5 0.46073516E+00 0.13514028E+03</pdfrwt>
<totfact> 0.54312220E+00</totfact>
</mgrwt>
</event>
<event>
 8    1  0.3694627E-007  0.1621435E+03  0.7546771E-02  0.1186298E+00
         -5   -1    0    0    0  501 -0.00000000000E+00  0.00000000000E+00  0.42854366861E+03  0.42856944117E+03  0.47000000000E+01 0. -1.
          5   -1    0    0  501    0  0.00000000000E+00 -0.00000000000E+00 -0.11459571718E+03  0.11469205899E+03  0.47000000000E+01 0. -1.
         25    2    1    2    0    0  0.40218104458E+01 -0.10319180162E+03  0.34220471369E+03  0.37867423839E+03  0.12500155944E+03 0.  0.
         25    2    1    2    0    0 -0.40218104458E+01  0.10319180162E+03 -0.28256762265E+02  0.16458726177E+03  0.12500319693E+03 0.  0.
          5    1    3    3  502    0 -0.34054275044E+02  0.15093575153E+02  0.70830450062E+02  0.80165780204E+02  0.47000000000E+01 0. -1.
         -5    1    3    3    0  502  0.38076085490E+02 -0.11828537678E+03  0.27137426363E+03  0.29850845818E+03  0.47000000000E+01 0. -1.
          5    1    4    4  503    0 -0.34736343727E+02  0.39294328618E+02 -0.65760582638E+02  0.84244893412E+02  0.47000000000E+01 0.  1.
         -5    1    4    4    0  503  0.30714533282E+02  0.63897473007E+02  0.37503820374E+02  0.80342368362E+02  0.47000000000E+01 0.  1.
<mgrwt>
<rscale>  0 0.16214321E+03</rscale>
<asrwt>0</asrwt>
<pdfrwt beam="2">  1        5 0.17639504E-01 0.16214352E+03</pdfrwt>
<pdfrwt beam="1">  1       -5 0.65939188E-01 0.16214352E+03</pdfrwt>
<totfact> 0.46162891E+01</totfact>
</mgrwt>
</event>
<event>
 8    1  0.3694627E-007  0.1508009E+03  0.7546771E-02  0.1199502E+00
          5   -1    0    0  501    0  0.00000000000E+00  0.00000000000E+00  0.18610978097E+03  0.18616911820E+03  0.47000000000E+01 0.  1.
         -5   -1    0    0    0  501 -0.00000000000E+00 -0.00000000000E+00 -0.15088736586E+03  0.15096054841E+03  0.47000000000E+01 0.  1.
         25    2    1    2    0    0  0.84101095863E+02 -0.58843172438E+01 -0.56055239887E+02  0.16088223371E+03  0.12503313037E+03 0.  0.
         25    2    1    2    0    0 -0.84101095863E+02  0.58843172438E+01  0.91277654989E+02  0.17624743290E+03  0.12499571109E+03 0.  0.
          5    1    3    3  502    0  0.26767712404E+02  0.12702228228E+02  0.38405218575E+02  0.48733026205E+02  0.47000000000E+01 0. -1.
         -5    1    3    3    0  502  0.57333383459E+02 -0.18586545472E+02 -0.94460458461E+02  0.11214920751E+03  0.47000000000E+01 0. -1.
          5    1    4    4  503    0 -0.78347653251E+02 -0.47621808836E+01  0.12071941227E+03  0.14407046760E+03  0.47000000000E+01 0.  1.
         -5    1    4    4    0  503 -0.57534426114E+01  0.10646498127E+02 -0.29441757279E+02  0.32176965300E+02  0.47000000000E+01 0.  1.
<mgrwt>
<rscale>  0 0.15079312E+03</rscale>
<asrwt>0</asrwt>
<pdfrwt beam="1">  1        5 0.28642468E-01 0.15080087E+03</pdfrwt>
<pdfrwt beam="2">  1       -5 0.23223635E-01 0.15080087E+03</pdfrwt>
<totfact> 0.15306879E+02</totfact>
</mgrwt>
</event>
<event>
 8    1  0.3694627E-007  0.1475347E+03  0.7546771E-02  0.1203536E+00
         -5   -1    0    0    0  501 -0.00000000000E+00  0.00000000000E+00  0.11627398380E+03  0.11636893619E+03  0.47000000000E+01 0.  1.
          5   -1    0    0  501    0  0.00000000000E+00 -0.00000000000E+00 -0.26190359954E+03  0.26194576815E+03  0.47000000000E+01 0.  1.
         25    2    1    2    0    0 -0.23087775704E+02 -0.74886406721E+02  0.28317172227E+02  0.15022770937E+03  0.12500193246E+03 0.  0.
         25    2    1    2    0    0  0.23087775704E+02  0.74886406721E+02 -0.17394678797E+03  0.22808699497E+03  0.12500069173E+03 0.  0.
          5    1    3    3  502    0 -0.24759185217E+02 -0.91081851908E+02  0.61649651121E+02  0.11283479287E+03  0.47000000000E+01 0. -1.
         -5    1    3    3    0  502  0.16714095126E+01  0.16195445187E+02 -0.33332478894E+02  0.37392916492E+02  0.47000000000E+01 0. -1.
          5    1    4    4  503    0  0.69779476767E+02  0.15284785184E+02 -0.80553051917E+02  0.10776680476E+03  0.47000000000E+01 0. -1.
         -5    1    4    4    0  503 -0.46691701063E+02  0.59601621537E+02 -0.93393736053E+02  0.12032019021E+03  0.47000000000E+01 0. -1.
<mgrwt>
<rscale>  0 0.14753449E+03</rscale>
<asrwt>0</asrwt>
<pdfrwt beam="2">  1        5 0.40303409E-01 0.14753475E+03</pdfrwt>
<pdfrwt beam="1">  1       -5 0.17898853E-01 0.14753475E+03</pdfrwt>
<totfact> 0.12503250E+02</totfact>
</mgrwt>
</event>
<event>
 8    1  0.3694627E-007  0.1402875E+03  0.7546771E-02  0.1212945E+00
         -5   -1    0    0    0  501 -0.00000000000E+00  0.00000000000E+00  0.73180331089E+02  0.73331104303E+02  0.47000000000E+01 0.  1.
          5   -1    0    0  501    0  0.00000000000E+00 -0.00000000000E+00 -0.29043740447E+03  0.29047543082E+03  0.47000000000E+01 0.  1.
         25    2    1    2    0    0  0.57663673466E+02 -0.27005790152E+02 -0.58617581059E+02  0.15203527434E+03  0.12499716755E+03 0.  0.
         25    2    1    2    0    0 -0.57663673466E+02  0.27005790152E+02 -0.15863949232E+03  0.21177126079E+03  0.12500466565E+03 0.  0.
          5    1    4    4  502    0  0.13887456992E+02  0.52995271079E+02 -0.10500598294E+03  0.11853145858E+03  0.47000000000E+01 0.  1.
         -5    1    4    4    0  502 -0.71551130458E+02 -0.25989480927E+02 -0.53633509373E+02  0.93239802211E+02  0.47000000000E+01 0.  1.
          5    1    3    3  503    0  0.10619755486E+02  0.19239533015E+02  0.32459142953E+02  0.39479422469E+02  0.47000000000E+01 0. -1.
         -5    1    3    3    0  503  0.47043917980E+02 -0.46245323167E+02 -0.91076724012E+02  0.11255585187E+03  0.47000000000E+01 0. -1.
<mgrwt>
<rscale>  0 0.14028581E+03</rscale>
<asrwt>0</asrwt>
<pdfrwt beam="2">  1        5 0.44697200E-01 0.14028748E+03</pdfrwt>
<pdfrwt beam="1">  1       -5 0.11273036E-01 0.14028748E+03</pdfrwt>
<totfact> 0.22854715E+02</totfact>
</mgrwt>
</event>
<event>
 8    1  0.3694627E-007  0.1432419E+03  0.7546771E-02  0.1209035E+00
          5   -1    0    0  501    0  0.00000000000E+00  0.00000000000E+00  0.40265817709E+02  0.40539191849E+02  0.47000000000E+01 0.  1.
         -5   -1    0    0    0  501 -0.00000000000E+00 -0.00000000000E+00 -0.51002552241E+03  0.51004717773E+03  0.47000000000E+01 0.  1.
         25    2    1    2    0    0  0.41987286670E+02 -0.55950896177E+02 -0.25413772857E+03  0.29172139419E+03  0.12498780627E+03 0.  0.
         25    2    1    2    0    0 -0.41987286670E+02  0.55950896177E+02 -0.21562197613E+03  0.25886497539E+03  0.12499921548E+03 0.  0.
          5    1    3    3  502    0  0.38497590195E+02 -0.87981006910E+02 -0.23510473746E+03  0.25400600309E+03  0.47000000000E+01 0.  1.
         -5    1    3    3    0  502  0.34896964752E+01  0.32030110732E+02 -0.19032991111E+02  0.37715391098E+02  0.47000000000E+01 0.  1.
          5    1    4    4  503    0  0.78872196607E+01  0.53970990763E+02 -0.22242327976E+02  0.59092192645E+02  0.47000000000E+01 0.  1.
         -5    1    4    4    0  503 -0.49874506331E+02  0.19799054148E+01 -0.19337964815E+03  0.19977278275E+03  0.47000000000E+01 0.  1.
<mgrwt>
<rscale>  0 0.14323940E+03</rscale>
<asrwt>0</asrwt>
<pdfrwt beam="1">  1        5 0.62174361E-02 0.14324189E+03</pdfrwt>
<pdfrwt beam="2">  1       -5 0.78488155E-01 0.14324189E+03</pdfrwt>
<totfact> 0.18715948E+02</totfact>
</mgrwt>
</event>
<event>
 8    1  0.3694627E-007  0.1288029E+03  0.7546771E-02  0.1229252E+00
          5   -1    0    0  501    0  0.00000000000E+00  0.00000000000E+00  0.35195655179E+02  0.35508085607E+02  0.47000000000E+01 0. -1.
         -5   -1    0    0    0  501 -0.00000000000E+00 -0.00000000000E+00 -0.52793600881E+03  0.52795692949E+03  0.47000000000E+01 0. -1.
         25    2    1    2    0    0 -0.57681232271E+01 -0.30495798301E+02 -0.34059560508E+03  0.36413673214E+03  0.12500771389E+03 0.  0.
         25    2    1    2    0    0  0.57681232271E+01  0.30495798301E+02 -0.15214474855E+03  0.19932828296E+03  0.12498189836E+03 0.  0.
          5    1    3    3  502    0  0.57383803671E+02 -0.73859389158E+01 -0.19934469347E+03  0.20762429972E+03  0.47000000000E+01 0. -1.
         -5    1    3    3    0  502 -0.63151926898E+02 -0.23109859385E+02 -0.14125091161E+03  0.15651243242E+03  0.47000000000E+01 0. -1.
          5    1    4    4  503    0  0.10100163303E+02 -0.10215354036E+02 -0.15709651682E+03  0.15782196410E+03  0.47000000000E+01 0.  1.
         -5    1    4    4    0  503 -0.43320400760E+01  0.40711152337E+02  0.49517682724E+01  0.41506318854E+02  0.47000000000E+01 0.  1.
<mgrwt>
<rscale>  0 0.12879666E+03</rscale>
<asrwt>0</asrwt>
<pdfrwt beam="1">  1        5 0.54403590E-02 0.12880293E+03</pdfrwt>
<pdfrwt beam="2">  1       -5 0.81246561E-01 0.12880293E+03</pdfrwt>
<totfact> 0.20853689E+02</totfact>
</mgrwt>
</event>
<event>
 8    1  0.3694627E-007  0.1267317E+03  0.7546771E-02  0.1232396E+00
          5   -1    0    0  501    0  0.00000000000E+00  0.00000000000E+00  0.12807787957E+03  0.12816408715E+03  0.47000000000E+01 0.  1.
         -5   -1    0    0    0  501 -0.00000000000E+00 -0.00000000000E+00 -0.15199252790E+03  0.15206517858E+03  0.47000000000E+01 0.  1.
         25    2    1    2    0    0  0.13867666280E+02  0.15605246086E+02 -0.70746500821E+02  0.14514131393E+03  0.12500039103E+03 0.  0.
         25    2    1    2    0    0 -0.13867666280E+02 -0.15605246086E+02  0.46831852496E+02  0.13508795180E+03  0.12497878396E+03 0.  0.
          5    1    4    4  502    0 -0.21168392448E+02  0.85561966163E+01 -0.39034583535E+02  0.45465350005E+02  0.47000000000E+01 0.  1.
         -5    1    4    4    0  502  0.73007261678E+01 -0.24161442702E+02  0.85866436030E+02  0.89622601795E+02  0.47000000000E+01 0.  1.
          5    1    3    3  503    0 -0.51186128762E+01  0.10101325261E+02 -0.10478474442E+03  0.10549961911E+03  0.47000000000E+01 0. -1.
         -5    1    3    3    0  503  0.18986279157E+02  0.55039208245E+01  0.34038243601E+02  0.39641694819E+02  0.47000000000E+01 0. -1.
<mgrwt>
<rscale>  0 0.12672641E+03</rscale>
<asrwt>0</asrwt>
<pdfrwt beam="1">  1        5 0.19716509E-01 0.12673174E+03</pdfrwt>
<pdfrwt beam="2">  1       -5 0.23395686E-01 0.12673174E+03</pdfrwt>
<totfact> 0.28977933E+02</totfact>
</mgrwt>
</event>
<event>
 8    1  0.3694627E-007  0.1727870E+03  0.7546771E-02  0.1174974E+00
          5   -1    0    0  501    0  0.00000000000E+00  0.00000000000E+00  0.11242290206E+04  0.11242388450E+04  0.47000000000E+01 0. -1.
         -5   -1    0    0    0  501 -0.00000000000E+00 -0.00000000000E+00 -0.27050589213E+02  0.27455862339E+02  0.47000000000E+01 0. -1.
         25    2    1    2    0    0  0.94868656221E+02 -0.72318237156E+02  0.45578202524E+03  0.48743219460E+03  0.12499160149E+03 0.  0.
         25    2    1    2    0    0 -0.94868656221E+02  0.72318237156E+02  0.64139640611E+03  0.66426251276E+03  0.12500138695E+03 0.  0.
          5    1    4    4  502    0  0.81739100637E+01  0.22699494027E+02  0.18053886972E+02  0.30497748599E+02  0.47000000000E+01 0. -1.
         -5    1    4    4    0  502 -0.10304256628E+03  0.49618743129E+02  0.62334251913E+03  0.63376476416E+03  0.47000000000E+01 0. -1.
          5    1    3    3  503    0 -0.83890408999E+01 -0.68681426997E+02  0.18286281933E+03  0.19557202027E+03  0.47000000000E+01 0.  1.
         -5    1    3    3    0  503  0.10325769712E+03 -0.36368101588E+01  0.27291920592E+03  0.29186017433E+03  0.47000000000E+01 0.  1.
<mgrwt>
<rscale>  0 0.17278520E+03</rscale>
<asrwt>0</asrwt>
<pdfrwt beam="1">  1        5 0.17299023E+00 0.17278697E+03</pdfrwt>
<pdfrwt beam="2">  1       -5 0.41935601E-02 0.17278697E+03</pdfrwt>
<totfact> 0.50553365E+01</totfact>
</mgrwt>
</event>
<event>
 8    1  0.3694627E-007  0.1737445E+03  0.7546771E-02  0.1174000E+00
         -5   -1    0    0    0  501 -0.00000000000E+00  0.00000000000E+00  0.18172693648E+03  0.18178770432E+03  0.47000000000E+01 0. -1.
          5   -1    0    0  501    0  0.00000000000E+00 -0.00000000000E+00 -0.16756071007E+03  0.16762661351E+03  0.47000000000E+01 0. -1.
         25    2    1    2    0    0 -0.75155960639E+02 -0.94397459766E+02  0.24024175499E+02  0.17539034564E+03  0.12500125401E+03 0.  0.
         25    2    1    2    0    0  0.75155960639E+02  0.94397459766E+02 -0.98579490838E+01  0.17402397220E+03  0.12501145911E+03 0.  0.
          5    1    3    3  502    0 -0.89725836139E+02 -0.11503277534E+03  0.10465526743E+02  0.14633824628E+03  0.47000000000E+01 0. -1.
         -5    1    3    3    0  502  0.14569875500E+02  0.20635315578E+02  0.13558648756E+02  0.29052099359E+02  0.47000000000E+01 0. -1.
          5    1    4    4  503    0 -0.34827168408E+02  0.27470671019E+02 -0.70686432370E+01  0.45162209232E+02  0.47000000000E+01 0.  1.
         -5    1    4    4    0  503  0.10998312905E+03  0.66926788747E+02 -0.27893058469E+01  0.12886176296E+03  0.47000000000E+01 0.  1.
<mgrwt>
<rscale>  0 0.17374270E+03</rscale>
<asrwt>0</asrwt>
<pdfrwt beam="2">  1        5 0.25788315E-01 0.17374454E+03</pdfrwt>
<pdfrwt beam="1">  1       -5 0.27967734E-01 0.17374454E+03</pdfrwt>
<totfact> 0.13708083E+02</totfact>
</mgrwt>
</event>
<event>
 8    1  0.3694627E-007  0.1612270E+03  0.7546771E-02  0.1187320E+00
         -5   -1    0    0    0  501 -0.00000000000E+00  0.00000000000E+00  0.47644286298E+02  0.47875547170E+02  0.47000000000E+01 0.  1.
          5   -1    0    0  501    0  0.00000000000E+00 -0.00000000000E+00 -0.64491632510E+03  0.64493345112E+03  0.47000000000E+01 0.  1.
         25    2    1    2    0    0 -0.13455882367E+01 -0.10181328442E+03 -0.16164475631E+03  0.22830500842E+03  0.12500557641E+03 0.  0.
         25    2    1    2    0    0  0.13455882367E+01  0.10181328442E+03 -0.43562728249E+03  0.46450398987E+03  0.12500028746E+03 0.  0.
          5    1    4    4  502    0  0.24974972688E+02  0.44793767280E+02 -0.37267498605E+03  0.37621664779E+03  0.47000000000E+01 0.  1.
         -5    1    4    4    0  502 -0.23629384451E+02  0.57019517143E+02 -0.62952296440E+02  0.88287342082E+02  0.47000000000E+01 0.  1.
          5    1    3    3  503    0 -0.41328504268E+02  0.59296211684E+01 -0.22116780648E+02  0.47481024194E+02  0.47000000000E+01 0.  1.
         -5    1    3    3    0  503  0.39982916031E+02 -0.10774290559E+03 -0.13952797566E+03  0.18082398423E+03  0.47000000000E+01 0.  1.
<mgrwt>
<rscale>  0 0.16122599E+03</rscale>
<asrwt>0</asrwt>
<pdfrwt beam="2">  1        5 0.99236997E-01 0.16122701E+03</pdfrwt>
<pdfrwt beam="1">  1       -5 0.73489973E-02 0.16122701E+03</pdfrwt>
<totfact> 0.83931731E+01</totfact>
</mgrwt>
</event>
<event>
 8    1  0.3694627E-007  0.1281780E+03  0.7546771E-02  0.1230189E+00
          5   -1    0    0  501    0  0.00000000000E+00  0.00000000000E+00  0.28264681516E+03  0.28268588949E+03  0.47000000000E+01 0.  1.
         -5   -1    0    0    0  501 -0.00000000000E+00 -0.00000000000E+00 -0.59038237865E+02  0.59225024527E+02  0.47000000000E+01 0.  1.
         25    2    1    2    0    0 -0.10175249287E+02  0.26399339131E+02  0.88997643738E+02  0.15603539507E+03  0.12500401241E+03 0.  0.
         25    2    1    2    0    0  0.10175249287E+02 -0.26399339131E+02  0.13461093355E+03  0.18587551895E+03  0.12501657614E+03 0.  0.
          5    1    4    4  502    0 -0.30451443046E+01 -0.40419941015E+02  0.15329059669E+03  0.15862894304E+03  0.47000000000E+01 0.  1.
         -5    1    4    4    0  502  0.13220393592E+02  0.14020601884E+02 -0.18679663140E+02  0.27246575912E+02  0.47000000000E+01 0.  1.
          5    1    3    3  503    0 -0.38914611871E+02  0.27060264204E+02  0.11016967856E+03  0.12002521814E+03  0.47000000000E+01 0.  1.
         -5    1    3    3    0  503  0.28739362584E+02 -0.66092507257E+00 -0.21172034823E+02  0.36010176926E+02  0.47000000000E+01 0.  1.
<mgrwt>
<rscale>  0 0.12817496E+03</rscale>
<asrwt>0</asrwt>
<pdfrwt beam="1">  1        5 0.43501498E-01 0.12817802E+03</pdfrwt>
<pdfrwt beam="2">  1       -5 0.91001800E-02 0.12817802E+03</pdfrwt>
<totfact> 0.34050807E+02</totfact>
</mgrwt>
</event>
<event>
 8    1  0.3694627E-007  0.1267143E+03  0.7546771E-02  0.1232415E+00
          5   -1    0    0  501    0  0.00000000000E+00  0.00000000000E+00  0.82973763305E+03  0.82975094438E+03  0.47000000000E+01 0. -1.
         -5   -1    0    0    0  501 -0.00000000000E+00 -0.00000000000E+00 -0.23298732434E+02  0.23768065404E+02  0.47000000000E+01 0. -1.
         25    2    1    2    0    0 -0.18672915493E+02 -0.90875214237E+01  0.22306662476E+03  0.25654352907E+03  0.12499840963E+03 0.  0.
         25    2    1    2    0    0  0.18672915493E+02  0.90875214237E+01  0.58337227586E+03  0.59697548071E+03  0.12500100605E+03 0.  0.
          5    1    3    3  502    0 -0.56233621666E+02 -0.76494707092E+01  0.20820410943E+03  0.21585128166E+03  0.47000000000E+01 0.  1.
         -5    1    3    3    0  502  0.37560706173E+02 -0.14380507146E+01  0.14862515327E+02  0.40692247418E+02  0.47000000000E+01 0.  1.
          5    1    4    4  503    0  0.48930723496E+02  0.45270466451E+02  0.45967709222E+03  0.46450914948E+03  0.47000000000E+01 0.  1.
         -5    1    4    4    0  503 -0.30257808003E+02 -0.36182945028E+02  0.12369518363E+03  0.13246633123E+03  0.47000000000E+01 0.  1.
<mgrwt>
<rscale>  0 0.12671365E+03</rscale>
<asrwt>0</asrwt>
<pdfrwt beam="1">  1        5 0.12768908E+00 0.12671429E+03</pdfrwt>
<pdfrwt beam="2">  1       -5 0.36215466E-02 0.12671429E+03</pdfrwt>
<totfact> 0.13438416E+02</totfact>
</mgrwt>
</event>
<event>
 8    1  0.3694627E-007  0.1264324E+03  0.7546771E-02  0.1232862E+00
         -5   -1    0    0    0  501 -0.00000000000E+00  0.00000000000E+00  0.31553832027E+03  0.31557332200E+03  0.47000000000E+01 0.  1.
          5   -1    0    0  501    0  0.00000000000E+00 -0.00000000000E+00 -0.51749718592E+02  0.51962711384E+02  0.47000000000E+01 0.  1.
         25    2    1    2    0    0 -0.10698357021E+02 -0.15331925263E+02  0.16038352238E+03  0.20420278420E+03  0.12500552008E+03 0.  0.
         25    2    1    2    0    0  0.10698357021E+02  0.15331925263E+02  0.10340507930E+03  0.16333324918E+03  0.12504246114E+03 0.  0.
          5    1    3    3  502    0  0.56689816201E+02  0.10140186931E+01  0.72608265414E+02  0.92243231195E+02  0.47000000000E+01 0.  1.
         -5    1    3    3    0  502 -0.67388173222E+02 -0.16345943956E+02  0.87775256962E+02  0.11195955300E+03  0.47000000000E+01 0.  1.
          5    1    4    4  503    0  0.35533487116E+02 -0.25613463586E+02  0.10636141671E+03  0.11512392969E+03  0.47000000000E+01 0. -1.
         -5    1    4    4    0  503 -0.24835130095E+02  0.40945388849E+02 -0.29563374117E+01  0.48209319490E+02  0.47000000000E+01 0. -1.
<mgrwt>
<rscale>  0 0.12642322E+03</rscale>
<asrwt>0</asrwt>
<pdfrwt beam="2">  1        5 0.79805716E-02 0.12643235E+03</pdfrwt>
<pdfrwt beam="1">  1       -5 0.48563434E-01 0.12643235E+03</pdfrwt>
<totfact> 0.33748064E+02</totfact>
</mgrwt>
</event>
<event>
 8    1  0.3694627E-007  0.1363161E+03  0.7546771E-02  0.1218375E+00
         -5   -1    0    0    0  501 -0.00000000000E+00  0.00000000000E+00  0.29333642494E+03  0.29337407554E+03  0.47000000000E+01 0. -1.
          5   -1    0    0  501    0  0.00000000000E+00 -0.00000000000E+00 -0.67793145982E+02  0.67955872756E+02  0.47000000000E+01 0. -1.
         25    2    1    2    0    0 -0.52521597065E+02  0.14113787314E+02  0.15963697383E+03  0.20991756430E+03  0.12499481284E+03 0.  0.
         25    2    1    2    0    0  0.52521597065E+02 -0.14113787314E+02  0.65906305124E+02  0.15141238399E+03  0.12499740725E+03 0.  0.
          5    1    3    3  502    0  0.66862835810E+01  0.44966288102E+02  0.12794755702E+03  0.13586515669E+03  0.47000000000E+01 0.  1.
         -5    1    3    3    0  502 -0.59207880646E+02 -0.30852500787E+02  0.31689416812E+02  0.74052407613E+02  0.47000000000E+01 0.  1.
          5    1    4    4  503    0  0.49014818173E+02  0.51022933683E+02  0.33447197315E+02  0.78400237055E+02  0.47000000000E+01 0.  1.
         -5    1    4    4    0  503  0.35067788920E+01 -0.65136720997E+02  0.32459107809E+02  0.73012146936E+02  0.47000000000E+01 0.  1.
<mgrwt>
<rscale>  0 0.13631547E+03</rscale>
<asrwt>0</asrwt>
<pdfrwt beam="2">  1        5 0.10445129E-01 0.13631606E+03</pdfrwt>
<pdfrwt beam="1">  1       -5 0.45144094E-01 0.13631606E+03</pdfrwt>
<totfact> 0.25350001E+02</totfact>
</mgrwt>
</event>
<event>
 8    1  0.3694627E-007  0.1322872E+03  0.7546771E-02  0.1224106E+00
          5   -1    0    0  501    0  0.00000000000E+00  0.00000000000E+00  0.75941781921E+03  0.75943236310E+03  0.47000000000E+01 0.  1.
         -5   -1    0    0    0  501 -0.00000000000E+00 -0.00000000000E+00 -0.34035340460E+02  0.34358323594E+02  0.47000000000E+01 0.  1.
         25    2    1    2    0    0 -0.52929876582E+01 -0.42913933130E+02  0.13588789220E+03  0.18963525747E+03  0.12500556089E+03 0.  0.
         25    2    1    2    0    0  0.52929876582E+01  0.42913933130E+02  0.58949458655E+03  0.60415542923E+03  0.12502117310E+03 0.  0.
          5    1    4    4  502    0 -0.20582388982E+02 -0.38032184579E+02  0.13747255002E+03  0.14419040818E+03  0.47000000000E+01 0. -1.
         -5    1    4    4    0  502  0.25875376641E+02  0.80946117708E+02  0.45202203653E+03  0.45996502106E+03  0.47000000000E+01 0. -1.
          5    1    3    3  503    0  0.55766103122E+02 -0.88669653175E+01  0.88366798723E+02  0.10497267477E+03  0.47000000000E+01 0.  1.
         -5    1    3    3    0  503 -0.61059090781E+02 -0.34046967812E+02  0.47521093472E+02  0.84662582697E+02  0.47000000000E+01 0.  1.
<mgrwt>
<rscale>  0 0.13228356E+03</rscale>
<asrwt>0</asrwt>
<pdfrwt beam="1">  1        5 0.11685947E+00 0.13228724E+03</pdfrwt>
<pdfrwt beam="2">  1       -5 0.52621699E-02 0.13228724E+03</pdfrwt>
<totfact> 0.92453878E+01</totfact>
</mgrwt>
</event>
<event>
 8    1  0.3694627E-007  0.1290045E+03  0.7546771E-02  0.1228943E+00
          5   -1    0    0  501    0  0.00000000000E+00  0.00000000000E+00  0.21237494432E+03  0.21242694503E+03  0.47000000000E+01 0.  1.
         -5   -1    0    0    0  501 -0.00000000000E+00 -0.00000000000E+00 -0.79140621695E+02  0.79280060559E+02  0.47000000000E+01 0.  1.
         25    2    1    2    0    0  0.22489651878E+02 -0.22583996032E+02  0.50959537484E+02  0.13870489613E+03  0.12500540961E+03 0.  0.
         25    2    1    2    0    0 -0.22489651878E+02  0.22583996032E+02  0.82274785138E+02  0.15300210946E+03  0.12499873564E+03 0.  0.
          5    1    4    4  502    0 -0.62884099853E+02 -0.21120922053E+02  0.59082029394E+02  0.88956616168E+02  0.47000000000E+01 0. -1.
         -5    1    4    4    0  502  0.40394447975E+02  0.43704918085E+02  0.23192755745E+02  0.64045493293E+02  0.47000000000E+01 0. -1.
          5    1    3    3  503    0  0.23272028986E+02 -0.32743620558E+02 -0.34103829483E+02  0.52904566965E+02  0.47000000000E+01 0. -1.
         -5    1    3    3    0  503 -0.78237710824E+00  0.10159624525E+02  0.85063366967E+02  0.85800329161E+02  0.47000000000E+01 0. -1.
<mgrwt>
<rscale>  0 0.12900293E+03</rscale>
<asrwt>0</asrwt>
<pdfrwt beam="1">  1        5 0.32687794E-01 0.12900455E+03</pdfrwt>
<pdfrwt beam="2">  1       -5 0.12190206E-01 0.12900455E+03</pdfrwt>
<totfact> 0.36491906E+02</totfact>
</mgrwt>
</event>
<event>
 8    1  0.3694627E-007  0.1297052E+03  0.7546771E-02  0.1227896E+00
         -5   -1    0    0    0  501 -0.00000000000E+00  0.00000000000E+00  0.98803716608E+02  0.98915440734E+02  0.47000000000E+01 0.  1.
          5   -1    0    0  501    0  0.00000000000E+00 -0.00000000000E+00 -0.17502804961E+03  0.17509114241E+03  0.47000000000E+01 0.  1.
         25    2    1    2    0    0 -0.26998498758E+02 -0.21618262554E+02 -0.14955542109E+02  0.13056455542E+03  0.12500866643E+03 0.  0.
         25    2    1    2    0    0  0.26998498758E+02  0.21618262554E+02 -0.61268790890E+02  0.14344202772E+03  0.12500192945E+03 0.  0.
          5    1    3    3  502    0 -0.76928763811E+02 -0.19533203389E+02 -0.88200935940E+01  0.79996654850E+02  0.47000000000E+01 0.  1.
         -5    1    3    3    0  502  0.49930265053E+02 -0.20850591651E+01 -0.61354485153E+01  0.50567900574E+02  0.47000000000E+01 0.  1.
          5    1    4    4  503    0 -0.39478467235E+02  0.42743978371E+02 -0.38452155872E+02  0.69901755009E+02  0.47000000000E+01 0.  1.
         -5    1    4    4    0  503  0.66476965992E+02 -0.21125715817E+02 -0.22816635018E+02  0.73540272707E+02  0.47000000000E+01 0.  1.
<mgrwt>
<rscale>  0 0.12970356E+03</rscale>
<asrwt>0</asrwt>
<pdfrwt beam="2">  1        5 0.26940840E-01 0.12970518E+03</pdfrwt>
<pdfrwt beam="1">  1       -5 0.15214019E-01 0.12970518E+03</pdfrwt>
<totfact> 0.35894236E+02</totfact>
</mgrwt>
</event>
<event>
 8    1  0.3694627E-007  0.1570821E+03  0.7546771E-02  0.1192032E+00
          5   -1    0    0  501    0  0.00000000000E+00  0.00000000000E+00  0.26459651865E+03  0.26463825816E+03  0.47000000000E+01 0.  1.
         -5   -1    0    0    0  501 -0.00000000000E+00 -0.00000000000E+00 -0.98962244678E+02  0.99073790034E+02  0.47000000000E+01 0.  1.
         25    2    1    2    0    0 -0.59737877435E+02 -0.74032474066E+02  0.38759629248E+02  0.16179134763E+03  0.12499884036E+03 0.  0.
         25    2    1    2    0    0  0.59737877435E+02  0.74032474066E+02  0.12687464473E+03  0.20192070056E+03  0.12500149049E+03 0.  0.
          5    1    4    4  502    0 -0.21981412493E+02  0.55405886405E+02  0.14275294079E+02  0.61472504134E+02  0.47000000000E+01 0. -1.
         -5    1    4    4    0  502  0.81719289929E+02  0.18626587661E+02  0.11259935065E+03  0.14044819643E+03  0.47000000000E+01 0. -1.
          5    1    3    3  503    0 -0.37824070587E+01 -0.96360414277E+02  0.26671569876E+02  0.10016535670E+03  0.47000000000E+01 0.  1.
         -5    1    3    3    0  503 -0.55955470377E+02  0.22327940211E+02  0.12088059372E+02  0.61625990933E+02  0.47000000000E+01 0.  1.
<mgrwt>
<rscale>  0 0.15708160E+03</rscale>
<asrwt>0</asrwt>
<pdfrwt beam="1">  1        5 0.40718948E-01 0.15708212E+03</pdfrwt>
<pdfrwt beam="2">  1       -5 0.15236752E-01 0.15708212E+03</pdfrwt>
<totfact> 0.16777502E+02</totfact>
</mgrwt>
</event>
<event>
 8    1  0.3694627E-007  0.1388227E+03  0.7546771E-02  0.1214923E+00
         -5   -1    0    0    0  501 -0.00000000000E+00  0.00000000000E+00  0.26299520294E+03  0.26303719655E+03  0.47000000000E+01 0.  1.
          5   -1    0    0  501    0  0.00000000000E+00 -0.00000000000E+00 -0.94435101843E+02  0.94551988134E+02  0.47000000000E+01 0.  1.
         25    2    1    2    0    0 -0.35656670301E+02 -0.48727100073E+02  0.16907713304E+03  0.21876555505E+03  0.12500225094E+03 0.  0.
         25    2    1    2    0    0  0.35656670301E+02  0.48727100073E+02 -0.51703194460E+00  0.13882362963E+03  0.12500401755E+03 0.  0.
          5    1    4    4  502    0 -0.36371625352E+02  0.70054289958E+01 -0.32526624294E+02  0.49518102287E+02  0.47000000000E+01 0.  1.
         -5    1    4    4    0  502  0.72028295653E+02  0.41721671077E+02  0.32009592349E+02  0.89305527346E+02  0.47000000000E+01 0.  1.
          5    1    3    3  503    0  0.32540304545E+02 -0.46580625745E+02  0.31528327043E+02  0.65151757618E+02  0.47000000000E+01 0. -1.
         -5    1    3    3    0  503 -0.68196974847E+02 -0.21464743287E+01  0.13754880600E+03  0.15361379743E+03  0.47000000000E+01 0. -1.
<mgrwt>
<rscale>  0 0.13882227E+03</rscale>
<asrwt>0</asrwt>
<pdfrwt beam="2">  1        5 0.14540699E-01 0.13882267E+03</pdfrwt>
<pdfrwt beam="1">  1       -5 0.40473021E-01 0.13882267E+03</pdfrwt>
<totfact> 0.17755187E+02</totfact>
</mgrwt>
</event>
<event>
 8    1  0.3694627E-007  0.1328006E+03  0.7546771E-02  0.1223361E+00
         -5   -1    0    0    0  501 -0.00000000000E+00  0.00000000000E+00  0.20404453261E+03  0.20409865577E+03  0.47000000000E+01 0. -1.
          5   -1    0    0  501    0  0.00000000000E+00 -0.00000000000E+00 -0.91103089646E+02  0.91224245369E+02  0.47000000000E+01 0. -1.
         25    2    1    2    0    0  0.44544560338E+02  0.49436660650E+01  0.90347230859E+02  0.16061400765E+03  0.12500231854E+03 0.  0.
         25    2    1    2    0    0 -0.44544560338E+02 -0.49436660650E+01  0.22594212100E+02  0.13470889349E+03  0.12500931915E+03 0.  0.
          5    1    4    4  502    0 -0.68796674970E+02  0.25604721465E+02  0.48082399442E+02  0.87878275952E+02  0.47000000000E+01 0. -1.
         -5    1    4    4    0  502  0.24252114631E+02 -0.30548387530E+02 -0.25488187342E+02  0.46830617535E+02  0.47000000000E+01 0. -1.
          5    1    3    3  503    0  0.27747526072E+02 -0.32529739909E+02 -0.16484787711E+02  0.46064600373E+02  0.47000000000E+01 0. -1.
         -5    1    3    3    0  503  0.16797034266E+02  0.37473405974E+02  0.10683201857E+03  0.11454940728E+03  0.47000000000E+01 0. -1.
<mgrwt>
<rscale>  0 0.13279891E+03</rscale>
<asrwt>0</asrwt>
<pdfrwt beam="2">  1        5 0.14029343E-01 0.13280056E+03</pdfrwt>
<pdfrwt beam="1">  1       -5 0.31404950E-01 0.13280056E+03</pdfrwt>
<totfact> 0.31063631E+02</totfact>
</mgrwt>
</event>
<event>
 8    1  0.3694627E-007  0.1506765E+03  0.7546771E-02  0.1199644E+00
          5   -1    0    0  501    0  0.00000000000E+00  0.00000000000E+00  0.46973546174E+02  0.47208092952E+02  0.47000000000E+01 0.  1.
         -5   -1    0    0    0  501 -0.00000000000E+00 -0.00000000000E+00 -0.49269775553E+03  0.49272017242E+03  0.47000000000E+01 0.  1.
         25    2    1    2    0    0 -0.75600142060E+01 -0.83792327941E+02 -0.26287043027E+03  0.30299217462E+03  0.12500034693E+03 0.  0.
         25    2    1    2    0    0  0.75600142060E+01  0.83792327941E+02 -0.18285377908E+03  0.23693609075E+03  0.12499959415E+03 0.  0.
          5    1    3    3  502    0  0.18397946259E+02 -0.87830503858E+02 -0.26123135185E+03  0.27625457648E+03  0.47000000000E+01 0.  1.
         -5    1    3    3    0  502 -0.25957960465E+02  0.40381759177E+01 -0.16390784195E+01  0.26737598140E+02  0.47000000000E+01 0.  1.
          5    1    4    4  503    0 -0.32251739729E+02  0.64467434371E+02 -0.17808475447E+03  0.19217828854E+03  0.47000000000E+01 0. -1.
         -5    1    4    4    0  503  0.39811753935E+02  0.19324893569E+02 -0.47690246119E+01  0.44757802209E+02  0.47000000000E+01 0. -1.
<mgrwt>
<rscale>  0 0.15067630E+03</rscale>
<asrwt>0</asrwt>
<pdfrwt beam="1">  1        5 0.72464662E-02 0.15067646E+03</pdfrwt>
<pdfrwt beam="2">  1       -5 0.75819417E-01 0.15067646E+03</pdfrwt>
<totfact> 0.15890548E+02</totfact>
</mgrwt>
</event>
<event>
 8    1  0.3694627E-007  0.1892388E+03  0.7546771E-02  0.1159151E+00
         -5   -1    0    0    0  501 -0.00000000000E+00  0.00000000000E+00  0.94924665857E+02  0.95040950059E+02  0.47000000000E+01 0.  1.
          5   -1    0    0  501    0  0.00000000000E+00 -0.00000000000E+00 -0.38421934331E+03  0.38424808883E+03  0.47000000000E+01 0.  1.
         25    2    1    2    0    0  0.13489788105E+03  0.44615921447E+02 -0.11155849116E+03  0.21967387662E+03  0.12499318526E+03 0.  0.
         25    2    1    2    0    0 -0.13489788105E+03 -0.44615921447E+02 -0.17773618629E+03  0.25961516227E+03  0.12498744660E+03 0.  0.
          5    1    3    3  502    0  0.25019335687E+02 -0.36423039341E+02 -0.57701125702E+02  0.72829354386E+02  0.47000000000E+01 0. -1.
         -5    1    3    3    0  502  0.10987854536E+03  0.81038960788E+02 -0.53857365461E+02  0.14684452223E+03  0.47000000000E+01 0. -1.
          5    1    4    4  503    0 -0.68858378799E+02 -0.33862815133E+02 -0.82261019949E+01  0.77317044263E+02  0.47000000000E+01 0.  1.
         -5    1    4    4    0  503 -0.66039502247E+02 -0.10753106315E+02 -0.16951008429E+03  0.18229811801E+03  0.47000000000E+01 0.  1.
<mgrwt>
<rscale>  0 0.18923783E+03</rscale>
<asrwt>0</asrwt>
<pdfrwt beam="2">  1        5 0.59121823E-01 0.18923878E+03</pdfrwt>
<pdfrwt beam="1">  1       -5 0.14614951E-01 0.18923878E+03</pdfrwt>
<totfact> 0.86656744E+01</totfact>
</mgrwt>
</event>
<event>
 8    1  0.3694627E-007  0.1429303E+03  0.7546771E-02  0.1209444E+00
          5   -1    0    0  501    0  0.00000000000E+00  0.00000000000E+00  0.72474533785E+03  0.72476057753E+03  0.47000000000E+01 0.  1.
         -5   -1    0    0    0  501 -0.00000000000E+00 -0.00000000000E+00 -0.30457517040E+02  0.30818019798E+02  0.47000000000E+01 0.  1.
         25    2    1    2    0    0 -0.66888924523E+02 -0.18111688872E+02  0.23993165514E+03  0.27927134163E+03  0.12499248626E+03 0.  0.
         25    2    1    2    0    0  0.66888924523E+02  0.18111688872E+02  0.45435616567E+03  0.47630725569E+03  0.12500765995E+03 0.  0.
          5    1    4    4  502    0  0.32453791150E+02 -0.50150446296E+02  0.27189432630E+03  0.27841862455E+03  0.47000000000E+01 0.  1.
         -5    1    4    4    0  502  0.34435133373E+02  0.68262135167E+02  0.18246183937E+03  0.19788863114E+03  0.47000000000E+01 0.  1.
          5    1    3    3  503    0 -0.27890062341E+01 -0.55510373561E+02  0.48541142166E+02  0.73942630541E+02  0.47000000000E+01 0. -1.
         -5    1    3    3    0  503 -0.64099918289E+02  0.37398684689E+02  0.19139051298E+03  0.20532871109E+03  0.47000000000E+01 0. -1.
<mgrwt>
<rscale>  0 0.14292700E+03</rscale>
<asrwt>0</asrwt>
<pdfrwt beam="1">  1        5 0.11152818E+00 0.14293032E+03</pdfrwt>
<pdfrwt beam="2">  1       -5 0.47146753E-02 0.14293032E+03</pdfrwt>
<totfact> 0.12781320E+02</totfact>
</mgrwt>
</event>
<event>
 8    1  0.3694627E-007  0.1300642E+03  0.7546771E-02  0.1227369E+00
         -5   -1    0    0    0  501 -0.00000000000E+00  0.00000000000E+00  0.79572700608E+02  0.79711383641E+02  0.47000000000E+01 0.  1.
          5   -1    0    0  501    0  0.00000000000E+00 -0.00000000000E+00 -0.21743537194E+03  0.21748616271E+03  0.47000000000E+01 0.  1.
         25    2    1    2    0    0  0.22454445593E+02  0.27946266363E+02 -0.45896138979E+02  0.13790369195E+03  0.12500310696E+03 0.  0.
         25    2    1    2    0    0 -0.22454445593E+02 -0.27946266363E+02 -0.91966532355E+02  0.15929385441E+03  0.12502596949E+03 0.  0.
          5    1    4    4  502    0 -0.67625377478E+01 -0.11097950623E+02 -0.12108791172E+03  0.12187398734E+03  0.47000000000E+01 0. -1.
         -5    1    4    4    0  502 -0.15691907845E+02 -0.16848315740E+02  0.29121379366E+02  0.37419867067E+02  0.47000000000E+01 0. -1.
          5    1    3    3  503    0 -0.20263997500E+02 -0.61179411386E+01 -0.73413004620E+02  0.76548142014E+02  0.47000000000E+01 0.  1.
         -5    1    3    3    0  503  0.42718443092E+02  0.34064207502E+02  0.27516865641E+02  0.61355549934E+02  0.47000000000E+01 0.  1.
<mgrwt>
<rscale>  0 0.13005868E+03</rscale>
<asrwt>0</asrwt>
<pdfrwt beam="2">  1        5 0.33466170E-01 0.13006417E+03</pdfrwt>
<pdfrwt beam="1">  1       -5 0.12256529E-01 0.13006417E+03</pdfrwt>
<totfact> 0.34595573E+02</totfact>
</mgrwt>
</event>
<event>
 8    1  0.3694627E-007  0.1362876E+03  0.7546771E-02  0.1218415E+00
         -5   -1    0    0    0  501 -0.00000000000E+00  0.00000000000E+00  0.76849478095E+02  0.76993066463E+02  0.47000000000E+01 0. -1.
          5   -1    0    0  501    0  0.00000000000E+00 -0.00000000000E+00 -0.25506475172E+03  0.25510805078E+03  0.47000000000E+01 0. -1.
         25    2    1    2    0    0  0.51344583027E+02 -0.17664585475E+02 -0.50545004164E+02  0.14535855398E+03  0.12500403187E+03 0.  0.
         25    2    1    2    0    0 -0.51344583027E+02  0.17664585475E+02 -0.12767026946E+03  0.18674256326E+03  0.12499913376E+03 0.  0.
          5    1    4    4  502    0  0.31485493298E+01  0.44801949916E+02  0.72551546219E-01  0.45157760605E+02  0.47000000000E+01 0. -1.
         -5    1    4    4    0  502 -0.54493132357E+02 -0.27137364441E+02 -0.12774282101E+03  0.14158480265E+03  0.47000000000E+01 0. -1.
          5    1    3    3  503    0 -0.19271612855E+02 -0.39490807806E+02 -0.55718441784E+02  0.71116479933E+02  0.47000000000E+01 0.  1.
         -5    1    3    3    0  503  0.70616195882E+02  0.21826222331E+02  0.51734376207E+01  0.74242074048E+02  0.47000000000E+01 0.  1.
<mgrwt>
<rscale>  0 0.13628648E+03</rscale>
<asrwt>0</asrwt>
<pdfrwt beam="2">  1        5 0.39255106E-01 0.13628761E+03</pdfrwt>
<pdfrwt beam="1">  1       -5 0.11837373E-01 0.13628761E+03</pdfrwt>
<totfact> 0.27127475E+02</totfact>
</mgrwt>
</event>
<event>
 8    1  0.3694627E-007  0.1437329E+03  0.7546771E-02  0.1208394E+00
          5   -1    0    0  501    0  0.00000000000E+00  0.00000000000E+00  0.83427585654E+03  0.83428909547E+03  0.47000000000E+01 0.  1.
         -5   -1    0    0    0  501 -0.00000000000E+00 -0.00000000000E+00 -0.25039232245E+02  0.25476521572E+02  0.47000000000E+01 0.  1.
         25    2    1    2    0    0  0.55008834450E+02  0.44831598721E+02  0.34361111316E+03  0.37246051144E+03  0.12498956510E+03 0.  0.
         25    2    1    2    0    0 -0.55008834450E+02 -0.44831598721E+02  0.46562551114E+03  0.48730510559E+03  0.12499322064E+03 0.  0.
          5    1    3    3  502    0  0.89833469490E+02  0.53803708017E+02  0.22099311534E+03  0.24459136997E+03  0.47000000000E+01 0. -1.
         -5    1    3    3    0  502 -0.34824635040E+02 -0.89721092965E+01  0.12261799782E+03  0.12786914147E+03  0.47000000000E+01 0. -1.
          5    1    4    4  503    0 -0.78955142817E+02 -0.66930468992E+02  0.40787282653E+03  0.42082767836E+03  0.47000000000E+01 0. -1.
         -5    1    4    4    0  503  0.23946308367E+02  0.22098870271E+02  0.57752684610E+02  0.66477427232E+02  0.47000000000E+01 0. -1.
<mgrwt>
<rscale>  0 0.14373211E+03</rscale>
<asrwt>0</asrwt>
<pdfrwt beam="1">  1        5 0.12838477E+00 0.14373291E+03</pdfrwt>
<pdfrwt beam="2">  1       -5 0.38868460E-02 0.14373291E+03</pdfrwt>
<totfact> 0.12297642E+02</totfact>
</mgrwt>
</event>
<event>
 8    1  0.3694627E-007  0.1632990E+03  0.7546771E-02  0.1185023E+00
         -5   -1    0    0    0  501 -0.00000000000E+00  0.00000000000E+00  0.36937125593E+02  0.37234946584E+02  0.47000000000E+01 0. -1.
          5   -1    0    0  501    0  0.00000000000E+00 -0.00000000000E+00 -0.72196856374E+03  0.72198386202E+03  0.47000000000E+01 0. -1.
         25    2    1    2    0    0 -0.10304776813E+03 -0.20543772550E+02 -0.31708761693E+03  0.35666544358E+03  0.12499917092E+03 0.  0.
         25    2    1    2    0    0  0.10304776813E+03  0.20543772550E+02 -0.36794382121E+03  0.40255336502E+03  0.12500266803E+03 0.  0.
          5    1    4    4  502    0 -0.75406049785E+01  0.48352949611E+02 -0.11264555566E+03  0.12290638580E+03  0.47000000000E+01 0.  1.
         -5    1    4    4    0  502  0.11058837311E+03 -0.27809177061E+02 -0.25529826555E+03  0.27964697923E+03  0.47000000000E+01 0.  1.
          5    1    3    3  503    0 -0.12742127361E+03 -0.32219994776E+02 -0.22540588647E+03  0.26096783842E+03  0.47000000000E+01 0. -1.
         -5    1    3    3    0  503  0.24373505483E+02  0.11676222226E+02 -0.91681730456E+02  0.95697605166E+02  0.47000000000E+01 0. -1.
<mgrwt>
<rscale>  0 0.16329831E+03</rscale>
<asrwt>0</asrwt>
<pdfrwt beam="2">  1        5 0.11109616E+00 0.16329898E+03</pdfrwt>
<pdfrwt beam="1">  1       -5 0.57067213E-02 0.16329898E+03</pdfrwt>
<totfact> 0.97788381E+01</totfact>
</mgrwt>
</event>
<event>
 8    1  0.3694627E-007  0.1593997E+03  0.7546771E-02  0.1189392E+00
          5   -1    0    0  501    0  0.00000000000E+00  0.00000000000E+00  0.26907363979E+03  0.26911468490E+03  0.47000000000E+01 0.  1.
         -5   -1    0    0    0  501 -0.00000000000E+00 -0.00000000000E+00 -0.95869236706E+02  0.95984376576E+02  0.47000000000E+01 0.  1.
         25    2    1    2    0    0 -0.87461417359E+02 -0.46170450814E+02  0.11001340533E+03  0.19363075353E+03  0.12493482022E+03 0.  0.
         25    2    1    2    0    0  0.87461417359E+02  0.46170450814E+02  0.63190997746E+02  0.17146830794E+03  0.12500827324E+03 0.  0.
          5    1    4    4  502    0  0.28869562047E+02  0.32475112108E+02  0.94030362239E+02  0.10369128961E+03  0.47000000000E+01 0.  1.
         -5    1    4    4    0  502  0.58591855313E+02  0.13695338706E+02 -0.30839364493E+02  0.67777018329E+02  0.47000000000E+01 0.  1.
          5    1    3    3  503    0 -0.10257531905E+03 -0.71898037583E+02  0.10389571874E+03  0.16281103850E+03  0.47000000000E+01 0.  1.
         -5    1    3    3    0  503  0.15113901687E+02  0.25727586769E+02  0.61176865957E+01  0.30819715028E+02  0.47000000000E+01 0.  1.
<mgrwt>
<rscale>  0 0.15938534E+03</rscale>
<asrwt>0</asrwt>
<pdfrwt beam="1">  1        5 0.41407959E-01 0.15939974E+03</pdfrwt>
<pdfrwt beam="2">  1       -5 0.14761128E-01 0.15939974E+03</pdfrwt>
<totfact> 0.17249411E+02</totfact>
</mgrwt>
</event>
<event>
 8    1  0.3694627E-007  0.1274245E+03  0.7546771E-02  0.1231330E+00
          5   -1    0    0  501    0  0.00000000000E+00  0.00000000000E+00  0.41433988836E+03  0.41436654436E+03  0.47000000000E+01 0.  1.
         -5   -1    0    0    0  501 -0.00000000000E+00 -0.00000000000E+00 -0.39126625534E+02  0.39407903086E+02  0.47000000000E+01 0.  1.
         25    2    1    2    0    0  0.18716929722E+02  0.16162837349E+02  0.17564561582E+03  0.21699557067E+03  0.12499653822E+03 0.  0.
         25    2    1    2    0    0 -0.18716929722E+02 -0.16162837349E+02  0.19956764701E+03  0.23677887678E+03  0.12500171993E+03 0.  0.
          5    1    4    4  502    0 -0.30474378275E+02  0.30425923103E+02  0.17923110295E+03  0.18439171021E+03  0.47000000000E+01 0.  1.
         -5    1    4    4    0  502  0.11757448553E+02 -0.46588760452E+02  0.20336544058E+02  0.52387166570E+02  0.47000000000E+01 0.  1.
          5    1    3    3  503    0  0.11123333724E+02  0.53989774444E+02  0.23749866201E+02  0.60206066490E+02  0.47000000000E+01 0.  1.
         -5    1    3    3    0  503  0.75935959981E+01 -0.37826937095E+02  0.15189574961E+03  0.15678950418E+03  0.47000000000E+01 0.  1.
<mgrwt>
<rscale>  0 0.12742318E+03</rscale>
<asrwt>0</asrwt>
<pdfrwt beam="1">  1        5 0.63768283E-01 0.12742445E+03</pdfrwt>
<pdfrwt beam="2">  1       -5 0.60431683E-02 0.12742445E+03</pdfrwt>
<totfact> 0.30139188E+02</totfact>
</mgrwt>
</event>
<event>
 8    1  0.3694627E-007  0.1250477E+03  0.7546771E-02  0.1234995E+00
         -5   -1    0    0    0  501 -0.00000000000E+00  0.00000000000E+00  0.80584923362E+02  0.80721867379E+02  0.47000000000E+01 0. -1.
          5   -1    0    0  501    0  0.00000000000E+00 -0.00000000000E+00 -0.19744599687E+03  0.19750192829E+03  0.47000000000E+01 0. -1.
         25    2    1    2    0    0  0.29991354744E+01 -0.16152788245E+01 -0.39306097944E+02  0.13107859289E+03  0.12500009695E+03 0.  0.
         25    2    1    2    0    0 -0.29991354744E+01  0.16152788245E+01 -0.77554975560E+02  0.14714520278E+03  0.12500133011E+03 0.  0.
          5    1    3    3  502    0  0.62490730813E+01  0.20415521722E+02  0.41620307535E+02  0.47012598746E+02  0.47000000000E+01 0. -1.
         -5    1    3    3    0  502 -0.32499376069E+01 -0.22030800546E+02 -0.80926405479E+02  0.84065994141E+02  0.47000000000E+01 0. -1.
          5    1    4    4  503    0 -0.36572314684E+01 -0.18864186043E+02  0.30890094288E+02  0.36681341063E+02  0.47000000000E+01 0. -1.
         -5    1    4    4    0  503  0.65809599404E+00  0.20479464868E+02 -0.10844506985E+03  0.11046386172E+03  0.47000000000E+01 0. -1.
<mgrwt>
<rscale>  0 0.12504743E+03</rscale>
<asrwt>0</asrwt>
<pdfrwt beam="2">  1        5 0.30391144E-01 0.12504774E+03</pdfrwt>
<pdfrwt beam="1">  1       -5 0.12412517E-01 0.12504774E+03</pdfrwt>
<totfact> 0.40334322E+02</totfact>
</mgrwt>
</event>
<event>
 8    1  0.3694627E-007  0.1433770E+03  0.7546771E-02  0.1208861E+00
         -5   -1    0    0    0  501 -0.00000000000E+00  0.00000000000E+00  0.94539977407E+03  0.94541145689E+03  0.47000000000E+01 0. -1.
          5   -1    0    0  501    0  0.00000000000E+00 -0.00000000000E+00 -0.23948979753E+02  0.24405811423E+02  0.47000000000E+01 0. -1.
         25    2    1    2    0    0  0.50038622827E+02 -0.49274813505E+02  0.61494650416E+03  0.63143605672E+03  0.12498167755E+03 0.  0.
         25    2    1    2    0    0 -0.50038622827E+02  0.49274813505E+02  0.30650429016E+03  0.33838121159E+03  0.12500037382E+03 0.  0.
          5    1    3    3  502    0  0.82863269039E+02 -0.33819654931E+01  0.43256189849E+03  0.44046525978E+03  0.47000000000E+01 0. -1.
         -5    1    3    3    0  502 -0.32824646212E+02 -0.45892848012E+02  0.18238460567E+03  0.19097079694E+03  0.47000000000E+01 0. -1.
          5    1    4    4  503    0 -0.77596007094E+02 -0.58258000873E+01  0.20770795856E+03  0.22185528236E+03  0.47000000000E+01 0.  1.
         -5    1    4    4    0  503  0.27557384267E+02  0.55100613592E+02  0.98796331599E+02  0.11652592923E+03  0.47000000000E+01 0.  1.
<mgrwt>
<rscale>  0 0.14337293E+03</rscale>
<asrwt>0</asrwt>
<pdfrwt beam="2">  1        5 0.37204983E-02 0.14337700E+03</pdfrwt>
<pdfrwt beam="1">  1       -5 0.14548215E+00 0.14337700E+03</pdfrwt>
<totfact> 0.94793399E+01</totfact>
</mgrwt>
</event>
<event>
 8    1  0.3694627E-007  0.1453133E+03  0.7546771E-02  0.1206356E+00
         -5   -1    0    0    0  501 -0.00000000000E+00  0.00000000000E+00  0.26722653838E+03  0.26726786716E+03  0.47000000000E+01 0. -1.
          5   -1    0    0  501    0  0.00000000000E+00 -0.00000000000E+00 -0.14291189783E+03  0.14298916233E+03  0.47000000000E+01 0. -1.
         25    2    1    2    0    0 -0.22806279809E+02 -0.70482139831E+02  0.19937438582E+03  0.24671057251E+03  0.12501240912E+03 0.  0.
         25    2    1    2    0    0  0.22806279809E+02  0.70482139831E+02 -0.75059745274E+02  0.16354645697E+03  0.12500247915E+03 0.  0.
          5    1    3    3  502    0 -0.45138808893E+02 -0.14161010059E+02  0.17481860503E+03  0.18116754936E+03  0.47000000000E+01 0.  1.
         -5    1    3    3    0  502  0.22332529084E+02 -0.56321129771E+02  0.24555780788E+02  0.65543023154E+02  0.47000000000E+01 0.  1.
          5    1    4    4  503    0  0.43470381415E+02  0.42237904373E+02  0.18499574769E+02  0.63545565485E+02  0.47000000000E+01 0.  1.
         -5    1    4    4    0  503 -0.20664101606E+02  0.28244235458E+02 -0.93559320043E+02  0.10000089149E+03  0.47000000000E+01 0.  1.
<mgrwt>
<rscale>  0 0.14531118E+03</rscale>
<asrwt>0</asrwt>
<pdfrwt beam="2">  1        5 0.21995568E-01 0.14531332E+03</pdfrwt>
<pdfrwt beam="1">  1       -5 0.41120898E-01 0.14531332E+03</pdfrwt>
<totfact> 0.81266753E+01</totfact>
</mgrwt>
</event>
<event>
 8    1  0.3694627E-007  0.1292553E+03  0.7546771E-02  0.1228584E+00
         -5   -1    0    0    0  501 -0.00000000000E+00  0.00000000000E+00  0.26578224134E+02  0.26990590919E+02  0.47000000000E+01 0.  1.
          5   -1    0    0  501    0  0.00000000000E+00 -0.00000000000E+00 -0.62309245414E+03  0.62311017999E+03  0.47000000000E+01 0.  1.
         25    2    1    2    0    0 -0.23212763570E+02 -0.23057003243E+02 -0.29911681709E+03  0.32582903129E+03  0.12499291809E+03 0.  0.
         25    2    1    2    0    0  0.23212763570E+02  0.23057003243E+02 -0.29739741292E+03  0.32427173962E+03  0.12504592003E+03 0.  0.
          5    1    4    4  502    0 -0.20673792316E+02 -0.10648201108E+02 -0.25039384965E+03  0.25151532721E+03  0.47000000000E+01 0.  1.
         -5    1    4    4    0  502  0.43886555886E+02  0.33705204351E+02 -0.47003563266E+02  0.72756412415E+02  0.47000000000E+01 0.  1.
          5    1    3    3  503    0 -0.90604456978E+01  0.14095613206E+01  0.10604050302E+02  0.14785615380E+02  0.47000000000E+01 0. -1.
         -5    1    3    3    0  503 -0.14152317872E+02 -0.24466564563E+02 -0.30972086739E+03  0.31104341591E+03  0.47000000000E+01 0. -1.
<mgrwt>
<rscale>  0 0.12924251E+03</rscale>
<asrwt>0</asrwt>
<pdfrwt beam="2">  1        5 0.95893451E-01 0.12925533E+03</pdfrwt>
<pdfrwt beam="1">  1       -5 0.41220421E-02 0.12925533E+03</pdfrwt>
<totfact> 0.22348525E+02</totfact>
</mgrwt>
</event>
<event>
 8    1  0.3694627E-007  0.1271962E+03  0.7546771E-02  0.1231681E+00
          5   -1    0    0  501    0  0.00000000000E+00  0.00000000000E+00  0.54374045859E+02  0.54576797845E+02  0.47000000000E+01 0.  1.
         -5   -1    0    0    0  501 -0.00000000000E+00 -0.00000000000E+00 -0.29723499193E+03  0.29727214876E+03  0.47000000000E+01 0.  1.
         25    2    1    2    0    0 -0.22285656612E+02  0.74375199806E+01 -0.12855953817E+03  0.18084917035E+03  0.12500760124E+03 0.  0.
         25    2    1    2    0    0  0.22285656612E+02 -0.74375199806E+01 -0.11430140790E+03  0.17099977626E+03  0.12499657771E+03 0.  0.
          5    1    3    3  502    0  0.22184137744E+02 -0.32900979198E+02 -0.11121853126E+03  0.11817894100E+03  0.47000000000E+01 0.  1.
         -5    1    3    3    0  502 -0.44469794356E+02  0.40338499179E+02 -0.17341006911E+02  0.62670229350E+02  0.47000000000E+01 0.  1.
          5    1    4    4  503    0  0.58270563118E+02  0.35637229522E+02 -0.46064155694E+02  0.82519495236E+02  0.47000000000E+01 0.  1.
         -5    1    4    4    0  503 -0.35984906507E+02 -0.43074749503E+02 -0.68237252208E+02  0.88480281023E+02  0.47000000000E+01 0.  1.
<mgrwt>
<rscale>  0 0.12719347E+03</rscale>
<asrwt>0</asrwt>
<pdfrwt beam="1">  1        5 0.83836925E-02 0.12719618E+03</pdfrwt>
<pdfrwt beam="2">  1       -5 0.45746914E-01 0.12719618E+03</pdfrwt>
<totfact> 0.35227846E+02</totfact>
</mgrwt>
</event>
<event>
 8    1  0.3694627E-007  0.1389681E+03  0.7546771E-02  0.1214728E+00
          5   -1    0    0  501    0  0.00000000000E+00  0.00000000000E+00  0.58673158428E+01  0.75176721928E+01  0.47000000000E+01 0.  1.
         -5   -1    0    0    0  501 -0.00000000000E+00 -0.00000000000E+00 -0.29036265616E+04  0.29036303654E+04  0.47000000000E+01 0.  1.
         25    2    1    2    0    0  0.51424363160E+02  0.32289207114E+02 -0.15693084262E+04  0.15754494808E+04  0.12500028817E+03 0.  0.
         25    2    1    2    0    0 -0.51424363160E+02 -0.32289207114E+02 -0.13284508196E+04  0.13356985568E+04  0.12498798634E+03 0.  0.
          5    1    4    4  502    0 -0.63490530431E+02 -0.47654883014E+02 -0.44700918050E+03  0.45402789868E+03  0.47000000000E+01 0.  1.
         -5    1    4    4    0  502  0.12066167271E+02  0.15365675900E+02 -0.88144163905E+03  0.88167065815E+03  0.47000000000E+01 0.  1.
          5    1    3    3  503    0  0.28468709243E+02  0.51576657692E+02 -0.14789537247E+04  0.14801340577E+04  0.47000000000E+01 0.  1.
         -5    1    3    3    0  503  0.22955653917E+02 -0.19287450579E+02 -0.90354701485E+02  0.95315423080E+02  0.47000000000E+01 0.  1.
<mgrwt>
<rscale>  0 0.13896532E+03</rscale>
<asrwt>0</asrwt>
<pdfrwt beam="1">  1        5 0.10299094E-02 0.13896809E+03</pdfrwt>
<pdfrwt beam="2">  1       -5 0.44683802E+00 0.13896809E+03</pdfrwt>
<totfact> 0.65831926E+00</totfact>
</mgrwt>
</event>
<event>
 8    1  0.3694627E-007  0.2331154E+03  0.7546771E-02  0.1124474E+00
         -5   -1    0    0    0  501 -0.00000000000E+00  0.00000000000E+00  0.13771528501E+03  0.13779546337E+03  0.47000000000E+01 0.  1.
          5   -1    0    0  501    0  0.00000000000E+00 -0.00000000000E+00 -0.63416488532E+03  0.63418230168E+03  0.47000000000E+01 0.  1.
         25    2    1    2    0    0  0.19425573853E+03  0.31143297635E+02 -0.10848721685E+02  0.23332110570E+03  0.12496338129E+03 0.  0.
         25    2    1    2    0    0 -0.19425573853E+03 -0.31143297635E+02 -0.48560087862E+03  0.53865665935E+03  0.12505033551E+03 0.  0.
          5    1    3    3  502    0  0.11813073595E+03 -0.43801381540E+02 -0.85581795719E+01  0.12636757590E+03  0.47000000000E+01 0.  1.
         -5    1    3    3    0  502  0.76125002583E+02  0.74944679175E+02 -0.22905421132E+01  0.10695352981E+03  0.47000000000E+01 0.  1.
          5    1    4    4  503    0 -0.13835890414E+03 -0.32962667617E+02 -0.18787981550E+03  0.23569183033E+03  0.47000000000E+01 0. -1.
         -5    1    4    4    0  503 -0.55896834391E+02  0.18193699819E+01 -0.29772106311E+03  0.30296482902E+03  0.47000000000E+01 0. -1.
<mgrwt>
<rscale>  0 0.23310373E+03</rscale>
<asrwt>0</asrwt>
<pdfrwt beam="2">  1        5 0.97571334E-01 0.23311539E+03</pdfrwt>
<pdfrwt beam="1">  1       -5 0.21194475E-01 0.23311539E+03</pdfrwt>
<totfact> 0.14385767E+01</totfact>
</mgrwt>
</event>
<event>
 8    1  0.3694627E-007  0.2640716E+03  0.7546771E-02  0.1104721E+00
         -5   -1    0    0    0  501 -0.00000000000E+00  0.00000000000E+00  0.32552690271E+03  0.32556083055E+03  0.47000000000E+01 0.  1.
          5   -1    0    0  501    0  0.00000000000E+00 -0.00000000000E+00 -0.27134135657E+03  0.27138205870E+03  0.47000000000E+01 0.  1.
         25    2    1    2    0    0 -0.12803730541E+03 -0.19420384712E+03  0.16410399625E+03  0.31090821842E+03  0.12500045152E+03 0.  0.
         25    2    1    2    0    0  0.12803730541E+03  0.19420384712E+03 -0.10991845011E+03  0.28603467083E+03  0.12500032572E+03 0.  0.
          5    1    3    3  502    0 -0.10191201661E+03 -0.91191716873E+02  0.30618163006E+02  0.14021965005E+03  0.47000000000E+01 0. -1.
         -5    1    3    3    0  502 -0.26125288808E+02 -0.10301213024E+03  0.13348583325E+03  0.17068856836E+03  0.47000000000E+01 0. -1.
          5    1    4    4  503    0  0.43361181954E+01  0.25471630079E+02  0.25632874532E+02  0.36697957936E+02  0.47000000000E+01 0.  1.
         -5    1    4    4    0  503  0.12370118722E+03  0.16873221704E+03 -0.13555132464E+03  0.24933671290E+03  0.47000000000E+01 0.  1.
<mgrwt>
<rscale>  0 0.26407156E+03</rscale>
<asrwt>0</asrwt>
<pdfrwt beam="2">  1        5 0.41750565E-01 0.26407158E+03</pdfrwt>
<pdfrwt beam="1">  1       -5 0.50086803E-01 0.26407158E+03</pdfrwt>
<totfact> 0.17660027E+01</totfact>
</mgrwt>
</event>
<event>
 8    1  0.3694627E-007  0.1412898E+03  0.7546771E-02  0.1211605E+00
          5   -1    0    0  501    0  0.00000000000E+00  0.00000000000E+00  0.72482903300E+03  0.72484427091E+03  0.47000000000E+01 0.  1.
         -5   -1    0    0    0  501 -0.00000000000E+00 -0.00000000000E+00 -0.31373466767E+02  0.31723562488E+02  0.47000000000E+01 0.  1.
         25    2    1    2    0    0 -0.65748243690E+02  0.38795234050E+01  0.21167104671E+03  0.25449301267E+03  0.12499671688E+03 0.  0.
         25    2    1    2    0    0  0.65748243690E+02 -0.38795234050E+01  0.48178451952E+03  0.50207482074E+03  0.12499968046E+03 0.  0.
          5    1    3    3  502    0  0.29877407242E+02  0.87030001868E+01  0.13287248064E+02  0.34162005750E+02  0.47000000000E+01 0. -1.
         -5    1    3    3    0  502 -0.95625650932E+02 -0.48234767818E+01  0.19838379865E+03  0.22033100692E+03  0.47000000000E+01 0. -1.
          5    1    4    4  503    0  0.58941266004E+02 -0.30054091884E+01  0.76638661830E+02  0.96843584246E+02  0.47000000000E+01 0. -1.
         -5    1    4    4    0  503  0.68069776859E+01 -0.87411421665E+00  0.40514585769E+03  0.40523123649E+03  0.47000000000E+01 0. -1.
<mgrwt>
<rscale>  0 0.14128913E+03</rscale>
<asrwt>0</asrwt>
<pdfrwt beam="1">  1        5 0.11154026E+00 0.14128978E+03</pdfrwt>
<pdfrwt beam="2">  1       -5 0.48547900E-02 0.14128978E+03</pdfrwt>
<totfact> 0.12127928E+02</totfact>
</mgrwt>
</event>
<event>
 8    1  0.3694627E-007  0.1302316E+03  0.7546771E-02  0.1227113E+00
         -5   -1    0    0    0  501 -0.00000000000E+00  0.00000000000E+00  0.16109580190E+03  0.16116434900E+03  0.47000000000E+01 0. -1.
          5   -1    0    0  501    0  0.00000000000E+00 -0.00000000000E+00 -0.10543336447E+03  0.10553807058E+03  0.47000000000E+01 0. -1.
         25    2    1    2    0    0 -0.31406313939E+02  0.18687405700E+02  0.34912295949E+02  0.13482812164E+03  0.12499671311E+03 0.  0.
         25    2    1    2    0    0  0.31406313939E+02 -0.18687405700E+02  0.20750141482E+02  0.13187429794E+03  0.12499874559E+03 0.  0.
          5    1    4    4  502    0  0.44114805943E+02 -0.48094251480E+01 -0.44969122691E+02  0.63352653214E+02  0.47000000000E+01 0. -1.
         -5    1    4    4    0  502 -0.12708492003E+02 -0.13877980552E+02  0.65719264173E+02  0.68521644731E+02  0.47000000000E+01 0. -1.
          5    1    3    3  503    0  0.46926404855E+02  0.20843395761E+02  0.10534776634E+02  0.52627047591E+02  0.47000000000E+01 0.  1.
         -5    1    3    3    0  503 -0.78332718794E+02 -0.21559900609E+01  0.24377519315E+02  0.82201074049E+02  0.47000000000E+01 0.  1.
<mgrwt>
<rscale>  0 0.13023108E+03</rscale>
<asrwt>0</asrwt>
<pdfrwt beam="2">  1        5 0.16233845E-01 0.13023157E+03</pdfrwt>
<pdfrwt beam="1">  1       -5 0.24797296E-01 0.13023157E+03</pdfrwt>
<totfact> 0.37469883E+02</totfact>
</mgrwt>
</event>
<event>
 8    1  0.3694627E-007  0.1441577E+03  0.7546771E-02  0.1207842E+00
          5   -1    0    0  501    0  0.00000000000E+00  0.00000000000E+00  0.16464341512E+03  0.16471048583E+03  0.47000000000E+01 0. -1.
         -5   -1    0    0    0  501 -0.00000000000E+00 -0.00000000000E+00 -0.12612106759E+03  0.12620861179E+03  0.47000000000E+01 0. -1.
         25    2    1    2    0    0 -0.71042838660E+02  0.10503243736E+02  0.16724387106E+02  0.14512462359E+03  0.12499619272E+03 0.  0.
         25    2    1    2    0    0  0.71042838660E+02 -0.10503243736E+02  0.21797960421E+02  0.14579447404E+03  0.12499389796E+03 0.  0.
          5    1    3    3  502    0  0.24077795276E+02  0.17909588784E+01 -0.29910502031E+02  0.38725649005E+02  0.47000000000E+01 0.  1.
         -5    1    3    3    0  502 -0.95120633937E+02  0.87122848580E+01  0.46634889137E+02  0.10639897459E+03  0.47000000000E+01 0.  1.
          5    1    4    4  503    0  0.43734758753E+02  0.50876366918E+02  0.36992420740E+02  0.76757169216E+02  0.47000000000E+01 0. -1.
         -5    1    4    4    0  503  0.27308079907E+02 -0.61379610654E+02 -0.15194460319E+02  0.69037304819E+02  0.47000000000E+01 0. -1.
<mgrwt>
<rscale>  0 0.14415723E+03</rscale>
<asrwt>0</asrwt>
<pdfrwt beam="1">  1        5 0.25341650E-01 0.14415773E+03</pdfrwt>
<pdfrwt beam="2">  1       -5 0.19415135E-01 0.14415773E+03</pdfrwt>
<totfact> 0.26778270E+02</totfact>
</mgrwt>
</event>
<event>
 8    1  0.3694627E-007  0.1372993E+03  0.7546771E-02  0.1217010E+00
          5   -1    0    0  501    0  0.00000000000E+00  0.00000000000E+00  0.10263943687E+03  0.10274699023E+03  0.47000000000E+01 0. -1.
         -5   -1    0    0    0  501 -0.00000000000E+00 -0.00000000000E+00 -0.18346305915E+03  0.18352325213E+03  0.47000000000E+01 0. -1.
         25    2    1    2    0    0 -0.38827720757E+01  0.56680506066E+02 -0.42385806049E+02  0.14369295435E+03  0.12499341138E+03 0.  0.
         25    2    1    2    0    0  0.38827720757E+01 -0.56680506066E+02 -0.38437816235E+02  0.14257728801E+03  0.12499224637E+03 0.  0.
          5    1    4    4  502    0  0.62517822458E+02 -0.45222232454E+02 -0.19433509216E+02  0.79707463349E+02  0.47000000000E+01 0.  1.
         -5    1    4    4    0  502 -0.58635050383E+02 -0.11458273612E+02 -0.19004307019E+02  0.62869824660E+02  0.47000000000E+01 0.  1.
          5    1    3    3  503    0  0.45479172238E+02 -0.13567847526E+02  0.30452447400E+00  0.47693021807E+02  0.47000000000E+01 0.  1.
         -5    1    3    3    0  503 -0.49361944314E+02  0.70248353592E+02 -0.42690330523E+02  0.95999932547E+02  0.47000000000E+01 0.  1.
<mgrwt>
<rscale>  0 0.13729907E+03</rscale>
<asrwt>0</asrwt>
<pdfrwt beam="1">  1        5 0.15803586E-01 0.13729934E+03</pdfrwt>
<pdfrwt beam="2">  1       -5 0.28237990E-01 0.13729934E+03</pdfrwt>
<totfact> 0.31201681E+02</totfact>
</mgrwt>
</event>
<event>
 8    1  0.3694627E-007  0.1449856E+03  0.7546771E-02  0.1206776E+00
          5   -1    0    0  501    0  0.00000000000E+00  0.00000000000E+00  0.11757413781E+03  0.11766804103E+03  0.47000000000E+01 0. -1.
         -5   -1    0    0    0  501 -0.00000000000E+00 -0.00000000000E+00 -0.21716374333E+03  0.21721459761E+03  0.47000000000E+01 0. -1.
         25    2    1    2    0    0 -0.64699674624E+02 -0.34756344928E+02 -0.12034552212E+03  0.18841891872E+03  0.12499837130E+03 0.  0.
         25    2    1    2    0    0  0.64699674624E+02  0.34756344928E+02  0.20755916601E+02  0.14646371992E+03  0.12500704688E+03 0.  0.
          5    1    3    3  502    0 -0.55784274053E+02  0.25932613536E+02 -0.10591834440E+02  0.62599222305E+02  0.47000000000E+01 0.  1.
         -5    1    3    3    0  502 -0.89154005711E+01 -0.60688958465E+02 -0.10975368768E+03  0.12581969642E+03  0.47000000000E+01 0.  1.
          5    1    4    4  503    0 -0.51177711005E+01  0.18758484275E+02  0.60982469141E+02  0.64179621811E+02  0.47000000000E+01 0.  1.
         -5    1    4    4    0  503  0.69817445724E+02  0.15997860653E+02 -0.40226552539E+02  0.82284098112E+02  0.47000000000E+01 0.  1.
<mgrwt>
<rscale>  0 0.14498369E+03</rscale>
<asrwt>0</asrwt>
<pdfrwt beam="1">  1        5 0.18099464E-01 0.14498556E+03</pdfrwt>
<pdfrwt beam="2">  1       -5 0.33420942E-01 0.14498556E+03</pdfrwt>
<totfact> 0.17782355E+02</totfact>
</mgrwt>
</event>
<event>
 8    1  0.3694627E-007  0.1280230E+03  0.7546771E-02  0.1230424E+00
         -5   -1    0    0    0  501 -0.00000000000E+00  0.00000000000E+00  0.12948321261E+03  0.12956848517E+03  0.47000000000E+01 0.  1.
          5   -1    0    0  501    0  0.00000000000E+00 -0.00000000000E+00 -0.27334854916E+03  0.27338895246E+03  0.47000000000E+01 0.  1.
         25    2    1    2    0    0 -0.11277803630E+02  0.25234172062E+02  0.75756133532E+02  0.14874594301E+03  0.12498964557E+03 0.  0.
         25    2    1    2    0    0  0.11277803630E+02 -0.25234172062E+02 -0.21962147007E+03  0.25421149461E+03  0.12500376627E+03 0.  0.
          5    1    4    4  502    0  0.45118877356E+02 -0.62605709288E+02 -0.12843081609E+03  0.14990581193E+03  0.47000000000E+01 0. -1.
         -5    1    4    4    0  502 -0.33841073726E+02  0.37371537226E+02 -0.91190653980E+02  0.10430568268E+03  0.47000000000E+01 0. -1.
          5    1    3    3  503    0  0.19693591602E+02  0.62541010481E+02  0.93659700841E+01  0.66400504048E+02  0.47000000000E+01 0.  1.
         -5    1    3    3    0  503 -0.30971395232E+02 -0.37306838420E+02  0.66390163448E+02  0.82345438964E+02  0.47000000000E+01 0.  1.
<mgrwt>
<rscale>  0 0.12801957E+03</rscale>
<asrwt>0</asrwt>
<pdfrwt beam="2">  1        5 0.42063290E-01 0.12802302E+03</pdfrwt>
<pdfrwt beam="1">  1       -5 0.19930162E-01 0.12802302E+03</pdfrwt>
<totfact> 0.89565944E+01</totfact>
</mgrwt>
</event>
<event>
 8    1  0.3694627E-007  0.2184225E+03  0.7546771E-02  0.1135069E+00
          5   -1    0    0  501    0  0.00000000000E+00  0.00000000000E+00  0.29044809732E+03  0.29048612228E+03  0.47000000000E+01 0.  1.
         -5   -1    0    0    0  501 -0.00000000000E+00 -0.00000000000E+00 -0.43374277131E+03  0.43376823496E+03  0.47000000000E+01 0.  1.
         25    2    1    2    0    0 -0.92760303476E+02  0.15322975441E+03 -0.35710920017E+03  0.41859922734E+03  0.12495799592E+03 0.  0.
         25    2    1    2    0    0  0.92760303476E+02 -0.15322975441E+03  0.21381452618E+03  0.30565512990E+03  0.12499830115E+03 0.  0.
          5    1    3    3  502    0 -0.59684942250E+02  0.37289684307E+02 -0.44211484665E+02  0.83243968330E+02  0.47000000000E+01 0.  1.
         -5    1    3    3    0  502 -0.33075361226E+02  0.11594007011E+03 -0.31289771550E+03  0.33535525901E+03  0.47000000000E+01 0.  1.
          5    1    4    4  503    0  0.99538174584E+02 -0.14010917556E+03  0.11784363353E+03  0.20844097783E+03  0.47000000000E+01 0. -1.
         -5    1    4    4    0  503 -0.67778711084E+01 -0.13120578854E+02  0.95970892652E+02  0.97214152070E+02  0.47000000000E+01 0. -1.
<mgrwt>
<rscale>  0 0.21841678E+03</rscale>
<asrwt>0</asrwt>
<pdfrwt beam="1">  1        5 0.44689206E-01 0.21842254E+03</pdfrwt>
<pdfrwt beam="2">  1       -5 0.66734541E-01 0.21842254E+03</pdfrwt>
<totfact> 0.78247464E+00</totfact>
</mgrwt>
</event>
<event>
 8    1  0.3694627E-007  0.1430827E+03  0.7546771E-02  0.1209240E+00
         -5   -1    0    0    0  501 -0.00000000000E+00  0.00000000000E+00  0.18169289681E+03  0.18175367604E+03  0.47000000000E+01 0.  1.
          5   -1    0    0  501    0  0.00000000000E+00 -0.00000000000E+00 -0.17822477730E+03  0.17828673883E+03  0.47000000000E+01 0.  1.
         25    2    1    2    0    0  0.31770707437E+02  0.61963877102E+02  0.11097169258E+03  0.18107201590E+03  0.12499383373E+03 0.  0.
         25    2    1    2    0    0 -0.31770707437E+02 -0.61963877102E+02 -0.10750357307E+03  0.17896839897E+03  0.12499507866E+03 0.  0.
          5    1    3    3  502    0  0.18954032073E+02  0.68199614063E+02  0.18929036987E+01  0.70965595711E+02  0.47000000000E+01 0. -1.
         -5    1    3    3    0  502  0.12816675364E+02 -0.62357369616E+01  0.10907878888E+03  0.11010642019E+03  0.47000000000E+01 0. -1.
          5    1    4    4  503    0 -0.10814834397E+02 -0.92363600184E+02 -0.38888055840E+02  0.10090771115E+03  0.47000000000E+01 0.  1.
         -5    1    4    4    0  503 -0.20955873040E+02  0.30399723082E+02 -0.68615517228E+02  0.78060687819E+02  0.47000000000E+01 0.  1.
<mgrwt>
<rscale>  0 0.14308247E+03</rscale>
<asrwt>0</asrwt>
<pdfrwt beam="2">  1        5 0.27428638E-01 0.14308274E+03</pdfrwt>
<pdfrwt beam="1">  1       -5 0.27962195E-01 0.14308274E+03</pdfrwt>
<totfact> 0.11456138E+02</totfact>
</mgrwt>
</event>
<event>
 8    1  0.3694627E-007  0.1755886E+03  0.7546771E-02  0.1172147E+00
         -5   -1    0    0    0  501 -0.00000000000E+00  0.00000000000E+00  0.70403050918E+02  0.70559758918E+02  0.47000000000E+01 0. -1.
          5   -1    0    0  501    0  0.00000000000E+00 -0.00000000000E+00 -0.45518781773E+03  0.45521208179E+03  0.47000000000E+01 0. -1.
         25    2    1    2    0    0 -0.11203338391E+03  0.51461989322E+02 -0.14015883540E+03  0.22465190472E+03  0.12499665474E+03 0.  0.
         25    2    1    2    0    0  0.11203338391E+03 -0.51461989322E+02 -0.24462593141E+03  0.30111993599E+03  0.12502621358E+03 0.  0.
          5    1    3    3  502    0 -0.52192485940E+02 -0.39745119770E+02 -0.43746371911E+02  0.78990918399E+02  0.47000000000E+01 0.  1.
         -5    1    3    3    0  502 -0.59840897967E+02  0.91207109091E+02 -0.96412463493E+02  0.14566098632E+03  0.47000000000E+01 0.  1.
          5    1    4    4  503    0  0.64935302967E+02  0.19197139690E+02 -0.38261697397E+02  0.77917720907E+02  0.47000000000E+01 0.  1.
         -5    1    4    4    0  503  0.47098080940E+02 -0.70659129011E+02 -0.20636423401E+03  0.22320221509E+03  0.47000000000E+01 0.  1.
<mgrwt>
<rscale>  0 0.17558338E+03</rscale>
<asrwt>0</asrwt>
<pdfrwt beam="2">  1        5 0.70042814E-01 0.17558864E+03</pdfrwt>
<pdfrwt beam="1">  1       -5 0.10845160E-01 0.17558864E+03</pdfrwt>
<totfact> 0.99121159E+01</totfact>
</mgrwt>
</event>
<event>
 8    1  0.3694627E-007  0.1760126E+03  0.7546771E-02  0.1171724E+00
          5   -1    0    0  501    0  0.00000000000E+00  0.00000000000E+00  0.77434301874E+02  0.77576807789E+02  0.47000000000E+01 0.  1.
         -5   -1    0    0    0  501 -0.00000000000E+00 -0.00000000000E+00 -0.42792850322E+03  0.42795431283E+03  0.47000000000E+01 0.  1.
         25    2    1    2    0    0 -0.10160989012E+03  0.70905455349E+02 -0.24035380094E+03  0.29789839329E+03  0.12498539806E+03 0.  0.
         25    2    1    2    0    0  0.10160989012E+03 -0.70905455349E+02 -0.11014040040E+03  0.20763272732E+03  0.12501315245E+03 0.  0.
          5    1    3    3  502    0 -0.41792058209E+02  0.57648557530E+02 -0.22286291509E+03  0.23400833583E+03  0.47000000000E+01 0. -1.
         -5    1    3    3    0  502 -0.59817831913E+02  0.13256897819E+02 -0.17490885854E+02  0.63890057462E+02  0.47000000000E+01 0. -1.
          5    1    4    4  503    0  0.47751099754E+02 -0.82217072449E+02 -0.11825078191E+03  0.15180629747E+03  0.47000000000E+01 0. -1.
         -5    1    4    4    0  503  0.53858790369E+02  0.11311617100E+02  0.81103815135E+01  0.55826429849E+02  0.47000000000E+01 0. -1.
<mgrwt>
<rscale>  0 0.17600769E+03</rscale>
<asrwt>0</asrwt>
<pdfrwt beam="1">  1        5 0.11925917E-01 0.17601262E+03</pdfrwt>
<pdfrwt beam="2">  1       -5 0.65848100E-01 0.17601262E+03</pdfrwt>
<totfact> 0.96324995E+01</totfact>
</mgrwt>
</event>
<event>
 8    1  0.3694627E-007  0.1388465E+03  0.7546771E-02  0.1214892E+00
         -5   -1    0    0    0  501 -0.00000000000E+00  0.00000000000E+00  0.57499956183E+02  0.57691723506E+02  0.47000000000E+01 0. -1.
          5   -1    0    0  501    0  0.00000000000E+00 -0.00000000000E+00 -0.34425093264E+03  0.34428301530E+03  0.47000000000E+01 0. -1.
         25    2    1    2    0    0  0.60400882858E+02  0.11053232913E+01 -0.10953811983E+03  0.17684644497E+03  0.12500630790E+03 0.  0.
         25    2    1    2    0    0 -0.60400882858E+02 -0.11053232913E+01 -0.17721285663E+03  0.22512829383E+03  0.12501545400E+03 0.  0.
          5    1    3    3  502    0 -0.10150655979E+02 -0.16643363783E+02 -0.10154726347E+03  0.10350832862E+03  0.47000000000E+01 0.  1.
         -5    1    3    3    0  502  0.70551538838E+02  0.17748687075E+02 -0.79908563562E+01  0.73338116355E+02  0.47000000000E+01 0.  1.
          5    1    4    4  503    0  0.17356599466E+02  0.13071439077E+01 -0.13557065520E+03  0.13676422310E+03  0.47000000000E+01 0.  1.
         -5    1    4    4    0  503 -0.77757482324E+02 -0.24124671991E+01 -0.41642201430E+02  0.88364070727E+02  0.47000000000E+01 0.  1.
<mgrwt>
<rscale>  0 0.13884445E+03</rscale>
<asrwt>0</asrwt>
<pdfrwt beam="2">  1        5 0.52978900E-01 0.13884651E+03</pdfrwt>
<pdfrwt beam="1">  1       -5 0.88633666E-02 0.13884651E+03</pdfrwt>
<totfact> 0.24208528E+02</totfact>
</mgrwt>
</event>
<event>
 8    1  0.3694627E-007  0.3575257E+03  0.7546771E-02  0.1059568E+00
          5   -1    0    0  501    0  0.00000000000E+00  0.00000000000E+00  0.10570564177E+03  0.10581007845E+03  0.47000000000E+01 0.  1.
         -5   -1    0    0    0  501 -0.00000000000E+00 -0.00000000000E+00 -0.13854872849E+04  0.13854952569E+04  0.47000000000E+01 0.  1.
         25    2    1    2    0    0 -0.13854267880E+03  0.30496884462E+03 -0.90635346864E+03  0.97432058255E+03  0.12499566959E+03 0.  0.
         25    2    1    2    0    0  0.13854267880E+03 -0.30496884462E+03 -0.37342817454E+03  0.51698475275E+03  0.12499825198E+03 0.  0.
          5    1    3    3  502    0 -0.69273261203E+02  0.22590098136E+03 -0.74588126524E+03  0.78242634793E+03  0.47000000000E+01 0.  1.
         -5    1    3    3    0  502 -0.69269417600E+02  0.79067863260E+02 -0.16047220340E+03  0.19189423462E+03  0.47000000000E+01 0.  1.
          5    1    4    4  503    0  0.70250101164E+02 -0.36815558778E+02 -0.10257197443E+03  0.12974421768E+03  0.47000000000E+01 0. -1.
         -5    1    4    4    0  503  0.68292577640E+02 -0.26815328584E+03 -0.27085620011E+03  0.38724053508E+03  0.47000000000E+01 0. -1.
<mgrwt>
<rscale>  0 0.35752548E+03</rscale>
<asrwt>0</asrwt>
<pdfrwt beam="1">  1        5 0.16271054E-01 0.35752571E+03</pdfrwt>
<pdfrwt beam="2">  1       -5 0.21316052E+00 0.35752571E+03</pdfrwt>
<totfact> 0.28690181E+00</totfact>
</mgrwt>
</event>
<event>
 8    1  0.3694627E-007  0.1342952E+03  0.7546771E-02  0.1221219E+00
         -5   -1    0    0    0  501 -0.00000000000E+00  0.00000000000E+00  0.92326563835E+02  0.92446116141E+02  0.47000000000E+01 0. -1.
          5   -1    0    0  501    0  0.00000000000E+00 -0.00000000000E+00 -0.19528419375E+03  0.19534074415E+03  0.47000000000E+01 0. -1.
         25    2    1    2    0    0 -0.32844072163E+02  0.36485257953E+02 -0.46664491227E+02  0.14217051941E+03  0.12499989890E+03 0.  0.
         25    2    1    2    0    0  0.32844072163E+02 -0.36485257953E+02 -0.56293138683E+02  0.14561634088E+03  0.12500117658E+03 0.  0.
          5    1    4    4  502    0  0.34905883054E+02 -0.45705680894E+02 -0.91880843020E+02  0.10849704720E+03  0.47000000000E+01 0.  1.
         -5    1    4    4    0  502 -0.20618108915E+01  0.92204229401E+01  0.35587704337E+02  0.37119293680E+02  0.47000000000E+01 0.  1.
          5    1    3    3  503    0  0.28897138676E+02  0.56168265465E+00 -0.62352092800E+02  0.68885655892E+02  0.47000000000E+01 0. -1.
         -5    1    3    3    0  503 -0.61741210839E+02  0.35923575299E+02  0.15687601573E+02  0.73284863520E+02  0.47000000000E+01 0. -1.
<mgrwt>
<rscale>  0 0.13429490E+03</rscale>
<asrwt>0</asrwt>
<pdfrwt beam="2">  1        5 0.30057268E-01 0.13429520E+03</pdfrwt>
<pdfrwt beam="1">  1       -5 0.14217633E-01 0.13429520E+03</pdfrwt>
<totfact> 0.33189183E+02</totfact>
</mgrwt>
</event>
<event>
 8    1  0.3694627E-007  0.1513740E+03  0.7546771E-02  0.1198795E+00
          5   -1    0    0  501    0  0.00000000000E+00  0.00000000000E+00  0.51967864273E+03  0.51969989581E+03  0.47000000000E+01 0.  1.
         -5   -1    0    0    0  501 -0.00000000000E+00 -0.00000000000E+00 -0.79441545585E+02  0.79580457180E+02  0.47000000000E+01 0.  1.
         25    2    1    2    0    0 -0.19534769203E+02  0.83121312321E+02  0.20096555307E+02  0.15270214343E+03  0.12499325304E+03 0.  0.
         25    2    1    2    0    0  0.19534769203E+02 -0.83121312321E+02  0.42014054183E+03  0.44657820956E+03  0.12499305016E+03 0.  0.
          5    1    4    4  502    0  0.17093754379E+02  0.26451041161E+02  0.17692340226E+03  0.17976605432E+03  0.47000000000E+01 0.  1.
         -5    1    4    4    0  502  0.24410148240E+01 -0.10957235348E+03  0.24321713957E+03  0.26681215524E+03  0.47000000000E+01 0.  1.
          5    1    3    3  503    0 -0.37526599546E+02 -0.22184311177E+02 -0.26032316893E+00  0.43846859683E+02  0.47000000000E+01 0. -1.
         -5    1    3    3    0  503  0.17991830343E+02  0.10530562350E+03  0.20356878476E+02  0.10885528375E+03  0.47000000000E+01 0. -1.
<mgrwt>
<rscale>  0 0.15137391E+03</rscale>
<asrwt>0</asrwt>
<pdfrwt beam="1">  1        5 0.79962879E-01 0.15137395E+03</pdfrwt>
<pdfrwt beam="2">  1       -5 0.12234097E-01 0.15137395E+03</pdfrwt>
<totfact> 0.56585054E+01</totfact>
</mgrwt>
</event>
<event>
 8    1  0.3694627E-007  0.1461681E+03  0.7546771E-02  0.1205263E+00
          5   -1    0    0  501    0  0.00000000000E+00  0.00000000000E+00  0.16107274524E+03  0.16114130215E+03  0.47000000000E+01 0.  1.
         -5   -1    0    0    0  501 -0.00000000000E+00 -0.00000000000E+00 -0.13421613082E+03  0.13429839825E+03  0.47000000000E+01 0.  1.
         25    2    1    2    0    0  0.71645941887E+02 -0.24638619175E+02 -0.32492210988E+01  0.14620343447E+03  0.12499873707E+03 0.  0.
         25    2    1    2    0    0 -0.71645941887E+02  0.24638619175E+02  0.30105835514E+02  0.14923626593E+03  0.12499959677E+03 0.  0.
          5    1    3    3  502    0  0.99884784359E+02  0.55852198148E+01  0.14032572729E+02  0.10112946121E+03  0.47000000000E+01 0.  1.
         -5    1    3    3    0  502 -0.28238842472E+02 -0.30223838990E+02 -0.17281793827E+02  0.45073973259E+02  0.47000000000E+01 0.  1.
          5    1    4    4  503    0 -0.29072330181E+02 -0.50094315968E+02  0.24039170119E+02  0.62885710416E+02  0.47000000000E+01 0. -1.
         -5    1    4    4    0  503 -0.42573611705E+02  0.74732935143E+02  0.60666653954E+01  0.86350555515E+02  0.47000000000E+01 0. -1.
<mgrwt>
<rscale>  0 0.14616788E+03</rscale>
<asrwt>0</asrwt>
<pdfrwt beam="1">  1        5 0.24792024E-01 0.14616806E+03</pdfrwt>
<pdfrwt beam="2">  1       -5 0.20660237E-01 0.14616806E+03</pdfrwt>
<totfact> 0.24982410E+02</totfact>
</mgrwt>
</event>
<event>
 8    1  0.3694627E-007  0.1447723E+03  0.7546771E-02  0.1207048E+00
         -5   -1    0    0    0  501 -0.00000000000E+00  0.00000000000E+00  0.26534747142E+03  0.26538909282E+03  0.47000000000E+01 0.  1.
          5   -1    0    0  501    0  0.00000000000E+00 -0.00000000000E+00 -0.89318707222E+02  0.89442280046E+02  0.47000000000E+01 0.  1.
         25    2    1    2    0    0 -0.69205914932E+02  0.23334472496E+02  0.14863943865E+03  0.20749095703E+03  0.12499943304E+03 0.  0.
         25    2    1    2    0    0  0.69205914932E+02 -0.23334472496E+02  0.27389325547E+02  0.14734041583E+03  0.12500026686E+03 0.  0.
          5    1    4    4  502    0 -0.17715087359E+00  0.36920274215E+02 -0.21666411464E+02  0.43065780108E+02  0.47000000000E+01 0.  1.
         -5    1    4    4    0  502  0.69383065806E+02 -0.60254746712E+02  0.49055737011E+02  0.10427463572E+03  0.47000000000E+01 0.  1.
          5    1    3    3  503    0 -0.70308657490E+01 -0.19844893565E+02 -0.15575741395E+02  0.26607265808E+02  0.47000000000E+01 0.  1.
         -5    1    3    3    0  503 -0.62175049183E+02  0.43179366061E+02  0.16421518004E+03  0.18088369122E+03  0.47000000000E+01 0.  1.
<mgrwt>
<rscale>  0 0.14477213E+03</rscale>
<asrwt>0</asrwt>
<pdfrwt beam="2">  1        5 0.13754047E-01 0.14477231E+03</pdfrwt>
<pdfrwt beam="1">  1       -5 0.40835395E-01 0.14477231E+03</pdfrwt>
<totfact> 0.19540135E+02</totfact>
</mgrwt>
</event>
<event>
 8    1  0.3694627E-007  0.1250748E+03  0.7546771E-02  0.1234954E+00
         -5   -1    0    0    0  501 -0.00000000000E+00  0.00000000000E+00  0.71352046108E+02  0.71506674400E+02  0.47000000000E+01 0. -1.
          5   -1    0    0  501    0  0.00000000000E+00 -0.00000000000E+00 -0.23800295940E+03  0.23804936186E+03  0.47000000000E+01 0. -1.
         25    2    1    2    0    0 -0.39248475562E+01  0.18685755851E+01 -0.39405952777E+02  0.13113552257E+03  0.12499920064E+03 0.  0.
         25    2    1    2    0    0  0.39248475562E+01 -0.18685755851E+01 -0.12724496052E+03  0.17842051370E+03  0.12499481480E+03 0.  0.
          5    1    4    4  502    0  0.30800573148E+02 -0.52773089728E+02 -0.92688254222E+02  0.11111650092E+03  0.47000000000E+01 0.  1.
         -5    1    4    4    0  502 -0.26875725592E+02  0.50904514142E+02 -0.34556706295E+02  0.67304012779E+02  0.47000000000E+01 0.  1.
          5    1    3    3  503    0 -0.23867038423E+02 -0.47081110427E+02 -0.54448272100E+02  0.75980068550E+02  0.47000000000E+01 0.  1.
         -5    1    3    3    0  503  0.19942190867E+02  0.48949686012E+02  0.15042319323E+02  0.55155454017E+02  0.47000000000E+01 0.  1.
<mgrwt>
<rscale>  0 0.12507367E+03</rscale>
<asrwt>0</asrwt>
<pdfrwt beam="2">  1        5 0.36631303E-01 0.12507476E+03</pdfrwt>
<pdfrwt beam="1">  1       -5 0.10992702E-01 0.12507476E+03</pdfrwt>
<totfact> 0.34483264E+02</totfact>
</mgrwt>
</event>
<event>
 8    1  0.3694627E-007  0.1349266E+03  0.7546771E-02  0.1220328E+00
         -5   -1    0    0    0  501 -0.00000000000E+00  0.00000000000E+00  0.49326927545E+03  0.49329166636E+03  0.47000000000E+01 0. -1.
          5   -1    0    0  501    0  0.00000000000E+00 -0.00000000000E+00 -0.41093009674E+02  0.41360916867E+02  0.47000000000E+01 0. -1.
         25    2    1    2    0    0 -0.32643231982E+02 -0.38909686888E+02  0.31285786021E+03  0.34070718892E+03  0.12498721358E+03 0.  0.
         25    2    1    2    0    0  0.32643231982E+02  0.38909686888E+02  0.13931840556E+03  0.19394539431E+03  0.12500261404E+03 0.  0.
          5    1    3    3  502    0  0.17935255975E+02  0.16738005978E+02  0.21866471798E+03  0.22008676276E+03  0.47000000000E+01 0.  1.
         -5    1    3    3    0  502 -0.50578487957E+02 -0.55647692866E+02  0.94193142232E+02  0.12062042617E+03  0.47000000000E+01 0.  1.
          5    1    4    4  503    0  0.61107689191E+02 -0.57804523376E+01  0.12424198460E+03  0.13865685718E+03  0.47000000000E+01 0. -1.
         -5    1    4    4    0  503 -0.28464457208E+02  0.44690139225E+02  0.15076420969E+02  0.55288537125E+02  0.47000000000E+01 0. -1.
<mgrwt>
<rscale>  0 0.13492307E+03</rscale>
<asrwt>0</asrwt>
<pdfrwt beam="2">  1        5 0.63443326E-02 0.13492664E+03</pdfrwt>
<pdfrwt beam="1">  1       -5 0.75909906E-01 0.13492664E+03</pdfrwt>
<totfact> 0.19149619E+02</totfact>
</mgrwt>
</event>
<event>
 8    1  0.3694627E-007  0.2336240E+03  0.7546771E-02  0.1124115E+00
         -5   -1    0    0    0  501 -0.00000000000E+00  0.00000000000E+00  0.22168415955E+03  0.22173397708E+03  0.47000000000E+01 0. -1.
          5   -1    0    0  501    0  0.00000000000E+00 -0.00000000000E+00 -0.25105445065E+03  0.25109844124E+03  0.47000000000E+01 0. -1.
         25    2    1    2    0    0 -0.64506831932E+02  0.18652879953E+03  0.18507672152E+02  0.23435594481E+03  0.12500420201E+03 0.  0.
         25    2    1    2    0    0  0.64506831932E+02 -0.18652879953E+03 -0.47877963260E+02  0.23847647351E+03  0.12499841852E+03 0.  0.
          5    1    4    4  502    0  0.27987398907E+01 -0.73830868784E+02 -0.76819505931E+02  0.10668719052E+03  0.47000000000E+01 0.  1.
         -5    1    4    4    0  502  0.61708092041E+02 -0.11269793075E+03  0.28941542671E+02  0.13178928299E+03  0.47000000000E+01 0.  1.
          5    1    3    3  503    0 -0.85268558359E+02  0.74136310731E+02  0.35901570420E+02  0.11865046301E+03  0.47000000000E+01 0. -1.
         -5    1    3    3    0  503  0.20761726428E+02  0.11239248880E+03 -0.17393898268E+02  0.11570548181E+03  0.47000000000E+01 0. -1.
<mgrwt>
<rscale>  0 0.23362323E+03</rscale>
<asrwt>0</asrwt>
<pdfrwt beam="2">  1        5 0.38630978E-01 0.23362400E+03</pdfrwt>
<pdfrwt beam="1">  1       -5 0.34112471E-01 0.23362400E+03</pdfrwt>
<totfact> 0.44817496E+01</totfact>
</mgrwt>
</event>
<event>
 8    1  0.3694627E-007  0.1856240E+03  0.7546771E-02  0.1162469E+00
          5   -1    0    0  501    0  0.00000000000E+00  0.00000000000E+00  0.39432552291E+03  0.39435353177E+03  0.47000000000E+01 0. -1.
         -5   -1    0    0    0  501 -0.00000000000E+00 -0.00000000000E+00 -0.93792512277E+02  0.93910198377E+02  0.47000000000E+01 0. -1.
         25    2    1    2    0    0 -0.97015231908E+02  0.97049751557E+02  0.86013230062E+02  0.20458258622E+03  0.12500059735E+03 0.  0.
         25    2    1    2    0    0  0.97015231908E+02 -0.97049751557E+02  0.21451978057E+03  0.28368114392E+03  0.12500258263E+03 0.  0.
          5    1    3    3  502    0 -0.85934407664E+02  0.16910100809E+02  0.86999396960E+02  0.12353808725E+03  0.47000000000E+01 0.  1.
         -5    1    3    3    0  502 -0.11080824243E+02  0.80139650749E+02 -0.98616689772E+00  0.81044498969E+02  0.47000000000E+01 0.  1.
          5    1    4    4  503    0  0.10035736803E+03 -0.22564529944E+02  0.16346792264E+03  0.19319578427E+03  0.47000000000E+01 0. -1.
         -5    1    4    4    0  503 -0.33421361252E+01 -0.74485221613E+02  0.51051857932E+02  0.90485359650E+02  0.47000000000E+01 0. -1.
<mgrwt>
<rscale>  0 0.18562363E+03</rscale>
<asrwt>0</asrwt>
<pdfrwt beam="1">  1        5 0.60676672E-01 0.18562396E+03</pdfrwt>
<pdfrwt beam="2">  1       -5 0.14440825E-01 0.18562396E+03</pdfrwt>
<totfact> 0.83185304E+01</totfact>
</mgrwt>
</event>
<event>
 8    1  0.3694627E-007  0.1366990E+03  0.7546771E-02  0.1217843E+00
          5   -1    0    0  501    0  0.00000000000E+00  0.00000000000E+00  0.15571999029E+03  0.15579090274E+03  0.47000000000E+01 0. -1.
         -5   -1    0    0    0  501 -0.00000000000E+00 -0.00000000000E+00 -0.23386408658E+03  0.23391131010E+03  0.47000000000E+01 0. -1.
         25    2    1    2    0    0  0.54660044718E+02  0.85525061279E+01 -0.17508043384E+03  0.22212153670E+03  0.12499581155E+03 0.  0.
         25    2    1    2    0    0 -0.54660044718E+02 -0.85525061279E+01  0.96936337545E+02  0.16758067614E+03  0.12500305448E+03 0.  0.
          5    1    4    4  502    0  0.28048996064E+02  0.25373754306E+02  0.59252376136E+02  0.70452165798E+02  0.47000000000E+01 0. -1.
         -5    1    4    4    0  502 -0.82709040782E+02 -0.33926260434E+02  0.37683961409E+02  0.97128510344E+02  0.47000000000E+01 0. -1.
          5    1    3    3  503    0  0.59698523387E+02  0.29120949263E+02 -0.26021192273E+02  0.71492208162E+02  0.47000000000E+01 0. -1.
         -5    1    3    3    0  503 -0.50384786692E+01 -0.20568443135E+02 -0.14905924156E+03  0.15062932854E+03  0.47000000000E+01 0. -1.
<mgrwt>
<rscale>  0 0.13669739E+03</rscale>
<asrwt>0</asrwt>
<pdfrwt beam="1">  1        5 0.23966009E-01 0.13669905E+03</pdfrwt>
<pdfrwt beam="2">  1       -5 0.35988177E-01 0.13669905E+03</pdfrwt>
<totfact> 0.88830458E+01</totfact>
</mgrwt>
</event>
<event>
 8    1  0.3694627E-007  0.1381667E+03  0.7546771E-02  0.1215819E+00
          5   -1    0    0  501    0  0.00000000000E+00  0.00000000000E+00  0.53194551836E+03  0.53196628136E+03  0.47000000000E+01 0.  1.
         -5   -1    0    0    0  501 -0.00000000000E+00 -0.00000000000E+00 -0.49059047547E+02  0.49283670178E+02  0.47000000000E+01 0.  1.
         25    2    1    2    0    0  0.52125985522E+02  0.27336317828E+02  0.90282040092E+02  0.16504295409E+03  0.12499574909E+03 0.  0.
         25    2    1    2    0    0 -0.52125985522E+02 -0.27336317828E+02  0.39260443072E+03  0.41620699745E+03  0.12500253224E+03 0.  0.
          5    1    3    3  502    0  0.31219352431E+02 -0.10399569792E+01 -0.27579794389E+02  0.41934049832E+02  0.47000000000E+01 0. -1.
         -5    1    3    3    0  502  0.20906633091E+02  0.28376274808E+02  0.11786183448E+03  0.12310890425E+03  0.47000000000E+01 0. -1.
          5    1    4    4  503    0 -0.82103266042E+02  0.13450623188E+01  0.33569162364E+03  0.34562076278E+03  0.47000000000E+01 0.  1.
         -5    1    4    4    0  503  0.29977280520E+02 -0.28681380147E+02  0.56912807088E+02  0.70586234672E+02  0.47000000000E+01 0.  1.
<mgrwt>
<rscale>  0 0.13816512E+03</rscale>
<asrwt>0</asrwt>
<pdfrwt beam="1">  1        5 0.81856654E-01 0.13816666E+03</pdfrwt>
<pdfrwt beam="2">  1       -5 0.75664210E-02 0.13816666E+03</pdfrwt>
<totfact> 0.12027443E+02</totfact>
</mgrwt>
</event>
<event>
 8    1  0.3694627E-007  0.1307372E+03  0.7546771E-02  0.1226368E+00
          5   -1    0    0  501    0  0.00000000000E+00  0.00000000000E+00  0.29813139131E+02  0.30181339679E+02  0.47000000000E+01 0.  1.
         -5   -1    0    0    0  501 -0.00000000000E+00 -0.00000000000E+00 -0.60593323924E+03  0.60595146704E+03  0.47000000000E+01 0.  1.
         25    2    1    2    0    0  0.23069011741E+02 -0.30563218150E+02 -0.36613578987E+03  0.38877549699E+03  0.12499872329E+03 0.  0.
         25    2    1    2    0    0 -0.23069011741E+02  0.30563218150E+02 -0.20998431023E+03  0.24735730973E+03  0.12500375406E+03 0.  0.
          5    1    3    3  502    0 -0.14654407281E+02  0.36111329402E+02 -0.22234418338E+03  0.22578265134E+03  0.47000000000E+01 0. -1.
         -5    1    3    3    0  502  0.37723419021E+02 -0.66674547552E+02 -0.14379160650E+03  0.16299284565E+03  0.47000000000E+01 0. -1.
          5    1    4    4  503    0 -0.40776385350E+02  0.29403234757E+02 -0.22049629826E+03  0.22620338495E+03  0.47000000000E+01 0. -1.
         -5    1    4    4    0  503  0.17707373609E+02  0.11599833932E+01  0.10511988027E+02  0.21153924786E+02  0.47000000000E+01 0. -1.
<mgrwt>
<rscale>  0 0.13073605E+03</rscale>
<asrwt>0</asrwt>
<pdfrwt beam="1">  1        5 0.46163625E-02 0.13073725E+03</pdfrwt>
<pdfrwt beam="2">  1       -5 0.93250215E-01 0.13073725E+03</pdfrwt>
<totfact> 0.19911294E+02</totfact>
</mgrwt>
</event>
<event>
 8    1  0.3694627E-007  0.1471340E+03  0.7546771E-02  0.1204054E+00
          5   -1    0    0  501    0  0.00000000000E+00  0.00000000000E+00  0.29550914366E+03  0.29554651747E+03  0.47000000000E+01 0.  1.
         -5   -1    0    0    0  501 -0.00000000000E+00 -0.00000000000E+00 -0.73455502377E+02  0.73605711935E+02  0.47000000000E+01 0.  1.
         25    2    1    2    0    0 -0.21712279006E+02  0.74422101486E+02  0.98524164665E+02  0.17703783063E+03  0.12500124081E+03 0.  0.
         25    2    1    2    0    0  0.21712279006E+02 -0.74422101486E+02  0.12352947662E+03  0.19211439877E+03  0.12505334210E+03 0.  0.
          5    1    3    3  502    0  0.70020598617E+01 -0.67862182929E+01  0.89670132474E+02  0.90321117458E+02  0.47000000000E+01 0.  1.
         -5    1    3    3    0  502 -0.28714338867E+02  0.81208319779E+02  0.88540321912E+01  0.86716713176E+02  0.47000000000E+01 0.  1.
          5    1    4    4  503    0  0.44882857470E+01 -0.37441857348E+02  0.14206544109E+03  0.14706024936E+03  0.47000000000E+01 0. -1.
         -5    1    4    4    0  503  0.17223993259E+02 -0.36980244138E+02 -0.18535964467E+02  0.45054149410E+02  0.47000000000E+01 0. -1.
<mgrwt>
<rscale>  0 0.14712292E+03</rscale>
<asrwt>0</asrwt>
<pdfrwt beam="1">  1        5 0.45477375E-01 0.14713399E+03</pdfrwt>
<pdfrwt beam="2">  1       -5 0.11315276E-01 0.14713399E+03</pdfrwt>
<totfact> 0.22250782E+02</totfact>
</mgrwt>
</event>
<event>
 8    1  0.3694627E-007  0.1316392E+03  0.7546771E-02  0.1225046E+00
         -5   -1    0    0    0  501 -0.00000000000E+00  0.00000000000E+00  0.25833397024E+03  0.25837672143E+03  0.47000000000E+01 0.  1.
          5   -1    0    0  501    0  0.00000000000E+00 -0.00000000000E+00 -0.68972746396E+02  0.69132696645E+02  0.47000000000E+01 0.  1.
         25    2    1    2    0    0 -0.40844998435E+02  0.58864038683E+01  0.12271725406E+03  0.17996776252E+03  0.12500362977E+03 0.  0.
         25    2    1    2    0    0  0.40844998435E+02 -0.58864038683E+01  0.66643969786E+02  0.14754165556E+03  0.12499663103E+03 0.  0.
          5    1    3    3  502    0 -0.85213271037E+02  0.12707743701E+02  0.85451679262E+02  0.12143668227E+03  0.47000000000E+01 0. -1.
         -5    1    3    3    0  502  0.44368272602E+02 -0.68213398323E+01  0.37265574793E+02  0.58531080252E+02  0.47000000000E+01 0. -1.
          5    1    4    4  503    0  0.82883624089E+02 -0.21116168438E+02  0.52235496595E+02  0.10033057767E+03  0.47000000000E+01 0. -1.
         -5    1    4    4    0  503 -0.42038625653E+02  0.15229764570E+02  0.14408473191E+02  0.47211077888E+02  0.47000000000E+01 0. -1.
<mgrwt>
<rscale>  0 0.13163751E+03</rscale>
<asrwt>0</asrwt>
<pdfrwt beam="2">  1        5 0.10626784E-01 0.13163917E+03</pdfrwt>
<pdfrwt beam="1">  1       -5 0.39759280E-01 0.13163917E+03</pdfrwt>
<totfact> 0.31578159E+02</totfact>
</mgrwt>
</event>
<event>
 8    1  0.3694627E-007  0.1496216E+03  0.7546771E-02  0.1200940E+00
          5   -1    0    0  501    0  0.00000000000E+00  0.00000000000E+00  0.20618555161E+02  0.21147454148E+02  0.47000000000E+01 0.  1.
         -5   -1    0    0    0  501 -0.00000000000E+00 -0.00000000000E+00 -0.11298646040E+04  0.11298743795E+04  0.47000000000E+01 0.  1.
         25    2    1    2    0    0 -0.78796434902E+02  0.23510275198E+02 -0.68548336875E+03  0.70162246609E+03  0.12500009957E+03 0.  0.
         25    2    1    2    0    0  0.78796434902E+02 -0.23510275198E+02 -0.42376268013E+03  0.44939936757E+03  0.12499348505E+03 0.  0.
          5    1    3    3  502    0 -0.55899016892E+02 -0.37537237792E+02 -0.50835989583E+03  0.51282123396E+03  0.47000000000E+01 0.  1.
         -5    1    3    3    0  502 -0.22897418010E+02  0.61047512991E+02 -0.17712347292E+03  0.18880123213E+03  0.47000000000E+01 0.  1.
          5    1    4    4  503    0  0.97256821515E+02 -0.20888369940E+02 -0.41744501700E+03  0.42915923099E+03  0.47000000000E+01 0. -1.
         -5    1    4    4    0  503 -0.18460386613E+02 -0.26219052579E+01 -0.63176631314E+01  0.20240136574E+02  0.47000000000E+01 0. -1.
<mgrwt>
<rscale>  0 0.14962026E+03</rscale>
<asrwt>0</asrwt>
<pdfrwt beam="1">  1        5 0.32135228E-02 0.14962164E+03</pdfrwt>
<pdfrwt beam="2">  1       -5 0.17386671E+00 0.14962164E+03</pdfrwt>
<totfact> 0.74011447E+01</totfact>
</mgrwt>
</event>
<event>
 8    1  0.3694627E-007  0.1260016E+03  0.7546771E-02  0.1233517E+00
          5   -1    0    0  501    0  0.00000000000E+00  0.00000000000E+00  0.33125084409E+02  0.33456856055E+02  0.47000000000E+01 0. -1.
         -5   -1    0    0    0  501 -0.00000000000E+00 -0.00000000000E+00 -0.56302913560E+03  0.56304875236E+03  0.47000000000E+01 0. -1.
         25    2    1    2    0    0  0.82875295857E+01  0.13570744445E+02 -0.38184656023E+03  0.40209847986E+03  0.12499417463E+03 0.  0.
         25    2    1    2    0    0 -0.82875295857E+01 -0.13570744445E+02 -0.14805749096E+03  0.19440712856E+03  0.12498104958E+03 0.  0.
          5    1    3    3  502    0  0.35073983103E+02 -0.23402661182E+02 -0.43904419523E+02  0.61053721384E+02  0.47000000000E+01 0. -1.
         -5    1    3    3    0  502 -0.26786453518E+02  0.36973405627E+02 -0.33794214071E+03  0.34104475847E+03  0.47000000000E+01 0. -1.
          5    1    4    4  503    0 -0.25491064720E+02  0.88789997864E+01  0.13346033413E+02  0.30476837527E+02  0.47000000000E+01 0.  1.
         -5    1    4    4    0  503  0.17203535135E+02 -0.22449744231E+02 -0.16140352438E+03  0.16393029103E+03  0.47000000000E+01 0.  1.
<mgrwt>
<rscale>  0 0.12599830E+03</rscale>
<asrwt>0</asrwt>
<pdfrwt beam="1">  1        5 0.51231971E-02 0.12600156E+03</pdfrwt>
<pdfrwt beam="2">  1       -5 0.86646890E-01 0.12600156E+03</pdfrwt>
<totfact> 0.19680330E+02</totfact>
</mgrwt>
</event>
<event>
 8    1  0.3694627E-007  0.1344955E+03  0.7546771E-02  0.1220935E+00
          5   -1    0    0  501    0  0.00000000000E+00  0.00000000000E+00  0.44486343356E+02  0.44733932816E+02  0.47000000000E+01 0.  1.
         -5   -1    0    0    0  501 -0.00000000000E+00 -0.00000000000E+00 -0.42011064081E+03  0.42013693068E+03  0.47000000000E+01 0.  1.
         25    2    1    2    0    0 -0.44378340238E+02  0.22228720438E+02 -0.23156189746E+03  0.26778712677E+03  0.12500191922E+03 0.  0.
         25    2    1    2    0    0  0.44378340238E+02 -0.22228720438E+02 -0.14406239999E+03  0.19708373673E+03  0.12499788438E+03 0.  0.
          5    1    4    4  502    0  0.26759734269E+02 -0.48314909274E+01  0.18082210488E+02  0.32992166022E+02  0.47000000000E+01 0. -1.
         -5    1    4    4    0  502  0.17618605969E+02 -0.17397229511E+02 -0.16214461048E+03  0.16409157071E+03  0.47000000000E+01 0. -1.
          5    1    3    3  503    0 -0.73316484748E+02  0.10410585741E+02 -0.22302555387E+03  0.23504504868E+03  0.47000000000E+01 0.  1.
         -5    1    3    3    0  503  0.28938144510E+02  0.11818134697E+02 -0.85363435989E+01  0.32742078087E+02  0.47000000000E+01 0.  1.
<mgrwt>
<rscale>  0 0.13449454E+03</rscale>
<asrwt>0</asrwt>
<pdfrwt beam="1">  1        5 0.68651208E-02 0.13449548E+03</pdfrwt>
<pdfrwt beam="2">  1       -5 0.64653471E-01 0.13449548E+03</pdfrwt>
<totfact> 0.24030502E+02</totfact>
</mgrwt>
</event>
<event>
 8    1  0.3694627E-007  0.1427868E+03  0.7546771E-02  0.1209629E+00
         -5   -1    0    0    0  501 -0.00000000000E+00  0.00000000000E+00  0.20161555603E+03  0.20167033107E+03  0.47000000000E+01 0. -1.
          5   -1    0    0  501    0  0.00000000000E+00 -0.00000000000E+00 -0.17757143254E+03  0.17763362197E+03  0.47000000000E+01 0. -1.
         25    2    1    2    0    0 -0.67302889465E+02 -0.15250274842E+02  0.13651392157E+03  0.19754522801E+03  0.12500326601E+03 0.  0.
         25    2    1    2    0    0  0.67302889465E+02  0.15250274842E+02 -0.11246979809E+03  0.18175872502E+03  0.12499811529E+03 0.  0.
          5    1    4    4  502    0  0.82073372306E+02  0.20926641063E+02 -0.13154982732E+03  0.15652926185E+03  0.47000000000E+01 0. -1.
         -5    1    4    4    0  502 -0.14770482842E+02 -0.56763662209E+01  0.19080029227E+02  0.25229463176E+02  0.47000000000E+01 0. -1.
          5    1    3    3  503    0 -0.91866660386E+02 -0.47103383165E+00  0.14079507440E+03  0.16818159274E+03  0.47000000000E+01 0. -1.
         -5    1    3    3    0  503  0.24563770921E+02 -0.14779241010E+02 -0.42811528232E+01  0.29363635269E+02  0.47000000000E+01 0. -1.
<mgrwt>
<rscale>  0 0.14278566E+03</rscale>
<asrwt>0</asrwt>
<pdfrwt beam="2">  1        5 0.27327679E-01 0.14278679E+03</pdfrwt>
<pdfrwt beam="1">  1       -5 0.31026775E-01 0.14278679E+03</pdfrwt>
<totfact> 0.94054316E+01</totfact>
</mgrwt>
</event>
<event>
 8    1  0.3694627E-007  0.1580253E+03  0.7546771E-02  0.1190945E+00
         -5   -1    0    0    0  501 -0.00000000000E+00  0.00000000000E+00  0.58473199647E+02  0.58661785491E+02  0.47000000000E+01 0.  1.
          5   -1    0    0  501    0  0.00000000000E+00 -0.00000000000E+00 -0.43096956146E+03  0.43099518896E+03  0.47000000000E+01 0.  1.
         25    2    1    2    0    0  0.64381576076E+02  0.72124422922E+02 -0.16043695524E+03  0.22519327999E+03  0.12500030810E+03 0.  0.
         25    2    1    2    0    0 -0.64381576076E+02 -0.72124422922E+02 -0.21205940657E+03  0.26446369446E+03  0.12499973621E+03 0.  0.
          5    1    3    3  502    0  0.31224569434E+02  0.42539454003E+02 -0.17121737896E+03  0.17922628084E+03  0.47000000000E+01 0. -1.
         -5    1    3    3    0  502  0.33157006642E+02  0.29584968918E+02  0.10780423720E+02  0.45966999151E+02  0.47000000000E+01 0. -1.
          5    1    4    4  503    0 -0.68256367319E+02 -0.27212336178E+01 -0.41116732683E+02  0.79868720401E+02  0.47000000000E+01 0. -1.
         -5    1    4    4    0  503  0.38747912435E+01 -0.69403189304E+02 -0.17094267388E+03  0.18459497406E+03  0.47000000000E+01 0. -1.
<mgrwt>
<rscale>  0 0.15802519E+03</rscale>
<asrwt>0</asrwt>
<pdfrwt beam="2">  1        5 0.66319485E-01 0.15802530E+03</pdfrwt>
<pdfrwt beam="1">  1       -5 0.90123551E-02 0.15802530E+03</pdfrwt>
<totfact> 0.15015343E+02</totfact>
</mgrwt>
</event>
<event>
 8    1  0.3694627E-007  0.1268358E+03  0.7546771E-02  0.1232230E+00
          5   -1    0    0  501    0  0.00000000000E+00  0.00000000000E+00  0.63312965951E+02  0.63487177111E+02  0.47000000000E+01 0. -1.
         -5   -1    0    0    0  501 -0.00000000000E+00 -0.00000000000E+00 -0.26521640218E+03  0.26525804414E+03  0.47000000000E+01 0. -1.
         25    2    1    2    0    0  0.14453838836E+02  0.15880541110E+02 -0.13543469665E+03  0.18555286267E+03  0.12500481089E+03 0.  0.
         25    2    1    2    0    0 -0.14453838836E+02 -0.15880541110E+02 -0.66468739578E+02  0.14319235859E+03  0.12499941269E+03 0.  0.
          5    1    4    4  502    0 -0.10022704584E+02  0.53857049619E+02 -0.41317982264E+02  0.68777191417E+02  0.47000000000E+01 0.  1.
         -5    1    4    4    0  502 -0.44311342527E+01 -0.69737590728E+02 -0.25150757314E+02  0.74415167169E+02  0.47000000000E+01 0.  1.
          5    1    3    3  503    0 -0.22820143717E+02 -0.47497891260E+02 -0.50855859513E+02  0.73384038320E+02  0.47000000000E+01 0.  1.
         -5    1    3    3    0  503  0.37273982553E+02  0.63378432369E+02 -0.84578837133E+02  0.11216882435E+03  0.47000000000E+01 0.  1.
<mgrwt>
<rscale>  0 0.12683442E+03</rscale>
<asrwt>0</asrwt>
<pdfrwt beam="1">  1        5 0.97570606E-02 0.12683575E+03</pdfrwt>
<pdfrwt beam="2">  1       -5 0.40819127E-01 0.12683575E+03</pdfrwt>
<totfact> 0.34265289E+02</totfact>
</mgrwt>
</event>
<event>
 8    1  0.3694627E-007  0.1459583E+03  0.7546771E-02  0.1205530E+00
          5   -1    0    0  501    0  0.00000000000E+00  0.00000000000E+00  0.70404606209E+02  0.70561310754E+02  0.47000000000E+01 0.  1.
         -5   -1    0    0    0  501 -0.00000000000E+00 -0.00000000000E+00 -0.39648798970E+03  0.39651584581E+03  0.47000000000E+01 0.  1.
         25    2    1    2    0    0  0.39684251513E+02 -0.64056260719E+02 -0.27697955889E+03  0.31308383547E+03  0.12500307049E+03 0.  0.
         25    2    1    2    0    0 -0.39684251513E+02  0.64056260719E+02 -0.49103824605E+02  0.15399332110E+03  0.12499885198E+03 0.  0.
          5    1    4    4  502    0 -0.41599888022E+02  0.28630331110E+02  0.35649650160E+02  0.61993823075E+02  0.47000000000E+01 0.  1.
         -5    1    4    4    0  502  0.19156365092E+01  0.35425929609E+02 -0.84753474764E+02  0.91999498023E+02  0.47000000000E+01 0.  1.
          5    1    3    3  503    0 -0.35794695371E+01 -0.84332604104E+02 -0.10650995089E+03  0.13598257372E+03  0.47000000000E+01 0.  1.
         -5    1    3    3    0  503  0.43263721050E+02  0.20276343385E+02 -0.17046960800E+03  0.17710126175E+03  0.47000000000E+01 0.  1.
<mgrwt>
<rscale>  0 0.14595735E+03</rscale>
<asrwt>0</asrwt>
<pdfrwt beam="1">  1        5 0.10845675E-01 0.14595825E+03</pdfrwt>
<pdfrwt beam="2">  1       -5 0.61012348E-01 0.14595825E+03</pdfrwt>
<totfact> 0.12743840E+02</totfact>
</mgrwt>
</event>
<event>
 8    1  0.3694627E-007  0.1285817E+03  0.7546771E-02  0.1229577E+00
          5   -1    0    0  501    0  0.00000000000E+00  0.00000000000E+00  0.51688093288E+02  0.51901338979E+02  0.47000000000E+01 0.  1.
         -5   -1    0    0    0  501 -0.00000000000E+00 -0.00000000000E+00 -0.33032768405E+03  0.33036111886E+03  0.47000000000E+01 0.  1.
         25    2    1    2    0    0  0.22344823552E+02 -0.20256825231E+02 -0.17475418008E+03  0.21696148208E+03  0.12499452445E+03 0.  0.
         25    2    1    2    0    0 -0.22344823552E+02  0.20256825231E+02 -0.10388541069E+03  0.16530097576E+03  0.12499041533E+03 0.  0.
          5    1    3    3  502    0  0.52830359262E+02  0.26687165766E+02 -0.13691270732E+03  0.14923280840E+03  0.47000000000E+01 0.  1.
         -5    1    3    3    0  502 -0.30485535709E+02 -0.46943990997E+02 -0.37841472761E+02  0.67728673684E+02  0.47000000000E+01 0.  1.
          5    1    4    4  503    0 -0.41153747972E+01  0.17844271016E+02 -0.13091513833E+03  0.13227326926E+03  0.47000000000E+01 0. -1.
         -5    1    4    4    0  503 -0.18229448755E+02  0.24125542151E+01  0.27029727643E+02  0.33027706493E+02  0.47000000000E+01 0. -1.
<mgrwt>
<rscale>  0 0.12858073E+03</rscale>
<asrwt>0</asrwt>
<pdfrwt beam="1">  1        5 0.79709900E-02 0.12858173E+03</pdfrwt>
<pdfrwt beam="2">  1       -5 0.50838618E-01 0.12858173E+03</pdfrwt>
<totfact> 0.30887443E+02</totfact>
</mgrwt>
</event>
<event>
 8    1  0.3694627E-007  0.1906215E+03  0.7546771E-02  0.1157903E+00
          5   -1    0    0  501    0  0.00000000000E+00  0.00000000000E+00  0.85684760159E+02  0.85813566081E+02  0.47000000000E+01 0.  1.
         -5   -1    0    0    0  501 -0.00000000000E+00 -0.00000000000E+00 -0.43989557145E+03  0.43992067897E+03  0.47000000000E+01 0.  1.
         25    2    1    2    0    0 -0.10202063325E+03  0.10149273370E+03 -0.22769611718E+03  0.29695464923E+03  0.12501022885E+03 0.  0.
         25    2    1    2    0    0  0.10202063325E+03 -0.10149273370E+03 -0.12651469411E+03  0.22877959581E+03  0.12500060413E+03 0.  0.
          5    1    3    3  502    0  0.13966778531E+02  0.16956477613E+02 -0.10710186054E+03  0.10943258914E+03  0.47000000000E+01 0.  1.
         -5    1    3    3    0  502 -0.11598741178E+03  0.84536256089E+02 -0.12059425665E+03  0.18752206009E+03  0.47000000000E+01 0.  1.
          5    1    4    4  503    0  0.13435720896E+02 -0.51552090275E+02 -0.11437019206E+03  0.12625675205E+03  0.47000000000E+01 0. -1.
         -5    1    4    4    0  503  0.88584912354E+02 -0.49940643427E+02 -0.12144502051E+02  0.10252284376E+03  0.47000000000E+01 0. -1.
<mgrwt>
<rscale>  0 0.19061988E+03</rscale>
<asrwt>0</asrwt>
<pdfrwt beam="1">  1        5 0.13194110E-01 0.19062146E+03</pdfrwt>
<pdfrwt beam="2">  1       -5 0.67688080E-01 0.19062146E+03</pdfrwt>
<totfact> 0.77316747E+01</totfact>
</mgrwt>
</event>
<event>
 8    1  0.3694627E-007  0.1356864E+03  0.7546771E-02  0.1219255E+00
         -5   -1    0    0    0  501 -0.00000000000E+00  0.00000000000E+00  0.33838986865E+02  0.34163826367E+02  0.47000000000E+01 0. -1.
          5   -1    0    0  501    0  0.00000000000E+00 -0.00000000000E+00 -0.80102232610E+03  0.80103611461E+03  0.47000000000E+01 0. -1.
         25    2    1    2    0    0 -0.52674579810E+02  0.31617061072E+01 -0.14576731589E+03  0.19914280775E+03  0.12500055901E+03 0.  0.
         25    2    1    2    0    0  0.52674579810E+02 -0.31617061072E+01 -0.62141602334E+03  0.63605713323E+03  0.12500477959E+03 0.  0.
          5    1    4    4  502    0 -0.26469785442E+02 -0.37424941230E+02 -0.28657214103E+03  0.29025326490E+03  0.47000000000E+01 0.  1.
         -5    1    4    4    0  502  0.79144365253E+02  0.34263235123E+02 -0.33484388231E+03  0.34580386833E+03  0.47000000000E+01 0.  1.
          5    1    3    3  503    0 -0.81262019767E+02  0.37923434688E+02 -0.10577033176E+03  0.13874853454E+03  0.47000000000E+01 0.  1.
         -5    1    3    3    0  503  0.28587439956E+02 -0.34761728581E+02 -0.39996984130E+02  0.60394273211E+02  0.47000000000E+01 0.  1.
<mgrwt>
<rscale>  0 0.13568544E+03</rscale>
<asrwt>0</asrwt>
<pdfrwt beam="2">  1        5 0.12326024E+00 0.13568641E+03</pdfrwt>
<pdfrwt beam="1">  1       -5 0.52320469E-02 0.13568641E+03</pdfrwt>
<totfact> 0.82141812E+01</totfact>
</mgrwt>
</event>
<event>
 8    1  0.3694627E-007  0.1277955E+03  0.7546771E-02  0.1230765E+00
         -5   -1    0    0    0  501 -0.00000000000E+00  0.00000000000E+00  0.31097924825E+03  0.31101476306E+03  0.47000000000E+01 0. -1.
          5   -1    0    0  501    0  0.00000000000E+00 -0.00000000000E+00 -0.58466128957E+02  0.58654737534E+02  0.47000000000E+01 0. -1.
         25    2    1    2    0    0 -0.13244693413E+02  0.23017098315E+02  0.18581466136E+03  0.22551889589E+03  0.12500590110E+03 0.  0.
         25    2    1    2    0    0  0.13244693413E+02 -0.23017098315E+02  0.66698457938E+02  0.14415060471E+03  0.12500201530E+03 0.  0.
          5    1    4    4  502    0 -0.25957349107E+02  0.36585134670E+02  0.55930136614E+02  0.71850721870E+02  0.47000000000E+01 0.  1.
         -5    1    4    4    0  502  0.39202042520E+02 -0.59602232985E+02  0.10768321324E+02  0.72299882840E+02  0.47000000000E+01 0.  1.
          5    1    3    3  503    0 -0.42845540326E+02  0.29689492441E+02  0.18656568082E+02  0.55564051507E+02  0.47000000000E+01 0. -1.
         -5    1    3    3    0  503  0.29600846913E+02 -0.66723941267E+01  0.16715809327E+03  0.16995484438E+03  0.47000000000E+01 0. -1.
<mgrwt>
<rscale>  0 0.12779453E+03</rscale>
<asrwt>0</asrwt>
<pdfrwt beam="2">  1        5 0.90120293E-02 0.12779548E+03</pdfrwt>
<pdfrwt beam="1">  1       -5 0.47860201E-01 0.12779548E+03</pdfrwt>
<totfact> 0.28346187E+02</totfact>
</mgrwt>
</event>
<event>
 8    1  0.3694627E-007  0.1276746E+03  0.7546771E-02  0.1230955E+00
          5   -1    0    0  501    0  0.00000000000E+00  0.00000000000E+00  0.12173715187E+02  0.13049495831E+02  0.47000000000E+01 0.  1.
         -5   -1    0    0    0  501 -0.00000000000E+00 -0.00000000000E+00 -0.13535814941E+04  0.13535896540E+04  0.47000000000E+01 0.  1.
         25    2    1    2    0    0 -0.20391032789E+02  0.16085136827E+02 -0.81700104758E+03  0.82691400539E+03  0.12498613807E+03 0.  0.
         25    2    1    2    0    0  0.20391032789E+02 -0.16085136827E+02 -0.52440673138E+03  0.53972514440E+03  0.12500514285E+03 0.  0.
          5    1    4    4  502    0 -0.52410770575E+02  0.14441062886E+01 -0.21413302961E+03  0.22050854561E+03  0.47000000000E+01 0.  1.
         -5    1    4    4    0  502  0.72801803364E+02 -0.17529243115E+02 -0.31027370176E+03  0.31921659879E+03  0.47000000000E+01 0.  1.
          5    1    3    3  503    0 -0.16101917296E+02  0.70460924504E+02 -0.50032151142E+03  0.50553705939E+03  0.47000000000E+01 0. -1.
         -5    1    3    3    0  503 -0.42891154933E+01 -0.54375787678E+02 -0.31667953616E+03  0.32137694600E+03  0.47000000000E+01 0. -1.
<mgrwt>
<rscale>  0 0.12766998E+03</rscale>
<asrwt>0</asrwt>
<pdfrwt beam="1">  1        5 0.19408757E-02 0.12767463E+03</pdfrwt>
<pdfrwt beam="2">  1       -5 0.20831119E+00 0.12767463E+03</pdfrwt>
<totfact> 0.91496483E+01</totfact>
</mgrwt>
</event>
<event>
 8    1  0.3694627E-007  0.1578720E+03  0.7546771E-02  0.1191124E+00
          5   -1    0    0  501    0  0.00000000000E+00  0.00000000000E+00  0.36304868904E+03  0.36307911069E+03  0.47000000000E+01 0.  1.
         -5   -1    0    0    0  501 -0.00000000000E+00 -0.00000000000E+00 -0.68551606270E+02  0.68712536863E+02  0.47000000000E+01 0.  1.
         25    2    1    2    0    0  0.58571054596E+02 -0.76571628038E+02  0.14352611012E+03  0.21335215311E+03  0.12500245715E+03 0.  0.
         25    2    1    2    0    0 -0.58571054596E+02  0.76571628038E+02  0.15097097265E+03  0.21843949443E+03  0.12501918048E+03 0.  0.
          5    1    4    4  502    0  0.82865660738E+01  0.93944724401E+01  0.11682606634E+03  0.11758972347E+03  0.47000000000E+01 0. -1.
         -5    1    4    4    0  502 -0.66857620670E+02  0.67177155598E+02  0.34144906308E+02  0.10084977096E+03  0.47000000000E+01 0. -1.
          5    1    3    3  503    0  0.52339208722E+02 -0.66550440035E+02  0.16664211199E+03  0.18697603410E+03  0.47000000000E+01 0. -1.
         -5    1    3    3    0  503  0.62318458735E+01 -0.10021188002E+02 -0.23116001868E+02  0.26376119016E+02  0.47000000000E+01 0. -1.
<mgrwt>
<rscale>  0 0.15786872E+03</rscale>
<asrwt>0</asrwt>
<pdfrwt beam="1">  1        5 0.55868364E-01 0.15787203E+03</pdfrwt>
<pdfrwt beam="2">  1       -5 0.10561120E-01 0.15787203E+03</pdfrwt>
<totfact> 0.16596901E+02</totfact>
</mgrwt>
</event>
<event>
 8    1  0.3694627E-007  0.1344229E+03  0.7546771E-02  0.1221038E+00
         -5   -1    0    0    0  501 -0.00000000000E+00  0.00000000000E+00  0.10707325591E+03  0.10717635994E+03  0.47000000000E+01 0. -1.
          5   -1    0    0  501    0  0.00000000000E+00 -0.00000000000E+00 -0.93895263644E+03  0.93896439947E+03  0.47000000000E+01 0. -1.
         25    2    1    2    0    0 -0.31086015223E+02  0.38427981017E+02  0.57829998575E+02  0.14633464564E+03  0.12500587871E+03 0.  0.
         25    2    1    2    0    0  0.31086015223E+02 -0.38427981017E+02 -0.88970937911E+03  0.89980611377E+03  0.12500085217E+03 0.  0.
          5    1    4    4  502    0  0.76301911432E+02 -0.36651819480E+02 -0.67688521189E+03  0.68217374446E+03  0.47000000000E+01 0. -1.
         -5    1    4    4    0  502 -0.45215896208E+02 -0.17761615370E+01 -0.21282416721E+03  0.21763236931E+03  0.47000000000E+01 0. -1.
          5    1    3    3  503    0 -0.59880363355E+01 -0.45769848490E+02  0.18278085591E+02  0.49868968536E+02  0.47000000000E+01 0. -1.
         -5    1    3    3    0  503 -0.25097978888E+02  0.84197829508E+02  0.39551912985E+02  0.96465677102E+02  0.47000000000E+01 0. -1.
<mgrwt>
<rscale>  0 0.13442175E+03</rscale>
<asrwt>0</asrwt>
<pdfrwt beam="2">  1        5 0.14446308E+00 0.13442291E+03</pdfrwt>
<pdfrwt beam="1">  1       -5 0.16481645E-01 0.13442291E+03</pdfrwt>
<totfact> 0.73511345E+00</totfact>
</mgrwt>
</event>
<event>
 8    1  0.3694627E-007  0.1337000E+03  0.7546771E-02  0.1222092E+00
         -5   -1    0    0    0  501 -0.00000000000E+00  0.00000000000E+00  0.13317783128E+03  0.13326073969E+03  0.47000000000E+01 0.  1.
          5   -1    0    0  501    0  0.00000000000E+00 -0.00000000000E+00 -0.13467617240E+03  0.13475815898E+03  0.47000000000E+01 0.  1.
         25    2    1    2    0    0  0.47454804347E+02 -0.14544345271E+00  0.88381967605E+01  0.13399178928E+03  0.12499482494E+03 0.  0.
         25    2    1    2    0    0 -0.47454804347E+02  0.14544345271E+00 -0.10336537880E+02  0.13402710939E+03  0.12491774265E+03 0.  0.
          5    1    4    4  502    0 -0.20719596635E+01 -0.49277320693E+02 -0.36830635663E+02  0.61734375148E+02  0.47000000000E+01 0. -1.
         -5    1    4    4    0  502 -0.45382844683E+02  0.49422764146E+02  0.26494097783E+02  0.72292734245E+02  0.47000000000E+01 0. -1.
          5    1    3    3  503    0 -0.32801209077E+02 -0.11615076066E+02 -0.27912349070E+02  0.44855529643E+02  0.47000000000E+01 0. -1.
         -5    1    3    3    0  503  0.80256013424E+02  0.11469632613E+02  0.36750545831E+02  0.89136259635E+02  0.47000000000E+01 0. -1.
<mgrwt>
<rscale>  0 0.13368197E+03</rscale>
<asrwt>0</asrwt>
<pdfrwt beam="2">  1        5 0.20732096E-01 0.13369998E+03</pdfrwt>
<pdfrwt beam="1">  1       -5 0.20501581E-01 0.13369998E+03</pdfrwt>
<totfact> 0.34499716E+02</totfact>
</mgrwt>
</event>
<event>
 8    1  0.3694627E-007  0.2193632E+03  0.7546771E-02  0.1134360E+00
         -5   -1    0    0    0  501 -0.00000000000E+00  0.00000000000E+00  0.19578529827E+03  0.19584170398E+03  0.47000000000E+01 0.  1.
          5   -1    0    0  501    0  0.00000000000E+00 -0.00000000000E+00 -0.30848407470E+03  0.30851987674E+03  0.47000000000E+01 0.  1.
         25    2    1    2    0    0 -0.59703299927E+02 -0.17008453659E+03  0.57436723953E+02  0.22675341090E+03  0.12499959395E+03 0.  0.
         25    2    1    2    0    0  0.59703299927E+02  0.17008453659E+03 -0.17013550039E+03  0.27760816982E+03  0.12500789516E+03 0.  0.
          5    1    4    4  502    0  0.62972327883E+02  0.10643278521E+03 -0.17406961720E+03  0.21357849489E+03  0.47000000000E+01 0. -1.
         -5    1    4    4    0  502 -0.32690279561E+01  0.63651751379E+02  0.39341168114E+01  0.64029674937E+02  0.47000000000E+01 0. -1.
          5    1    3    3  503    0 -0.12882586035E+02  0.16145288971E+02 -0.96697473762E+01  0.23285733684E+02  0.47000000000E+01 0.  1.
         -5    1    3    3    0  503 -0.46820713892E+02 -0.18622982556E+03  0.67106471329E+02  0.20346767722E+03  0.47000000000E+01 0.  1.
<mgrwt>
<rscale>  0 0.21936200E+03</rscale>
<asrwt>0</asrwt>
<pdfrwt beam="2">  1        5 0.47466181E-01 0.21936319E+03</pdfrwt>
<pdfrwt beam="1">  1       -5 0.30127908E-01 0.21936319E+03</pdfrwt>
<totfact> 0.36795433E+01</totfact>
</mgrwt>
</event>
<event>
 8    1  0.3694627E-007  0.1770249E+03  0.7546771E-02  0.1170714E+00
         -5   -1    0    0    0  501 -0.00000000000E+00  0.00000000000E+00  0.22036160182E+03  0.22041171828E+03  0.47000000000E+01 0.  1.
          5   -1    0    0  501    0  0.00000000000E+00 -0.00000000000E+00 -0.14247198174E+03  0.14254948468E+03  0.47000000000E+01 0.  1.
         25    2    1    2    0    0  0.10869313668E+03 -0.62435828673E+02  0.48161999321E+02  0.18345757529E+03  0.12499869235E+03 0.  0.
         25    2    1    2    0    0 -0.10869313668E+03  0.62435828673E+02  0.29727620756E+02  0.17950362767E+03  0.12500156099E+03 0.  0.
          5    1    4    4  502    0  0.98625837801E+01  0.18694151039E+01 -0.31132054356E+02  0.33046332324E+02  0.47000000000E+01 0. -1.
         -5    1    4    4    0  502 -0.11855572046E+03  0.60566413569E+02  0.60859675112E+02  0.14645729535E+03  0.47000000000E+01 0. -1.
          5    1    3    3  503    0  0.10490845849E+03 -0.96385208550E+02  0.38895945973E+02  0.14775275870E+03  0.47000000000E+01 0. -1.
         -5    1    3    3    0  503  0.37846781819E+01  0.33949379877E+02  0.92660533481E+01  0.35704816589E+02  0.47000000000E+01 0. -1.
<mgrwt>
<rscale>  0 0.17702441E+03</rscale>
<asrwt>0</asrwt>
<pdfrwt beam="2">  1        5 0.21928583E-01 0.17702492E+03</pdfrwt>
<pdfrwt beam="1">  1       -5 0.33911602E-01 0.17702492E+03</pdfrwt>
<totfact> 0.12838465E+02</totfact>
</mgrwt>
</event>
<event>
 8    1  0.3694627E-007  0.1374461E+03  0.7546771E-02  0.1216808E+00
          5   -1    0    0  501    0  0.00000000000E+00  0.00000000000E+00  0.23955592873E+03  0.23960203044E+03  0.47000000000E+01 0. -1.
         -5   -1    0    0    0  501 -0.00000000000E+00 -0.00000000000E+00 -0.83232250157E+02  0.83364845505E+02  0.47000000000E+01 0. -1.
         25    2    1    2    0    0 -0.50633648744E+02 -0.26497451063E+02  0.40665108988E+02  0.14333300297E+03  0.12499926941E+03 0.  0.
         25    2    1    2    0    0  0.50633648744E+02  0.26497451063E+02  0.11565856959E+03  0.17963387298E+03  0.12500216919E+03 0.  0.
          5    1    4    4  502    0  0.70530938507E+02  0.63565162864E+02  0.82236104122E+02  0.12569809083E+03  0.47000000000E+01 0. -1.
         -5    1    4    4    0  502 -0.19897289764E+02 -0.37067711801E+02  0.33422465465E+02  0.53935782147E+02  0.47000000000E+01 0. -1.
          5    1    3    3  503    0  0.32780949134E+02  0.21260056637E+02  0.13436628250E+01  0.39376084926E+02  0.47000000000E+01 0. -1.
         -5    1    3    3    0  503 -0.83414597878E+02 -0.47757507700E+02  0.39321446163E+02  0.10395691804E+03  0.47000000000E+01 0. -1.
<mgrwt>
<rscale>  0 0.13744542E+03</rscale>
<asrwt>0</asrwt>
<pdfrwt beam="1">  1        5 0.36868504E-01 0.13744608E+03</pdfrwt>
<pdfrwt beam="2">  1       -5 0.12818708E-01 0.13744608E+03</pdfrwt>
<totfact> 0.26822126E+02</totfact>
</mgrwt>
</event>
<event>
 8    1  0.3694627E-007  0.1364058E+03  0.7546771E-02  0.1218250E+00
          5   -1    0    0  501    0  0.00000000000E+00  0.00000000000E+00  0.15638176469E+02  0.16329193590E+02  0.47000000000E+01 0. -1.
         -5   -1    0    0    0  501 -0.00000000000E+00 -0.00000000000E+00 -0.12287295147E+04  0.12287385036E+04  0.47000000000E+01 0. -1.
         25    2    1    2    0    0  0.29800209446E+02 -0.45751487644E+02 -0.75009196670E+03  0.76239392076E+03  0.12500112315E+03 0.  0.
         25    2    1    2    0    0 -0.29800209446E+02  0.45751487644E+02 -0.46299937151E+03  0.48267377645E+03  0.12499722134E+03 0.  0.
          5    1    3    3  502    0  0.61951852635E+02 -0.38759955265E+02 -0.68869992641E+03  0.69258215745E+03  0.47000000000E+01 0. -1.
         -5    1    3    3    0  502 -0.32151643190E+02 -0.69915323782E+01 -0.61392040290E+02  0.69811763305E+02  0.47000000000E+01 0. -1.
          5    1    4    4  503    0 -0.55283536821E+02 -0.12900408434E+02 -0.33167885452E+03  0.33653475677E+03  0.47000000000E+01 0. -1.
         -5    1    4    4    0  503  0.25483327375E+02  0.58651896078E+02 -0.13132051700E+03  0.14613901967E+03  0.47000000000E+01 0. -1.
<mgrwt>
<rscale>  0 0.13640487E+03</rscale>
<asrwt>0</asrwt>
<pdfrwt beam="1">  1        5 0.24597209E-02 0.13640576E+03</pdfrwt>
<pdfrwt beam="2">  1       -5 0.18908908E+00 0.13640576E+03</pdfrwt>
<totfact> 0.86423342E+01</totfact>
</mgrwt>
</event>
<event>
 8    1  0.3694627E-007  0.1408643E+03  0.7546771E-02  0.1212172E+00
         -5   -1    0    0    0  501 -0.00000000000E+00  0.00000000000E+00  0.96251810506E+02  0.96366493273E+02  0.47000000000E+01 0.  1.
          5   -1    0    0  501    0  0.00000000000E+00 -0.00000000000E+00 -0.20978369363E+03  0.20983633649E+03  0.47000000000E+01 0.  1.
         25    2    1    2    0    0  0.47366633034E+02  0.44432269796E+02 -0.77630702259E+02  0.16083933037E+03  0.12499975895E+03 0.  0.
         25    2    1    2    0    0 -0.47366633034E+02 -0.44432269796E+02 -0.35901180863E+02  0.14536349939E+03  0.12499531049E+03 0.  0.
          5    1    3    3  502    0 -0.34061410062E+02 -0.16231319099E+02 -0.30744638157E+02  0.48897424784E+02  0.47000000000E+01 0.  1.
         -5    1    3    3    0  502  0.81428043095E+02  0.60663588895E+02 -0.46886064102E+02  0.11194190559E+03  0.47000000000E+01 0.  1.
          5    1    4    4  503    0 -0.51837731405E+02  0.95448027130E+01  0.29285896203E+02  0.60481463048E+02  0.47000000000E+01 0.  1.
         -5    1    4    4    0  503  0.44710983713E+01 -0.53977072509E+02 -0.65187077066E+02  0.84882036343E+02  0.47000000000E+01 0.  1.
<mgrwt>
<rscale>  0 0.14086336E+03</rscale>
<asrwt>0</asrwt>
<pdfrwt beam="2">  1        5 0.32287285E-01 0.14086435E+03</pdfrwt>
<pdfrwt beam="1">  1       -5 0.14820842E-01 0.14086435E+03</pdfrwt>
<totfact> 0.27178804E+02</totfact>
</mgrwt>
</event>
<event>
 8    1  0.3694627E-007  0.1305688E+03  0.7546771E-02  0.1226616E+00
          5   -1    0    0  501    0  0.00000000000E+00  0.00000000000E+00  0.75005352773E+02  0.75152464661E+02  0.47000000000E+01 0. -1.
         -5   -1    0    0    0  501 -0.00000000000E+00 -0.00000000000E+00 -0.28898170263E+03  0.28901992051E+03  0.47000000000E+01 0. -1.
         25    2    1    2    0    0 -0.28083978453E+02  0.25149992379E+02 -0.19136222181E+03  0.23165972479E+03  0.12500198475E+03 0.  0.
         25    2    1    2    0    0  0.28083978453E+02 -0.25149992379E+02 -0.22614128047E+02  0.13251266039E+03  0.12500789740E+03 0.  0.
          5    1    3    3  502    0  0.74857523571E+00  0.17302699484E+02  0.14817980149E+02  0.23272436701E+02  0.47000000000E+01 0.  1.
         -5    1    3    3    0  502 -0.28832553689E+02  0.78472928957E+01 -0.20618020195E+03  0.20838728809E+03  0.47000000000E+01 0.  1.
          5    1    4    4  503    0  0.22003881431E+02  0.29192672365E+02 -0.56904216883E+02  0.67797955846E+02  0.47000000000E+01 0.  1.
         -5    1    4    4    0  503  0.60800970214E+01 -0.54342664744E+02  0.34290088836E+02  0.64714704540E+02  0.47000000000E+01 0.  1.
<mgrwt>
<rscale>  0 0.13056737E+03</rscale>
<asrwt>0</asrwt>
<pdfrwt beam="1">  1        5 0.11553541E-01 0.13056878E+03</pdfrwt>
<pdfrwt beam="2">  1       -5 0.44472979E-01 0.13056878E+03</pdfrwt>
<totfact> 0.21579846E+02</totfact>
</mgrwt>
</event>
<event>
 8    1  0.3694627E-007  0.1285644E+03  0.7546771E-02  0.1229605E+00
         -5   -1    0    0    0  501 -0.00000000000E+00  0.00000000000E+00  0.33112406624E+03  0.33115742064E+03  0.47000000000E+01 0.  1.
          5   -1    0    0  501    0  0.00000000000E+00 -0.00000000000E+00 -0.62050523247E+02  0.62228268779E+02  0.47000000000E+01 0.  1.
         25    2    1    2    0    0  0.27529824009E+02  0.11967174552E+02  0.22188369579E+03  0.25643429032E+03  0.12500026528E+03 0.  0.
         25    2    1    2    0    0 -0.27529824009E+02 -0.11967174552E+02  0.47189847204E+02  0.13695139909E+03  0.12501079777E+03 0.  0.
          5    1    4    4  502    0 -0.77535585384E+02 -0.61150120829E+01  0.26248259289E+02  0.82220566097E+02  0.47000000000E+01 0. -1.
         -5    1    4    4    0  502  0.50005761375E+02 -0.58521624687E+01  0.20941587914E+02  0.54730832997E+02  0.47000000000E+01 0. -1.
          5    1    3    3  503    0 -0.73108509019E+01  0.63578864462E+02  0.13457300328E+03  0.14908958300E+03  0.47000000000E+01 0. -1.
         -5    1    3    3    0  503  0.34840674911E+02 -0.51611689910E+02  0.87310692512E+02  0.10734470732E+03  0.47000000000E+01 0. -1.
<mgrwt>
<rscale>  0 0.12856184E+03</rscale>
<asrwt>0</asrwt>
<pdfrwt beam="2">  1        5 0.95624727E-02 0.12856440E+03</pdfrwt>
<pdfrwt beam="1">  1       -5 0.50958403E-01 0.12856440E+03</pdfrwt>
<totfact> 0.22453653E+02</totfact>
</mgrwt>
</event>
<event>
 8    1  0.3694627E-007  0.1462164E+03  0.7546771E-02  0.1205201E+00
         -5   -1    0    0    0  501 -0.00000000000E+00  0.00000000000E+00  0.12560309076E+03  0.12569099574E+03  0.47000000000E+01 0.  1.
          5   -1    0    0  501    0  0.00000000000E+00 -0.00000000000E+00 -0.17021460370E+03  0.17027948001E+03  0.47000000000E+01 0.  1.
         25    2    1    2    0    0  0.73998580842E+02  0.16682715924E+02 -0.17449092082E+02  0.14725249759E+03  0.12499889701E+03 0.  0.
         25    2    1    2    0    0 -0.73998580842E+02 -0.16682715924E+02 -0.27162420856E+02  0.14871797816E+03  0.12500054778E+03 0.  0.
          5    1    4    4  502    0  0.16610350324E+02 -0.43807576868E+02 -0.26471157500E+02  0.54016846523E+02  0.47000000000E+01 0.  1.
         -5    1    4    4    0  502 -0.90608931166E+02  0.27124860945E+02 -0.69126335673E+00  0.94701131637E+02  0.47000000000E+01 0.  1.
          5    1    3    3  503    0  0.65285757561E+02  0.48166727361E+02  0.32383616686E+02  0.87481726061E+02  0.47000000000E+01 0. -1.
         -5    1    3    3    0  503  0.87128232810E+01 -0.31484011437E+02 -0.49832708768E+02  0.59770771526E+02  0.47000000000E+01 0. -1.
<mgrwt>
<rscale>  0 0.14621606E+03</rscale>
<asrwt>0</asrwt>
<pdfrwt beam="2">  1        5 0.26198615E-01 0.14621641E+03</pdfrwt>
<pdfrwt beam="1">  1       -5 0.19335305E-01 0.14621641E+03</pdfrwt>
<totfact> 0.25432060E+02</totfact>
</mgrwt>
</event>
<event>
 8    1  0.3694627E-007  0.1250973E+03  0.7546771E-02  0.1234918E+00
          5   -1    0    0  501    0  0.00000000000E+00  0.00000000000E+00  0.13014282112E+03  0.13022766177E+03  0.47000000000E+01 0.  1.
         -5   -1    0    0    0  501 -0.00000000000E+00 -0.00000000000E+00 -0.12917741148E+03  0.12926288577E+03  0.47000000000E+01 0.  1.
         25    2    1    2    0    0 -0.47634043554E+01 -0.87092565880E+00 -0.33932359154E+02  0.12961676705E+03  0.12500261105E+03 0.  0.
         25    2    1    2    0    0  0.47634043554E+01  0.87092565880E+00  0.34897768793E+02  0.12987378049E+03  0.12500358419E+03 0.  0.
          5    1    4    4  502    0  0.25149250036E+01 -0.61856134633E+02  0.19483853697E+02  0.65070859794E+02  0.47000000000E+01 0.  1.
         -5    1    4    4    0  502  0.22484793518E+01  0.62727060292E+02  0.15413915096E+02  0.64802920697E+02  0.47000000000E+01 0.  1.
          5    1    3    3  503    0 -0.51731392055E+02 -0.44773200066E+01  0.21783574664E+02  0.56504844425E+02  0.47000000000E+01 0.  1.
         -5    1    3    3    0  503  0.46967987700E+02  0.36063943478E+01 -0.55715933817E+02  0.73111922625E+02  0.47000000000E+01 0.  1.
<mgrwt>
<rscale>  0 0.12509710E+03</rscale>
<asrwt>0</asrwt>
<pdfrwt beam="1">  1        5 0.20035074E-01 0.12509734E+03</pdfrwt>
<pdfrwt beam="2">  1       -5 0.19886549E-01 0.12509734E+03</pdfrwt>
<totfact> 0.37990944E+02</totfact>
</mgrwt>
</event>
<event>
 8    1  0.3694627E-007  0.1304649E+03  0.7546771E-02  0.1226770E+00
          5   -1    0    0  501    0  0.00000000000E+00  0.00000000000E+00  0.86482954826E+02  0.86610573693E+02  0.47000000000E+01 0. -1.
         -5   -1    0    0    0  501 -0.00000000000E+00 -0.00000000000E+00 -0.20728715077E+03  0.20734042750E+03  0.47000000000E+01 0. -1.
         25    2    1    2    0    0  0.37057776473E+02  0.47826508299E+01 -0.93910026342E+02  0.16074291132E+03  0.12499215154E+03 0.  0.
         25    2    1    2    0    0 -0.37057776473E+02 -0.47826508299E+01 -0.26894169606E+02  0.13320808987E+03  0.12499978521E+03 0.  0.
          5    1    4    4  502    0  0.44839458377E+02 -0.13054490755E+02 -0.15883001863E+01  0.46963916509E+02  0.47000000000E+01 0. -1.
         -5    1    4    4    0  502 -0.81897234850E+02  0.82718399247E+01 -0.25305869420E+02  0.86244173362E+02  0.47000000000E+01 0. -1.
          5    1    3    3  503    0  0.26085817905E+02 -0.59460435681E+02 -0.48060409909E+02  0.80919134374E+02  0.47000000000E+01 0. -1.
         -5    1    3    3    0  503  0.10971958569E+02  0.64243086511E+02 -0.45849616432E+02  0.79823776948E+02  0.47000000000E+01 0. -1.
<mgrwt>
<rscale>  0 0.13046310E+03</rscale>
<asrwt>0</asrwt>
<pdfrwt beam="1">  1        5 0.13318985E-01 0.13046493E+03</pdfrwt>
<pdfrwt beam="2">  1       -5 0.31904246E-01 0.13046493E+03</pdfrwt>
<totfact> 0.32838560E+02</totfact>
</mgrwt>
</event>
<event>
 8    1  0.3694627E-007  0.1315822E+03  0.7546771E-02  0.1225128E+00
          5   -1    0    0  501    0  0.00000000000E+00  0.00000000000E+00  0.13010656055E+03  0.13019142483E+03  0.47000000000E+01 0.  1.
         -5   -1    0    0    0  501 -0.00000000000E+00 -0.00000000000E+00 -0.13295192051E+03  0.13303496972E+03  0.47000000000E+01 0.  1.
         25    2    1    2    0    0  0.32502842862E+02  0.25149437679E+02 -0.40070727588E+01  0.13163910968E+03  0.12499547814E+03 0.  0.
         25    2    1    2    0    0 -0.32502842862E+02 -0.25149437679E+02  0.11617127982E+01  0.13158728486E+03  0.12499973981E+03 0.  0.
          5    1    4    4  502    0 -0.18983083856E+02  0.50273486962E+02 -0.69574911340E+01  0.54390050992E+02  0.47000000000E+01 0.  1.
         -5    1    4    4    0  502 -0.13519759007E+02 -0.75422924642E+02  0.81192039322E+01  0.77197233873E+02  0.47000000000E+01 0.  1.
          5    1    3    3  503    0  0.78840845847E+02  0.66772082689E+01 -0.14155256467E+02  0.80516615489E+02  0.47000000000E+01 0.  1.
         -5    1    3    3    0  503 -0.46338002984E+02  0.18472229410E+02  0.10148183708E+02  0.51122494193E+02  0.47000000000E+01 0.  1.
<mgrwt>
<rscale>  0 0.13158114E+03</rscale>
<asrwt>0</asrwt>
<pdfrwt beam="1">  1        5 0.20029310E-01 0.13158216E+03</pdfrwt>
<pdfrwt beam="2">  1       -5 0.20467058E-01 0.13158216E+03</pdfrwt>
<totfact> 0.36703292E+02</totfact>
</mgrwt>
</event>
<event>
 8    1  0.3694627E-007  0.1467921E+03  0.7546771E-02  0.1204472E+00
          5   -1    0    0  501    0  0.00000000000E+00  0.00000000000E+00  0.32013556065E+02  0.32356726842E+02  0.47000000000E+01 0.  1.
         -5   -1    0    0    0  501 -0.00000000000E+00 -0.00000000000E+00 -0.69790467211E+03  0.69792049788E+03  0.47000000000E+01 0.  1.
         25    2    1    2    0    0 -0.79146617235E+01  0.76552205438E+02 -0.40705853524E+03  0.43271674658E+03  0.12499699849E+03 0.  0.
         25    2    1    2    0    0  0.79146617235E+01 -0.76552205438E+02 -0.25883258081E+03  0.29756047814E+03  0.12500020494E+03 0.  0.
          5    1    4    4  502    0  0.89815786529E+01  0.12546220151E+02 -0.17299960983E+03  0.17374991049E+03  0.47000000000E+01 0.  1.
         -5    1    4    4    0  502 -0.10669169294E+01 -0.89098425589E+02 -0.85832970982E+02  0.12381056765E+03  0.47000000000E+01 0.  1.
          5    1    3    3  503    0 -0.18041778711E+01  0.11077724304E+03 -0.32755803887E+03  0.34581962273E+03  0.47000000000E+01 0.  1.
         -5    1    3    3    0  503 -0.61104838524E+01 -0.34225037598E+02 -0.79500496366E+02  0.86897123853E+02  0.47000000000E+01 0.  1.
<mgrwt>
<rscale>  0 0.14679146E+03</rscale>
<asrwt>0</asrwt>
<pdfrwt beam="1">  1        5 0.49527781E-02 0.14679214E+03</pdfrwt>
<pdfrwt beam="2">  1       -5 0.10739755E+00 0.14679214E+03</pdfrwt>
<totfact> 0.13047284E+02</totfact>
</mgrwt>
</event>
<event>
 8    1  0.3694627E-007  0.1576317E+03  0.7546771E-02  0.1191398E+00
          5   -1    0    0  501    0  0.00000000000E+00  0.00000000000E+00  0.31363804793E+03  0.31367326171E+03  0.47000000000E+01 0.  1.
         -5   -1    0    0    0  501 -0.00000000000E+00 -0.00000000000E+00 -0.86062869721E+02  0.86191110589E+02  0.47000000000E+01 0.  1.
         25    2    1    2    0    0 -0.62093350627E+02 -0.73257834806E+02  0.57027896895E+02  0.16762717868E+03  0.12499758179E+03 0.  0.
         25    2    1    2    0    0  0.62093350627E+02  0.73257834806E+02  0.17054728132E+03  0.23223719362E+03  0.12500177752E+03 0.  0.
          5    1    4    4  502    0  0.59275654759E+02  0.44948803581E+02  0.17590985003E+02  0.76586754363E+02  0.47000000000E+01 0. -1.
         -5    1    4    4    0  502  0.28176958680E+01  0.28309031225E+02  0.15295629632E+03  0.15565043926E+03  0.47000000000E+01 0. -1.
          5    1    3    3  503    0 -0.63881142503E+02 -0.44745868147E+02  0.92990240618E+02  0.12145891459E+03  0.47000000000E+01 0. -1.
         -5    1    3    3    0  503  0.17877918763E+01 -0.28511966659E+02 -0.35962343723E+02  0.46168264085E+02  0.47000000000E+01 0. -1.
<mgrwt>
<rscale>  0 0.15763082E+03</rscale>
<asrwt>0</asrwt>
<pdfrwt beam="1">  1        5 0.48264581E-01 0.15763166E+03</pdfrwt>
<pdfrwt beam="2">  1       -5 0.13253015E-01 0.15763166E+03</pdfrwt>
<totfact> 0.15160703E+02</totfact>
</mgrwt>
</event>
<event>
 8    1  0.3694627E-007  0.1264898E+03  0.7546771E-02  0.1232764E+00
         -5   -1    0    0    0  501 -0.00000000000E+00  0.00000000000E+00  0.50867714546E+02  0.51084384925E+02  0.47000000000E+01 0.  1.
          5   -1    0    0  501    0  0.00000000000E+00 -0.00000000000E+00 -0.33034446559E+03  0.33037789870E+03  0.47000000000E+01 0.  1.
         25    2    1    2    0    0  0.19291728912E+02 -0.12061828760E+01 -0.96824134691E+02  0.15929398089E+03  0.12500413436E+03 0.  0.
         25    2    1    2    0    0 -0.19291728912E+02  0.12061828760E+01 -0.18265261635E+03  0.22216830273E+03  0.12499260296E+03 0.  0.
          5    1    4    4  502    0  0.13312610139E+02 -0.11177503259E+01  0.15666345501E+02  0.21118696358E+02  0.47000000000E+01 0.  1.
         -5    1    4    4    0  502 -0.32604339052E+02  0.23239332018E+01 -0.19831896185E+03  0.20104960637E+03  0.47000000000E+01 0.  1.
          5    1    3    3  503    0  0.12803049640E+02 -0.62857414558E+02 -0.49331161858E+02  0.81059399056E+02  0.47000000000E+01 0. -1.
         -5    1    3    3    0  503  0.64886792724E+01  0.61651231682E+02 -0.47492972833E+02  0.78234581836E+02  0.47000000000E+01 0. -1.
<mgrwt>
<rscale>  0 0.12648691E+03</rscale>
<asrwt>0</asrwt>
<pdfrwt beam="2">  1        5 0.50841463E-01 0.12648976E+03</pdfrwt>
<pdfrwt beam="1">  1       -5 0.78450412E-02 0.12648976E+03</pdfrwt>
<totfact> 0.31547343E+02</totfact>
</mgrwt>
</event>
<event>
 8    1  0.3694627E-007  0.1385957E+03  0.7546771E-02  0.1215232E+00
         -5   -1    0    0    0  501 -0.00000000000E+00  0.00000000000E+00  0.17687871410E+03  0.17694114700E+03  0.47000000000E+01 0.  1.
          5   -1    0    0  501    0  0.00000000000E+00 -0.00000000000E+00 -0.11469300088E+03  0.11478926104E+03  0.47000000000E+01 0.  1.
         25    2    1    2    0    0  0.37820379922E+02 -0.46412506670E+02  0.65060699969E+02  0.15310485932E+03  0.12499480530E+03 0.  0.
         25    2    1    2    0    0 -0.37820379922E+02  0.46412506670E+02 -0.28749867462E+01  0.13862554872E+03  0.12499710115E+03 0.  0.
          5    1    3    3  502    0 -0.12333918669E+02 -0.77465791613E+02  0.45365751742E+02  0.90737069883E+02  0.47000000000E+01 0.  1.
         -5    1    3    3    0  502  0.50154298592E+02  0.31053284943E+02  0.19694948227E+02  0.62367789432E+02  0.47000000000E+01 0.  1.
          5    1    4    4  503    0 -0.63462632093E+02  0.60609710120E+02 -0.35262799795E+02  0.94692120488E+02  0.47000000000E+01 0. -1.
         -5    1    4    4    0  503  0.25642252171E+02 -0.14197203451E+02  0.32387813049E+02  0.43933428233E+02  0.47000000000E+01 0. -1.
<mgrwt>
<rscale>  0 0.13859522E+03</rscale>
<asrwt>0</asrwt>
<pdfrwt beam="2">  1        5 0.17657284E-01 0.13859573E+03</pdfrwt>
<pdfrwt beam="1">  1       -5 0.27224317E-01 0.13859573E+03</pdfrwt>
<totfact> 0.27431955E+02</totfact>
</mgrwt>
</event>
<event>
 8    1  0.3694627E-007  0.1252537E+03  0.7546771E-02  0.1234674E+00
          5   -1    0    0  501    0  0.00000000000E+00  0.00000000000E+00  0.19404800146E+02  0.19965877609E+02  0.47000000000E+01 0. -1.
         -5   -1    0    0    0  501 -0.00000000000E+00 -0.00000000000E+00 -0.80265428971E+03  0.80266805019E+03  0.47000000000E+01 0. -1.
         25    2    1    2    0    0  0.76746133782E+01  0.20121758473E+01 -0.42799241033E+03  0.44594393955E+03  0.12500218150E+03 0.  0.
         25    2    1    2    0    0 -0.76746133782E+01 -0.20121758473E+01 -0.35525707924E+03  0.37668998825E+03  0.12499922542E+03 0.  0.
          5    1    4    4  502    0  0.56935953541E+02 -0.61588999828E+01 -0.12724085359E+03  0.13961360850E+03  0.47000000000E+01 0.  1.
         -5    1    4    4    0  502 -0.64610566919E+02  0.41467241356E+01 -0.22801622565E+03  0.23707637975E+03  0.47000000000E+01 0.  1.
          5    1    3    3  503    0 -0.57999931124E+01 -0.21321912139E+02 -0.41508506000E+03  0.41569936359E+03  0.47000000000E+01 0.  1.
         -5    1    3    3    0  503  0.13474606491E+02  0.23334087987E+02 -0.12907350332E+02  0.30244575957E+02  0.47000000000E+01 0.  1.
<mgrwt>
<rscale>  0 0.12525298E+03</rscale>
<asrwt>0</asrwt>
<pdfrwt beam="1">  1        5 0.30295728E-02 0.12525372E+03</pdfrwt>
<pdfrwt beam="2">  1       -5 0.12352947E+00 0.12525372E+03</pdfrwt>
<totfact> 0.19465907E+02</totfact>
</mgrwt>
</event>
<event>
 8    1  0.3694627E-007  0.1385210E+03  0.7546771E-02  0.1215333E+00
         -5   -1    0    0    0  501 -0.00000000000E+00  0.00000000000E+00  0.61752040554E+02  0.61930642760E+02  0.47000000000E+01 0. -1.
          5   -1    0    0  501    0  0.00000000000E+00 -0.00000000000E+00 -0.31987222159E+03  0.31990674914E+03  0.47000000000E+01 0. -1.
         25    2    1    2    0    0 -0.57916166306E+02 -0.14417586092E+02 -0.95668816937E+02  0.16834659754E+03  0.12500362098E+03 0.  0.
         25    2    1    2    0    0  0.57916166306E+02  0.14417586092E+02 -0.16245136410E+03  0.21349079437E+03  0.12500289786E+03 0.  0.
          5    1    4    4  502    0 -0.31932883825E+02 -0.12781611967E+02 -0.84591658036E+02  0.91438051615E+02  0.47000000000E+01 0.  1.
         -5    1    4    4    0  502  0.89849050131E+02  0.27199198058E+02 -0.77859706066E+02  0.12205274275E+03  0.47000000000E+01 0.  1.
          5    1    3    3  503    0  0.37820301726E+02  0.73873324338E+01 -0.38281628688E+02  0.54520830865E+02  0.47000000000E+01 0. -1.
         -5    1    3    3    0  503 -0.95736468032E+02 -0.21804918525E+02 -0.57387188248E+02  0.11382576667E+03  0.47000000000E+01 0. -1.
<mgrwt>
<rscale>  0 0.13852079E+03</rscale>
<asrwt>0</asrwt>
<pdfrwt beam="2">  1        5 0.49227505E-01 0.13852095E+03</pdfrwt>
<pdfrwt beam="1">  1       -5 0.95167087E-02 0.13852095E+03</pdfrwt>
<totfact> 0.24999650E+02</totfact>
</mgrwt>
</event>
<event>
 8    1  0.3694627E-007  0.1393407E+03  0.7546771E-02  0.1214220E+00
          5   -1    0    0  501    0  0.00000000000E+00  0.00000000000E+00  0.38326581669E+03  0.38329463373E+03  0.47000000000E+01 0. -1.
         -5   -1    0    0    0  501 -0.00000000000E+00 -0.00000000000E+00 -0.50539628944E+02  0.50757699847E+02  0.47000000000E+01 0. -1.
         25    2    1    2    0    0  0.55568922224E+02  0.26496633841E+02  0.16184805310E+03  0.21356641704E+03  0.12500338185E+03 0.  0.
         25    2    1    2    0    0 -0.55568922224E+02 -0.26496633841E+02  0.17087813465E+03  0.22048591653E+03  0.12499890306E+03 0.  0.
          5    1    4    4  502    0 -0.24220732520E+02  0.33526389896E+02  0.58402375202E+01  0.42034046647E+02  0.47000000000E+01 0. -1.
         -5    1    4    4    0  502 -0.31348189704E+02 -0.60023023737E+02  0.16503789713E+03  0.17845186988E+03  0.47000000000E+01 0. -1.
          5    1    3    3  503    0 -0.77329264698E+01  0.22711298895E+02 -0.12875753901E+02  0.27631074677E+02  0.47000000000E+01 0. -1.
         -5    1    3    3    0  503  0.63301848694E+02  0.37853349457E+01  0.17472380700E+03  0.18593534237E+03  0.47000000000E+01 0. -1.
<mgrwt>
<rscale>  0 0.13933967E+03</rscale>
<asrwt>0</asrwt>
<pdfrwt beam="1">  1        5 0.58982961E-01 0.13934067E+03</pdfrwt>
<pdfrwt beam="2">  1       -5 0.77943192E-02 0.13934067E+03</pdfrwt>
<totfact> 0.23973431E+02</totfact>
</mgrwt>
</event>
<event>
 8    1  0.3694627E-007  0.1509501E+03  0.7546771E-02  0.1199324E+00
         -5   -1    0    0    0  501 -0.00000000000E+00  0.00000000000E+00  0.19432201026E+04  0.19432257865E+04  0.47000000000E+01 0. -1.
          5   -1    0    0  501    0  0.00000000000E+00 -0.00000000000E+00 -0.26265840904E+02  0.26683035779E+02  0.47000000000E+01 0. -1.
         25    2    1    2    0    0 -0.32290157711E+02  0.78136389398E+02  0.16937168656E+04  0.17004262426E+04  0.12499854407E+03 0.  0.
         25    2    1    2    0    0  0.32290157711E+02 -0.78136389398E+02  0.22323739608E+03  0.26948257964E+03  0.12505189357E+03 0.  0.
          5    1    4    4  502    0  0.57145258600E+02  0.10725647321E+02  0.93636887032E+02  0.11032033677E+03  0.47000000000E+01 0. -1.
         -5    1    4    4    0  502 -0.24855100889E+02 -0.88862036719E+02  0.12960050905E+03  0.15916224287E+03  0.47000000000E+01 0. -1.
          5    1    3    3  503    0  0.30426919503E+02  0.41018273792E+02  0.26940617705E+03  0.27424455227E+03  0.47000000000E+01 0. -1.
         -5    1    3    3    0  503 -0.62717077214E+02  0.37118115606E+02  0.14243106886E+04  0.14261816903E+04  0.47000000000E+01 0. -1.
<mgrwt>
<rscale>  0 0.15093903E+03</rscale>
<asrwt>0</asrwt>
<pdfrwt beam="2">  1        5 0.40734270E-02 0.15095008E+03</pdfrwt>
<pdfrwt beam="1">  1       -5 0.29898952E+00 0.15095008E+03</pdfrwt>
<totfact> 0.76500442E+00</totfact>
</mgrwt>
</event>
<event>
 8    1  0.3694627E-007  0.1339405E+03  0.7546771E-02  0.1221726E+00
          5   -1    0    0  501    0  0.00000000000E+00  0.00000000000E+00  0.12018115293E+02  0.12904460283E+02  0.47000000000E+01 0.  1.
         -5   -1    0    0    0  501 -0.00000000000E+00 -0.00000000000E+00 -0.14674134976E+04  0.14674210244E+04  0.47000000000E+01 0.  1.
         25    2    1    2    0    0  0.47596328732E+02  0.68395724094E+01 -0.83127263481E+03  0.84199421387E+03  0.12501148963E+03 0.  0.
         25    2    1    2    0    0 -0.47596328732E+02 -0.68395724094E+01 -0.62412274751E+03  0.63833127086E+03  0.12500166855E+03 0.  0.
          5    1    4    4  502    0  0.33961282279E+02 -0.19173648440E+02 -0.34525061381E+03  0.34747816309E+03  0.47000000000E+01 0.  1.
         -5    1    4    4    0  502 -0.81557611011E+02  0.12334076031E+02 -0.27887213371E+03  0.29085310778E+03  0.47000000000E+01 0.  1.
          5    1    3    3  503    0  0.88701232463E+02  0.17271392218E+02 -0.52068776943E+03  0.52849224484E+03  0.47000000000E+01 0.  1.
         -5    1    3    3    0  503 -0.41104903731E+02 -0.10431819809E+02 -0.31058486538E+03  0.31350196902E+03  0.47000000000E+01 0.  1.
<mgrwt>
<rscale>  0 0.13393823E+03</rscale>
<asrwt>0</asrwt>
<pdfrwt beam="1">  1        5 0.19177013E-02 0.13394052E+03</pdfrwt>
<pdfrwt beam="2">  1       -5 0.22582455E+00 0.13394052E+03</pdfrwt>
<totfact> 0.72686993E+01</totfact>
</mgrwt>
</event>
<event>
 8    1  0.3694627E-007  0.1330008E+03  0.7546771E-02  0.1223070E+00
          5   -1    0    0  501    0  0.00000000000E+00  0.00000000000E+00  0.67196485121E+02  0.67360653297E+02  0.47000000000E+01 0. -1.
         -5   -1    0    0    0  501 -0.00000000000E+00 -0.00000000000E+00 -0.26640061729E+03  0.26644207417E+03  0.47000000000E+01 0. -1.
         25    2    1    2    0    0  0.98336368364E+01 -0.44364121189E+02 -0.11916718860E+03  0.17857779000E+03  0.12499733029E+03 0.  0.
         25    2    1    2    0    0 -0.98336368364E+01  0.44364121189E+02 -0.80036943565E+02  0.15522493747E+03  0.12499597280E+03 0.  0.
          5    1    3    3  502    0  0.34278248479E+02 -0.35208825415E+02  0.68171126306E+01  0.49831944881E+02  0.47000000000E+01 0. -1.
         -5    1    3    3    0  502 -0.24444611643E+02 -0.91552957739E+01 -0.12598430123E+03  0.12874584512E+03  0.47000000000E+01 0. -1.
          5    1    4    4  503    0  0.10400978064E+02  0.27295547461E+02  0.29890918914E+02  0.42056917260E+02  0.47000000000E+01 0. -1.
         -5    1    4    4    0  503 -0.20234614900E+02  0.17068573728E+02 -0.10992786248E+03  0.11316802021E+03  0.47000000000E+01 0. -1.
<mgrwt>
<rscale>  0 0.13300046E+03</rscale>
<asrwt>0</asrwt>
<pdfrwt beam="1">  1        5 0.10353738E-01 0.13300078E+03</pdfrwt>
<pdfrwt beam="2">  1       -5 0.41000527E-01 0.13300078E+03</pdfrwt>
<totfact> 0.31149573E+02</totfact>
</mgrwt>
</event>
<event>
 8    1  0.3694627E-007  0.1400331E+03  0.7546771E-02  0.1213285E+00
          5   -1    0    0  501    0  0.00000000000E+00  0.00000000000E+00  0.11650632824E+04  0.11650727625E+04  0.47000000000E+01 0. -1.
         -5   -1    0    0    0  501 -0.00000000000E+00 -0.00000000000E+00 -0.18672619159E+02  0.19255043657E+02  0.47000000000E+01 0. -1.
         25    2    1    2    0    0 -0.63022637537E+02 -0.37817841113E+01  0.37421111117E+03  0.39955378523E+03  0.12499246712E+03 0.  0.
         25    2    1    2    0    0  0.63022637537E+02  0.37817841113E+01  0.77217955208E+03  0.78477402097E+03  0.12499139412E+03 0.  0.
          5    1    4    4  502    0  0.20643761266E+02 -0.59706628149E+02  0.32880798288E+03  0.33485493266E+03  0.47000000000E+01 0.  1.
         -5    1    4    4    0  502  0.42378876271E+02  0.63488412260E+02  0.44337156920E+03  0.44991908831E+03  0.47000000000E+01 0.  1.
          5    1    3    3  503    0 -0.37453923852E+02  0.71619020237E+01  0.36884572479E+03  0.37084140538E+03  0.47000000000E+01 0. -1.
         -5    1    3    3    0  503 -0.25568713685E+02 -0.10943686135E+02  0.53653863874E+01  0.28712379853E+02  0.47000000000E+01 0. -1.
<mgrwt>
<rscale>  0 0.14003287E+03</rscale>
<asrwt>0</asrwt>
<pdfrwt beam="1">  1        5 0.17928607E+00 0.14003311E+03</pdfrwt>
<pdfrwt beam="2">  1       -5 0.29182413E-02 0.14003311E+03</pdfrwt>
<totfact> 0.77553504E+01</totfact>
</mgrwt>
</event>
<event>
 8    1  0.3694627E-007  0.1601614E+03  0.7546771E-02  0.1188515E+00
         -5   -1    0    0    0  501 -0.00000000000E+00  0.00000000000E+00  0.29664027631E+03  0.29667750762E+03  0.47000000000E+01 0. -1.
          5   -1    0    0  501    0  0.00000000000E+00 -0.00000000000E+00 -0.95378210049E+02  0.95493941966E+02  0.47000000000E+01 0. -1.
         25    2    1    2    0    0 -0.88755006036E+02 -0.46351501898E+02  0.16085233325E+03  0.22699091186E+03  0.12500195249E+03 0.  0.
         25    2    1    2    0    0  0.88755006036E+02  0.46351501898E+02  0.40409733005E+02  0.16518053773E+03  0.12500300276E+03 0.  0.
          5    1    4    4  502    0  0.26228944120E+02 -0.35647978380E+02  0.43051239135E+02  0.61921200435E+02  0.47000000000E+01 0.  1.
         -5    1    4    4    0  502  0.62526061915E+02  0.81999480278E+02 -0.26415061301E+01  0.10325933730E+03  0.47000000000E+01 0.  1.
          5    1    3    3  503    0 -0.57200150994E+02  0.30245997006E+02  0.11539039034E+03  0.13237714981E+03  0.47000000000E+01 0. -1.
         -5    1    3    3    0  503 -0.31554855042E+02 -0.76597498904E+02  0.45461942915E+02  0.94613762047E+02  0.47000000000E+01 0. -1.
<mgrwt>
<rscale>  0 0.16016116E+03</rscale>
<asrwt>0</asrwt>
<pdfrwt beam="2">  1        5 0.14685337E-01 0.16016137E+03</pdfrwt>
<pdfrwt beam="1">  1       -5 0.45648731E-01 0.16016137E+03</pdfrwt>
<totfact> 0.14239519E+02</totfact>
</mgrwt>
</event>
<event>
 8    1  0.3694627E-007  0.1354931E+03  0.7546771E-02  0.1219526E+00
          5   -1    0    0  501    0  0.00000000000E+00  0.00000000000E+00  0.76093060390E+02  0.76238073424E+02  0.47000000000E+01 0.  1.
         -5   -1    0    0    0  501 -0.00000000000E+00 -0.00000000000E+00 -0.25483868072E+03  0.25488201818E+03  0.47000000000E+01 0.  1.
         25    2    1    2    0    0  0.16391838562E+02  0.49643151790E+02 -0.12813176931E+03  0.18648357483E+03  0.12500095392E+03 0.  0.
         25    2    1    2    0    0 -0.16391838562E+02 -0.49643151790E+02 -0.50613851017E+02  0.14463651678E+03  0.12499930071E+03 0.  0.
          5    1    4    4  502    0  0.21151464459E+02  0.31528405653E+02  0.59452379628E+01  0.38715121932E+02  0.47000000000E+01 0.  1.
         -5    1    4    4    0  502 -0.37543303021E+02 -0.81171557443E+02 -0.56559088980E+02  0.10592139484E+03  0.47000000000E+01 0.  1.
          5    1    3    3  503    0 -0.35713141576E+02  0.69167851375E+02 -0.60024088628E+02  0.98410372221E+02  0.47000000000E+01 0.  1.
         -5    1    3    3    0  503  0.52104980138E+02 -0.19524699585E+02 -0.68107680683E+02  0.88073202605E+02  0.47000000000E+01 0.  1.
<mgrwt>
<rscale>  0 0.13549269E+03</rscale>
<asrwt>0</asrwt>
<pdfrwt beam="1">  1        5 0.11721113E-01 0.13549307E+03</pdfrwt>
<pdfrwt beam="2">  1       -5 0.39220439E-01 0.13549307E+03</pdfrwt>
<totfact> 0.27599921E+02</totfact>
</mgrwt>
</event>
<event>
 8    1  0.3694627E-007  0.1497790E+03  0.7546771E-02  0.1200746E+00
          5   -1    0    0  501    0  0.00000000000E+00  0.00000000000E+00  0.70823116793E+02  0.70978897372E+02  0.47000000000E+01 0.  1.
         -5   -1    0    0    0  501 -0.00000000000E+00 -0.00000000000E+00 -0.32318784136E+03  0.32322201473E+03  0.47000000000E+01 0.  1.
         25    2    1    2    0    0  0.67147755006E+02 -0.47957929595E+02 -0.15509360773E+03  0.21560799179E+03  0.12499597974E+03 0.  0.
         25    2    1    2    0    0 -0.67147755006E+02  0.47957929595E+02 -0.97271116841E+02  0.17859292031E+03  0.12499990800E+03 0.  0.
          5    1    4    4  502    0 -0.75486479648E+02  0.43660541295E+02 -0.68863353940E+01  0.87601159188E+02  0.47000000000E+01 0.  1.
         -5    1    4    4    0  502  0.83387246425E+01  0.42973883004E+01 -0.90384781447E+02  0.90991761122E+02  0.47000000000E+01 0.  1.
          5    1    3    3  503    0  0.88007616176E+02 -0.14813299451E+02 -0.15163715720E+03  0.17601332844E+03  0.47000000000E+01 0. -1.
         -5    1    3    3    0  503 -0.20859861171E+02 -0.33144630145E+02 -0.34564505301E+01  0.39594663349E+02  0.47000000000E+01 0. -1.
<mgrwt>
<rscale>  0 0.14977822E+03</rscale>
<asrwt>0</asrwt>
<pdfrwt beam="1">  1        5 0.10910476E-01 0.14977904E+03</pdfrwt>
<pdfrwt beam="2">  1       -5 0.49735817E-01 0.14977904E+03</pdfrwt>
<totfact> 0.19767814E+02</totfact>
</mgrwt>
</event>
<event>
 8    1  0.3694627E-007  0.1491402E+03  0.7546771E-02  0.1201534E+00
         -5   -1    0    0    0  501 -0.00000000000E+00  0.00000000000E+00  0.25869642007E+03  0.25873911138E+03  0.47000000000E+01 0. -1.
          5   -1    0    0  501    0  0.00000000000E+00 -0.00000000000E+00 -0.98927368354E+02  0.99038952990E+02  0.47000000000E+01 0. -1.
         25    2    1    2    0    0 -0.54558557053E+02 -0.60342766687E+02  0.14483464856E+03  0.20789199738E+03  0.12499648600E+03 0.  0.
         25    2    1    2    0    0  0.54558557053E+02  0.60342766687E+02  0.14934403159E+02  0.14988606699E+03  0.12499964416E+03 0.  0.
          5    1    3    3  502    0 -0.74751515365E+02 -0.86299958993E+02  0.12427010152E+03  0.16882126674E+03  0.47000000000E+01 0.  1.
         -5    1    3    3    0  502  0.20192958313E+02  0.25957192306E+02  0.20564547038E+02  0.39070730639E+02  0.47000000000E+01 0.  1.
          5    1    4    4  503    0 -0.11065536313E+02 -0.29024716032E+02 -0.15190984741E+02  0.34896077889E+02  0.47000000000E+01 0. -1.
         -5    1    4    4    0  503  0.65624093366E+02  0.89367482719E+02  0.30125387900E+02  0.11498998910E+03  0.47000000000E+01 0. -1.
<mgrwt>
<rscale>  0 0.14913953E+03</rscale>
<asrwt>0</asrwt>
<pdfrwt beam="2">  1        5 0.15231463E-01 0.14914019E+03</pdfrwt>
<pdfrwt beam="1">  1       -5 0.39811316E-01 0.14914019E+03</pdfrwt>
<totfact> 0.17288450E+02</totfact>
</mgrwt>
</event>
<event>
 8    1  0.3694627E-007  0.1845610E+03  0.7546771E-02  0.1163461E+00
          5   -1    0    0  501    0  0.00000000000E+00  0.00000000000E+00  0.11906587673E+03  0.11915860439E+03  0.47000000000E+01 0. -1.
         -5   -1    0    0    0  501 -0.00000000000E+00 -0.00000000000E+00 -0.28639650748E+03  0.28643507030E+03  0.47000000000E+01 0. -1.
         25    2    1    2    0    0 -0.90338839590E+02 -0.10136668410E+03 -0.92444717411E+02  0.20641897046E+03  0.12500581989E+03 0.  0.
         25    2    1    2    0    0  0.90338839590E+02  0.10136668410E+03 -0.74885913348E+02  0.19917470423E+03  0.12500540869E+03 0.  0.
          5    1    3    3  502    0 -0.93278809033E+02 -0.11024664161E+03 -0.11294831682E+03  0.18339757488E+03  0.47000000000E+01 0. -1.
         -5    1    3    3    0  502  0.29399694436E+01  0.88799575019E+01  0.20503599413E+02  0.23021395580E+02  0.47000000000E+01 0. -1.
          5    1    4    4  503    0 -0.68127136226E+01  0.23096290441E+01 -0.58794000669E+02  0.59418616341E+02  0.47000000000E+01 0.  1.
         -5    1    4    4    0  503  0.97151553212E+02  0.99057055060E+02 -0.16091912679E+02  0.13975608789E+03  0.47000000000E+01 0.  1.
<mgrwt>
<rscale>  0 0.18456094E+03</rscale>
<asrwt>0</asrwt>
<pdfrwt beam="1">  1        5 0.18327926E-01 0.18456101E+03</pdfrwt>
<pdfrwt beam="2">  1       -5 0.44071100E-01 0.18456101E+03</pdfrwt>
<totfact> 0.10646504E+02</totfact>
</mgrwt>
</event>
<event>
 8    1  0.3694627E-007  0.1650348E+03  0.7546771E-02  0.1183127E+00
         -5   -1    0    0    0  501 -0.00000000000E+00  0.00000000000E+00  0.58832986703E+02  0.59020422943E+02  0.47000000000E+01 0. -1.
          5   -1    0    0  501    0  0.00000000000E+00 -0.00000000000E+00 -0.46456539902E+03  0.46458917332E+03  0.47000000000E+01 0. -1.
         25    2    1    2    0    0 -0.10683434067E+03 -0.14039136837E+02 -0.18344301571E+03  0.24675393180E+03  0.12500195654E+03 0.  0.
         25    2    1    2    0    0  0.10683434067E+03  0.14039136837E+02 -0.22228939660E+03  0.27685566446E+03  0.12500323752E+03 0.  0.
          5    1    4    4  502    0 -0.28323563784E+02  0.51054657839E+01 -0.32871826533E+02  0.43942428539E+02  0.47000000000E+01 0.  1.
         -5    1    4    4    0  502  0.13515790445E+03  0.89336710532E+01 -0.18941757007E+03  0.23291323592E+03  0.47000000000E+01 0.  1.
          5    1    3    3  503    0 -0.10136264282E+03 -0.23754373156E+02 -0.55180940776E+02  0.11792235508E+03  0.47000000000E+01 0.  1.
         -5    1    3    3    0  503 -0.54716978459E+01  0.97152363191E+01 -0.12826207493E+03  0.12883157672E+03  0.47000000000E+01 0.  1.
<mgrwt>
<rscale>  0 0.16503455E+03</rscale>
<asrwt>0</asrwt>
<pdfrwt beam="2">  1        5 0.71487845E-01 0.16503479E+03</pdfrwt>
<pdfrwt beam="1">  1       -5 0.90674760E-02 0.16503479E+03</pdfrwt>
<totfact> 0.12713408E+02</totfact>
</mgrwt>
</event>
<event>
 8    1  0.3694627E-007  0.1341450E+03  0.7546771E-02  0.1221434E+00
          5   -1    0    0  501    0  0.00000000000E+00  0.00000000000E+00  0.10348464214E+03  0.10359131797E+03  0.47000000000E+01 0. -1.
         -5   -1    0    0    0  501 -0.00000000000E+00 -0.00000000000E+00 -0.22374453422E+03  0.22379389311E+03  0.47000000000E+01 0. -1.
         25    2    1    2    0    0  0.42707944359E+02  0.23351247230E+02 -0.13755189337E+03  0.19213024324E+03  0.12499703092E+03 0.  0.
         25    2    1    2    0    0 -0.42707944359E+02 -0.23351247230E+02  0.17292001287E+02  0.13525496785E+03  0.12500257502E+03 0.  0.
          5    1    4    4  502    0 -0.68778638209E+02  0.22295556225E+02 -0.14148000406E+02  0.73823091351E+02  0.47000000000E+01 0.  1.
         -5    1    4    4    0  502  0.26070693849E+02 -0.45646803455E+02  0.31440001692E+02  0.61431876497E+02  0.47000000000E+01 0.  1.
          5    1    3    3  503    0  0.16955715360E+02  0.63559369129E+02 -0.26349205795E+02  0.71018732272E+02  0.47000000000E+01 0.  1.
         -5    1    3    3    0  503  0.25752228999E+02 -0.40208121899E+02 -0.11120268757E+03  0.12111151096E+03  0.47000000000E+01 0.  1.
<mgrwt>
<rscale>  0 0.13414375E+03</rscale>
<asrwt>0</asrwt>
<pdfrwt beam="1">  1        5 0.15932717E-01 0.13414504E+03</pdfrwt>
<pdfrwt beam="2">  1       -5 0.34434239E-01 0.13414504E+03</pdfrwt>
<totfact> 0.20624344E+02</totfact>
</mgrwt>
</event>
<event>
 8    1  0.3694627E-007  0.1558593E+03  0.7546771E-02  0.1193453E+00
         -5   -1    0    0    0  501 -0.00000000000E+00  0.00000000000E+00  0.93978754792E+02  0.94096207959E+02  0.47000000000E+01 0.  1.
          5   -1    0    0  501    0  0.00000000000E+00 -0.00000000000E+00 -0.29410855900E+03  0.29414611076E+03  0.47000000000E+01 0.  1.
         25    2    1    2    0    0 -0.87217321483E+02  0.32557647319E+02 -0.32235860252E+02  0.15915612603E+03  0.12499864080E+03 0.  0.
         25    2    1    2    0    0  0.87217321483E+02 -0.32557647319E+02 -0.16789394395E+03  0.22908619268E+03  0.12500098278E+03 0.  0.
          5    1    3    3  502    0  0.10214179533E+02  0.43310100491E+02  0.18809701405E+02  0.48538532477E+02  0.47000000000E+01 0. -1.
         -5    1    3    3    0  502 -0.97431501016E+02 -0.10752453172E+02 -0.51045561657E+02  0.11061759356E+03  0.47000000000E+01 0. -1.
          5    1    4    4  503    0  0.85281899453E+01 -0.18055918153E+02  0.17591352505E+02  0.27023913244E+02  0.47000000000E+01 0.  1.
         -5    1    4    4    0  503  0.78689131538E+02 -0.14501729166E+02 -0.18548529646E+03  0.20206227944E+03  0.47000000000E+01 0.  1.
<mgrwt>
<rscale>  0 0.15585879E+03</rscale>
<asrwt>0</asrwt>
<pdfrwt beam="2">  1        5 0.45259394E-01 0.15585925E+03</pdfrwt>
<pdfrwt beam="1">  1       -5 0.14470194E-01 0.15585925E+03</pdfrwt>
<totfact> 0.14760386E+02</totfact>
</mgrwt>
</event>
<event>
 8    1  0.3694627E-007  0.1644594E+03  0.7546771E-02  0.1183753E+00
          5   -1    0    0  501    0  0.00000000000E+00  0.00000000000E+00  0.17324825443E+03  0.17331199515E+03  0.47000000000E+01 0. -1.
         -5   -1    0    0    0  501 -0.00000000000E+00 -0.00000000000E+00 -0.17960166255E+03  0.17966314922E+03  0.47000000000E+01 0. -1.
         25    2    1    2    0    0 -0.97967969748E+02 -0.42747936854E+02 -0.67152365449E+02  0.17763713388E+03  0.12498160642E+03 0.  0.
         25    2    1    2    0    0  0.97967969748E+02  0.42747936854E+02  0.60798957334E+02  0.17533801050E+03  0.12498718139E+03 0.  0.
          5    1    3    3  502    0 -0.21076864894E+02  0.38644523904E+01 -0.83318546128E+02  0.86158216990E+02  0.47000000000E+01 0. -1.
         -5    1    3    3    0  502 -0.76891104854E+02 -0.46612389244E+02  0.16166180679E+02  0.91478916885E+02  0.47000000000E+01 0. -1.
          5    1    4    4  503    0  0.49577031431E+02  0.19895878044E+02  0.96805042232E+02  0.11066631922E+03  0.47000000000E+01 0. -1.
         -5    1    4    4    0  503  0.48390938317E+02  0.22852058810E+02 -0.36006084898E+02  0.64671691278E+02  0.47000000000E+01 0. -1.
<mgrwt>
<rscale>  0 0.16445837E+03</rscale>
<asrwt>0</asrwt>
<pdfrwt beam="1">  1        5 0.26663210E-01 0.16445943E+03</pdfrwt>
<pdfrwt beam="2">  1       -5 0.27640658E-01 0.16445943E+03</pdfrwt>
<totfact> 0.12935142E+02</totfact>
</mgrwt>
</event>
<event>
 8    1  0.3694627E-007  0.2290258E+03  0.7546771E-02  0.1127328E+00
         -5   -1    0    0    0  501 -0.00000000000E+00  0.00000000000E+00  0.45409569705E+03  0.45412001947E+03  0.47000000000E+01 0.  1.
          5   -1    0    0  501    0  0.00000000000E+00 -0.00000000000E+00 -0.16071682681E+03  0.16078553548E+03  0.47000000000E+01 0.  1.
         25    2    1    2    0    0  0.71868885095E+01  0.19176855701E+03  0.30983323835E+03  0.38529137637E+03  0.12500391315E+03 0.  0.
         25    2    1    2    0    0 -0.71868885095E+01 -0.19176855701E+03 -0.16454368100E+02  0.22961417857E+03  0.12500037579E+03 0.  0.
          5    1    4    4  502    0  0.43560386286E+02 -0.27486210952E+02  0.16883571500E+02  0.54407205704E+02  0.47000000000E+01 0. -1.
         -5    1    4    4    0  502 -0.50747274796E+02 -0.16428234605E+03 -0.33337939600E+02  0.17520697287E+03  0.47000000000E+01 0. -1.
          5    1    3    3  503    0 -0.47864114749E+02  0.35382040451E+02  0.11375302181E+03  0.12847062792E+03  0.47000000000E+01 0.  1.
         -5    1    3    3    0  503  0.55051003259E+02  0.15638651656E+03  0.19608021653E+03  0.25682074845E+03  0.47000000000E+01 0.  1.
<mgrwt>
<rscale>  0 0.22902530E+03</rscale>
<asrwt>0</asrwt>
<pdfrwt beam="2">  1        5 0.24732822E-01 0.22902578E+03</pdfrwt>
<pdfrwt beam="1">  1       -5 0.69868031E-01 0.22902578E+03</pdfrwt>
<totfact> 0.23417686E+01</totfact>
</mgrwt>
</event>
<event>
 8    1  0.3694627E-007  0.1283390E+03  0.7546771E-02  0.1229953E+00
         -5   -1    0    0    0  501 -0.00000000000E+00  0.00000000000E+00  0.24589217284E+03  0.24593708680E+03  0.47000000000E+01 0. -1.
          5   -1    0    0  501    0  0.00000000000E+00 -0.00000000000E+00 -0.10215860812E+03  0.10226666716E+03  0.47000000000E+01 0. -1.
         25    2    1    2    0    0  0.26505058650E+02 -0.11997801479E+02  0.17414741864E+03  0.21631023641E+03  0.12496531351E+03 0.  0.
         25    2    1    2    0    0 -0.26505058650E+02  0.11997801479E+02 -0.30413853920E+02  0.13189351756E+03  0.12499772833E+03 0.  0.
          5    1    4    4  502    0  0.41822158374E+02  0.22413607091E+02 -0.39638143801E+02  0.62005928409E+02  0.47000000000E+01 0.  1.
         -5    1    4    4    0  502 -0.68327217024E+02 -0.10415805612E+02  0.92242898816E+01  0.69887589146E+02  0.47000000000E+01 0.  1.
          5    1    3    3  503    0  0.49658077933E+02 -0.21307436154E+02  0.16591690725E+02  0.56721298827E+02  0.47000000000E+01 0.  1.
         -5    1    3    3    0  503 -0.23153019283E+02  0.93096346752E+01  0.15755572791E+03  0.15958893758E+03  0.47000000000E+01 0.  1.
<mgrwt>
<rscale>  0 0.12833110E+03</rscale>
<asrwt>0</asrwt>
<pdfrwt beam="2">  1        5 0.15728476E-01 0.12833899E+03</pdfrwt>
<pdfrwt beam="1">  1       -5 0.37841332E-01 0.12833899E+03</pdfrwt>
<totfact> 0.17195020E+02</totfact>
</mgrwt>
</event>
<event>
 8    1  0.3694627E-007  0.1606948E+03  0.7546771E-02  0.1187915E+00
         -5   -1    0    0    0  501 -0.00000000000E+00  0.00000000000E+00  0.94175358190E+03  0.94176530995E+03  0.47000000000E+01 0.  1.
          5   -1    0    0  501    0  0.00000000000E+00 -0.00000000000E+00 -0.32495007216E+02  0.32833146270E+02  0.47000000000E+01 0.  1.
         25    2    1    2    0    0  0.97701588203E+02 -0.25528685814E+02  0.65007219221E+03  0.66963921742E+03  0.12500204914E+03 0.  0.
         25    2    1    2    0    0 -0.97701588203E+02  0.25528685814E+02  0.25918638247E+03  0.30495923879E+03  0.12500096932E+03 0.  0.
          5    1    3    3  502    0  0.61310134372E+02  0.25016169806E+02  0.13137031304E+03  0.14719032059E+03  0.47000000000E+01 0.  1.
         -5    1    3    3    0  502  0.36391453831E+02 -0.50544855620E+02  0.51870187917E+03  0.52244889683E+03  0.47000000000E+01 0.  1.
          5    1    4    4  503    0 -0.23718112894E+02 -0.36757910983E+02  0.16162172878E+03  0.16750333165E+03  0.47000000000E+01 0.  1.
         -5    1    4    4    0  503 -0.73983475309E+02  0.62286596796E+02  0.97564653687E+02  0.13745590714E+03  0.47000000000E+01 0.  1.
<mgrwt>
<rscale>  0 0.16069461E+03</rscale>
<asrwt>0</asrwt>
<pdfrwt beam="2">  1        5 0.50261439E-02 0.16069482E+03</pdfrwt>
<pdfrwt beam="1">  1       -5 0.14491210E+00 0.16069482E+03</pdfrwt>
<totfact> 0.60337186E+01</totfact>
</mgrwt>
</event>
<event>
 8    1  0.3694627E-007  0.1267283E+03  0.7546771E-02  0.1232400E+00
          5   -1    0    0  501    0  0.00000000000E+00  0.00000000000E+00  0.18005707671E+04  0.18005769013E+04  0.47000000000E+01 0.  1.
         -5   -1    0    0    0  501 -0.00000000000E+00 -0.00000000000E+00 -0.82969705294E+01  0.95357076280E+01  0.47000000000E+01 0.  1.
         25    2    1    2    0    0 -0.15810019332E+02 -0.13521491689E+02  0.87592638367E+03  0.88504361196E+03  0.12498951158E+03 0.  0.
         25    2    1    2    0    0  0.15810019332E+02  0.13521491689E+02  0.91634741293E+03  0.92506899696E+03  0.12500912166E+03 0.  0.
          5    1    3    3  502    0 -0.35277076118E+02  0.29204204831E+02  0.73473804252E+03  0.73617894482E+03  0.47000000000E+01 0.  1.
         -5    1    3    3    0  502  0.19467056786E+02 -0.42725696520E+02  0.14118834116E+03  0.14886466714E+03  0.47000000000E+01 0.  1.
          5    1    4    4  503    0 -0.51775885978E+02 -0.12374066313E+02  0.33964492669E+03  0.34382353921E+03  0.47000000000E+01 0.  1.
         -5    1    4    4    0  503  0.67585905310E+02  0.25895558002E+02  0.57670248624E+03  0.58124545775E+03  0.47000000000E+01 0.  1.
<mgrwt>
<rscale>  0 0.12672349E+03</rscale>
<asrwt>0</asrwt>
<pdfrwt beam="1">  1        5 0.27710674E+00 0.12672832E+03</pdfrwt>
<pdfrwt beam="2">  1       -5 0.13722159E-02 0.12672832E+03</pdfrwt>
<totfact> 0.57325234E+01</totfact>
</mgrwt>
</event>
<event>
 8    1  0.3694627E-007  0.1560462E+03  0.7546771E-02  0.1193235E+00
         -5   -1    0    0    0  501 -0.00000000000E+00  0.00000000000E+00  0.34955911099E+02  0.35270465275E+02  0.47000000000E+01 0. -1.
          5   -1    0    0  501    0  0.00000000000E+00 -0.00000000000E+00 -0.71115119808E+03  0.71116672907E+03  0.47000000000E+01 0. -1.
         25    2    1    2    0    0  0.39329663292E+01  0.93317247539E+02 -0.27872908751E+03  0.31943624750E+03  0.12500414026E+03 0.  0.
         25    2    1    2    0    0 -0.39329663292E+01 -0.93317247539E+02 -0.39746619948E+03  0.42700094684E+03  0.12500740764E+03 0.  0.
          5    1    3    3  502    0 -0.46770821459E+02  0.28127207702E+02 -0.19167173696E+03  0.19934591619E+03  0.47000000000E+01 0.  1.
         -5    1    3    3    0  502  0.50703787788E+02  0.65190039836E+02 -0.87057350546E+02  0.12009033131E+03  0.47000000000E+01 0.  1.
          5    1    4    4  503    0 -0.32527020056E+02 -0.95891049051E+02 -0.17186210579E+03  0.19952887944E+03  0.47000000000E+01 0. -1.
         -5    1    4    4    0  503  0.28594053727E+02  0.25738015124E+01 -0.22560409368E+03  0.22747206740E+03  0.47000000000E+01 0. -1.
<mgrwt>
<rscale>  0 0.15604559E+03</rscale>
<asrwt>0</asrwt>
<pdfrwt beam="2">  1        5 0.10943326E+00 0.15604624E+03</pdfrwt>
<pdfrwt beam="1">  1       -5 0.54032242E-02 0.15604624E+03</pdfrwt>
<totfact> 0.10977772E+02</totfact>
</mgrwt>
</event>
<event>
 8    1  0.3694627E-007  0.1345181E+03  0.7546771E-02  0.1220902E+00
          5   -1    0    0  501    0  0.00000000000E+00  0.00000000000E+00  0.15176872571E+03  0.15184148348E+03  0.47000000000E+01 0.  1.
         -5   -1    0    0    0  501 -0.00000000000E+00 -0.00000000000E+00 -0.11982787584E+03  0.11992001430E+03  0.47000000000E+01 0.  1.
         25    2    1    2    0    0  0.46682587976E+02  0.17062320276E+02  0.52349808173E+01  0.13461804480E+03  0.12499690464E+03 0.  0.
         25    2    1    2    0    0 -0.46682587976E+02 -0.17062320276E+02  0.26705869053E+02  0.13714345298E+03  0.12499894583E+03 0.  0.
          5    1    4    4  502    0 -0.23800295833E+02 -0.64683667679E+02  0.43341435016E+02  0.81553669050E+02  0.47000000000E+01 0. -1.
         -5    1    4    4    0  502 -0.22882292142E+02  0.47621347403E+02 -0.16635565964E+02  0.55589783928E+02  0.47000000000E+01 0. -1.
          5    1    3    3  503    0 -0.27782634778E+02  0.15774554395E+02  0.40733133338E+02  0.51980664801E+02  0.47000000000E+01 0. -1.
         -5    1    3    3    0  503  0.74465222754E+02  0.12877658810E+01 -0.35498152521E+02  0.82637380000E+02  0.47000000000E+01 0. -1.
<mgrwt>
<rscale>  0 0.13451764E+03</rscale>
<asrwt>0</asrwt>
<pdfrwt beam="1">  1        5 0.23361719E-01 0.13451811E+03</pdfrwt>
<pdfrwt beam="2">  1       -5 0.18447742E-01 0.13451811E+03</pdfrwt>
<totfact> 0.33587057E+02</totfact>
</mgrwt>
</event>
<event>
 8    1  0.3694627E-007  0.1751975E+03  0.7546771E-02  0.1172534E+00
          5   -1    0    0  501    0  0.00000000000E+00  0.00000000000E+00  0.84936598455E+03  0.84937898827E+03  0.47000000000E+01 0.  1.
         -5   -1    0    0    0  501 -0.00000000000E+00 -0.00000000000E+00 -0.39239907228E+02  0.39520378531E+02  0.47000000000E+01 0.  1.
         25    2    1    2    0    0 -0.12187679321E+03 -0.14646271342E+02  0.27729021027E+03  0.32800004225E+03  0.12500280403E+03 0.  0.
         25    2    1    2    0    0  0.12187679321E+03  0.14646271342E+02  0.53283586705E+03  0.56089932455E+03  0.12500210030E+03 0.  0.
          5    1    4    4  502    0  0.26722106024E+02 -0.39975353225E+02  0.68951685028E+02  0.84193376723E+02  0.47000000000E+01 0. -1.
         -5    1    4    4    0  502  0.95154687186E+02  0.54621624567E+02  0.46388418202E+03  0.47670594783E+03  0.47000000000E+01 0. -1.
          5    1    3    3  503    0 -0.31257506256E+02 -0.56055196397E+02  0.56146833641E+02  0.85403592831E+02  0.47000000000E+01 0.  1.
         -5    1    3    3    0  503 -0.90619286955E+02  0.41408925055E+02  0.22114337663E+03  0.24259644942E+03  0.47000000000E+01 0.  1.
<mgrwt>
<rscale>  0 0.17519738E+03</rscale>
<asrwt>0</asrwt>
<pdfrwt beam="1">  1        5 0.13069426E+00 0.17519751E+03</pdfrwt>
<pdfrwt beam="2">  1       -5 0.60594840E-02 0.17519751E+03</pdfrwt>
<totfact> 0.59461371E+01</totfact>
</mgrwt>
</event>
<event>
 8    1  0.3694627E-007  0.1251219E+03  0.7546771E-02  0.1234880E+00
          5   -1    0    0  501    0  0.00000000000E+00  0.00000000000E+00  0.74464928714E+02  0.74613106144E+02  0.47000000000E+01 0. -1.
         -5   -1    0    0    0  501 -0.00000000000E+00 -0.00000000000E+00 -0.21038640344E+03  0.21043889553E+03  0.47000000000E+01 0. -1.
         25    2    1    2    0    0 -0.66106102829E+00  0.56532324986E+01 -0.75152197406E+02  0.14595353051E+03  0.12498873651E+03 0.  0.
         25    2    1    2    0    0  0.66106102829E+00 -0.56532324986E+01 -0.60769277321E+02  0.13909847116E+03  0.12499233406E+03 0.  0.
          5    1    3    3  502    0 -0.46722661772E+02 -0.30711172197E+02 -0.80480395540E+01  0.56683720427E+02  0.47000000000E+01 0.  1.
         -5    1    3    3    0  502  0.46061600744E+02  0.36364404696E+02 -0.67104157852E+02  0.89269810087E+02  0.47000000000E+01 0.  1.
          5    1    4    4  503    0 -0.53652158254E+02 -0.15799823216E+02  0.93919381898E+00  0.56135199153E+02  0.47000000000E+01 0.  1.
         -5    1    4    4    0  503  0.54313219282E+02  0.10146590717E+02 -0.61708471140E+02  0.82963272008E+02  0.47000000000E+01 0.  1.
<mgrwt>
<rscale>  0 0.12512096E+03</rscale>
<asrwt>0</asrwt>
<pdfrwt beam="1">  1        5 0.11471579E-01 0.12512186E+03</pdfrwt>
<pdfrwt beam="2">  1       -5 0.32382575E-01 0.12512186E+03</pdfrwt>
<totfact> 0.40925462E+02</totfact>
</mgrwt>
</event>
<event>
 8    1  0.3694627E-007  0.1324626E+03  0.7546771E-02  0.1223847E+00
         -5   -1    0    0    0  501 -0.00000000000E+00  0.00000000000E+00  0.10637934691E+03  0.10648312284E+03  0.47000000000E+01 0. -1.
          5   -1    0    0  501    0  0.00000000000E+00 -0.00000000000E+00 -0.18188925055E+03  0.18194996419E+03  0.47000000000E+01 0. -1.
         25    2    1    2    0    0  0.32219195675E+02  0.29714927688E+02  0.65312448697E+01  0.13262352022E+03  0.12500114983E+03 0.  0.
         25    2    1    2    0    0 -0.32219195675E+02 -0.29714927688E+02 -0.82041148510E+02  0.15580956680E+03  0.12499927024E+03 0.  0.
          5    1    4    4  502    0  0.34945492956E+02 -0.37626900719E+02 -0.70021297688E+02  0.86960009576E+02  0.47000000000E+01 0. -1.
         -5    1    4    4    0  502 -0.67164688631E+02  0.79119730307E+01 -0.12019850823E+02  0.68849557224E+02  0.47000000000E+01 0. -1.
          5    1    3    3  503    0 -0.12931692189E+02  0.36331070432E+02  0.54057214187E+02  0.66569120073E+02  0.47000000000E+01 0. -1.
         -5    1    3    3    0  503  0.45150887864E+02 -0.66161427441E+01 -0.47525969318E+02  0.66054400151E+02  0.47000000000E+01 0. -1.
<mgrwt>
<rscale>  0 0.13246216E+03</rscale>
<asrwt>0</asrwt>
<pdfrwt beam="2">  1        5 0.27995615E-01 0.13246260E+03</pdfrwt>
<pdfrwt beam="1">  1       -5 0.16378706E-01 0.13246260E+03</pdfrwt>
<totfact> 0.29363381E+02</totfact>
</mgrwt>
</event>
<event>
 8    1  0.3694627E-007  0.1407079E+03  0.7546771E-02  0.1212380E+00
         -5   -1    0    0    0  501 -0.00000000000E+00  0.00000000000E+00  0.23568368283E+03  0.23573054183E+03  0.47000000000E+01 0. -1.
          5   -1    0    0  501    0  0.00000000000E+00 -0.00000000000E+00 -0.83907363569E+02  0.84038893740E+02  0.47000000000E+01 0. -1.
         25    2    1    2    0    0 -0.31411871110E+02  0.56453060647E+02  0.78534870445E+02  0.16114102479E+03  0.12500020116E+03 0.  0.
         25    2    1    2    0    0  0.31411871110E+02 -0.56453060647E+02  0.73241448818E+02  0.15862841079E+03  0.12500003672E+03 0.  0.
          5    1    4    4  502    0  0.44425605471E+02 -0.91429108616E+02  0.43456897345E+02  0.11065038749E+03  0.47000000000E+01 0. -1.
         -5    1    4    4    0  502 -0.13013734361E+02  0.34976047969E+02  0.29784551474E+02  0.47978023302E+02  0.47000000000E+01 0. -1.
          5    1    3    3  503    0 -0.24187307129E+02  0.82033719754E+02  0.96257579336E+02  0.12884940272E+03  0.47000000000E+01 0.  1.
         -5    1    3    3    0  503 -0.72245639812E+01 -0.25580659106E+02 -0.17722708891E+02  0.32291622063E+02  0.47000000000E+01 0.  1.
<mgrwt>
<rscale>  0 0.14070783E+03</rscale>
<asrwt>0</asrwt>
<pdfrwt beam="2">  1        5 0.12922547E-01 0.14070787E+03</pdfrwt>
<pdfrwt beam="1">  1       -5 0.36272751E-01 0.14070787E+03</pdfrwt>
<totfact> 0.27540994E+02</totfact>
</mgrwt>
</event>
<event>
 8    1  0.3694627E-007  0.1366503E+03  0.7546771E-02  0.1217909E+00
          5   -1    0    0  501    0  0.00000000000E+00  0.00000000000E+00  0.78388097755E+02  0.78528872841E+02  0.47000000000E+01 0.  1.
         -5   -1    0    0    0  501 -0.00000000000E+00 -0.00000000000E+00 -0.24565676378E+03  0.24570172077E+03  0.47000000000E+01 0.  1.
         25    2    1    2    0    0 -0.12918710856E+02  0.53679635613E+02 -0.11254713147E+03  0.17703089565E+03  0.12499873936E+03 0.  0.
         25    2    1    2    0    0  0.12918710856E+02 -0.53679635613E+02 -0.54721534555E+02  0.14719969797E+03  0.12499963347E+03 0.  0.
          5    1    3    3  502    0 -0.37485161494E+02  0.36130751723E+02  0.78108709697E+01  0.52855163018E+02  0.47000000000E+01 0. -1.
         -5    1    3    3    0  502  0.24566450638E+02  0.17548883890E+02 -0.12035800244E+03  0.12417573263E+03  0.47000000000E+01 0. -1.
          5    1    4    4  503    0  0.38518347439E+02 -0.64017222284E+02  0.11090656142E+02  0.75676683939E+02  0.47000000000E+01 0.  1.
         -5    1    4    4    0  503 -0.25599636583E+02  0.10337586671E+02 -0.65812190697E+02  0.71523014029E+02  0.47000000000E+01 0.  1.
<mgrwt>
<rscale>  0 0.13665010E+03</rscale>
<asrwt>0</asrwt>
<pdfrwt beam="1">  1        5 0.12073995E-01 0.13665030E+03</pdfrwt>
<pdfrwt beam="2">  1       -5 0.37807635E-01 0.13665030E+03</pdfrwt>
<totfact> 0.28297212E+02</totfact>
</mgrwt>
</event>
<event>
 8    1  0.3694627E-007  0.1302857E+03  0.7546771E-02  0.1227034E+00
         -5   -1    0    0    0  501 -0.00000000000E+00  0.00000000000E+00  0.57697265996E+02  0.57888379692E+02  0.47000000000E+01 0. -1.
          5   -1    0    0  501    0  0.00000000000E+00 -0.00000000000E+00 -0.51747789872E+03  0.51749924219E+03  0.47000000000E+01 0. -1.
         25    2    1    2    0    0  0.36450407207E+02  0.44999229106E+01 -0.40651729949E+02  0.13647602348E+03  0.12499704135E+03 0.  0.
         25    2    1    2    0    0 -0.36450407207E+02 -0.44999229106E+01 -0.41912890277E+03  0.43891159839E+03  0.12500189027E+03 0.  0.
          5    1    4    4  502    0  0.39499865867E+02 -0.29669048091E+02 -0.14177441463E+03  0.15020841009E+03  0.47000000000E+01 0. -1.
         -5    1    4    4    0  502 -0.75950273074E+02  0.25169125180E+02 -0.27735448815E+03  0.28870318831E+03  0.47000000000E+01 0. -1.
          5    1    3    3  503    0  0.28420224729E+02 -0.48174011066E+02 -0.57541093762E+02  0.80383530572E+02  0.47000000000E+01 0. -1.
         -5    1    3    3    0  503  0.80301824785E+01  0.52673933977E+02  0.16889363813E+02  0.56092492913E+02  0.47000000000E+01 0. -1.
<mgrwt>
<rscale>  0 0.13028450E+03</rscale>
<asrwt>0</asrwt>
<pdfrwt beam="2">  1        5 0.79628324E-01 0.13028566E+03</pdfrwt>
<pdfrwt beam="1">  1       -5 0.88928457E-02 0.13028566E+03</pdfrwt>
<totfact> 0.95310882E+01</totfact>
</mgrwt>
</event>
<event>
 8    1  0.3694627E-007  0.1305794E+03  0.7546771E-02  0.1226610E+00
          5   -1    0    0  501    0  0.00000000000E+00  0.00000000000E+00  0.24609063689E+03  0.24613551463E+03  0.47000000000E+01 0.  1.
         -5   -1    0    0    0  501 -0.00000000000E+00 -0.00000000000E+00 -0.76066998200E+02  0.76212060825E+02  0.47000000000E+01 0.  1.
         25    2    1    2    0    0 -0.30064999637E+02 -0.22791015382E+02  0.36446965700E+02  0.13557051715E+03  0.12501059646E+03 0.  0.
         25    2    1    2    0    0  0.30064999637E+02  0.22791015382E+02  0.13357667299E+03  0.18677705831E+03  0.12497842757E+03 0.  0.
          5    1    4    4  502    0 -0.15654220560E+02  0.23312276035E+02  0.13771569663E+03  0.14062794862E+03  0.47000000000E+01 0. -1.
         -5    1    4    4    0  502  0.45719220197E+02 -0.52126065348E+00 -0.41390236411E+01  0.46149109686E+02  0.47000000000E+01 0. -1.
          5    1    3    3  503    0 -0.38927355100E+02  0.43097984538E+02  0.36814016791E+02  0.68921238226E+02  0.47000000000E+01 0.  1.
         -5    1    3    3    0  503  0.88623554633E+01 -0.65888999919E+02 -0.36705109167E+00  0.66649278925E+02  0.47000000000E+01 0.  1.
<mgrwt>
<rscale>  0 0.13057172E+03</rscale>
<asrwt>0</asrwt>
<pdfrwt beam="1">  1        5 0.37874709E-01 0.13057942E+03</pdfrwt>
<pdfrwt beam="2">  1       -5 0.11717226E-01 0.13057942E+03</pdfrwt>
<totfact> 0.29264835E+02</totfact>
</mgrwt>
</event>
<event>
 8    1  0.3694627E-007  0.1353927E+03  0.7546771E-02  0.1219667E+00
         -5   -1    0    0    0  501 -0.00000000000E+00  0.00000000000E+00  0.40803855362E+02  0.41073648637E+02  0.47000000000E+01 0.  1.
          5   -1    0    0  501    0  0.00000000000E+00 -0.00000000000E+00 -0.45853886680E+03  0.45856295354E+03  0.47000000000E+01 0.  1.
         25    2    1    2    0    0  0.11911178710E+02 -0.50633883326E+02 -0.17009629902E+03  0.21740268532E+03  0.12500204128E+03 0.  0.
         25    2    1    2    0    0 -0.11911178710E+02  0.50633883326E+02 -0.24763871241E+03  0.28223391687E+03  0.12500154249E+03 0.  0.
          5    1    4    4  502    0 -0.19091638309E+02  0.34802977246E+01 -0.23045501038E+03  0.23131840596E+03  0.47000000000E+01 0. -1.
         -5    1    4    4    0  502  0.71804595994E+01  0.47153585601E+02 -0.17183702031E+02  0.50915510904E+02  0.47000000000E+01 0. -1.
          5    1    3    3  503    0  0.17370453232E+02  0.57775881587E+01  0.14770153115E+02  0.23986675331E+02  0.47000000000E+01 0.  1.
         -5    1    3    3    0  503 -0.54592745220E+01 -0.56411471484E+02 -0.18486645214E+03  0.19341600998E+03  0.47000000000E+01 0.  1.
<mgrwt>
<rscale>  0 0.13539256E+03</rscale>
<asrwt>0</asrwt>
<pdfrwt beam="2">  1        5 0.70567044E-01 0.13539268E+03</pdfrwt>
<pdfrwt beam="1">  1       -5 0.63001227E-02 0.13539268E+03</pdfrwt>
<totfact> 0.22897151E+02</totfact>
</mgrwt>
</event>
<event>
 8    1  0.3694627E-007  0.1260699E+03  0.7546771E-02  0.1233408E+00
          5   -1    0    0  501    0  0.00000000000E+00  0.00000000000E+00  0.19431404758E+03  0.19437088025E+03  0.47000000000E+01 0.  1.
         -5   -1    0    0    0  501 -0.00000000000E+00 -0.00000000000E+00 -0.85398869345E+02  0.85528105821E+02  0.47000000000E+01 0.  1.
         25    2    1    2    0    0 -0.14226429881E+02 -0.80996806707E+01  0.25185148093E+02  0.12855721467E+03  0.12499867850E+03 0.  0.
         25    2    1    2    0    0  0.14226429881E+02  0.80996806707E+01  0.83730030147E+02  0.15134177140E+03  0.12500247072E+03 0.  0.
          5    1    3    3  502    0 -0.61164069296E+02 -0.20733679364E+02 -0.13633781607E+02  0.66173248626E+02  0.47000000000E+01 0.  1.
         -5    1    3    3    0  502  0.46937639415E+02  0.12633998693E+02  0.38818929699E+02  0.62383966048E+02  0.47000000000E+01 0.  1.
          5    1    4    4  503    0  0.63503462634E+02  0.31726803776E+02  0.49881788650E+02  0.86888219473E+02  0.47000000000E+01 0. -1.
         -5    1    4    4    0  503 -0.49277032753E+02 -0.23627123105E+02  0.33848241497E+02  0.64453551924E+02  0.47000000000E+01 0. -1.
<mgrwt>
<rscale>  0 0.12606894E+03</rscale>
<asrwt>0</asrwt>
<pdfrwt beam="1">  1        5 0.29908782E-01 0.12606988E+03</pdfrwt>
<pdfrwt beam="2">  1       -5 0.13152601E-01 0.12606988E+03</pdfrwt>
<totfact> 0.37657257E+02</totfact>
</mgrwt>
</event>
<event>
 8    1  0.3694627E-007  0.1294542E+03  0.7546771E-02  0.1228269E+00
         -5   -1    0    0    0  501 -0.00000000000E+00  0.00000000000E+00  0.29895895457E+03  0.29899589716E+03  0.47000000000E+01 0.  1.
          5   -1    0    0  501    0  0.00000000000E+00 -0.00000000000E+00 -0.57973164406E+02  0.58163371560E+02  0.47000000000E+01 0.  1.
         25    2    1    2    0    0 -0.33015341659E+02 -0.63468590587E+01  0.15406872440E+03  0.20123310560E+03  0.12500918185E+03 0.  0.
         25    2    1    2    0    0  0.33015341659E+02  0.63468590587E+01  0.86917065769E+02  0.15592616312E+03  0.12501238586E+03 0.  0.
          5    1    4    4  502    0  0.53949974659E+02 -0.32669696620E+02  0.59520463990E+01  0.63525000585E+02  0.47000000000E+01 0. -1.
         -5    1    4    4    0  502 -0.20934633000E+02  0.39016555679E+02  0.80965019370E+02  0.92401162533E+02  0.47000000000E+01 0. -1.
          5    1    3    3  503    0 -0.52142221992E+02  0.46258765627E+02  0.10780178764E+03  0.12846011104E+03  0.47000000000E+01 0. -1.
         -5    1    3    3    0  503  0.19126880333E+02 -0.52605624685E+02  0.46266936760E+02  0.72772994558E+02  0.47000000000E+01 0. -1.
<mgrwt>
<rscale>  0 0.12945343E+03</rscale>
<asrwt>0</asrwt>
<pdfrwt beam="2">  1        5 0.89364215E-02 0.12945421E+03</pdfrwt>
<pdfrwt beam="1">  1       -5 0.46011158E-01 0.12945421E+03</pdfrwt>
<totfact> 0.31383307E+02</totfact>
</mgrwt>
</event>
<event>
 8    1  0.3694627E-007  0.1407286E+03  0.7546771E-02  0.1212353E+00
         -5   -1    0    0    0  501 -0.00000000000E+00  0.00000000000E+00  0.12064787563E+04  0.12064879110E+04  0.47000000000E+01 0. -1.
          5   -1    0    0  501    0  0.00000000000E+00 -0.00000000000E+00 -0.17084433300E+02  0.17719138274E+02  0.47000000000E+01 0. -1.
         25    2    1    2    0    0 -0.37940066490E+02 -0.52325077088E+02  0.74110217031E+03  0.75434494444E+03  0.12500602397E+03 0.  0.
         25    2    1    2    0    0  0.37940066490E+02  0.52325077088E+02  0.44829215267E+03  0.46986210482E+03  0.12500872395E+03 0.  0.
          5    1    4    4  502    0  0.35440452451E+02  0.38789622876E+01  0.25055561078E+02  0.43828565562E+02  0.47000000000E+01 0. -1.
         -5    1    4    4    0  502  0.24996140393E+01  0.48446114800E+02  0.42323659159E+03  0.42603353925E+03  0.47000000000E+01 0. -1.
          5    1    3    3  503    0 -0.68907849001E+02 -0.65211806046E+01  0.22988355388E+03  0.24012362606E+03  0.47000000000E+01 0. -1.
         -5    1    3    3    0  503  0.30967782511E+02 -0.45803896483E+02  0.51121861644E+03  0.51422131838E+03  0.47000000000E+01 0. -1.
<mgrwt>
<rscale>  0 0.14072802E+03</rscale>
<asrwt>0</asrwt>
<pdfrwt beam="2">  1        5 0.26779027E-02 0.14072862E+03</pdfrwt>
<pdfrwt beam="1">  1       -5 0.18566159E+00 0.14072862E+03</pdfrwt>
<totfact> 0.80407974E+01</totfact>
</mgrwt>
</event>
<event>
 8    1  0.3694627E-007  0.1678796E+03  0.7546771E-02  0.1180078E+00
          5   -1    0    0  501    0  0.00000000000E+00  0.00000000000E+00  0.18470076432E+03  0.18476055407E+03  0.47000000000E+01 0.  1.
         -5   -1    0    0    0  501 -0.00000000000E+00 -0.00000000000E+00 -0.20006490418E+03  0.20012010365E+03  0.47000000000E+01 0.  1.
         25    2    1    2    0    0 -0.69170617613E+01 -0.11184930562E+03 -0.10151967032E+03  0.19618821681E+03  0.12500184016E+03 0.  0.
         25    2    1    2    0    0  0.69170617613E+01  0.11184930562E+03  0.86155530458E+02  0.18869244090E+03  0.12499579558E+03 0.  0.
          5    1    4    4  502    0 -0.27754184830E+02  0.84238776573E+02  0.10735856055E+03  0.13933562638E+03  0.47000000000E+01 0.  1.
         -5    1    4    4    0  502  0.34671246591E+02  0.27610529049E+02 -0.21203030094E+02  0.49356814522E+02  0.47000000000E+01 0.  1.
          5    1    3    3  503    0  0.24931540671E+02  0.15457022025E+02  0.79668432738E+00  0.29719117686E+02  0.47000000000E+01 0. -1.
         -5    1    3    3    0  503 -0.31848602433E+02 -0.12730632765E+03 -0.10231635465E+03  0.16646909913E+03  0.47000000000E+01 0. -1.
<mgrwt>
<rscale>  0 0.16787851E+03</rscale>
<asrwt>0</asrwt>
<pdfrwt beam="1">  1        5 0.28424347E-01 0.16787964E+03</pdfrwt>
<pdfrwt beam="2">  1       -5 0.30788062E-01 0.16787964E+03</pdfrwt>
<totfact> 0.92996121E+01</totfact>
</mgrwt>
</event>
<event>
 8    1  0.3694627E-007  0.1318106E+03  0.7546771E-02  0.1224798E+00
         -5   -1    0    0    0  501 -0.00000000000E+00  0.00000000000E+00  0.70163409490E+02  0.70320651528E+02  0.47000000000E+01 0.  1.
          5   -1    0    0  501    0  0.00000000000E+00 -0.00000000000E+00 -0.31818667219E+03  0.31822138262E+03  0.47000000000E+01 0.  1.
         25    2    1    2    0    0 -0.83537310018E+01  0.40945642128E+02 -0.32237148302E+02  0.13568301744E+03  0.12499726821E+03 0.  0.
         25    2    1    2    0    0  0.83537310018E+01 -0.40945642128E+02 -0.21578611440E+03  0.25285901671E+03  0.12501081847E+03 0.  0.
          5    1    3    3  502    0 -0.35166032442E+02  0.78046119694E+02 -0.19185377337E+02  0.87852235831E+02  0.47000000000E+01 0. -1.
         -5    1    3    3    0  502  0.26812301440E+02 -0.37100477566E+02 -0.13051770964E+02  0.47830781610E+02  0.47000000000E+01 0. -1.
          5    1    4    4  503    0  0.42408676119E+02 -0.72498479040E+02 -0.12322788620E+03  0.14920364342E+03  0.47000000000E+01 0. -1.
         -5    1    4    4    0  503 -0.34054945117E+02  0.31552836912E+02 -0.92558228199E+02  0.10365537329E+03  0.47000000000E+01 0. -1.
<mgrwt>
<rscale>  0 0.13180739E+03</rscale>
<asrwt>0</asrwt>
<pdfrwt beam="2">  1        5 0.48966561E-01 0.13181060E+03</pdfrwt>
<pdfrwt beam="1">  1       -5 0.10809136E-01 0.13181060E+03</pdfrwt>
<totfact> 0.19901857E+02</totfact>
</mgrwt>
</event>
<event>
 8    1  0.3694627E-007  0.1318277E+03  0.7546771E-02  0.1224770E+00
         -5   -1    0    0    0  501 -0.00000000000E+00  0.00000000000E+00  0.32066908205E+03  0.32070352380E+03  0.47000000000E+01 0. -1.
          5   -1    0    0  501    0  0.00000000000E+00 -0.00000000000E+00 -0.59794305027E+02  0.59978737179E+02  0.47000000000E+01 0. -1.
         25    2    1    2    0    0  0.38843755506E+02 -0.15633281646E+02  0.18929984795E+03  0.23067939023E+03  0.12500124721E+03 0.  0.
         25    2    1    2    0    0 -0.38843755506E+02  0.15633281646E+02  0.71574929071E+02  0.15000287076E+03  0.12499861570E+03 0.  0.
          5    1    4    4  502    0 -0.78658206897E+02 -0.99383995750E+01  0.24561361903E+02  0.83133842669E+02  0.47000000000E+01 0. -1.
         -5    1    4    4    0  502  0.39814451391E+02  0.25571681221E+02  0.47013567167E+02  0.66869028090E+02  0.47000000000E+01 0. -1.
          5    1    3    3  503    0  0.51131368891E+01 -0.67915346197E+02  0.11409643483E+03  0.13296136604E+03  0.47000000000E+01 0.  1.
         -5    1    3    3    0  503  0.33730618617E+02  0.52282064552E+02  0.75203413122E+02  0.97718024188E+02  0.47000000000E+01 0.  1.
<mgrwt>
<rscale>  0 0.13182710E+03</rscale>
<asrwt>0</asrwt>
<pdfrwt beam="2">  1        5 0.92159602E-02 0.13182772E+03</pdfrwt>
<pdfrwt beam="1">  1       -5 0.49350542E-01 0.13182772E+03</pdfrwt>
<totfact> 0.25851983E+02</totfact>
</mgrwt>
</event>
<event>
 8    1  0.3694627E-007  0.1250712E+03  0.7546771E-02  0.1234960E+00
          5   -1    0    0  501    0  0.00000000000E+00  0.00000000000E+00  0.24499651625E+02  0.24946401138E+02  0.47000000000E+01 0. -1.
         -5   -1    0    0    0  501 -0.00000000000E+00 -0.00000000000E+00 -0.63234936702E+03  0.63236683339E+03  0.47000000000E+01 0. -1.
         25    2    1    2    0    0 -0.72647885453E+00  0.39601818651E+01 -0.29962200155E+03  0.32467851435E+03  0.12500633207E+03 0.  0.
         25    2    1    2    0    0  0.72647885453E+00 -0.39601818651E+01 -0.30822771384E+03  0.33263472017E+03  0.12500129068E+03 0.  0.
          5    1    3    3  502    0  0.56491638334E+02  0.12920192724E+02 -0.20974774619E+03  0.21765671047E+03  0.47000000000E+01 0.  1.
         -5    1    3    3    0  502 -0.57218117188E+02 -0.89600108586E+01 -0.89874255362E+02  0.10702180388E+03  0.47000000000E+01 0.  1.
          5    1    4    4  503    0  0.47433013474E+01  0.38576094156E+02 -0.27637882523E+03  0.27913788525E+03  0.47000000000E+01 0. -1.
         -5    1    4    4    0  503 -0.40168224929E+01 -0.42536276021E+02 -0.31848888612E+02  0.53496834921E+02  0.47000000000E+01 0. -1.
<mgrwt>
<rscale>  0 0.12506990E+03</rscale>
<asrwt>0</asrwt>
<pdfrwt beam="1">  1        5 0.38048866E-02 0.12507116E+03</pdfrwt>
<pdfrwt beam="2">  1       -5 0.97320215E-01 0.12507116E+03</pdfrwt>
<totfact> 0.24301685E+02</totfact>
</mgrwt>
</event>
<event>
 8    1  0.3694627E-007  0.1262751E+03  0.7546771E-02  0.1233090E+00
          5   -1    0    0  501    0  0.00000000000E+00  0.00000000000E+00  0.40779447535E+03  0.40782155918E+03  0.47000000000E+01 0.  1.
         -5   -1    0    0    0  501 -0.00000000000E+00 -0.00000000000E+00 -0.39064658005E+02  0.39346378551E+02  0.47000000000E+01 0.  1.
         25    2    1    2    0    0 -0.31317875028E+01  0.17618978305E+02  0.17137254914E+03  0.21287073535E+03  0.12500065153E+03 0.  0.
         25    2    1    2    0    0  0.31317875028E+01 -0.17618978305E+02  0.19735726821E+03  0.23429720238E+03  0.12500020494E+03 0.  0.
          5    1    3    3  502    0  0.49154142700E+02  0.39998941844E+01  0.14366861617E+03  0.15197003050E+03  0.47000000000E+01 0.  1.
         -5    1    3    3    0  502 -0.52285930203E+02  0.13619084120E+02  0.27703932963E+02  0.60900704848E+02  0.47000000000E+01 0.  1.
          5    1    4    4  503    0  0.28789401035E+02 -0.63101303606E+02  0.81453122173E+02  0.10708550434E+03  0.47000000000E+01 0. -1.
         -5    1    4    4    0  503 -0.25657613533E+02  0.45482325301E+02  0.11590414604E+03  0.12721169803E+03  0.47000000000E+01 0. -1.
<mgrwt>
<rscale>  0 0.12627498E+03</rscale>
<asrwt>0</asrwt>
<pdfrwt beam="1">  1        5 0.62761364E-01 0.12627509E+03</pdfrwt>
<pdfrwt beam="2">  1       -5 0.60337017E-02 0.12627509E+03</pdfrwt>
<totfact> 0.31195425E+02</totfact>
</mgrwt>
</event>
<event>
 8    1  0.3694627E-007  0.1717276E+03  0.7546771E-02  0.1176058E+00
          5   -1    0    0  501    0  0.00000000000E+00  0.00000000000E+00  0.44308335951E+03  0.44310828640E+03  0.47000000000E+01 0. -1.
         -5   -1    0    0    0  501 -0.00000000000E+00 -0.00000000000E+00 -0.96951681063E+02  0.97065536937E+02  0.47000000000E+01 0. -1.
         25    2    1    2    0    0 -0.57349899098E+02  0.10284244925E+03  0.21694914139E+02  0.17309129642E+03  0.12499738918E+03 0.  0.
         25    2    1    2    0    0  0.57349899098E+02 -0.10284244925E+03  0.32443676431E+03  0.36708252692E+03  0.12499914895E+03 0.  0.
          5    1    3    3  502    0  0.24250718099E+02  0.79310490525E+02  0.28356612261E+02  0.87774932040E+02  0.47000000000E+01 0. -1.
         -5    1    3    3    0  502 -0.81600617198E+02  0.23531958729E+02 -0.66616981223E+01  0.85316364377E+02  0.47000000000E+01 0. -1.
          5    1    4    4  503    0  0.79004483130E+02 -0.40570890189E+02  0.25993382499E+03  0.27472784507E+03  0.47000000000E+01 0.  1.
         -5    1    4    4    0  503 -0.21654584032E+02 -0.62271559065E+02  0.64502939322E+02  0.92354681847E+02  0.47000000000E+01 0.  1.
<mgrwt>
<rscale>  0 0.17172728E+03</rscale>
<asrwt>0</asrwt>
<pdfrwt beam="1">  1        5 0.68177344E-01 0.17172760E+03</pdfrwt>
<pdfrwt beam="2">  1       -5 0.14926319E-01 0.17172760E+03</pdfrwt>
<totfact> 0.59102480E+01</totfact>
</mgrwt>
</event>
<event>
 8    1  0.3694627E-007  0.1317572E+03  0.7546771E-02  0.1224873E+00
         -5   -1    0    0    0  501 -0.00000000000E+00  0.00000000000E+00  0.13110155601E+03  0.13118577663E+03  0.47000000000E+01 0. -1.
          5   -1    0    0  501    0  0.00000000000E+00 -0.00000000000E+00 -0.13269490638E+03  0.13277811634E+03  0.47000000000E+01 0. -1.
         25    2    1    2    0    0 -0.32202133755E+02 -0.26379977336E+02  0.69078534136E+01  0.13193268033E+03  0.12500253228E+03 0.  0.
         25    2    1    2    0    0  0.32202133755E+02  0.26379977336E+02 -0.85012037760E+01  0.13203121264E+03  0.12500835981E+03 0.  0.
          5    1    3    3  502    0  0.44926407668E+02 -0.22108764814E+02  0.18687821847E+02  0.53651694036E+02  0.47000000000E+01 0. -1.
         -5    1    3    3    0  502 -0.77128541423E+02 -0.42712125216E+01 -0.11779968433E+02  0.78280986291E+02  0.47000000000E+01 0. -1.
          5    1    4    4  503    0 -0.22926302850E+02 -0.44853360068E+01  0.43809591996E+02  0.49870872785E+02  0.47000000000E+01 0.  1.
         -5    1    4    4    0  503  0.55128436605E+02  0.30865313343E+02 -0.52310795772E+02  0.82160339852E+02  0.47000000000E+01 0.  1.
<mgrwt>
<rscale>  0 0.13175586E+03</rscale>
<asrwt>0</asrwt>
<pdfrwt beam="2">  1        5 0.20427480E-01 0.13175724E+03</pdfrwt>
<pdfrwt beam="1">  1       -5 0.20182349E-01 0.13175724E+03</pdfrwt>
<totfact> 0.36334579E+02</totfact>
</mgrwt>
</event>
<event>
 8    1  0.3694627E-007  0.1350443E+03  0.7546771E-02  0.1220167E+00
          5   -1    0    0  501    0  0.00000000000E+00  0.00000000000E+00  0.20673983513E+02  0.21201499812E+02  0.47000000000E+01 0. -1.
         -5   -1    0    0    0  501 -0.00000000000E+00 -0.00000000000E+00 -0.87063686230E+03  0.87064954832E+03  0.47000000000E+01 0. -1.
         25    2    1    2    0    0 -0.18860015336E+02  0.47505182138E+02 -0.43375343220E+03  0.45428956412E+03  0.12499810245E+03 0.  0.
         25    2    1    2    0    0  0.18860015336E+02 -0.47505182138E+02 -0.41620944658E+03  0.43756148401E+03  0.12496922163E+03 0.  0.
          5    1    3    3  502    0  0.31397864165E+02  0.71835805983E+02 -0.27157563754E+03  0.28270413120E+03  0.47000000000E+01 0.  1.
         -5    1    3    3    0  502 -0.50257879501E+02 -0.24330623845E+02 -0.16217779467E+03  0.17158543292E+03  0.47000000000E+01 0.  1.
          5    1    4    4  503    0 -0.24214178450E+02 -0.76998604297E+02 -0.28568713803E+03  0.29690796948E+03  0.47000000000E+01 0. -1.
         -5    1    4    4    0  503  0.43074193786E+02  0.29493422159E+02 -0.13052230855E+03  0.14065351453E+03  0.47000000000E+01 0. -1.
<mgrwt>
<rscale>  0 0.13503764E+03</rscale>
<asrwt>0</asrwt>
<pdfrwt beam="1">  1        5 0.32221675E-02 0.13504432E+03</pdfrwt>
<pdfrwt beam="2">  1       -5 0.13398566E+00 0.13504432E+03</pdfrwt>
<totfact> 0.14641726E+02</totfact>
</mgrwt>
</event>
<event>
 8    1  0.3694627E-007  0.1427187E+03  0.7546771E-02  0.1209720E+00
         -5   -1    0    0    0  501 -0.00000000000E+00  0.00000000000E+00  0.32647509851E+03  0.32650892782E+03  0.47000000000E+01 0.  1.
          5   -1    0    0  501    0  0.00000000000E+00 -0.00000000000E+00 -0.70604597903E+02  0.70760859555E+02  0.47000000000E+01 0.  1.
         25    2    1    2    0    0 -0.15660692757E+02 -0.67053266913E+02  0.19613344297E+03  0.24256327565E+03  0.12500886904E+03 0.  0.
         25    2    1    2    0    0  0.15660692757E+02  0.67053266913E+02  0.59737057628E+02  0.15470651172E+03  0.12499676322E+03 0.  0.
          5    1    4    4  502    0  0.46184015101E+02  0.76254620779E+02  0.28416260236E+01  0.89319064479E+02  0.47000000000E+01 0. -1.
         -5    1    4    4    0  502 -0.30523322344E+02 -0.92013538658E+01  0.56895431605E+02  0.65387447246E+02  0.47000000000E+01 0. -1.
          5    1    3    3  503    0 -0.38624673155E+01 -0.73372101867E+02  0.36272396716E+02  0.82074117417E+02  0.47000000000E+01 0.  1.
         -5    1    3    3    0  503 -0.11798225442E+02  0.63188349545E+01  0.15986104626E+03  0.16048915823E+03  0.47000000000E+01 0.  1.
<mgrwt>
<rscale>  0 0.14271601E+03</rscale>
<asrwt>0</asrwt>
<pdfrwt beam="2">  1        5 0.10876868E-01 0.14271866E+03</pdfrwt>
<pdfrwt beam="1">  1       -5 0.50241561E-01 0.14271866E+03</pdfrwt>
<totfact> 0.19145896E+02</totfact>
</mgrwt>
</event>
<event>
 8    1  0.3694627E-007  0.1386520E+03  0.7546771E-02  0.1215155E+00
          5   -1    0    0  501    0  0.00000000000E+00  0.00000000000E+00  0.81443389806E+03  0.81444745951E+03  0.47000000000E+01 0. -1.
         -5   -1    0    0    0  501 -0.00000000000E+00 -0.00000000000E+00 -0.24150620996E+02  0.24603708958E+02  0.47000000000E+01 0. -1.
         25    2    1    2    0    0  0.43885276168E+02 -0.40902222325E+02  0.31978922433E+03  0.34855242423E+03  0.12499894072E+03 0.  0.
         25    2    1    2    0    0 -0.43885276168E+02  0.40902222325E+02  0.47049405273E+03  0.49049874424E+03  0.12500182076E+03 0.  0.
          5    1    3    3  502    0 -0.13147821571E+02  0.17646314715E+02  0.46832524909E+01  0.22984353133E+02  0.47000000000E+01 0.  1.
         -5    1    3    3    0  502  0.57033097739E+02 -0.58548537040E+02  0.31510597184E+03  0.32556807110E+03  0.47000000000E+01 0.  1.
          5    1    4    4  503    0 -0.19686815652E+02  0.37369146641E+02  0.46234884819E+03  0.46429793372E+03  0.47000000000E+01 0.  1.
         -5    1    4    4    0  503 -0.24198460517E+02  0.35330756838E+01  0.81452045406E+01  0.26200810525E+02  0.47000000000E+01 0.  1.
<mgrwt>
<rscale>  0 0.13865131E+03</rscale>
<asrwt>0</asrwt>
<pdfrwt beam="1">  1        5 0.12533340E+00 0.13865195E+03</pdfrwt>
<pdfrwt beam="2">  1       -5 0.37513767E-02 0.13865195E+03</pdfrwt>
<totfact> 0.13713414E+02</totfact>
</mgrwt>
</event>
<event>
 8    1  0.3694627E-007  0.1419435E+03  0.7546771E-02  0.1210738E+00
          5   -1    0    0  501    0  0.00000000000E+00  0.00000000000E+00  0.39508231423E+03  0.39511026944E+03  0.47000000000E+01 0. -1.
         -5   -1    0    0    0  501 -0.00000000000E+00 -0.00000000000E+00 -0.70454043491E+02  0.70610638322E+02  0.47000000000E+01 0. -1.
         25    2    1    2    0    0 -0.64156107658E+02  0.20170698446E+02  0.39694588987E+02  0.14738930086E+03  0.12500032956E+03 0.  0.
         25    2    1    2    0    0  0.64156107658E+02 -0.20170698446E+02  0.28493368175E+03  0.31833160690E+03  0.12499978291E+03 0.  0.
          5    1    4    4  502    0  0.27174332428E+02  0.10932825495E+02  0.26366158571E+03  0.26532525850E+03  0.47000000000E+01 0. -1.
         -5    1    4    4    0  502  0.36981775230E+02 -0.31103523941E+02  0.21272096039E+02  0.53006348399E+02  0.47000000000E+01 0. -1.
          5    1    3    3  503    0 -0.13218167935E+02 -0.46356555707E+02 -0.10562226959E+02  0.49571169634E+02  0.47000000000E+01 0. -1.
         -5    1    3    3    0  503 -0.50937939723E+02  0.66527254153E+02  0.50256815946E+02  0.97818131230E+02  0.47000000000E+01 0. -1.
<mgrwt>
<rscale>  0 0.14194334E+03</rscale>
<asrwt>0</asrwt>
<pdfrwt beam="1">  1        5 0.60796090E-01 0.14194346E+03</pdfrwt>
<pdfrwt beam="2">  1       -5 0.10853280E-01 0.14194346E+03</pdfrwt>
<totfact> 0.12712924E+02</totfact>
</mgrwt>
</event>
<event>
 8    1  0.3694627E-007  0.1338444E+03  0.7546771E-02  0.1221860E+00
          5   -1    0    0  501    0  0.00000000000E+00  0.00000000000E+00  0.82241382832E+02  0.82375573140E+02  0.47000000000E+01 0.  1.
         -5   -1    0    0    0  501 -0.00000000000E+00 -0.00000000000E+00 -0.23696598809E+03  0.23701259357E+03  0.47000000000E+01 0.  1.
         25    2    1    2    0    0 -0.47774661316E+02  0.26935948592E+01 -0.12312852674E+03  0.18186520769E+03  0.12499858381E+03 0.  0.
         25    2    1    2    0    0  0.47774661316E+02 -0.26935948592E+01 -0.31596078512E+02  0.13752295901E+03  0.12499831344E+03 0.  0.
          5    1    4    4  502    0  0.73830425844E+02 -0.33818131630E+02  0.65713161390E+01  0.81608026584E+02  0.47000000000E+01 0. -1.
         -5    1    4    4    0  502 -0.26055764527E+02  0.31124536771E+02 -0.38167394651E+02  0.55914932431E+02  0.47000000000E+01 0. -1.
          5    1    3    3  503    0 -0.59736905564E+02 -0.11995479884E+01 -0.19712217677E+01  0.59965927967E+02  0.47000000000E+01 0. -1.
         -5    1    3    3    0  503  0.11962244248E+02  0.38931428476E+01 -0.12115730498E+03  0.12189927973E+03  0.47000000000E+01 0. -1.
<mgrwt>
<rscale>  0 0.13384432E+03</rscale>
<asrwt>0</asrwt>
<pdfrwt beam="1">  1        5 0.12666428E-01 0.13384439E+03</pdfrwt>
<pdfrwt beam="2">  1       -5 0.36470213E-01 0.13384439E+03</pdfrwt>
<totfact> 0.27753619E+02</totfact>
</mgrwt>
</event>
<event>
 8    1  0.3694627E-007  0.1463506E+03  0.7546771E-02  0.1205032E+00
         -5   -1    0    0    0  501 -0.00000000000E+00  0.00000000000E+00  0.16928267289E+02  0.17568615011E+02  0.47000000000E+01 0.  1.
          5   -1    0    0  501    0  0.00000000000E+00 -0.00000000000E+00 -0.16418318036E+04  0.16418385308E+04  0.47000000000E+01 0.  1.
         25    2    1    2    0    0 -0.68917842600E+01 -0.75787060675E+02 -0.40262365267E+03  0.42839736262E+03  0.12500927706E+03 0.  0.
         25    2    1    2    0    0  0.68917842600E+01  0.75787060675E+02 -0.12222798836E+04  0.12310097832E+04  0.12500318867E+03 0.  0.
          5    1    3    3  502    0  0.33762473559E+02 -0.51534924118E+01 -0.26408963306E+02  0.43427945471E+02  0.47000000000E+01 0.  1.
         -5    1    3    3    0  502 -0.40654257819E+02 -0.70633568263E+02 -0.37621468936E+03  0.38496941715E+03  0.47000000000E+01 0.  1.
          5    1    4    4  503    0  0.95136342703E+01 -0.57670021166E+01 -0.84016436752E+03  0.84025116603E+03  0.47000000000E+01 0. -1.
         -5    1    4    4    0  503 -0.26218500103E+01  0.81554062792E+02 -0.38211551608E+03  0.39075861716E+03  0.47000000000E+01 0. -1.
<mgrwt>
<rscale>  0 0.14634929E+03</rscale>
<asrwt>0</asrwt>
<pdfrwt beam="2">  1        5 0.25263916E+00 0.14635059E+03</pdfrwt>
<pdfrwt beam="1">  1       -5 0.26541251E-02 0.14635059E+03</pdfrwt>
<totfact> 0.29890947E+01</totfact>
</mgrwt>
</event>
<event>
 8    1  0.3694627E-007  0.1620351E+03  0.7546771E-02  0.1186420E+00
          5   -1    0    0  501    0  0.00000000000E+00  0.00000000000E+00  0.89477384197E+02  0.89600738182E+02  0.47000000000E+01 0. -1.
         -5   -1    0    0    0  501 -0.00000000000E+00 -0.00000000000E+00 -0.48804831916E+03  0.48807094959E+03  0.47000000000E+01 0. -1.
         25    2    1    2    0    0 -0.99232141122E+02 -0.27962333324E+02 -0.38181615988E+03  0.41477268571E+03  0.12499556371E+03 0.  0.
         25    2    1    2    0    0  0.99232141122E+02  0.27962333324E+02 -0.16754775083E+02  0.16289900207E+03  0.12500580974E+03 0.  0.
          5    1    4    4  502    0  0.42002267117E+02 -0.49539323369E+02 -0.12779103903E+02  0.66360609547E+02  0.47000000000E+01 0.  1.
         -5    1    4    4    0  502  0.57229874005E+02  0.77501656693E+02 -0.39756711797E+01  0.96538392519E+02  0.47000000000E+01 0.  1.
          5    1    3    3  503    0 -0.26570305285E+02  0.56733456763E+00 -0.20814498507E+01  0.27068901436E+02  0.47000000000E+01 0.  1.
         -5    1    3    3    0  503 -0.72661835837E+02 -0.28529667891E+02 -0.37973471003E+03  0.38770378427E+03  0.47000000000E+01 0.  1.
<mgrwt>
<rscale>  0 0.16203309E+03</rscale>
<asrwt>0</asrwt>
<pdfrwt beam="1">  1        5 0.13776981E-01 0.16203507E+03</pdfrwt>
<pdfrwt beam="2">  1       -5 0.75095585E-01 0.16203507E+03</pdfrwt>
<totfact> 0.53960838E+01</totfact>
</mgrwt>
</event>
<event>
 8    1  0.3694627E-007  0.1377864E+03  0.7546771E-02  0.1216341E+00
         -5   -1    0    0    0  501 -0.00000000000E+00  0.00000000000E+00  0.45191341912E+03  0.45193785898E+03  0.47000000000E+01 0. -1.
          5   -1    0    0  501    0  0.00000000000E+00 -0.00000000000E+00 -0.41855794265E+02  0.42118849861E+02  0.47000000000E+01 0. -1.
         25    2    1    2    0    0 -0.53062927189E+02 -0.23345856168E+02  0.20266258582E+03  0.24506573849E+03  0.12499755696E+03 0.  0.
         25    2    1    2    0    0  0.53062927189E+02  0.23345856168E+02  0.20739503903E+03  0.24899097035E+03  0.12499239121E+03 0.  0.
          5    1    3    3  502    0  0.11073020724E+02 -0.59583900189E+02  0.65894488757E+02  0.89649465131E+02  0.47000000000E+01 0. -1.
         -5    1    3    3    0  502 -0.64135947913E+02  0.36238044021E+02  0.13676809707E+03  0.15541627336E+03  0.47000000000E+01 0. -1.
          5    1    4    4  503    0  0.53084693364E+02 -0.34176308883E+02  0.16685403184E+03  0.17846109576E+03  0.47000000000E+01 0. -1.
         -5    1    4    4    0  503 -0.21766175424E-01  0.57522165052E+02  0.40541007188E+02  0.70529874591E+02  0.47000000000E+01 0. -1.
<mgrwt>
<rscale>  0 0.13778523E+03</rscale>
<asrwt>0</asrwt>
<pdfrwt beam="2">  1        5 0.64614680E-02 0.13778640E+03</pdfrwt>
<pdfrwt beam="1">  1       -5 0.69547257E-01 0.13778640E+03</pdfrwt>
<totfact> 0.22805830E+02</totfact>
</mgrwt>
</event>
<event>
 8    1  0.3694627E-007  0.1795845E+03  0.7546771E-02  0.1168207E+00
         -5   -1    0    0    0  501 -0.00000000000E+00  0.00000000000E+00  0.21875915522E+03  0.21880963871E+03  0.47000000000E+01 0. -1.
          5   -1    0    0  501    0  0.00000000000E+00 -0.00000000000E+00 -0.18164186360E+03  0.18170265990E+03  0.47000000000E+01 0. -1.
         25    2    1    2    0    0 -0.67115705429E+02  0.11008505136E+03  0.10558432470E+03  0.20832343773E+03  0.12500947419E+03 0.  0.
         25    2    1    2    0    0  0.67115705429E+02 -0.11008505136E+03 -0.68467033083E+02  0.19218886088E+03  0.12500234869E+03 0.  0.
          5    1    4    4  502    0  0.17504833122E+02 -0.41682231965E+02 -0.93476027272E+02  0.10394077794E+03  0.47000000000E+01 0.  1.
         -5    1    4    4    0  502  0.49610872307E+02 -0.68402819392E+02  0.25008994190E+02  0.88248082937E+02  0.47000000000E+01 0.  1.
          5    1    3    3  503    0 -0.41713891620E+02  0.13001301206E+03  0.53209493896E+02  0.14661777620E+03  0.47000000000E+01 0.  1.
         -5    1    3    3    0  503 -0.25401813809E+02 -0.19927960699E+02  0.52374830805E+02  0.61705661525E+02  0.47000000000E+01 0.  1.
<mgrwt>
<rscale>  0 0.17958329E+03</rscale>
<asrwt>0</asrwt>
<pdfrwt beam="2">  1        5 0.27953462E-01 0.17958453E+03</pdfrwt>
<pdfrwt beam="1">  1       -5 0.33663815E-01 0.17958453E+03</pdfrwt>
<totfact> 0.82030453E+01</totfact>
</mgrwt>
</event>
<event>
 8    1  0.3694627E-007  0.1432264E+03  0.7546771E-02  0.1209054E+00
         -5   -1    0    0    0  501 -0.00000000000E+00  0.00000000000E+00  0.27016891775E+02  0.27422662912E+02  0.47000000000E+01 0.  1.
          5   -1    0    0  501    0  0.00000000000E+00 -0.00000000000E+00 -0.75351114129E+03  0.75352579919E+03  0.47000000000E+01 0.  1.
         25    2    1    2    0    0  0.20231792997E+02  0.66923528496E+02 -0.37114146371E+03  0.39781741448E+03  0.12499850025E+03 0.  0.
         25    2    1    2    0    0 -0.20231792997E+02 -0.66923528496E+02 -0.35535278580E+03  0.38313104762E+03  0.12500285260E+03 0.  0.
          5    1    3    3  502    0  0.74573238563E+01 -0.11072936996E+02 -0.26510624224E+03  0.26548376841E+03  0.47000000000E+01 0.  1.
         -5    1    3    3    0  502  0.12774469141E+02  0.77996465492E+02 -0.10603522147E+03  0.13233364607E+03  0.47000000000E+01 0.  1.
          5    1    4    4  503    0  0.83041499662E+01  0.27560017718E+01 -0.26601357923E+03  0.26619892710E+03  0.47000000000E+01 0. -1.
         -5    1    4    4    0  503 -0.28535942963E+02 -0.69679530268E+02 -0.89339206570E+02  0.11693212052E+03  0.47000000000E+01 0. -1.
<mgrwt>
<rscale>  0 0.14322544E+03</rscale>
<asrwt>0</asrwt>
<pdfrwt beam="2">  1        5 0.11595712E+00 0.14322638E+03</pdfrwt>
<pdfrwt beam="1">  1       -5 0.41887862E-02 0.14322638E+03</pdfrwt>
<totfact> 0.14102313E+02</totfact>
</mgrwt>
</event>
<event>
 8    1  0.3694627E-007  0.1345675E+03  0.7546771E-02  0.1220838E+00
          5   -1    0    0  501    0  0.00000000000E+00  0.00000000000E+00  0.83472923028E+02  0.83605136677E+02  0.47000000000E+01 0.  1.
         -5   -1    0    0    0  501 -0.00000000000E+00 -0.00000000000E+00 -0.45497401048E+03  0.45499828595E+03  0.47000000000E+01 0.  1.
         25    2    1    2    0    0  0.49794027114E+02  0.16472484493E+01 -0.38064485633E+03  0.40372565840E+03  0.12498696747E+03 0.  0.
         25    2    1    2    0    0 -0.49794027114E+02 -0.16472484493E+01  0.91437688780E+01  0.13487776422E+03  0.12500497673E+03 0.  0.
          5    1    4    4  502    0 -0.48956922109E+02 -0.82392800056E+01 -0.52669122061E+02  0.72531319966E+02  0.47000000000E+01 0. -1.
         -5    1    4    4    0  502 -0.83710500521E+00  0.65920315563E+01  0.61812890939E+02  0.62346444254E+02  0.47000000000E+01 0. -1.
          5    1    3    3  503    0 -0.13944552520E+02  0.25370460286E+02 -0.17322339729E+02  0.34062651890E+02  0.47000000000E+01 0.  1.
         -5    1    3    3    0  503  0.63738579634E+02 -0.23723211836E+02 -0.36332251660E+03  0.36966300651E+03  0.47000000000E+01 0.  1.
<mgrwt>
<rscale>  0 0.13456328E+03</rscale>
<asrwt>0</asrwt>
<pdfrwt beam="1">  1        5 0.12854026E-01 0.13456747E+03</pdfrwt>
<pdfrwt beam="2">  1       -5 0.70008038E-01 0.13456747E+03</pdfrwt>
<totfact> 0.67699623E+01</totfact>
</mgrwt>
</event>
<event>
 8    1  0.3694627E-007  0.1523984E+03  0.7546771E-02  0.1197558E+00
          5   -1    0    0  501    0  0.00000000000E+00  0.00000000000E+00  0.24750900381E+02  0.25193194908E+02  0.47000000000E+01 0. -1.
         -5   -1    0    0    0  501 -0.00000000000E+00 -0.00000000000E+00 -0.93776136357E+03  0.93777314154E+03  0.47000000000E+01 0. -1.
         25    2    1    2    0    0 -0.87063021941E+02  0.44187470174E+01 -0.50148790683E+03  0.52413140196E+03  0.12499644281E+03 0.  0.
         25    2    1    2    0    0  0.87063021941E+02 -0.44187470174E+01 -0.41152255636E+03  0.43883493449E+03  0.12500316084E+03 0.  0.
          5    1    3    3  502    0 -0.88866656643E+02 -0.38503186894E+02 -0.42828258246E+03  0.43912166708E+03  0.47000000000E+01 0. -1.
         -5    1    3    3    0  502  0.18036347020E+01  0.42921933911E+02 -0.73205324370E+02  0.85009734883E+02  0.47000000000E+01 0. -1.
          5    1    4    4  503    0  0.64943237295E+02  0.13987313591E+02 -0.72059688143E+02  0.98122156861E+02  0.47000000000E+01 0.  1.
         -5    1    4    4    0  503  0.22119784646E+02 -0.18406060609E+02 -0.33946286822E+03  0.34071277763E+03  0.47000000000E+01 0.  1.
<mgrwt>
<rscale>  0 0.15239707E+03</rscale>
<asrwt>0</asrwt>
<pdfrwt beam="1">  1        5 0.38427602E-02 0.15239844E+03</pdfrwt>
<pdfrwt beam="2">  1       -5 0.14430588E+00 0.15239844E+03</pdfrwt>
<totfact> 0.93618664E+01</totfact>
</mgrwt>
</event>
<event>
 8    1  0.3694627E-007  0.1645701E+03  0.7546771E-02  0.1183633E+00
         -5   -1    0    0    0  501 -0.00000000000E+00  0.00000000000E+00  0.83892687468E+03  0.83894004020E+03  0.47000000000E+01 0.  1.
          5   -1    0    0  501    0  0.00000000000E+00 -0.00000000000E+00 -0.38571580705E+02  0.38856876329E+02  0.47000000000E+01 0.  1.
         25    2    1    2    0    0  0.80419223574E+02 -0.70641376362E+02  0.57922202870E+03  0.60214635096E+03  0.12499845548E+03 0.  0.
         25    2    1    2    0    0 -0.80419223574E+02  0.70641376362E+02  0.22113326528E+03  0.27565056557E+03  0.12500343081E+03 0.  0.
          5    1    3    3  502    0  0.79623967921E+02  0.11236392849E+02  0.33385334845E+03  0.34343322650E+03  0.47000000000E+01 0. -1.
         -5    1    3    3    0  502  0.79525565225E+00 -0.81877769211E+02  0.24536868025E+03  0.25871312446E+03  0.47000000000E+01 0. -1.
          5    1    4    4  503    0  0.28736280365E+02 -0.71949503741E+01  0.33074193136E+02  0.44649001911E+02  0.47000000000E+01 0.  1.
         -5    1    4    4    0  503 -0.10915550394E+03  0.77836326736E+02  0.18805907214E+03  0.23100156366E+03  0.47000000000E+01 0.  1.
<mgrwt>
<rscale>  0 0.16456914E+03</rscale>
<asrwt>0</asrwt>
<pdfrwt beam="2">  1        5 0.59570478E-02 0.16457009E+03</pdfrwt>
<pdfrwt beam="1">  1       -5 0.12908863E+00 0.16457009E+03</pdfrwt>
<totfact> 0.62128590E+01</totfact>
</mgrwt>
</event>
<event>
 8    1  0.3694627E-007  0.1329372E+03  0.7546771E-02  0.1223162E+00
          5   -1    0    0  501    0  0.00000000000E+00  0.00000000000E+00  0.13875666842E+03  0.13883624538E+03  0.47000000000E+01 0. -1.
         -5   -1    0    0    0  501 -0.00000000000E+00 -0.00000000000E+00 -0.13374266999E+03  0.13382522848E+03  0.47000000000E+01 0. -1.
         25    2    1    2    0    0  0.21578731022E+02 -0.39764666858E+02 -0.27629041506E+02  0.13577514685E+03  0.12499862481E+03 0.  0.
         25    2    1    2    0    0 -0.21578731022E+02  0.39764666858E+02  0.32643039930E+02  0.13688632700E+03  0.12500171239E+03 0.  0.
          5    1    4    4  502    0 -0.60798164628E+02  0.34079771090E+00  0.49550208463E+02  0.78573825947E+02  0.47000000000E+01 0.  1.
         -5    1    4    4    0  502  0.39219433606E+02  0.39423869148E+02 -0.16907168533E+02  0.58312501051E+02  0.47000000000E+01 0.  1.
          5    1    3    3  503    0  0.31990637324E+02 -0.76190165823E+02 -0.44576047740E+02  0.94007745833E+02  0.47000000000E+01 0.  1.
         -5    1    3    3    0  503 -0.10411906302E+02  0.36425498964E+02  0.16947006235E+02  0.41767401020E+02  0.47000000000E+01 0.  1.
<mgrwt>
<rscale>  0 0.13293647E+03</rscale>
<asrwt>0</asrwt>
<pdfrwt beam="1">  1        5 0.21359652E-01 0.13293720E+03</pdfrwt>
<pdfrwt beam="2">  1       -5 0.20588267E-01 0.13293720E+03</pdfrwt>
<totfact> 0.32301946E+02</totfact>
</mgrwt>
</event>
<event>
 8    1  0.3694627E-007  0.1361213E+03  0.7546771E-02  0.1218655E+00
         -5   -1    0    0    0  501 -0.00000000000E+00  0.00000000000E+00  0.18367471419E+03  0.18373483783E+03  0.47000000000E+01 0.  1.
          5   -1    0    0  501    0  0.00000000000E+00 -0.00000000000E+00 -0.10128945930E+03  0.10139844459E+03  0.47000000000E+01 0.  1.
         25    2    1    2    0    0 -0.36950500045E+02 -0.39195430857E+02  0.51787975436E+02  0.14561552140E+03  0.12498105624E+03 0.  0.
         25    2    1    2    0    0  0.36950500045E+02  0.39195430857E+02  0.30597279458E+02  0.13951776103E+03  0.12500956315E+03 0.  0.
          5    1    4    4  502    0  0.42154004802E+02  0.27929389303E+02 -0.41886114158E+02  0.65829685302E+02  0.47000000000E+01 0. -1.
         -5    1    4    4    0  502 -0.52035047567E+01  0.11266041555E+02  0.72483393616E+02  0.73688075726E+02  0.47000000000E+01 0. -1.
          5    1    3    3  503    0  0.43018960274E+02 -0.22838102822E+02  0.18419645513E+00  0.48931930392E+02  0.47000000000E+01 0.  1.
         -5    1    3    3    0  503 -0.79969460320E+02 -0.16357328036E+02  0.51603778981E+02  0.96683591004E+02  0.47000000000E+01 0.  1.
<mgrwt>
<rscale>  0 0.13611477E+03</rscale>
<asrwt>0</asrwt>
<pdfrwt beam="2">  1        5 0.15596002E-01 0.13612131E+03</pdfrwt>
<pdfrwt beam="1">  1       -5 0.28270656E-01 0.13612131E+03</pdfrwt>
<totfact> 0.31794713E+02</totfact>
</mgrwt>
</event>
<event>
 8    1  0.3694627E-007  0.1315271E+03  0.7546771E-02  0.1225211E+00
         -5   -1    0    0    0  501 -0.00000000000E+00  0.00000000000E+00  0.29247273976E+03  0.29251050152E+03  0.47000000000E+01 0.  1.
          5   -1    0    0  501    0  0.00000000000E+00 -0.00000000000E+00 -0.65317105272E+02  0.65485985074E+02  0.47000000000E+01 0.  1.
         25    2    1    2    0    0 -0.40644288484E+02  0.46838478653E+01  0.16910940313E+03  0.21423016219E+03  0.12499070184E+03 0.  0.
         25    2    1    2    0    0  0.40644288484E+02 -0.46838478653E+01  0.58046231360E+02  0.14376632441E+03  0.12500197776E+03 0.  0.
          5    1    3    3  502    0 -0.70448090899E+02 -0.36464684949E+02  0.11573623352E+03  0.14039078498E+03  0.47000000000E+01 0.  1.
         -5    1    3    3    0  502  0.29803802415E+02  0.41148532814E+02  0.53373169611E+02  0.73839377202E+02  0.47000000000E+01 0.  1.
          5    1    4    4  503    0  0.39922973606E+02  0.24800216346E+02  0.88998121272E+02  0.10075539758E+03  0.47000000000E+01 0.  1.
         -5    1    4    4    0  503  0.72131487836E+00 -0.29484064211E+02 -0.30951889912E+02  0.43010926829E+02  0.47000000000E+01 0.  1.
<mgrwt>
<rscale>  0 0.13152447E+03</rscale>
<asrwt>0</asrwt>
<pdfrwt beam="2">  1        5 0.10064681E-01 0.13152715E+03</pdfrwt>
<pdfrwt beam="1">  1       -5 0.45011701E-01 0.13152715E+03</pdfrwt>
<totfact> 0.26880723E+02</totfact>
</mgrwt>
</event>
<event>
 8    1  0.3694627E-007  0.1495596E+03  0.7546771E-02  0.1201019E+00
         -5   -1    0    0    0  501 -0.00000000000E+00  0.00000000000E+00  0.28120373677E+03  0.28124301160E+03  0.47000000000E+01 0.  1.
          5   -1    0    0  501    0  0.00000000000E+00 -0.00000000000E+00 -0.92193351803E+02  0.92313076629E+02  0.47000000000E+01 0.  1.
         25    2    1    2    0    0 -0.81550775082E+02  0.95961842667E+01  0.16395850190E+03  0.22192446795E+03  0.12500185384E+03 0.  0.
         25    2    1    2    0    0  0.81550775082E+02 -0.95961842667E+01  0.25051883070E+02  0.15163162027E+03  0.12498774241E+03 0.  0.
          5    1    4    4  502    0  0.11147843555E+03  0.77018793760E+01  0.31414145513E+02  0.11617099069E+03  0.47000000000E+01 0.  1.
         -5    1    4    4    0  502 -0.29927660472E+02 -0.17298063643E+02 -0.63622624429E+01  0.35460629585E+02  0.47000000000E+01 0.  1.
          5    1    3    3  503    0  0.11734813423E+02 -0.34127530749E+02  0.12090930013E+02  0.38349377957E+02  0.47000000000E+01 0.  1.
         -5    1    3    3    0  503 -0.93285588504E+02  0.43723715016E+02  0.15186757188E+03  0.18357509000E+03  0.47000000000E+01 0.  1.
<mgrwt>
<rscale>  0 0.14955667E+03</rscale>
<asrwt>0</asrwt>
<pdfrwt beam="2">  1        5 0.14195823E-01 0.14955962E+03</pdfrwt>
<pdfrwt beam="1">  1       -5 0.43274344E-01 0.14955962E+03</pdfrwt>
<totfact> 0.16552408E+02</totfact>
</mgrwt>
</event>
<event>
 8    1  0.3694627E-007  0.1390482E+03  0.7546771E-02  0.1214616E+00
          5   -1    0    0  501    0  0.00000000000E+00  0.00000000000E+00  0.45060219846E+03  0.45062670944E+03  0.47000000000E+01 0. -1.
         -5   -1    0    0    0  501 -0.00000000000E+00 -0.00000000000E+00 -0.60531129858E+02  0.60713323759E+02  0.47000000000E+01 0. -1.
         25    2    1    2    0    0  0.41244955323E+02  0.44811227636E+02  0.56756139270E+02  0.15018542340E+03  0.12500083838E+03 0.  0.
         25    2    1    2    0    0 -0.41244955323E+02 -0.44811227636E+02  0.33331492933E+03  0.36115460979E+03  0.12499847038E+03 0.  0.
          5    1    4    4  502    0 -0.50023966911E+02 -0.69950899634E+02  0.31927397603E+03  0.33068638828E+03  0.47000000000E+01 0. -1.
         -5    1    4    4    0  502  0.87790115875E+01  0.25139671998E+02  0.14040953307E+02  0.30468221517E+02  0.47000000000E+01 0. -1.
          5    1    3    3  503    0  0.55497947751E+01  0.66611520171E+02  0.78172658061E+02  0.10296091156E+03  0.47000000000E+01 0. -1.
         -5    1    3    3    0  503  0.35695160548E+02 -0.21800292535E+02 -0.21416518791E+02  0.47224511837E+02  0.47000000000E+01 0. -1.
<mgrwt>
<rscale>  0 0.13904767E+03</rscale>
<asrwt>0</asrwt>
<pdfrwt beam="1">  1        5 0.69339314E-01 0.13904820E+03</pdfrwt>
<pdfrwt beam="2">  1       -5 0.93283822E-02 0.13904820E+03</pdfrwt>
<totfact> 0.12284105E+02</totfact>
</mgrwt>
</event>
<event>
 8    1  0.3694627E-007  0.1454401E+03  0.7546771E-02  0.1206193E+00
          5   -1    0    0  501    0  0.00000000000E+00  0.00000000000E+00  0.11792395067E+04  0.11792488729E+04  0.47000000000E+01 0. -1.
         -5   -1    0    0    0  501 -0.00000000000E+00 -0.00000000000E+00 -0.18544254469E+02  0.19130587388E+02  0.47000000000E+01 0. -1.
         25    2    1    2    0    0 -0.68487417181E+02  0.28912319131E+02  0.44867782397E+03  0.47165968539E+03  0.12499848234E+03 0.  0.
         25    2    1    2    0    0  0.68487417181E+02 -0.28912319131E+02  0.71201742824E+03  0.72671977485E+03  0.12500545800E+03 0.  0.
          5    1    4    4  502    0  0.52008737962E+02 -0.38497087614E+02  0.70140875423E+03  0.70440277192E+03  0.47000000000E+01 0. -1.
         -5    1    4    4    0  502  0.16478679219E+02  0.95847684835E+01  0.10608674018E+02  0.22317002938E+02  0.47000000000E+01 0. -1.
          5    1    3    3  503    0 -0.10494589926E+02 -0.24209330309E+02  0.31758305249E+03  0.31871195980E+03  0.47000000000E+01 0. -1.
         -5    1    3    3    0  503 -0.57992827255E+02  0.53121649440E+02  0.13109477148E+03  0.15294772559E+03  0.47000000000E+01 0. -1.
<mgrwt>
<rscale>  0 0.14543857E+03</rscale>
<asrwt>0</asrwt>
<pdfrwt beam="1">  1        5 0.18146726E+00 0.14544007E+03</pdfrwt>
<pdfrwt beam="2">  1       -5 0.28987857E-02 0.14544007E+03</pdfrwt>
<totfact> 0.76488597E+01</totfact>
</mgrwt>
</event>
<event>
 8    1  0.3694627E-007  0.1456713E+03  0.7546771E-02  0.1205895E+00
          5   -1    0    0  501    0  0.00000000000E+00  0.00000000000E+00  0.44805159506E+02  0.45050996863E+02  0.47000000000E+01 0. -1.
         -5   -1    0    0    0  501 -0.00000000000E+00 -0.00000000000E+00 -0.49418220482E+03  0.49420455437E+03  0.47000000000E+01 0. -1.
         25    2    1    2    0    0 -0.74101099764E+02 -0.10219731706E+02 -0.28172691864E+03  0.31715944042E+03  0.12499855222E+03 0.  0.
         25    2    1    2    0    0  0.74101099764E+02  0.10219731706E+02 -0.16765012667E+03  0.22209611081E+03  0.12499880625E+03 0.  0.
          5    1    4    4  502    0  0.59046198984E+02 -0.34808760137E+02 -0.27422507143E+02  0.73974233992E+02  0.47000000000E+01 0.  1.
         -5    1    4    4    0  502  0.15054900780E+02  0.45028491842E+02 -0.14022761952E+03  0.14812187682E+03  0.47000000000E+01 0.  1.
          5    1    3    3  503    0 -0.13301431886E+02 -0.51731179738E+02 -0.20000044687E+03  0.20706354531E+03  0.47000000000E+01 0. -1.
         -5    1    3    3    0  503 -0.60799667878E+02  0.41511448032E+02 -0.81726471773E+02  0.11009589511E+03  0.47000000000E+01 0. -1.
<mgrwt>
<rscale>  0 0.14567121E+03</rscale>
<asrwt>0</asrwt>
<pdfrwt beam="1">  1        5 0.69137316E-02 0.14567127E+03</pdfrwt>
<pdfrwt beam="2">  1       -5 0.76048658E-01 0.14567127E+03</pdfrwt>
<totfact> 0.16909133E+02</totfact>
</mgrwt>
</event>
<event>
 8    1  0.3694627E-007  0.1378776E+03  0.7546771E-02  0.1216216E+00
          5   -1    0    0  501    0  0.00000000000E+00  0.00000000000E+00  0.27083391121E+03  0.27087468959E+03  0.47000000000E+01 0.  1.
         -5   -1    0    0    0  501 -0.00000000000E+00 -0.00000000000E+00 -0.71329647806E+02  0.71484324548E+02  0.47000000000E+01 0.  1.
         25    2    1    2    0    0 -0.57269344693E+02  0.10183394666E+02  0.76974231510E+02  0.15790350223E+03  0.12500001733E+03 0.  0.
         25    2    1    2    0    0  0.57269344693E+02 -0.10183394666E+02  0.12253003190E+03  0.18445551191E+03  0.12500699096E+03 0.  0.
          5    1    4    4  502    0  0.39942960055E+02  0.55037322834E+02  0.45590696126E+02  0.82007002969E+02  0.47000000000E+01 0. -1.
         -5    1    4    4    0  502  0.17326384638E+02 -0.65220717500E+02  0.76939335770E+02  0.10244850894E+03  0.47000000000E+01 0. -1.
          5    1    3    3  503    0 -0.87450703865E+01 -0.41297873492E+01  0.10109105603E+03  0.10166131520E+03  0.47000000000E+01 0. -1.
         -5    1    3    3    0  503 -0.48524274307E+02  0.14313182016E+02 -0.24116824521E+02  0.56242187025E+02  0.47000000000E+01 0. -1.
<mgrwt>
<rscale>  0 0.13787600E+03</rscale>
<asrwt>0</asrwt>
<pdfrwt beam="1">  1        5 0.41681791E-01 0.13787758E+03</pdfrwt>
<pdfrwt beam="2">  1       -5 0.10988827E-01 0.13787758E+03</pdfrwt>
<totfact> 0.27463433E+02</totfact>
</mgrwt>
</event>
<event>
 8    1  0.3694627E-007  0.2517465E+03  0.7546771E-02  0.1112206E+00
         -5   -1    0    0    0  501 -0.00000000000E+00  0.00000000000E+00  0.74838649626E+03  0.74840125454E+03  0.47000000000E+01 0.  1.
          5   -1    0    0  501    0  0.00000000000E+00 -0.00000000000E+00 -0.10353396297E+03  0.10364058803E+03  0.47000000000E+01 0.  1.
         25    2    1    2    0    0 -0.21582856734E+03  0.34216245192E+02  0.50447898803E+03  0.56380401357E+03  0.12499277753E+03 0.  0.
         25    2    1    2    0    0  0.21582856734E+03 -0.34216245192E+02  0.14037354526E+03  0.28823782900E+03  0.12499436764E+03 0.  0.
          5    1    4    4  502    0  0.89005182643E+02  0.46790844906E+02  0.65391916827E+02  0.12003957052E+03  0.47000000000E+01 0.  1.
         -5    1    4    4    0  502  0.12682338470E+03 -0.81007090098E+02  0.74981628435E+02  0.16819825848E+03  0.47000000000E+01 0.  1.
          5    1    3    3  503    0 -0.34779797971E+02  0.39935894596E+02  0.22143158216E+03  0.22772471451E+03  0.47000000000E+01 0. -1.
         -5    1    3    3    0  503 -0.18104876937E+03 -0.57196494039E+01  0.28304740588E+03  0.33607929906E+03  0.47000000000E+01 0. -1.
<mgrwt>
<rscale>  0 0.25174633E+03</rscale>
<asrwt>0</asrwt>
<pdfrwt beam="2">  1        5 0.15937640E-01 0.25174653E+03</pdfrwt>
<pdfrwt beam="1">  1       -5 0.11514571E+00 0.25174653E+03</pdfrwt>
<totfact> 0.16456597E+01</totfact>
</mgrwt>
</event>
<event>
 8    1  0.3694627E-007  0.1255094E+03  0.7546771E-02  0.1234277E+00
          5   -1    0    0  501    0  0.00000000000E+00  0.00000000000E+00  0.43171031998E+02  0.43426121214E+02  0.47000000000E+01 0.  1.
         -5   -1    0    0    0  501 -0.00000000000E+00 -0.00000000000E+00 -0.37091103858E+03  0.37094081541E+03  0.47000000000E+01 0.  1.
         25    2    1    2    0    0 -0.11662822262E+01 -0.11238985653E+02 -0.19309388718E+03  0.23029950481E+03  0.12499975055E+03 0.  0.
         25    2    1    2    0    0  0.11662822262E+01  0.11238985653E+02 -0.13464611940E+03  0.18406743182E+03  0.12499426776E+03 0.  0.
          5    1    3    3  502    0 -0.95185944757E+00  0.53174121468E+02 -0.49312235885E+02  0.72678606469E+02  0.47000000000E+01 0. -1.
         -5    1    3    3    0  502 -0.21442277867E+00 -0.64413107120E+02 -0.14378165129E+03  0.15762089834E+03  0.47000000000E+01 0. -1.
          5    1    4    4  503    0  0.43761802849E+02 -0.14183756491E+02 -0.66544697771E+01  0.46718800336E+02  0.47000000000E+01 0.  1.
         -5    1    4    4    0  503 -0.42595520623E+02  0.25422742144E+02 -0.12799164963E+03  0.13734863148E+03  0.47000000000E+01 0.  1.
<mgrwt>
<rscale>  0 0.12550805E+03</rscale>
<asrwt>0</asrwt>
<pdfrwt beam="1">  1        5 0.66636102E-02 0.12550941E+03</pdfrwt>
<pdfrwt beam="2">  1       -5 0.57085147E-01 0.12550941E+03</pdfrwt>
<totfact> 0.32388852E+02</totfact>
</mgrwt>
</event>
<event>
 8    1  0.3694627E-007  0.1250930E+03  0.7546771E-02  0.1234930E+00
         -5   -1    0    0    0  501 -0.00000000000E+00  0.00000000000E+00  0.34518862456E+02  0.34837363064E+02  0.47000000000E+01 0. -1.
          5   -1    0    0  501    0  0.00000000000E+00 -0.00000000000E+00 -0.46283770836E+03  0.46286157140E+03  0.47000000000E+01 0. -1.
         25    2    1    2    0    0  0.44335384507E+01  0.21075041134E+01 -0.17415627555E+03  0.21442636774E+03  0.12499664409E+03 0.  0.
         25    2    1    2    0    0 -0.44335384507E+01 -0.21075041134E+01 -0.25416257035E+03  0.28327256672E+03  0.12498254699E+03 0.  0.
          5    1    4    4  502    0 -0.39288033566E+01  0.35968089158E+02 -0.23939717180E+03  0.24216158820E+03  0.47000000000E+01 0. -1.
         -5    1    4    4    0  502 -0.50473509406E+00 -0.38075593271E+02 -0.14765398552E+02  0.41110978520E+02  0.47000000000E+01 0. -1.
          5    1    3    3  503    0 -0.39920000610E+02 -0.31114608012E+02 -0.14051884841E+03  0.14943012427E+03  0.47000000000E+01 0.  1.
         -5    1    3    3    0  503  0.44353539060E+02  0.33222112125E+02 -0.33637427141E+02  0.64996243475E+02  0.47000000000E+01 0.  1.
<mgrwt>
<rscale>  0 0.12508948E+03</rscale>
<asrwt>0</asrwt>
<pdfrwt beam="2">  1        5 0.71232132E-01 0.12509300E+03</pdfrwt>
<pdfrwt beam="1">  1       -5 0.53369302E-02 0.12509300E+03</pdfrwt>
<totfact> 0.28782542E+02</totfact>
</mgrwt>
</event>
<event>
 8    1  0.3694627E-007  0.1522040E+03  0.7546771E-02  0.1197792E+00
          5   -1    0    0  501    0  0.00000000000E+00  0.00000000000E+00  0.95420733128E+03  0.95421890626E+03  0.47000000000E+01 0. -1.
         -5   -1    0    0    0  501 -0.00000000000E+00 -0.00000000000E+00 -0.24641545628E+02  0.25085768295E+02  0.47000000000E+01 0. -1.
         25    2    1    2    0    0  0.37478459889E+02  0.78349239847E+02  0.54072748364E+03  0.56173877691E+03  0.12498401328E+03 0.  0.
         25    2    1    2    0    0 -0.37478459889E+02 -0.78349239847E+02  0.38883830201E+03  0.41756589765E+03  0.12499126142E+03 0.  0.
          5    1    4    4  502    0 -0.52710582654E+02 -0.93549404935E+02  0.19652783616E+03  0.22399816310E+03  0.47000000000E+01 0.  1.
         -5    1    4    4    0  502  0.15232122765E+02  0.15200165088E+02  0.19231046585E+03  0.19356773455E+03  0.47000000000E+01 0.  1.
          5    1    3    3  503    0 -0.13286541406E+02 -0.28558340147E+02  0.15494437564E+03  0.15818331301E+03  0.47000000000E+01 0.  1.
         -5    1    3    3    0  503  0.50765001295E+02  0.10690757999E+03  0.38578310800E+03  0.40355546389E+03  0.47000000000E+01 0.  1.
<mgrwt>
<rscale>  0 0.15220250E+03</rscale>
<asrwt>0</asrwt>
<pdfrwt beam="1">  1        5 0.14683619E+00 0.15220399E+03</pdfrwt>
<pdfrwt beam="2">  1       -5 0.38260682E-02 0.15220399E+03</pdfrwt>
<totfact> 0.89915627E+01</totfact>
</mgrwt>
</event>
<event>
 8    1  0.3694627E-007  0.2455748E+03  0.7546771E-02  0.1116134E+00
          5   -1    0    0  501    0  0.00000000000E+00  0.00000000000E+00  0.98309202980E+03  0.98310326469E+03  0.47000000000E+01 0.  1.
         -5   -1    0    0    0  501 -0.00000000000E+00 -0.00000000000E+00 -0.83274120701E+02  0.83406649486E+02  0.47000000000E+01 0.  1.
         25    2    1    2    0    0 -0.17612361374E+03  0.11688623389E+03  0.17589706054E+03  0.30206999450E+03  0.12499834670E+03 0.  0.
         25    2    1    2    0    0  0.17612361374E+03 -0.11688623389E+03  0.72392084856E+03  0.76443991968E+03  0.12500030736E+03 0.  0.
          5    1    3    3  502    0 -0.44331542631E+02  0.18830821768E+02  0.11849773440E+03  0.12799878351E+03  0.47000000000E+01 0. -1.
         -5    1    3    3    0  502 -0.13179207111E+03  0.98055412123E+02  0.57399326138E+02  0.17407121099E+03  0.47000000000E+01 0. -1.
          5    1    4    4  503    0  0.18066702313E+03 -0.66072675091E+02  0.60742963890E+03  0.63718053003E+03  0.47000000000E+01 0. -1.
         -5    1    4    4    0  503 -0.45434093854E+01 -0.50813558800E+02  0.11649120966E+03  0.12725938965E+03  0.47000000000E+01 0. -1.
<mgrwt>
<rscale>  0 0.24557458E+03</rscale>
<asrwt>0</asrwt>
<pdfrwt beam="1">  1        5 0.15125598E+00 0.24557483E+03</pdfrwt>
<pdfrwt beam="2">  1       -5 0.12822462E-01 0.24557483E+03</pdfrwt>
<totfact> 0.11771041E+01</totfact>
</mgrwt>
</event>
